 Entering Gaussian System, Link 0=g16
 Initial command:
 /sw/apps/gaussian-16.0/g16/l1.exe "/tmp/Gau-174715.inp" -scrdir="/tmp/"
 Entering Link 1 = /sw/apps/gaussian-16.0/g16/l1.exe PID=    174716.
  
 Copyright (c) 1988,1990,1992,1993,1995,1998,2003,2009,2016,
            Gaussian, Inc.  All Rights Reserved.
  
 This is part of the Gaussian(R) 16 program.  It is based on
 the Gaussian(R) 09 system (copyright 2009, Gaussian, Inc.),
 the Gaussian(R) 03 system (copyright 2003, Gaussian, Inc.),
 the Gaussian(R) 98 system (copyright 1998, Gaussian, Inc.),
 the Gaussian(R) 94 system (copyright 1995, Gaussian, Inc.),
 the Gaussian 92(TM) system (copyright 1992, Gaussian, Inc.),
 the Gaussian 90(TM) system (copyright 1990, Gaussian, Inc.),
 the Gaussian 88(TM) system (copyright 1988, Gaussian, Inc.),
 the Gaussian 86(TM) system (copyright 1986, Carnegie Mellon
 University), and the Gaussian 82(TM) system (copyright 1983,
 Carnegie Mellon University). Gaussian is a federally registered
 trademark of Gaussian, Inc.
  
 This software contains proprietary and confidential information,
 including trade secrets, belonging to Gaussian, Inc.
  
 This software is provided under written license and may be
 used, copied, transmitted, or stored only in accord with that
 written license.
  
 The following legend is applicable only to US Government
 contracts under FAR:
  
                    RESTRICTED RIGHTS LEGEND
  
 Use, reproduction and disclosure by the US Government is
 subject to restrictions as set forth in subparagraphs (a)
 and (c) of the Commercial Computer Software - Restricted
 Rights clause in FAR 52.227-19.
  
 Gaussian, Inc.
 340 Quinnipiac St., Bldg. 40, Wallingford CT 06492
  
  
 ---------------------------------------------------------------
 Warning -- This program may not be used in any manner that
 competes with the business of Gaussian, Inc. or will provide
 assistance to any competitor of Gaussian, Inc.  The licensee
 of this program is prohibited from giving any competitor of
 Gaussian, Inc. access to this program.  By using this program,
 the user acknowledges that Gaussian, Inc. is engaged in the
 business of creating and licensing software in the field of
 computational chemistry and represents and warrants to the
 licensee that it is not a competitor of Gaussian, Inc. and that
 it will not use this program in any manner prohibited above.
 ---------------------------------------------------------------
  

 Cite this work as:
 Gaussian 16, Revision A.03,
 M. J. Frisch, G. W. Trucks, H. B. Schlegel, G. E. Scuseria, 
 M. A. Robb, J. R. Cheeseman, G. Scalmani, V. Barone, 
 G. A. Petersson, H. Nakatsuji, X. Li, M. Caricato, A. V. Marenich, 
 J. Bloino, B. G. Janesko, R. Gomperts, B. Mennucci, H. P. Hratchian, 
 J. V. Ortiz, A. F. Izmaylov, J. L. Sonnenberg, D. Williams-Young, 
 F. Ding, F. Lipparini, F. Egidi, J. Goings, B. Peng, A. Petrone, 
 T. Henderson, D. Ranasinghe, V. G. Zakrzewski, J. Gao, N. Rega, 
 G. Zheng, W. Liang, M. Hada, M. Ehara, K. Toyota, R. Fukuda, 
 J. Hasegawa, M. Ishida, T. Nakajima, Y. Honda, O. Kitao, H. Nakai, 
 T. Vreven, K. Throssell, J. A. Montgomery, Jr., J. E. Peralta, 
 F. Ogliaro, M. J. Bearpark, J. J. Heyd, E. N. Brothers, K. N. Kudin, 
 V. N. Staroverov, T. A. Keith, R. Kobayashi, J. Normand, 
 K. Raghavachari, A. P. Rendell, J. C. Burant, S. S. Iyengar, 
 J. Tomasi, M. Cossi, J. M. Millam, M. Klene, C. Adamo, R. Cammi, 
 J. W. Ochterski, R. L. Martin, K. Morokuma, O. Farkas, 
 J. B. Foresman, and D. J. Fox, Gaussian, Inc., Wallingford CT, 2016.
 
 ******************************************
 Gaussian 16:  ES64L-G16RevA.03 25-Dec-2016
                 4-May-2022 
 ******************************************
 %nproc=24
 Will use up to   24 processors via shared memory.
 %mem=75GB
 --------------------------------
 #p wB97XD/Def2SVP td=(nstates=5)
 --------------------------------
 1/38=1,172=1/1;
 2/12=2,17=6,18=5,40=1/2;
 3/5=43,7=101,11=9,25=1,30=1,74=-58/1,2,3,8;
 4//1;
 5/5=2,38=5/2;
 8/6=1,10=1,108=5/1;
 9/41=5,42=1,70=2/14;
 6/7=2,8=2,9=2,10=2/1;
 99/5=1,9=1/99;
 Leave Link    1 at Wed May  4 14:22:58 2022, MaxMem= 10066329600 cpu:               0.9 elap:               0.0
 (Enter /sw/apps/gaussian-16.0/g16/l101.exe)
 ----------------------------------------------------
 step_1801_chromophore_9 TDDFT with wB97XD functional
 ----------------------------------------------------
 Symbolic Z-matrix:
 Charge =  0 Multiplicity = 1
 Mg                    36.484    0.417     29.643 
 C                     34.267    1.605     32.017 
 C                     38.893    0.438     32.056 
 C                     38.748    0.004     27.154 
 C                     34.009    1.117     27.155 
 N                     36.507    0.942     31.772 
 C                     35.517    1.41      32.57 
 C                     35.933    1.493     34.014 
 C                     37.507    1.383     33.908 
 C                     37.668    0.899     32.475 
 C                     38.325    2.704     34.081 
 C                     35.209    0.435     34.856 
 C                     35.618    0.254     36.372 
 C                     36.414    1.396     37.093 
 O                     36.556    2.528     36.627 
 O                     36.895    0.908     38.299 
 N                     38.486    0.143     29.63 
 C                     39.314    0.151     30.754 
 C                     40.62    -0.104     30.323 
 C                     40.652   -0.353     28.933 
 C                     39.262   -0.075     28.48 
 C                     41.707   -0.245     31.333 
 C                     41.823   -0.67      27.942 
 O                     41.635   -0.798     26.697 
 C                     43.262   -0.748     28.457 
 N                     36.364    0.452     27.51 
 C                     37.452    0.213     26.759 
 C                     37.08     0.19      25.215 
 C                     35.629    0.474     25.236 
 C                     35.311    0.71      26.71 
 C                     37.938    1.06      24.228 
 C                     34.625   -0.564     24.521 
 C                     34.168   -1.779     25.38 
 N                     34.479    1.071     29.603 
 C                     33.655    1.371     28.518 
 C                     32.398    1.917     29.013 
 C                     32.584    2.016     30.413 
 C                     33.839    1.464     30.692 
 C                     31.341    2.385     28.12 
 C                     32.04     2.507     31.574 
 O                     31.005    3.1       31.78 
 C                     33.04     2.21      32.705 
 C                     33.259    3.435     33.482 
 O                     33.966    4.395     33.169 
 O                     32.733    3.319     34.762 
 C                     32.899    4.539     35.6 
 C                     37.619    1.915     39.125 
 C                     38.374    1.043     40.087 
 C                     39.113    1.462     41.153 
 C                     39.341    2.927     41.589 
 C                     39.699    0.413     42.026 
 C                     40.867   -0.446     41.535 
 C                     41.91    -0.602     42.708 
 C                     43.181    0.321     42.496 
 C                     44.437   -0.559     42.465 
 C                     43.272    1.429     43.598 
 C                     43.488    2.824     42.969 
 C                     44.516    3.722     43.682 
 C                     45.498    4.42      42.804 
 C                     46.787    3.618     42.498 
 C                     45.775    5.94      43.226 
 C                     45.249    6.928     42.281 
 C                     45.68     8.361     42.613 
 C                     44.459    9.359     42.62 
 C                     43.469    9.122     43.837 
 C                     43.775    9.385     41.224 
 H                     39.648    0.471     32.844 
 H                     39.361   -0.275     26.295 
 H                     33.27     1.311     26.375 
 H                     35.77     2.514     34.358 
 H                     37.996    0.701     34.604 
 H                     37.728    3.608     34.206 
 H                     38.987    2.844     33.226 
 H                     39.103    2.583     34.835 
 H                     35.509   -0.469     34.326 
 H                     34.124    0.531     34.878 
 H                     36.327   -0.556     36.198 
 H                     34.895   -0.18      37.063 
 H                     42.235    0.674     31.587 
 H                     42.444   -0.938     30.926 
 H                     41.402   -0.82      32.207 
 H                     43.461    0.035     29.188 
 H                     43.888   -0.634     27.571 
 H                     43.451   -1.727     28.897 
 H                     37.192   -0.826     24.838 
 H                     35.384    1.374     24.671 
 H                     38.857    1.377     24.719 
 H                     37.34     1.913     23.906 
 H                     38.211    0.372     23.428 
 H                     34.939   -1.005     23.576 
 H                     33.716    0.01      24.338 
 H                     34.275   -2.711     24.826 
 H                     33.114   -1.7       25.646 
 H                     34.887   -1.857     26.196 
 H                     31.146    1.63      27.359 
 H                     31.726    3.237     27.559 
 H                     30.356    2.559     28.555 
 H                     32.625    1.459     33.377 
 H                     32.385    5.385     35.142 
 H                     33.971    4.733     35.627 
 H                     32.51     4.326     36.596 
 H                     36.934    2.627     39.586 
 H                     38.364    2.425     38.515 
 H                     38.193   -0.03      40.025 
 H                     40.238    3.356     41.143 
 H                     39.367    3.098     42.665 
 H                     38.474    3.479     41.224 
 H                     38.9     -0.214     42.423 
 H                     40.056    0.977     42.888 
 H                     41.348    0.018     40.674 
 H                     40.478   -1.453     41.382 
 H                     42.203   -1.651     42.662 
 H                     41.565   -0.521     43.739 
 H                     43.131    0.791     41.514 
 H                     44.28    -1.519     42.956 
 H                     45.255   -0.009     42.931 
 H                     44.754   -0.741     41.438 
 H                     44.105    1.215     44.268 
 H                     42.33     1.557     44.133 
 H                     42.502    3.286     43.028 
 H                     43.817    2.702     41.937 
 H                     45.049    3.205     44.48 
 H                     43.907    4.404     44.276 
 H                     44.936    4.541     41.878 
 H                     46.849    2.568     42.786 
 H                     47.669    4.021     42.997 
 H                     47.076    3.686     41.449 
 H                     46.856    6.076     43.236 
 H                     45.343    6.034     44.222 
 H                     44.185    6.866     42.051 
 H                     45.749    6.824     41.318 
 H                     46.397    8.73      41.88 
 H                     46.267    8.381     43.531 
 H                     44.951    10.325    42.729 
 H                     42.472    8.79      43.548 
 H                     43.327    10.051    44.389 
 H                     43.783    8.336     44.524 
 H                     42.74     9.104     41.418 
 H                     44.207    8.673     40.521 
 H                     43.821    10.366    40.75 
 
 ITRead=  0  0  0  0  0  0  0  0  0  0  0  0  0  0  0  0  0  0  0  0
 ITRead=  0  0  0  0  0  0  0  0  0  0  0  0  0  0  0  0  0  0  0  0
 ITRead=  0  0  0  0  0  0  0  0  0  0  0  0  0  0  0  0  0  0  0  0
 ITRead=  0  0  0  0  0  0  0  0  0  0  0  0  0  0  0  0  0  0  0  0
 ITRead=  0  0  0  0  0  0  0  0  0  0  0  0  0  0  0  0  0  0  0  0
 ITRead=  0  0  0  0  0  0  0  0  0  0  0  0  0  0  0  0  0  0  0  0
 ITRead=  0  0  0  0  0  0  0  0  0  0  0  0  0  0  0  0  0  0  0  0
 MicOpt= -1 -1 -1 -1 -1 -1 -1 -1 -1 -1 -1 -1 -1 -1 -1 -1 -1 -1 -1 -1
 MicOpt= -1 -1 -1 -1 -1 -1 -1 -1 -1 -1 -1 -1 -1 -1 -1 -1 -1 -1 -1 -1
 MicOpt= -1 -1 -1 -1 -1 -1 -1 -1 -1 -1 -1 -1 -1 -1 -1 -1 -1 -1 -1 -1
 MicOpt= -1 -1 -1 -1 -1 -1 -1 -1 -1 -1 -1 -1 -1 -1 -1 -1 -1 -1 -1 -1
 MicOpt= -1 -1 -1 -1 -1 -1 -1 -1 -1 -1 -1 -1 -1 -1 -1 -1 -1 -1 -1 -1
 MicOpt= -1 -1 -1 -1 -1 -1 -1 -1 -1 -1 -1 -1 -1 -1 -1 -1 -1 -1 -1 -1
 MicOpt= -1 -1 -1 -1 -1 -1 -1 -1 -1 -1 -1 -1 -1 -1 -1 -1 -1 -1 -1 -1
 NAtoms=    140 NQM=      140 NQMF=       0 NMMI=      0 NMMIF=      0
                NMic=       0 NMicF=      0.
                    Isotopes and Nuclear Properties:
 (Nuclear quadrupole moments (NQMom) in fm**2, nuclear magnetic moments (NMagM)
  in nuclear magnetons)

  Atom         1           2           3           4           5           6           7           8           9          10
 IAtWgt=          24          12          12          12          12          14          12          12          12          12
 AtmWgt=  23.9850450  12.0000000  12.0000000  12.0000000  12.0000000  14.0030740  12.0000000  12.0000000  12.0000000  12.0000000
 NucSpn=           0           0           0           0           0           2           0           0           0           0
 AtZEff=  -0.0000000  -0.0000000  -0.0000000  -0.0000000  -0.0000000  -0.0000000  -0.0000000  -0.0000000  -0.0000000  -0.0000000
 NQMom=    0.0000000   0.0000000   0.0000000   0.0000000   0.0000000   2.0440000   0.0000000   0.0000000   0.0000000   0.0000000
 NMagM=    0.0000000   0.0000000   0.0000000   0.0000000   0.0000000   0.4037610   0.0000000   0.0000000   0.0000000   0.0000000
 AtZNuc=  12.0000000   6.0000000   6.0000000   6.0000000   6.0000000   7.0000000   6.0000000   6.0000000   6.0000000   6.0000000

  Atom        11          12          13          14          15          16          17          18          19          20
 IAtWgt=          12          12          12          12          16          16          14          12          12          12
 AtmWgt=  12.0000000  12.0000000  12.0000000  12.0000000  15.9949146  15.9949146  14.0030740  12.0000000  12.0000000  12.0000000
 NucSpn=           0           0           0           0           0           0           2           0           0           0
 AtZEff=  -0.0000000  -0.0000000  -0.0000000  -0.0000000  -0.0000000  -0.0000000  -0.0000000  -0.0000000  -0.0000000  -0.0000000
 NQMom=    0.0000000   0.0000000   0.0000000   0.0000000   0.0000000   0.0000000   2.0440000   0.0000000   0.0000000   0.0000000
 NMagM=    0.0000000   0.0000000   0.0000000   0.0000000   0.0000000   0.0000000   0.4037610   0.0000000   0.0000000   0.0000000
 AtZNuc=   6.0000000   6.0000000   6.0000000   6.0000000   8.0000000   8.0000000   7.0000000   6.0000000   6.0000000   6.0000000

  Atom        21          22          23          24          25          26          27          28          29          30
 IAtWgt=          12          12          12          16          12          14          12          12          12          12
 AtmWgt=  12.0000000  12.0000000  12.0000000  15.9949146  12.0000000  14.0030740  12.0000000  12.0000000  12.0000000  12.0000000
 NucSpn=           0           0           0           0           0           2           0           0           0           0
 AtZEff=  -0.0000000  -0.0000000  -0.0000000  -0.0000000  -0.0000000  -0.0000000  -0.0000000  -0.0000000  -0.0000000  -0.0000000
 NQMom=    0.0000000   0.0000000   0.0000000   0.0000000   0.0000000   2.0440000   0.0000000   0.0000000   0.0000000   0.0000000
 NMagM=    0.0000000   0.0000000   0.0000000   0.0000000   0.0000000   0.4037610   0.0000000   0.0000000   0.0000000   0.0000000
 AtZNuc=   6.0000000   6.0000000   6.0000000   8.0000000   6.0000000   7.0000000   6.0000000   6.0000000   6.0000000   6.0000000

  Atom        31          32          33          34          35          36          37          38          39          40
 IAtWgt=          12          12          12          14          12          12          12          12          12          12
 AtmWgt=  12.0000000  12.0000000  12.0000000  14.0030740  12.0000000  12.0000000  12.0000000  12.0000000  12.0000000  12.0000000
 NucSpn=           0           0           0           2           0           0           0           0           0           0
 AtZEff=  -0.0000000  -0.0000000  -0.0000000  -0.0000000  -0.0000000  -0.0000000  -0.0000000  -0.0000000  -0.0000000  -0.0000000
 NQMom=    0.0000000   0.0000000   0.0000000   2.0440000   0.0000000   0.0000000   0.0000000   0.0000000   0.0000000   0.0000000
 NMagM=    0.0000000   0.0000000   0.0000000   0.4037610   0.0000000   0.0000000   0.0000000   0.0000000   0.0000000   0.0000000
 AtZNuc=   6.0000000   6.0000000   6.0000000   7.0000000   6.0000000   6.0000000   6.0000000   6.0000000   6.0000000   6.0000000

  Atom        41          42          43          44          45          46          47          48          49          50
 IAtWgt=          16          12          12          16          16          12          12          12          12          12
 AtmWgt=  15.9949146  12.0000000  12.0000000  15.9949146  15.9949146  12.0000000  12.0000000  12.0000000  12.0000000  12.0000000
 NucSpn=           0           0           0           0           0           0           0           0           0           0
 AtZEff=  -0.0000000  -0.0000000  -0.0000000  -0.0000000  -0.0000000  -0.0000000  -0.0000000  -0.0000000  -0.0000000  -0.0000000
 NQMom=    0.0000000   0.0000000   0.0000000   0.0000000   0.0000000   0.0000000   0.0000000   0.0000000   0.0000000   0.0000000
 NMagM=    0.0000000   0.0000000   0.0000000   0.0000000   0.0000000   0.0000000   0.0000000   0.0000000   0.0000000   0.0000000
 AtZNuc=   8.0000000   6.0000000   6.0000000   8.0000000   8.0000000   6.0000000   6.0000000   6.0000000   6.0000000   6.0000000

  Atom        51          52          53          54          55          56          57          58          59          60
 IAtWgt=          12          12          12          12          12          12          12          12          12          12
 AtmWgt=  12.0000000  12.0000000  12.0000000  12.0000000  12.0000000  12.0000000  12.0000000  12.0000000  12.0000000  12.0000000
 NucSpn=           0           0           0           0           0           0           0           0           0           0
 AtZEff=  -0.0000000  -0.0000000  -0.0000000  -0.0000000  -0.0000000  -0.0000000  -0.0000000  -0.0000000  -0.0000000  -0.0000000
 NQMom=    0.0000000   0.0000000   0.0000000   0.0000000   0.0000000   0.0000000   0.0000000   0.0000000   0.0000000   0.0000000
 NMagM=    0.0000000   0.0000000   0.0000000   0.0000000   0.0000000   0.0000000   0.0000000   0.0000000   0.0000000   0.0000000
 AtZNuc=   6.0000000   6.0000000   6.0000000   6.0000000   6.0000000   6.0000000   6.0000000   6.0000000   6.0000000   6.0000000

  Atom        61          62          63          64          65          66          67          68          69          70
 IAtWgt=          12          12          12          12          12          12           1           1           1           1
 AtmWgt=  12.0000000  12.0000000  12.0000000  12.0000000  12.0000000  12.0000000   1.0078250   1.0078250   1.0078250   1.0078250
 NucSpn=           0           0           0           0           0           0           1           1           1           1
 AtZEff=  -0.0000000  -0.0000000  -0.0000000  -0.0000000  -0.0000000  -0.0000000  -0.0000000  -0.0000000  -0.0000000  -0.0000000
 NQMom=    0.0000000   0.0000000   0.0000000   0.0000000   0.0000000   0.0000000   0.0000000   0.0000000   0.0000000   0.0000000
 NMagM=    0.0000000   0.0000000   0.0000000   0.0000000   0.0000000   0.0000000   2.7928460   2.7928460   2.7928460   2.7928460
 AtZNuc=   6.0000000   6.0000000   6.0000000   6.0000000   6.0000000   6.0000000   1.0000000   1.0000000   1.0000000   1.0000000

  Atom        71          72          73          74          75          76          77          78          79          80
 IAtWgt=           1           1           1           1           1           1           1           1           1           1
 AtmWgt=   1.0078250   1.0078250   1.0078250   1.0078250   1.0078250   1.0078250   1.0078250   1.0078250   1.0078250   1.0078250
 NucSpn=           1           1           1           1           1           1           1           1           1           1
 AtZEff=  -0.0000000  -0.0000000  -0.0000000  -0.0000000  -0.0000000  -0.0000000  -0.0000000  -0.0000000  -0.0000000  -0.0000000
 NQMom=    0.0000000   0.0000000   0.0000000   0.0000000   0.0000000   0.0000000   0.0000000   0.0000000   0.0000000   0.0000000
 NMagM=    2.7928460   2.7928460   2.7928460   2.7928460   2.7928460   2.7928460   2.7928460   2.7928460   2.7928460   2.7928460
 AtZNuc=   1.0000000   1.0000000   1.0000000   1.0000000   1.0000000   1.0000000   1.0000000   1.0000000   1.0000000   1.0000000

  Atom        81          82          83          84          85          86          87          88          89          90
 IAtWgt=           1           1           1           1           1           1           1           1           1           1
 AtmWgt=   1.0078250   1.0078250   1.0078250   1.0078250   1.0078250   1.0078250   1.0078250   1.0078250   1.0078250   1.0078250
 NucSpn=           1           1           1           1           1           1           1           1           1           1
 AtZEff=  -0.0000000  -0.0000000  -0.0000000  -0.0000000  -0.0000000  -0.0000000  -0.0000000  -0.0000000  -0.0000000  -0.0000000
 NQMom=    0.0000000   0.0000000   0.0000000   0.0000000   0.0000000   0.0000000   0.0000000   0.0000000   0.0000000   0.0000000
 NMagM=    2.7928460   2.7928460   2.7928460   2.7928460   2.7928460   2.7928460   2.7928460   2.7928460   2.7928460   2.7928460
 AtZNuc=   1.0000000   1.0000000   1.0000000   1.0000000   1.0000000   1.0000000   1.0000000   1.0000000   1.0000000   1.0000000

  Atom        91          92          93          94          95          96          97          98          99         100
 IAtWgt=           1           1           1           1           1           1           1           1           1           1
 AtmWgt=   1.0078250   1.0078250   1.0078250   1.0078250   1.0078250   1.0078250   1.0078250   1.0078250   1.0078250   1.0078250
 NucSpn=           1           1           1           1           1           1           1           1           1           1
 AtZEff=  -0.0000000  -0.0000000  -0.0000000  -0.0000000  -0.0000000  -0.0000000  -0.0000000  -0.0000000  -0.0000000  -0.0000000
 NQMom=    0.0000000   0.0000000   0.0000000   0.0000000   0.0000000   0.0000000   0.0000000   0.0000000   0.0000000   0.0000000
 NMagM=    2.7928460   2.7928460   2.7928460   2.7928460   2.7928460   2.7928460   2.7928460   2.7928460   2.7928460   2.7928460
 AtZNuc=   1.0000000   1.0000000   1.0000000   1.0000000   1.0000000   1.0000000   1.0000000   1.0000000   1.0000000   1.0000000

  Atom       101         102         103         104         105         106         107         108         109         110
 IAtWgt=           1           1           1           1           1           1           1           1           1           1
 AtmWgt=   1.0078250   1.0078250   1.0078250   1.0078250   1.0078250   1.0078250   1.0078250   1.0078250   1.0078250   1.0078250
 NucSpn=           1           1           1           1           1           1           1           1           1           1
 AtZEff=  -0.0000000  -0.0000000  -0.0000000  -0.0000000  -0.0000000  -0.0000000  -0.0000000  -0.0000000  -0.0000000  -0.0000000
 NQMom=    0.0000000   0.0000000   0.0000000   0.0000000   0.0000000   0.0000000   0.0000000   0.0000000   0.0000000   0.0000000
 NMagM=    2.7928460   2.7928460   2.7928460   2.7928460   2.7928460   2.7928460   2.7928460   2.7928460   2.7928460   2.7928460
 AtZNuc=   1.0000000   1.0000000   1.0000000   1.0000000   1.0000000   1.0000000   1.0000000   1.0000000   1.0000000   1.0000000

  Atom       111         112         113         114         115         116         117         118         119         120
 IAtWgt=           1           1           1           1           1           1           1           1           1           1
 AtmWgt=   1.0078250   1.0078250   1.0078250   1.0078250   1.0078250   1.0078250   1.0078250   1.0078250   1.0078250   1.0078250
 NucSpn=           1           1           1           1           1           1           1           1           1           1
 AtZEff=  -0.0000000  -0.0000000  -0.0000000  -0.0000000  -0.0000000  -0.0000000  -0.0000000  -0.0000000  -0.0000000  -0.0000000
 NQMom=    0.0000000   0.0000000   0.0000000   0.0000000   0.0000000   0.0000000   0.0000000   0.0000000   0.0000000   0.0000000
 NMagM=    2.7928460   2.7928460   2.7928460   2.7928460   2.7928460   2.7928460   2.7928460   2.7928460   2.7928460   2.7928460
 AtZNuc=   1.0000000   1.0000000   1.0000000   1.0000000   1.0000000   1.0000000   1.0000000   1.0000000   1.0000000   1.0000000

  Atom       121         122         123         124         125         126         127         128         129         130
 IAtWgt=           1           1           1           1           1           1           1           1           1           1
 AtmWgt=   1.0078250   1.0078250   1.0078250   1.0078250   1.0078250   1.0078250   1.0078250   1.0078250   1.0078250   1.0078250
 NucSpn=           1           1           1           1           1           1           1           1           1           1
 AtZEff=  -0.0000000  -0.0000000  -0.0000000  -0.0000000  -0.0000000  -0.0000000  -0.0000000  -0.0000000  -0.0000000  -0.0000000
 NQMom=    0.0000000   0.0000000   0.0000000   0.0000000   0.0000000   0.0000000   0.0000000   0.0000000   0.0000000   0.0000000
 NMagM=    2.7928460   2.7928460   2.7928460   2.7928460   2.7928460   2.7928460   2.7928460   2.7928460   2.7928460   2.7928460
 AtZNuc=   1.0000000   1.0000000   1.0000000   1.0000000   1.0000000   1.0000000   1.0000000   1.0000000   1.0000000   1.0000000

  Atom       131         132         133         134         135         136         137         138         139         140
 IAtWgt=           1           1           1           1           1           1           1           1           1           1
 AtmWgt=   1.0078250   1.0078250   1.0078250   1.0078250   1.0078250   1.0078250   1.0078250   1.0078250   1.0078250   1.0078250
 NucSpn=           1           1           1           1           1           1           1           1           1           1
 AtZEff=  -0.0000000  -0.0000000  -0.0000000  -0.0000000  -0.0000000  -0.0000000  -0.0000000  -0.0000000  -0.0000000  -0.0000000
 NQMom=    0.0000000   0.0000000   0.0000000   0.0000000   0.0000000   0.0000000   0.0000000   0.0000000   0.0000000   0.0000000
 NMagM=    2.7928460   2.7928460   2.7928460   2.7928460   2.7928460   2.7928460   2.7928460   2.7928460   2.7928460   2.7928460
 AtZNuc=   1.0000000   1.0000000   1.0000000   1.0000000   1.0000000   1.0000000   1.0000000   1.0000000   1.0000000   1.0000000
 Leave Link  101 at Wed May  4 14:22:58 2022, MaxMem= 10066329600 cpu:               2.9 elap:               0.1
 (Enter /sw/apps/gaussian-16.0/g16/l202.exe)
 Stoichiometry    C55H74MgN4O6
 Framework group  C1[X(C55H74MgN4O6)]
 Deg. of freedom   414
 Full point group                 C1      NOp   1
 Largest Abelian subgroup         C1      NOp   1
 Largest concise Abelian subgroup C1      NOp   1
                         Standard orientation:                         
 ---------------------------------------------------------------------
 Center     Atomic      Atomic             Coordinates (Angstroms)
 Number     Number       Type             X           Y           Z
 ---------------------------------------------------------------------
      1         12           0       -5.278042    0.638932   -0.257789
      2          6           0       -4.017769   -2.577973   -0.097964
      3          6           0       -2.077245    1.744863   -0.655411
      4          6           0       -6.454615    3.758148    0.356667
      5          6           0       -8.424411   -0.667417    0.837467
      6          7           0       -3.325620   -0.351587   -0.383146
      7          6           0       -3.001456   -1.664177   -0.293977
      8          6           0       -1.547883   -1.918989   -0.589401
      9          6           0       -0.930705   -0.467754   -0.471836
     10          6           0       -2.189977    0.385225   -0.489929
     11          6           0       -0.127549   -0.140255    0.828848
     12          6           0       -1.379008   -2.648940   -1.927742
     13          6           0        0.078498   -2.876204   -2.495480
     14          6           0        1.306028   -2.752486   -1.528276
     15          8           0        1.205806   -2.707053   -0.300825
     16          8           0        2.466396   -2.713890   -2.287222
     17          7           0       -4.416003    2.466487   -0.271199
     18          6           0       -3.062061    2.724053   -0.493740
     19          6           0       -2.879269    4.110107   -0.450573
     20          6           0       -4.112677    4.775462   -0.274132
     21          6           0       -5.090718    3.677333   -0.045786
     22          6           0       -1.534064    4.678106   -0.749488
     23          6           0       -4.487553    6.290612   -0.141470
     24          8           0       -5.673231    6.673614    0.080410
     25          6           0       -3.391861    7.357798   -0.192486
     26          7           0       -7.162736    1.411132    0.387929
     27          6           0       -7.353377    2.735007    0.513931
     28          6           0       -8.860140    3.055496    0.900970
     29          6           0       -9.457230    1.705547    0.988265
     30          6           0       -8.287080    0.757556    0.740154
     31          6           0       -9.130607    4.008499    2.119931
     32          6           0      -10.754642    1.371828    0.092699
     33          6           0      -10.479676    0.906846   -1.367143
     34          7           0       -6.108226   -1.260776    0.131117
     35          6           0       -7.362805   -1.605221    0.634693
     36          6           0       -7.407336   -3.044968    0.854544
     37          6           0       -6.095174   -3.487115    0.559359
     38          6           0       -5.386515   -2.369141    0.106032
     39          6           0       -8.570009   -3.714012    1.432726
     40          6           0       -5.246539   -4.564779    0.617652
     41          8           0       -5.426964   -5.701079    0.993921
     42          6           0       -3.869970   -4.085774    0.124720
     43          6           0       -2.845070   -4.511452    1.084248
     44          8           0       -2.586791   -3.992516    2.172097
     45          8           0       -2.011624   -5.476538    0.534240
     46          6           0       -0.959873   -5.972838    1.464673
     47          6           0        3.722845   -2.664421   -1.487603
     48          6           0        4.720754   -2.191636   -2.505691
     49          6           0        6.068728   -2.087052   -2.332295
     50          6           0        6.854073   -2.421018   -1.043883
     51          6           0        6.874767   -1.682913   -3.512506
     52          6           0        6.816424   -0.247504   -4.041071
     53          6           0        8.278394    0.217813   -4.407458
     54          6           0        8.877967    1.198455   -3.316052
     55          6           0        9.252143    2.525066   -3.989099
     56          6           0       10.098892    0.553697   -2.578505
     57          6           0        9.947320    0.668389   -1.044818
     58          6           0       11.225102    1.057715   -0.278492
     59          6           0       11.070376    2.115651    0.760374
     60          6           0       11.239338    3.566637    0.246123
     61          6           0       11.877849    1.817234    2.110984
     62          6           0       11.025043    1.510325    3.261797
     63          6           0       11.808527    1.405332    4.575038
     64          6           0       11.454444    0.090968    5.371257
     65          6           0       11.992972   -1.225827    4.668835
     66          6           0        9.940307    0.064498    5.723444
     67          1           0       -1.041276    2.071922   -0.764314
     68          1           0       -6.967210    4.719844    0.418948
     69          1           0       -9.398942   -1.038442    1.161175
     70          1           0       -1.115550   -2.450781    0.257730
     71          1           0       -0.245926   -0.163593   -1.263811
     72          1           0       -0.109660   -0.933612    1.576854
     73          1           0       -0.526965    0.761835    1.293143
     74          1           0        0.857871    0.258196    0.586719
     75          1           0       -1.883526   -1.947903   -2.592667
     76          1           0       -1.844220   -3.632964   -1.974643
     77          1           0        0.089972   -1.986891   -3.126391
     78          1           0        0.247369   -3.692871   -3.197693
     79          1           0       -0.879350    4.814409    0.111112
     80          1           0       -1.685875    5.660570   -1.197580
     81          1           0       -1.042725    4.186068   -1.588541
     82          1           0       -2.507597    7.040149    0.359082
     83          1           0       -3.840086    8.247446    0.251911
     84          1           0       -3.128485    7.576663   -1.227132
     85          1           0       -9.343538    3.555052    0.062102
     86          1           0       -9.870628    1.508504    1.977975
     87          1           0       -8.215172    4.534362    2.387471
     88          1           0       -9.508572    3.412201    2.950875
     89          1           0       -9.835266    4.745961    1.735901
     90          1           0      -11.513809    2.145981   -0.009554
     91          1           0      -11.215346    0.512194    0.580581
     92          1           0      -11.100332    1.455296   -2.074941
     93          1           0      -10.723966   -0.147230   -1.498138
     94          1           0       -9.459369    1.217434   -1.593879
     95          1           0       -9.472428   -3.387139    0.917009
     96          1           0       -8.697237   -3.348518    2.452077
     97          1           0       -8.617038   -4.800635    1.350476
     98          1           0       -3.640161   -4.548014   -0.835140
     99          1           0       -1.417342   -6.437281    2.339139
    100          1           0       -0.398324   -5.090423    1.770543
    101          1           0       -0.327396   -6.676429    0.922789
    102          1           0        3.949245   -3.628274   -1.031073
    103          1           0        3.649699   -1.880404   -0.734482
    104          1           0        4.360572   -2.066197   -3.526704
    105          1           0        6.975912   -1.552270   -0.397356
    106          1           0        7.827928   -2.886294   -1.194937
    107          1           0        6.251640   -3.162921   -0.518266
    108          1           0        6.715178   -2.397652   -4.320479
    109          1           0        7.899751   -1.863621   -3.187942
    110          1           0        6.395004    0.420260   -3.289756
    111          1           0        6.294969   -0.282626   -4.997957
    112          1           0        8.157181    0.746618   -5.352995
    113          1           0        9.022468   -0.532535   -4.675560
    114          1           0        8.106932    1.449235   -2.587808
    115          1           0        9.402620    2.414662   -5.062643
    116          1           0       10.147497    2.916591   -3.505538
    117          1           0        8.477540    3.273520   -3.821324
    118          1           0       11.018249    1.057682   -2.877449
    119          1           0       10.148378   -0.525659   -2.728556
    120          1           0        9.635923   -0.332320   -0.743598
    121          1           0        9.186442    1.414994   -0.817234
    122          1           0       12.052379    1.318364   -0.938686
    123          1           0       11.595077    0.112516    0.119703
    124          1           0       10.037240    1.978112    1.079238
    125          1           0       11.298124    3.754330   -0.826539
    126          1           0       12.162321    4.036005    0.588365
    127          1           0       10.484679    4.239447    0.653998
    128          1           0       12.416906    2.728575    2.367951
    129          1           0       12.554072    1.001974    1.854957
    130          1           0       10.319855    0.687443    3.141726
    131          1           0       10.406744    2.373937    3.506880
    132          1           0       11.587220    2.249837    5.227246
    133          1           0       12.875658    1.534160    4.395238
    134          1           0       11.977364    0.244592    6.314685
    135          1           0       11.212079   -1.900395    4.318239
    136          1           0       12.595023   -1.803426    5.370137
    137          1           0       12.567114   -1.046387    3.759702
    138          1           0        9.568139   -0.856292    5.274602
    139          1           0        9.388038    0.906929    5.307407
    140          1           0        9.757254    0.065414    6.798453
 ---------------------------------------------------------------------
 Rotational constants (GHZ):           0.0404754           0.0105434           0.0095620
 Leave Link  202 at Wed May  4 14:22:58 2022, MaxMem= 10066329600 cpu:               0.2 elap:               0.0
 (Enter /sw/apps/gaussian-16.0/g16/l301.exe)
 Standard basis: def2SVP (5D, 7F)
 Ernie: Thresh=  0.10000D-02 Tol=  0.10000D-05 Strict=F.
 There are  1364 symmetry adapted cartesian basis functions of A   symmetry.
 There are  1298 symmetry adapted basis functions of A   symmetry.
  1298 basis functions,  2180 primitive gaussians,  1364 cartesian basis functions
   246 alpha electrons      246 beta electrons
       nuclear repulsion energy      9592.1900678569 Hartrees.
 IExCor= 4639 DFT=T Ex+Corr=wB97XD ExCW=0 ScaHFX=  1.000000
 ScaDFX=  1.000000  1.000000  1.000000  1.000000 ScalE2=  1.000000  1.000000
 IRadAn=      5 IRanWt=     -1 IRanGd=            0 ICorTp=0 IEmpDi=121
 HFx  wShort=  0.000000 wLong=  0.200000 cFull=  0.222036 cShort=  0.000000 cLong=  0.777964
 DFx  wShort=  0.000000 wLong=  0.200000 cFull=  0.000000 cShort=  0.000000 cLong=  1.000000
 NAtoms=  140 NActive=  140 NUniq=  140 SFac= 1.00D+00 NAtFMM=   60 NAOKFM=T Big=T
 Integral buffers will be    131072 words long.
 Raffenetti 1 integral format.
 Two-electron integral symmetry is turned on.
 R6Disp:  Grimme-D2 Dispersion energy=       -0.1351405122 Hartrees.
 Nuclear repulsion after empirical dispersion term =     9592.0549273446 Hartrees.
 Leave Link  301 at Wed May  4 14:22:58 2022, MaxMem= 10066329600 cpu:               1.3 elap:               0.1
 (Enter /sw/apps/gaussian-16.0/g16/l302.exe)
 NPDir=0 NMtPBC=     1 NCelOv=     1 NCel=       1 NClECP=     1 NCelD=      1
         NCelK=      1 NCelE2=     1 NClLst=     1 CellRange=     0.0.
 One-electron integrals computed using PRISM.
 One-electron integral symmetry used in STVInt
   1 Symmetry operations used in ECPInt.
 ECPInt:  NShTT=  192510 NPrTT=  683786 LenC2=   94303 LenP2D=  206832.
 LDataN:  DoStor=T MaxTD1= 4 Len=   56
 NBasis=  1298 RedAO= T EigKep=  2.59D-04  NBF=  1298
 NBsUse=  1298 1.00D-06 EigRej= -1.00D+00 NBFU=  1298
 Precomputing XC quadrature grid using
 IXCGrd= 4 IRadAn=           5 IRanWt=          -1 IRanGd=           0 AccXCQ= 0.00D+00.
 Generated NRdTot=       0 NPtTot=           0 NUsed=           0 NTot=          32
 NSgBfM=  1064  1061  1062  1064  1064 MxSgAt=   140 MxSgA2=   140.
 Leave Link  302 at Wed May  4 14:23:01 2022, MaxMem= 10066329600 cpu:              77.1 elap:               3.2
 (Enter /sw/apps/gaussian-16.0/g16/l303.exe)
 DipDrv:  MaxL=1.
 Leave Link  303 at Wed May  4 14:23:02 2022, MaxMem= 10066329600 cpu:               5.8 elap:               0.3
 (Enter /sw/apps/gaussian-16.0/g16/l308.exe)
 Leave Link  308 at Wed May  4 14:23:02 2022, MaxMem= 10066329600 cpu:              12.0 elap:               0.6
 (Enter /sw/apps/gaussian-16.0/g16/l401.exe)
 ExpMin= 3.36D-02 ExpMax= 4.95D+03 ExpMxC= 7.45D+02 IAcc=3 IRadAn=         5 AccDes= 0.00D+00
 Harris functional with IExCor= 4639 and IRadAn=       5 diagonalized for initial guess.
 HarFok:  IExCor= 4639 AccDes= 0.00D+00 IRadAn=         5 IDoV= 1 UseB2=F ITyADJ=14
 ICtDFT=  3500011 ScaDFX=  1.000000  1.000000  1.000000  1.000000
 FoFCou: FMM=F IPFlag=           0 FMFlag=      100000 FMFlg1=        2001
         NFxFlg=           0 DoJE=T BraDBF=F KetDBF=T FulRan=T
         wScrn=  0.000000 ICntrl=       500 IOpCl=  0 I1Cent=   200000004 NGrid=           0
         NMat0=    1 NMatS0=      1 NMatT0=    0 NMatD0=    1 NMtDS0=    0 NMtDT0=    0
 Petite list used in FoFCou.
 Harris En= -2878.01952031157    
 JPrj=0 DoOrth=F DoCkMO=F.
 Leave Link  401 at Wed May  4 14:23:08 2022, MaxMem= 10066329600 cpu:             133.4 elap:               5.6
 (Enter /sw/apps/gaussian-16.0/g16/l502.exe)
 Integral symmetry usage will be decided dynamically.
 Closed shell SCF:
 Using DIIS extrapolation, IDIIS=  1040.
 NGot= 10066329600 LenX= 10062561258 LenY= 10060699398
 Requested convergence on RMS density matrix=1.00D-08 within 128 cycles.
 Requested convergence on MAX density matrix=1.00D-06.
 Requested convergence on             energy=1.00D-06.
 No special actions if energy rises.
 Fock matrices will be formed incrementally for  20 cycles.

 Cycle   1  Pass 1  IDiag  1:
 FoFJK:  IHMeth= 1 ICntrl=       0 DoSepK=T KAlg= 0 I1Cent=           0 FoldK=F
 IRaf=         1 NMat=       1 IRICut=       1 DoRegI=T DoRafI=F ISym2E= 0 IDoP0=0 IntGTp=1.
 FoFCou: FMM=T IPFlag=           0 FMFlag=      100000 FMFlg1=        2001
         NFxFlg=           0 DoJE=T BraDBF=F KetDBF=F FulRan=T
         wScrn=  0.000000 ICntrl=       500 IOpCl=  0 I1Cent=           0 NGrid=           0
         NMat0=    1 NMatS0=      1 NMatT0=    0 NMatD0=    1 NMtDS0=    0 NMtDT0=    0
 Symmetry not used in FoFCou.
 FMM levels:  10  Number of levels for PrismC:   9
 E= -3007.20835391257    
 DIIS: error= 2.88D-02 at cycle   1 NSaved=   1.
 NSaved= 1 IEnMin= 1 EnMin= -3007.20835391257     IErMin= 1 ErrMin= 2.88D-02
 ErrMax= 2.88D-02  0.00D+00 EMaxC= 1.00D-01 BMatC= 1.49D+00 BMatP= 1.49D+00
 IDIUse=3 WtCom= 7.12D-01 WtEn= 2.88D-01
 Coeff-Com:  0.100D+01
 Coeff-En:   0.100D+01
 Coeff:      0.100D+01
 Gap=     0.154 Goal=   None    Shift=    0.000
 GapD=    0.154 DampG=1.000 DampE=0.500 DampFc=0.5000 IDamp=-1.
 Damping current iteration by 5.00D-01
 RMSDP=1.58D-03 MaxDP=1.97D-01              OVMax= 1.56D-01

 Cycle   2  Pass 1  IDiag  1:
 RMSU=  7.80D-04    CP:  9.85D-01
 E= -3007.53254001734     Delta-E=       -0.324186104775 Rises=F Damp=T
 DIIS: error= 1.18D-02 at cycle   2 NSaved=   2.
 NSaved= 2 IEnMin= 2 EnMin= -3007.53254001734     IErMin= 2 ErrMin= 1.18D-02
 ErrMax= 1.18D-02  0.00D+00 EMaxC= 1.00D-01 BMatC= 2.89D-01 BMatP= 1.49D+00
 IDIUse=3 WtCom= 8.82D-01 WtEn= 1.18D-01
 Coeff-Com: -0.348D+00 0.135D+01
 Coeff-En:   0.000D+00 0.100D+01
 Coeff:     -0.307D+00 0.131D+01
 Gap=     0.169 Goal=   None    Shift=    0.000
 RMSDP=7.29D-04 MaxDP=1.01D-01 DE=-3.24D-01 OVMax= 1.20D-01

 Cycle   3  Pass 1  IDiag  1:
 RMSU=  6.76D-04    CP:  9.76D-01  1.33D+00
 E= -3007.76944145408     Delta-E=       -0.236901436736 Rises=F Damp=F
 DIIS: error= 1.53D-02 at cycle   3 NSaved=   3.
 NSaved= 3 IEnMin= 3 EnMin= -3007.76944145408     IErMin= 2 ErrMin= 1.18D-02
 ErrMax= 1.53D-02  0.00D+00 EMaxC= 1.00D-01 BMatC= 1.40D-01 BMatP= 2.89D-01
 IDIUse=3 WtCom= 8.47D-01 WtEn= 1.53D-01
 Coeff-Com: -0.310D+00 0.688D+00 0.622D+00
 Coeff-En:   0.000D+00 0.000D+00 0.100D+01
 Coeff:     -0.262D+00 0.582D+00 0.680D+00
 Gap=     0.158 Goal=   None    Shift=    0.000
 RMSDP=4.39D-04 MaxDP=4.95D-02 DE=-2.37D-01 OVMax= 7.72D-02

 Cycle   4  Pass 1  IDiag  1:
 RMSU=  2.27D-04    CP:  9.71D-01  1.63D+00  5.64D-01
 E= -3007.86847939329     Delta-E=       -0.099037939213 Rises=F Damp=F
 DIIS: error= 5.88D-03 at cycle   4 NSaved=   4.
 NSaved= 4 IEnMin= 4 EnMin= -3007.86847939329     IErMin= 4 ErrMin= 5.88D-03
 ErrMax= 5.88D-03  0.00D+00 EMaxC= 1.00D-01 BMatC= 2.35D-02 BMatP= 1.40D-01
 IDIUse=3 WtCom= 9.41D-01 WtEn= 5.88D-02
 Coeff-Com: -0.113D+00 0.226D+00 0.378D+00 0.509D+00
 Coeff-En:   0.000D+00 0.000D+00 0.120D+00 0.880D+00
 Coeff:     -0.106D+00 0.213D+00 0.362D+00 0.531D+00
 Gap=     0.156 Goal=   None    Shift=    0.000
 RMSDP=1.39D-04 MaxDP=1.71D-02 DE=-9.90D-02 OVMax= 2.22D-02

 Cycle   5  Pass 1  IDiag  1:
 RMSU=  6.10D-05    CP:  9.71D-01  1.59D+00  7.01D-01  6.58D-01
 E= -3007.88723625188     Delta-E=       -0.018756858586 Rises=F Damp=F
 DIIS: error= 8.16D-04 at cycle   5 NSaved=   5.
 NSaved= 5 IEnMin= 5 EnMin= -3007.88723625188     IErMin= 5 ErrMin= 8.16D-04
 ErrMax= 8.16D-04  0.00D+00 EMaxC= 1.00D-01 BMatC= 4.89D-04 BMatP= 2.35D-02
 IDIUse=3 WtCom= 9.92D-01 WtEn= 8.16D-03
 Coeff-Com: -0.306D-01 0.582D-01 0.129D+00 0.238D+00 0.604D+00
 Coeff-En:   0.000D+00 0.000D+00 0.000D+00 0.000D+00 0.100D+01
 Coeff:     -0.303D-01 0.578D-01 0.128D+00 0.236D+00 0.608D+00
 Gap=     0.156 Goal=   None    Shift=    0.000
 RMSDP=2.61D-05 MaxDP=5.05D-03 DE=-1.88D-02 OVMax= 4.29D-03

 Cycle   6  Pass 1  IDiag  1:
 RMSU=  2.20D-05    CP:  9.71D-01  1.59D+00  7.03D-01  7.09D-01  8.98D-01
 E= -3007.88761137594     Delta-E=       -0.000375124067 Rises=F Damp=F
 DIIS: error= 3.44D-04 at cycle   6 NSaved=   6.
 NSaved= 6 IEnMin= 6 EnMin= -3007.88761137594     IErMin= 6 ErrMin= 3.44D-04
 ErrMax= 3.44D-04  0.00D+00 EMaxC= 1.00D-01 BMatC= 6.52D-05 BMatP= 4.89D-04
 IDIUse=3 WtCom= 9.97D-01 WtEn= 3.44D-03
 Coeff-Com:  0.970D-02-0.209D-01-0.164D-01 0.116D-02 0.276D+00 0.750D+00
 Coeff-En:   0.000D+00 0.000D+00 0.000D+00 0.000D+00 0.000D+00 0.100D+01
 Coeff:      0.967D-02-0.208D-01-0.163D-01 0.115D-02 0.275D+00 0.751D+00
 Gap=     0.157 Goal=   None    Shift=    0.000
 RMSDP=1.17D-05 MaxDP=1.50D-03 DE=-3.75D-04 OVMax= 3.56D-03

 Cycle   7  Pass 1  IDiag  1:
 RMSU=  7.85D-06    CP:  9.71D-01  1.60D+00  7.08D-01  7.27D-01  1.00D+00
                    CP:  9.46D-01
 E= -3007.88768631732     Delta-E=       -0.000074941379 Rises=F Damp=F
 DIIS: error= 7.44D-05 at cycle   7 NSaved=   7.
 NSaved= 7 IEnMin= 7 EnMin= -3007.88768631732     IErMin= 7 ErrMin= 7.44D-05
 ErrMax= 7.44D-05  0.00D+00 EMaxC= 1.00D-01 BMatC= 5.55D-06 BMatP= 6.52D-05
 IDIUse=1 WtCom= 1.00D+00 WtEn= 0.00D+00
 Coeff-Com:  0.603D-02-0.122D-01-0.162D-01-0.213D-01 0.379D-01 0.269D+00
 Coeff-Com:  0.737D+00
 Coeff:      0.603D-02-0.122D-01-0.162D-01-0.213D-01 0.379D-01 0.269D+00
 Coeff:      0.737D+00
 Gap=     0.157 Goal=   None    Shift=    0.000
 RMSDP=4.85D-06 MaxDP=9.53D-04 DE=-7.49D-05 OVMax= 1.36D-03

 Cycle   8  Pass 1  IDiag  1:
 RMSU=  3.12D-06    CP:  9.71D-01  1.60D+00  7.10D-01  7.31D-01  1.03D+00
                    CP:  1.07D+00  1.07D+00
 E= -3007.88769575998     Delta-E=       -0.000009442658 Rises=F Damp=F
 DIIS: error= 2.78D-05 at cycle   8 NSaved=   8.
 NSaved= 8 IEnMin= 8 EnMin= -3007.88769575998     IErMin= 8 ErrMin= 2.78D-05
 ErrMax= 2.78D-05  0.00D+00 EMaxC= 1.00D-01 BMatC= 1.24D-06 BMatP= 5.55D-06
 IDIUse=1 WtCom= 1.00D+00 WtEn= 0.00D+00
 Coeff-Com:  0.122D-02-0.223D-02-0.472D-02-0.107D-01-0.321D-01-0.418D-02
 Coeff-Com:  0.335D+00 0.718D+00
 Coeff:      0.122D-02-0.223D-02-0.472D-02-0.107D-01-0.321D-01-0.418D-02
 Coeff:      0.335D+00 0.718D+00
 Gap=     0.157 Goal=   None    Shift=    0.000
 RMSDP=2.31D-06 MaxDP=3.55D-04 DE=-9.44D-06 OVMax= 1.05D-03

 Cycle   9  Pass 1  IDiag  1:
 RMSU=  1.39D-06    CP:  9.71D-01  1.60D+00  7.09D-01  7.34D-01  1.04D+00
                    CP:  1.11D+00  1.23D+00  1.15D+00
 E= -3007.88769875755     Delta-E=       -0.000002997574 Rises=F Damp=F
 DIIS: error= 1.47D-05 at cycle   9 NSaved=   9.
 NSaved= 9 IEnMin= 9 EnMin= -3007.88769875755     IErMin= 9 ErrMin= 1.47D-05
 ErrMax= 1.47D-05  0.00D+00 EMaxC= 1.00D-01 BMatC= 2.06D-07 BMatP= 1.24D-06
 IDIUse=1 WtCom= 1.00D+00 WtEn= 0.00D+00
 Coeff-Com: -0.710D-03 0.149D-02 0.157D-02 0.445D-03-0.172D-01-0.493D-01
 Coeff-Com: -0.236D-01 0.222D+00 0.865D+00
 Coeff:     -0.710D-03 0.149D-02 0.157D-02 0.445D-03-0.172D-01-0.493D-01
 Coeff:     -0.236D-01 0.222D+00 0.865D+00
 Gap=     0.157 Goal=   None    Shift=    0.000
 RMSDP=1.57D-06 MaxDP=1.84D-04 DE=-3.00D-06 OVMax= 7.76D-04

 Cycle  10  Pass 1  IDiag  1:
 RMSU=  7.26D-07    CP:  9.71D-01  1.60D+00  7.10D-01  7.34D-01  1.04D+00
                    CP:  1.13D+00  1.32D+00  1.44D+00  1.39D+00
 E= -3007.88769981564     Delta-E=       -0.000001058090 Rises=F Damp=F
 DIIS: error= 1.14D-05 at cycle  10 NSaved=  10.
 NSaved=10 IEnMin=10 EnMin= -3007.88769981564     IErMin=10 ErrMin= 1.14D-05
 ErrMax= 1.14D-05  0.00D+00 EMaxC= 1.00D-01 BMatC= 5.09D-08 BMatP= 2.06D-07
 IDIUse=1 WtCom= 1.00D+00 WtEn= 0.00D+00
 Coeff-Com: -0.555D-03 0.108D-02 0.184D-02 0.314D-02 0.336D-02-0.146D-01
 Coeff-Com: -0.985D-01-0.126D+00 0.239D+00 0.991D+00
 Coeff:     -0.555D-03 0.108D-02 0.184D-02 0.314D-02 0.336D-02-0.146D-01
 Coeff:     -0.985D-01-0.126D+00 0.239D+00 0.991D+00
 Gap=     0.157 Goal=   None    Shift=    0.000
 RMSDP=1.19D-06 MaxDP=1.15D-04 DE=-1.06D-06 OVMax= 7.33D-04

 Cycle  11  Pass 1  IDiag  1:
 RMSU=  4.24D-07    CP:  9.71D-01  1.60D+00  7.09D-01  7.35D-01  1.05D+00
                    CP:  1.14D+00  1.38D+00  1.64D+00  1.87D+00  1.44D+00
 E= -3007.88770031973     Delta-E=       -0.000000504089 Rises=F Damp=F
 DIIS: error= 5.67D-06 at cycle  11 NSaved=  11.
 NSaved=11 IEnMin=11 EnMin= -3007.88770031973     IErMin=11 ErrMin= 5.67D-06
 ErrMax= 5.67D-06  0.00D+00 EMaxC= 1.00D-01 BMatC= 2.41D-08 BMatP= 5.09D-08
 IDIUse=1 WtCom= 1.00D+00 WtEn= 0.00D+00
 Coeff-Com: -0.594D-04 0.967D-04 0.391D-03 0.118D-02 0.484D-02 0.517D-02
 Coeff-Com: -0.319D-01-0.963D-01-0.133D+00 0.419D+00 0.830D+00
 Coeff:     -0.594D-04 0.967D-04 0.391D-03 0.118D-02 0.484D-02 0.517D-02
 Coeff:     -0.319D-01-0.963D-01-0.133D+00 0.419D+00 0.830D+00
 Gap=     0.157 Goal=   None    Shift=    0.000
 RMSDP=6.92D-07 MaxDP=4.46D-05 DE=-5.04D-07 OVMax= 4.07D-04

 Cycle  12  Pass 1  IDiag  1:
 RMSU=  2.16D-07    CP:  9.71D-01  1.60D+00  7.09D-01  7.35D-01  1.05D+00
                    CP:  1.15D+00  1.40D+00  1.75D+00  2.10D+00  1.93D+00
                    CP:  1.38D+00
 E= -3007.88770049464     Delta-E=       -0.000000174910 Rises=F Damp=F
 DIIS: error= 4.42D-06 at cycle  12 NSaved=  12.
 NSaved=12 IEnMin=12 EnMin= -3007.88770049464     IErMin=12 ErrMin= 4.42D-06
 ErrMax= 4.42D-06  0.00D+00 EMaxC= 1.00D-01 BMatC= 7.51D-09 BMatP= 2.41D-08
 IDIUse=1 WtCom= 1.00D+00 WtEn= 0.00D+00
 Coeff-Com:  0.256D-03-0.508D-03-0.749D-03-0.101D-02 0.244D-03 0.970D-02
 Coeff-Com:  0.388D-01 0.264D-01-0.195D+00-0.294D+00 0.320D+00 0.110D+01
 Coeff:      0.256D-03-0.508D-03-0.749D-03-0.101D-02 0.244D-03 0.970D-02
 Coeff:      0.388D-01 0.264D-01-0.195D+00-0.294D+00 0.320D+00 0.110D+01
 Gap=     0.157 Goal=   None    Shift=    0.000
 RMSDP=6.18D-07 MaxDP=5.12D-05 DE=-1.75D-07 OVMax= 3.94D-04

 Cycle  13  Pass 1  IDiag  1:
 RMSU=  1.33D-07    CP:  9.71D-01  1.60D+00  7.09D-01  7.35D-01  1.05D+00
                    CP:  1.15D+00  1.42D+00  1.83D+00  2.33D+00  2.33D+00
                    CP:  2.10D+00  1.50D+00
 E= -3007.88770058464     Delta-E=       -0.000000089995 Rises=F Damp=F
 DIIS: error= 1.27D-06 at cycle  13 NSaved=  13.
 NSaved=13 IEnMin=13 EnMin= -3007.88770058464     IErMin=13 ErrMin= 1.27D-06
 ErrMax= 1.27D-06  0.00D+00 EMaxC= 1.00D-01 BMatC= 2.63D-09 BMatP= 7.51D-09
 IDIUse=1 WtCom= 1.00D+00 WtEn= 0.00D+00
 Coeff-Com:  0.155D-03-0.302D-03-0.510D-03-0.855D-03-0.126D-02 0.340D-02
 Coeff-Com:  0.295D-01 0.409D-01-0.642D-01-0.267D+00-0.854D-01 0.562D+00
 Coeff-Com:  0.784D+00
 Coeff:      0.155D-03-0.302D-03-0.510D-03-0.855D-03-0.126D-02 0.340D-02
 Coeff:      0.295D-01 0.409D-01-0.642D-01-0.267D+00-0.854D-01 0.562D+00
 Coeff:      0.784D+00
 Gap=     0.157 Goal=   None    Shift=    0.000
 RMSDP=2.82D-07 MaxDP=1.98D-05 DE=-9.00D-08 OVMax= 1.77D-04

 Cycle  14  Pass 1  IDiag  1:
 RMSU=  6.21D-08    CP:  9.71D-01  1.60D+00  7.09D-01  7.35D-01  1.05D+00
                    CP:  1.15D+00  1.42D+00  1.86D+00  2.41D+00  2.52D+00
                    CP:  2.42D+00  1.93D+00  1.18D+00
 E= -3007.88770060151     Delta-E=       -0.000000016873 Rises=F Damp=F
 DIIS: error= 5.89D-07 at cycle  14 NSaved=  14.
 NSaved=14 IEnMin=14 EnMin= -3007.88770060151     IErMin=14 ErrMin= 5.89D-07
 ErrMax= 5.89D-07  0.00D+00 EMaxC= 1.00D-01 BMatC= 4.27D-10 BMatP= 2.63D-09
 IDIUse=1 WtCom= 1.00D+00 WtEn= 0.00D+00
 Coeff-Com: -0.731D-05 0.169D-04 0.449D-05-0.484D-04-0.498D-03-0.127D-02
 Coeff-Com:  0.111D-02 0.719D-02 0.238D-01-0.208D-01-0.961D-01-0.733D-01
 Coeff-Com:  0.264D+00 0.896D+00
 Coeff:     -0.731D-05 0.169D-04 0.449D-05-0.484D-04-0.498D-03-0.127D-02
 Coeff:      0.111D-02 0.719D-02 0.238D-01-0.208D-01-0.961D-01-0.733D-01
 Coeff:      0.264D+00 0.896D+00
 Gap=     0.157 Goal=   None    Shift=    0.000
 RMSDP=1.06D-07 MaxDP=7.88D-06 DE=-1.69D-08 OVMax= 6.67D-05

 Cycle  15  Pass 1  IDiag  1:
 RMSU=  3.33D-08    CP:  9.71D-01  1.60D+00  7.09D-01  7.35D-01  1.05D+00
                    CP:  1.15D+00  1.43D+00  1.87D+00  2.43D+00  2.58D+00
                    CP:  2.54D+00  2.11D+00  1.48D+00  1.27D+00
 E= -3007.88770060416     Delta-E=       -0.000000002650 Rises=F Damp=F
 DIIS: error= 3.18D-07 at cycle  15 NSaved=  15.
 NSaved=15 IEnMin=15 EnMin= -3007.88770060416     IErMin=15 ErrMin= 3.18D-07
 ErrMax= 3.18D-07  0.00D+00 EMaxC= 1.00D-01 BMatC= 1.45D-10 BMatP= 4.27D-10
 IDIUse=1 WtCom= 1.00D+00 WtEn= 0.00D+00
 Coeff-Com: -0.367D-04 0.730D-04 0.113D-03 0.159D-03 0.343D-04-0.135D-02
 Coeff-Com: -0.573D-02-0.618D-02 0.248D-01 0.461D-01-0.185D-01-0.163D+00
 Coeff-Com: -0.487D-01 0.430D+00 0.742D+00
 Coeff:     -0.367D-04 0.730D-04 0.113D-03 0.159D-03 0.343D-04-0.135D-02
 Coeff:     -0.573D-02-0.618D-02 0.248D-01 0.461D-01-0.185D-01-0.163D+00
 Coeff:     -0.487D-01 0.430D+00 0.742D+00
 Gap=     0.157 Goal=   None    Shift=    0.000
 RMSDP=4.28D-08 MaxDP=3.41D-06 DE=-2.65D-09 OVMax= 2.93D-05

 Cycle  16  Pass 1  IDiag  1:
 RMSU=  1.87D-08    CP:  9.71D-01  1.60D+00  7.09D-01  7.35D-01  1.05D+00
                    CP:  1.15D+00  1.43D+00  1.87D+00  2.44D+00  2.60D+00
                    CP:  2.58D+00  2.17D+00  1.59D+00  1.57D+00  1.21D+00
 E= -3007.88770060500     Delta-E=       -0.000000000835 Rises=F Damp=F
 DIIS: error= 2.48D-07 at cycle  16 NSaved=  16.
 NSaved=16 IEnMin=16 EnMin= -3007.88770060500     IErMin=16 ErrMin= 2.48D-07
 ErrMax= 2.48D-07  0.00D+00 EMaxC= 1.00D-01 BMatC= 3.70D-11 BMatP= 1.45D-10
 IDIUse=1 WtCom= 1.00D+00 WtEn= 0.00D+00
 Coeff-Com: -0.967D-05 0.186D-04 0.346D-04 0.574D-04 0.126D-03-0.146D-03
 Coeff-Com: -0.195D-02-0.385D-02 0.396D-02 0.183D-01 0.190D-01-0.444D-01
 Coeff-Com: -0.781D-01-0.604D-01 0.249D+00 0.898D+00
 Coeff:     -0.967D-05 0.186D-04 0.346D-04 0.574D-04 0.126D-03-0.146D-03
 Coeff:     -0.195D-02-0.385D-02 0.396D-02 0.183D-01 0.190D-01-0.444D-01
 Coeff:     -0.781D-01-0.604D-01 0.249D+00 0.898D+00
 Gap=     0.157 Goal=   None    Shift=    0.000
 RMSDP=2.68D-08 MaxDP=1.91D-06 DE=-8.35D-10 OVMax= 1.70D-05

 Cycle  17  Pass 1  IDiag  1:
 RMSU=  9.09D-09    CP:  9.71D-01  1.60D+00  7.09D-01  7.35D-01  1.05D+00
                    CP:  1.15D+00  1.43D+00  1.87D+00  2.44D+00  2.60D+00
                    CP:  2.60D+00  2.20D+00  1.66D+00  1.74D+00  1.64D+00
                    CP:  1.50D+00
 E= -3007.88770060538     Delta-E=       -0.000000000387 Rises=F Damp=F
 DIIS: error= 1.60D-07 at cycle  17 NSaved=  17.
 NSaved=17 IEnMin=17 EnMin= -3007.88770060538     IErMin=17 ErrMin= 1.60D-07
 ErrMax= 1.60D-07  0.00D+00 EMaxC= 1.00D-01 BMatC= 1.31D-11 BMatP= 3.70D-11
 IDIUse=1 WtCom= 1.00D+00 WtEn= 0.00D+00
 Coeff-Com:  0.117D-04-0.234D-04-0.348D-04-0.480D-04 0.316D-04 0.492D-03
 Coeff-Com:  0.179D-02 0.104D-02-0.845D-02-0.139D-01 0.178D-01 0.497D-01
 Coeff-Com: -0.330D-02-0.181D+00-0.201D+00 0.258D+00 0.108D+01
 Coeff:      0.117D-04-0.234D-04-0.348D-04-0.480D-04 0.316D-04 0.492D-03
 Coeff:      0.179D-02 0.104D-02-0.845D-02-0.139D-01 0.178D-01 0.497D-01
 Coeff:     -0.330D-02-0.181D+00-0.201D+00 0.258D+00 0.108D+01
 Gap=     0.157 Goal=   None    Shift=    0.000
 RMSDP=2.25D-08 MaxDP=1.67D-06 DE=-3.87D-10 OVMax= 1.63D-05

 Cycle  18  Pass 1  IDiag  1:
 RMSU=  6.04D-09    CP:  9.71D-01  1.60D+00  7.09D-01  7.35D-01  1.05D+00
                    CP:  1.15D+00  1.43D+00  1.87D+00  2.44D+00  2.60D+00
                    CP:  2.61D+00  2.21D+00  1.69D+00  1.89D+00  1.99D+00
                    CP:  2.23D+00  1.58D+00
 E= -3007.88770060550     Delta-E=       -0.000000000115 Rises=F Damp=F
 DIIS: error= 1.09D-07 at cycle  18 NSaved=  18.
 NSaved=18 IEnMin=18 EnMin= -3007.88770060550     IErMin=18 ErrMin= 1.09D-07
 ErrMax= 1.09D-07  0.00D+00 EMaxC= 1.00D-01 BMatC= 7.38D-12 BMatP= 1.31D-11
 IDIUse=1 WtCom= 1.00D+00 WtEn= 0.00D+00
 Coeff-Com:  0.101D-04-0.197D-04-0.333D-04-0.500D-04-0.355D-04 0.301D-03
 Coeff-Com:  0.177D-02 0.215D-02-0.600D-02-0.160D-01 0.140D-02 0.413D-01
 Coeff-Com:  0.308D-01-0.662D-01-0.210D+00-0.290D+00 0.576D+00 0.935D+00
 Coeff:      0.101D-04-0.197D-04-0.333D-04-0.500D-04-0.355D-04 0.301D-03
 Coeff:      0.177D-02 0.215D-02-0.600D-02-0.160D-01 0.140D-02 0.413D-01
 Coeff:      0.308D-01-0.662D-01-0.210D+00-0.290D+00 0.576D+00 0.935D+00
 Gap=     0.157 Goal=   None    Shift=    0.000
 RMSDP=1.90D-08 MaxDP=1.40D-06 DE=-1.15D-10 OVMax= 1.22D-05

 Cycle  19  Pass 1  IDiag  1:
 RMSU=  3.41D-09    CP:  9.71D-01  1.60D+00  7.09D-01  7.35D-01  1.05D+00
                    CP:  1.15D+00  1.43D+00  1.87D+00  2.45D+00  2.60D+00
                    CP:  2.61D+00  2.22D+00  1.72D+00  2.00D+00  2.29D+00
                    CP:  2.77D+00  2.37D+00  1.37D+00
 E= -3007.88770060544     Delta-E=        0.000000000058 Rises=F Damp=F
 DIIS: error= 4.60D-08 at cycle  19 NSaved=  19.
 NSaved=19 IEnMin=18 EnMin= -3007.88770060550     IErMin=19 ErrMin= 4.60D-08
 ErrMax= 4.60D-08  0.00D+00 EMaxC= 1.00D-01 BMatC= 1.47D-12 BMatP= 7.38D-12
 IDIUse=1 WtCom= 1.00D+00 WtEn= 0.00D+00
 Coeff-Com: -0.155D-06 0.488D-06-0.120D-05-0.281D-05-0.283D-04-0.682D-04
 Coeff-Com:  0.837D-04 0.559D-03 0.874D-03-0.147D-02-0.514D-02-0.185D-02
 Coeff-Com:  0.155D-01 0.467D-01-0.559D-02-0.227D+00-0.134D+00 0.352D+00
 Coeff-Com:  0.960D+00
 Coeff:     -0.155D-06 0.488D-06-0.120D-05-0.281D-05-0.283D-04-0.682D-04
 Coeff:      0.837D-04 0.559D-03 0.874D-03-0.147D-02-0.514D-02-0.185D-02
 Coeff:      0.155D-01 0.467D-01-0.559D-02-0.227D+00-0.134D+00 0.352D+00
 Coeff:      0.960D+00
 Gap=     0.157 Goal=   None    Shift=    0.000
 RMSDP=8.95D-09 MaxDP=6.60D-07 DE= 5.82D-11 OVMax= 6.50D-06

 SCF Done:  E(RwB97XD) =  -3007.88770061     A.U. after   19 cycles
            NFock= 19  Conv=0.89D-08     -V/T= 2.0107
 KE= 2.975993028356D+03 PE=-2.617800354444D+04 EE= 1.060206788813D+04
 Leave Link  502 at Wed May  4 14:30:03 2022, MaxMem= 10066329600 cpu:            9542.5 elap:             415.5
 (Enter /sw/apps/gaussian-16.0/g16/l801.exe)
 DoSCS=F DFT=T ScalE2(SS,OS)=  1.000000  1.000000
 ExpMin= 3.36D-02 ExpMax= 4.95D+03 ExpMxC= 7.45D+02 IAcc=3 IRadAn=         5 AccDes= 0.00D+00
 HarFok:  IExCor=  205 AccDes= 0.00D+00 IRadAn=         5 IDoV=-2 UseB2=F ITyADJ=14
 ICtDFT= 12500011 ScaDFX=  1.000000  1.000000  1.000000  1.000000
 GSVD:  LWork=       -5460 too small for GESVD, short by       25550 words or       25550 for optimal perf.
 Largest valence mixing into a core orbital is  1.70D-04
 Largest core mixing into a valence orbital is  5.43D-05
 Range of M.O.s used for correlation:    71  1298
 NBasis=  1298 NAE=   246 NBE=   246 NFC=    70 NFV=     0
 NROrb=   1228 NOA=   176 NOB=   176 NVA=  1052 NVB=  1052
 Leave Link  801 at Wed May  4 14:30:04 2022, MaxMem= 10066329600 cpu:               7.2 elap:               0.3
 (Enter /sw/apps/gaussian-16.0/g16/l914.exe)
 RHF ground state
 Two-electron integrals replicated using symmetry.
 MDV= 10066329600 DFT=T DoStab=F Mixed=T DoRPA=T DoScal=F NonHer=T
 Making orbital integer symmetry assigments:
 Orbital symmetries:
       Occupied  (A) (A) (A) (A) (A) (A) (A) (A) (A) (A) (A) (A)
                 (A) (A) (A) (A) (A) (A) (A) (A) (A) (A) (A) (A)
                 (A) (A) (A) (A) (A) (A) (A) (A) (A) (A) (A) (A)
                 (A) (A) (A) (A) (A) (A) (A) (A) (A) (A) (A) (A)
                 (A) (A) (A) (A) (A) (A) (A) (A) (A) (A) (A) (A)
                 (A) (A) (A) (A) (A) (A) (A) (A) (A) (A) (A) (A)
                 (A) (A) (A) (A) (A) (A) (A) (A) (A) (A) (A) (A)
                 (A) (A) (A) (A) (A) (A) (A) (A) (A) (A) (A) (A)
                 (A) (A) (A) (A) (A) (A) (A) (A) (A) (A) (A) (A)
                 (A) (A) (A) (A) (A) (A) (A) (A) (A) (A) (A) (A)
                 (A) (A) (A) (A) (A) (A) (A) (A) (A) (A) (A) (A)
                 (A) (A) (A) (A) (A) (A) (A) (A) (A) (A) (A) (A)
                 (A) (A) (A) (A) (A) (A) (A) (A) (A) (A) (A) (A)
                 (A) (A) (A) (A) (A) (A) (A) (A) (A) (A) (A) (A)
                 (A) (A) (A) (A) (A) (A) (A) (A) (A) (A) (A) (A)
                 (A) (A) (A) (A) (A) (A) (A) (A) (A) (A) (A) (A)
                 (A) (A) (A) (A) (A) (A) (A) (A) (A) (A) (A) (A)
                 (A) (A) (A) (A) (A) (A) (A) (A) (A) (A) (A) (A)
                 (A) (A) (A) (A) (A) (A) (A) (A) (A) (A) (A) (A)
                 (A) (A) (A) (A) (A) (A) (A) (A) (A) (A) (A) (A)
                 (A) (A) (A) (A) (A) (A)
       Virtual   (A) (A) (A) (A) (A) (A) (A) (A) (A) (A) (A) (A)
                 (A) (A) (A) (A) (A) (A) (A) (A) (A) (A) (A) (A)
                 (A) (A) (A) (A) (A) (A) (A) (A) (A) (A) (A) (A)
                 (A) (A) (A) (A) (A) (A) (A) (A) (A) (A) (A) (A)
                 (A) (A) (A) (A) (A) (A) (A) (A) (A) (A) (A) (A)
                 (A) (A) (A) (A) (A) (A) (A) (A) (A) (A) (A) (A)
                 (A) (A) (A) (A) (A) (A) (A) (A) (A) (A) (A) (A)
                 (A) (A) (A) (A) (A) (A) (A) (A) (A) (A) (A) (A)
                 (A) (A) (A) (A) (A) (A) (A) (A) (A) (A) (A) (A)
                 (A) (A) (A) (A) (A) (A) (A) (A) (A) (A) (A) (A)
                 (A) (A) (A) (A) (A) (A) (A) (A) (A) (A) (A) (A)
                 (A) (A) (A) (A) (A) (A) (A) (A) (A) (A) (A) (A)
                 (A) (A) (A) (A) (A) (A) (A) (A) (A) (A) (A) (A)
                 (A) (A) (A) (A) (A) (A) (A) (A) (A) (A) (A) (A)
                 (A) (A) (A) (A) (A) (A) (A) (A) (A) (A) (A) (A)
                 (A) (A) (A) (A) (A) (A) (A) (A) (A) (A) (A) (A)
                 (A) (A) (A) (A) (A) (A) (A) (A) (A) (A) (A) (A)
                 (A) (A) (A) (A) (A) (A) (A) (A) (A) (A) (A) (A)
                 (A) (A) (A) (A) (A) (A) (A) (A) (A) (A) (A) (A)
                 (A) (A) (A) (A) (A) (A) (A) (A) (A) (A) (A) (A)
                 (A) (A) (A) (A) (A) (A) (A) (A) (A) (A) (A) (A)
                 (A) (A) (A) (A) (A) (A) (A) (A) (A) (A) (A) (A)
                 (A) (A) (A) (A) (A) (A) (A) (A) (A) (A) (A) (A)
                 (A) (A) (A) (A) (A) (A) (A) (A) (A) (A) (A) (A)
                 (A) (A) (A) (A) (A) (A) (A) (A) (A) (A) (A) (A)
                 (A) (A) (A) (A) (A) (A) (A) (A) (A) (A) (A) (A)
                 (A) (A) (A) (A) (A) (A) (A) (A) (A) (A) (A) (A)
                 (A) (A) (A) (A) (A) (A) (A) (A) (A) (A) (A) (A)
                 (A) (A) (A) (A) (A) (A) (A) (A) (A) (A) (A) (A)
                 (A) (A) (A) (A) (A) (A) (A) (A) (A) (A) (A) (A)
                 (A) (A) (A) (A) (A) (A) (A) (A) (A) (A) (A) (A)
                 (A) (A) (A) (A) (A) (A) (A) (A) (A) (A) (A) (A)
                 (A) (A) (A) (A) (A) (A) (A) (A) (A) (A) (A) (A)
                 (A) (A) (A) (A) (A) (A) (A) (A) (A) (A) (A) (A)
                 (A) (A) (A) (A) (A) (A) (A) (A) (A) (A) (A) (A)
                 (A) (A) (A) (A) (A) (A) (A) (A) (A) (A) (A) (A)
                 (A) (A) (A) (A) (A) (A) (A) (A) (A) (A) (A) (A)
                 (A) (A) (A) (A) (A) (A) (A) (A) (A) (A) (A) (A)
                 (A) (A) (A) (A) (A) (A) (A) (A) (A) (A) (A) (A)
                 (A) (A) (A) (A) (A) (A) (A) (A) (A) (A) (A) (A)
                 (A) (A) (A) (A) (A) (A) (A) (A) (A) (A) (A) (A)
                 (A) (A) (A) (A) (A) (A) (A) (A) (A) (A) (A) (A)
                 (A) (A) (A) (A) (A) (A) (A) (A) (A) (A) (A) (A)
                 (A) (A) (A) (A) (A) (A) (A) (A) (A) (A) (A) (A)
                 (A) (A) (A) (A) (A) (A) (A) (A) (A) (A) (A) (A)
                 (A) (A) (A) (A) (A) (A) (A) (A) (A) (A) (A) (A)
                 (A) (A) (A) (A) (A) (A) (A) (A) (A) (A) (A) (A)
                 (A) (A) (A) (A) (A) (A) (A) (A) (A) (A) (A) (A)
                 (A) (A) (A) (A) (A) (A) (A) (A) (A) (A) (A) (A)
                 (A) (A) (A) (A) (A) (A) (A) (A) (A) (A) (A) (A)
                 (A) (A) (A) (A) (A) (A) (A) (A) (A) (A) (A) (A)
                 (A) (A) (A) (A) (A) (A) (A) (A) (A) (A) (A) (A)
                 (A) (A) (A) (A) (A) (A) (A) (A) (A) (A) (A) (A)
                 (A) (A) (A) (A) (A) (A) (A) (A) (A) (A) (A) (A)
                 (A) (A) (A) (A) (A) (A) (A) (A) (A) (A) (A) (A)
                 (A) (A) (A) (A) (A) (A) (A) (A) (A) (A) (A) (A)
                 (A) (A) (A) (A) (A) (A) (A) (A) (A) (A) (A) (A)
                 (A) (A) (A) (A) (A) (A) (A) (A) (A) (A) (A) (A)
                 (A) (A) (A) (A) (A) (A) (A) (A) (A) (A) (A) (A)
                 (A) (A) (A) (A) (A) (A) (A) (A) (A) (A) (A) (A)
                 (A) (A) (A) (A) (A) (A) (A) (A) (A) (A) (A) (A)
                 (A) (A) (A) (A) (A) (A) (A) (A) (A) (A) (A) (A)
                 (A) (A) (A) (A) (A) (A) (A) (A) (A) (A) (A) (A)
                 (A) (A) (A) (A) (A) (A) (A) (A) (A) (A) (A) (A)
                 (A) (A) (A) (A) (A) (A) (A) (A) (A) (A) (A) (A)
                 (A) (A) (A) (A) (A) (A) (A) (A) (A) (A) (A) (A)
                 (A) (A) (A) (A) (A) (A) (A) (A) (A) (A) (A) (A)
                 (A) (A) (A) (A) (A) (A) (A) (A) (A) (A) (A) (A)
                 (A) (A) (A) (A) (A) (A) (A) (A) (A) (A) (A) (A)
                 (A) (A) (A) (A) (A) (A) (A) (A) (A) (A) (A) (A)
                 (A) (A) (A) (A) (A) (A) (A) (A) (A) (A) (A) (A)
                 (A) (A) (A) (A) (A) (A) (A) (A) (A) (A) (A) (A)
                 (A) (A) (A) (A) (A) (A) (A) (A) (A) (A) (A) (A)
                 (A) (A) (A) (A) (A) (A) (A) (A) (A) (A) (A) (A)
                 (A) (A) (A) (A) (A) (A) (A) (A) (A) (A) (A) (A)
                 (A) (A) (A) (A) (A) (A) (A) (A) (A) (A) (A) (A)
                 (A) (A) (A) (A) (A) (A) (A) (A) (A) (A) (A) (A)
                 (A) (A) (A) (A) (A) (A) (A) (A) (A) (A) (A) (A)
                 (A) (A) (A) (A) (A) (A) (A) (A) (A) (A) (A) (A)
                 (A) (A) (A) (A) (A) (A) (A) (A) (A) (A) (A) (A)
                 (A) (A) (A) (A) (A) (A) (A) (A) (A) (A) (A) (A)
                 (A) (A) (A) (A) (A) (A) (A) (A) (A) (A) (A) (A)
                 (A) (A) (A) (A) (A) (A) (A) (A) (A) (A) (A) (A)
                 (A) (A) (A) (A) (A) (A) (A) (A) (A) (A) (A) (A)
                 (A) (A) (A) (A) (A) (A) (A) (A) (A) (A) (A) (A)
                 (A) (A) (A) (A) (A) (A) (A) (A) (A) (A) (A) (A)
                 (A) (A) (A) (A) (A) (A) (A) (A) (A) (A) (A) (A)
                 (A) (A) (A) (A) (A) (A) (A) (A)
    20 initial guesses have been made.
 Convergence on wavefunction:    0.001000000000000
 Davidson Disk Diagonalization:  ConvIn= 1.00D-03 SkipCon=T Conv= 1.00D-03.
 Max sub-space:  2000 roots to seek:    20 dimension of matrix:       370304
 Iteration     1 Dimension    20 NMult     0 NNew     20
 CISAX will form    20 AO SS matrices at one time.
 NMat=    20 NSing=    20 JSym2X= 0.
 FoFJK:  IHMeth= 1 ICntrl=       0 DoSepK=T KAlg= 0 I1Cent=           0 FoldK=F
 IRaf=         1 NMat=      40 IRICut=       1 DoRegI=T DoRafI=F ISym2E= 0 IDoP0=3 IntGTp=3.
 FoFCou: FMM=T IPFlag=           0 FMFlag=      100000 FMFlg1=        2001
         NFxFlg=           0 DoJE=F BraDBF=F KetDBF=F FulRan=T
         wScrn=  0.000000 ICntrl=       500 IOpCl=  0 I1Cent=           0 NGrid=           0
         NMat0=   20 NMatS0=     20 NMatT0=    0 NMatD0=   20 NMtDS0=    0 NMtDT0=    0
 Symmetry not used in FoFCou.
 FMM levels:  10  Number of levels for PrismC:   9
 New state      3 was old state      4
 New state      4 was old state      6
 New state      5 was old state      7
 Excitation Energies [eV] at current iteration:
 Root      1 :     2.175771240531651
 Root      2 :     2.610957060006274
 Root      3 :     3.748867093938814
 Root      4 :     3.957205210982242
 Root      5 :     4.074675986553719
 Root      6 :     4.289733738809868
 Root      7 :     4.422934977902578
 Root      8 :     4.556020207017285
 Root      9 :     4.572879321933041
 Root     10 :     4.594715926253516
 Root     11 :     4.654576971082865
 Root     12 :     4.909211137891390
 Root     13 :     4.973172378471957
 Root     14 :     5.125997243163480
 Root     15 :     5.170478652834056
 Root     16 :     5.308842711994790
 Root     17 :     5.466985520949608
 Root     18 :     5.956386259690515
 Root     19 :     6.200550255182353
 Root     20 :     6.853530063231223
 Iteration     2 Dimension    30 NMult    20 NNew     10
 CISAX will form    10 AO SS matrices at one time.
 NMat=    10 NSing=    10 JSym2X= 0.
 Root      1 not converged, maximum delta is    0.078670184312958
 Root      2 not converged, maximum delta is    0.061823424246430
 Root      3 not converged, maximum delta is    0.045223726294812
 Root      4 not converged, maximum delta is    0.063403456464692
 Root      5 not converged, maximum delta is    0.187268471518005
 Excitation Energies [eV] at current iteration:
 Root      1 :     1.666844276951118   Change is   -0.508926963580533
 Root      2 :     2.195968211806568   Change is   -0.414988848199706
 Root      3 :     3.386078915997702   Change is   -0.362788177941112
 Root      4 :     3.531579614572832   Change is   -0.425625596409409
 Root      5 :     3.618721699265077   Change is   -0.455954287288643
 Iteration     3 Dimension    40 NMult    30 NNew     10
 CISAX will form    10 AO SS matrices at one time.
 NMat=    10 NSing=    10 JSym2X= 0.
 Root      1 not converged, maximum delta is    0.016971472551425
 Root      2 not converged, maximum delta is    0.014732209743363
 Root      3 not converged, maximum delta is    0.054893773491207
 New state      4 was old state      5
 Root      4 not converged, maximum delta is    0.378910458012975
 New state      5 was old state      4
 Root      5 not converged, maximum delta is    0.380131332968897
 Excitation Energies [eV] at current iteration:
 Root      1 :     1.626922953804752   Change is   -0.039921323146366
 Root      2 :     2.174770201641776   Change is   -0.021198010164792
 Root      3 :     3.369292781854698   Change is   -0.016786134143004
 Root      4 :     3.472704999802358   Change is   -0.146016699462718
 Root      5 :     3.509205271926541   Change is   -0.022374342646291
 Iteration     4 Dimension    50 NMult    40 NNew     10
 CISAX will form    10 AO SS matrices at one time.
 NMat=    10 NSing=    10 JSym2X= 0.
 Root      1 not converged, maximum delta is    0.005439742125546
 Root      2 not converged, maximum delta is    0.003190625414479
 Root      3 not converged, maximum delta is    0.005983590798539
 Root      4 not converged, maximum delta is    0.034738035201065
 Root      5 not converged, maximum delta is    0.071978310159863
 Excitation Energies [eV] at current iteration:
 Root      1 :     1.622226107143813   Change is   -0.004696846660939
 Root      2 :     2.172249778270287   Change is   -0.002520423371489
 Root      3 :     3.365553366822894   Change is   -0.003739415031805
 Root      4 :     3.460434102751345   Change is   -0.012270897051014
 Root      5 :     3.495559240863106   Change is   -0.013646031063436
 Iteration     5 Dimension    60 NMult    50 NNew     10
 CISAX will form    10 AO SS matrices at one time.
 NMat=    10 NSing=    10 JSym2X= 0.
 Root      1 not converged, maximum delta is    0.001213842752146
 Root      2 not converged, maximum delta is    0.001002591034364
 Root      3 not converged, maximum delta is    0.002170051153702
 Root      4 not converged, maximum delta is    0.002999964651808
 Root      5 not converged, maximum delta is    0.017355151645654
 Excitation Energies [eV] at current iteration:
 Root      1 :     1.621792250893092   Change is   -0.000433856250721
 Root      2 :     2.172052937910388   Change is   -0.000196840359898
 Root      3 :     3.365094048477863   Change is   -0.000459318345031
 Root      4 :     3.459157962447211   Change is   -0.001276140304134
 Root      5 :     3.492860703225440   Change is   -0.002698537637666
 Iteration     6 Dimension    70 NMult    60 NNew     10
 CISAX will form    10 AO SS matrices at one time.
 NMat=    10 NSing=    10 JSym2X= 0.
 Root      1 has converged.
 Root      2 has converged.
 Root      3 not converged, maximum delta is    0.003584323011895
 Root      4 not converged, maximum delta is    0.002518651374708
 Root      5 not converged, maximum delta is    0.005787531531018
 Excitation Energies [eV] at current iteration:
 Root      1 :     1.621754643697484   Change is   -0.000037607195608
 Root      2 :     2.172032739754109   Change is   -0.000020198156279
 Root      3 :     3.364942235305556   Change is   -0.000151813172307
 Root      4 :     3.458964900218261   Change is   -0.000193062228949
 Root      5 :     3.492205202942468   Change is   -0.000655500282971
 Iteration     7 Dimension    76 NMult    70 NNew      6
 CISAX will form     6 AO SS matrices at one time.
 NMat=     6 NSing=     6 JSym2X= 0.
 Root      1 has converged.
 Root      2 has converged.
 Root      3 not converged, maximum delta is    0.004341735961014
 Root      4 not converged, maximum delta is    0.003972505772554
 Root      5 not converged, maximum delta is    0.007547926405687
 Excitation Energies [eV] at current iteration:
 Root      1 :     1.621754569754575   Change is   -0.000000073942910
 Root      2 :     2.172032516664544   Change is   -0.000000223089566
 Root      3 :     3.364839577534027   Change is   -0.000102657771529
 Root      4 :     3.458901248246284   Change is   -0.000063651971977
 Root      5 :     3.492024279173443   Change is   -0.000180923769025
 Iteration     8 Dimension    82 NMult    76 NNew      6
 CISAX will form     6 AO SS matrices at one time.
 NMat=     6 NSing=     6 JSym2X= 0.
 Root      1 has converged.
 Root      2 has converged.
 Root      3 not converged, maximum delta is    0.001746301382656
 Root      4 not converged, maximum delta is    0.002086402717288
 Root      5 not converged, maximum delta is    0.004498728293320
 Excitation Energies [eV] at current iteration:
 Root      1 :     1.621754450092497   Change is   -0.000000119662078
 Root      2 :     2.172032344967513   Change is   -0.000000171697030
 Root      3 :     3.364808255998143   Change is   -0.000031321535884
 Root      4 :     3.458878601137564   Change is   -0.000022647108721
 Root      5 :     3.491955216897673   Change is   -0.000069062275770
 Iteration     9 Dimension    88 NMult    82 NNew      6
 CISAX will form     6 AO SS matrices at one time.
 NMat=     6 NSing=     6 JSym2X= 0.
 Root      1 has converged.
 Root      2 has converged.
 Root      3 has converged.
 Root      4 has converged.
 Root      5 has converged.
 Excitation Energies [eV] at current iteration:
 Root      1 :     1.621754301025568   Change is   -0.000000149066929
 Root      2 :     2.172032270411477   Change is   -0.000000074556036
 Root      3 :     3.364804101031425   Change is   -0.000004154966717
 Root      4 :     3.458874973233393   Change is   -0.000003627904171
 Root      5 :     3.491944157860337   Change is   -0.000011059037337
 Convergence achieved on expansion vectors.
 ***********************************************************************
 Excited states from <AA,BB:AA,BB> singles matrix:
 ***********************************************************************
 
 1PDM for each excited state written to RWF  633
 Ground to excited state transition densities written to RWF  633
 Ground to excited state transition electric dipole moments (Au):
       state          X           Y           Z        Dip. S.      Osc.
         1        -1.3496     -2.8155      0.3869      9.8981      0.3933
         2        -1.2846      0.8410      0.2312      2.4109      0.1283
         3        -0.0365      0.1362     -0.0118      0.0200      0.0017
         4        -0.7648      0.4087      0.0998      0.7620      0.0646
         5        -1.0754      0.5145      0.1876      1.4564      0.1246
 Ground to excited state transition velocity dipole moments (Au):
       state          X           Y           Z        Dip. S.      Osc.
         1         0.0783      0.1641     -0.0216      0.0335      0.3750
         2         0.0965     -0.0643     -0.0173      0.0137      0.1148
         3         0.0023     -0.0166      0.0015      0.0003      0.0015
         4         0.0920     -0.0524     -0.0131      0.0114      0.0596
         5         0.1319     -0.0645     -0.0212      0.0220      0.1143
 Ground to excited state transition magnetic dipole moments (Au):
       state          X           Y           Z
         1         0.0095     -0.2056     -1.7007
         2        -0.0763     -0.1874      0.4055
         3        -0.1857     -0.1937     -0.8460
         4        -0.0683     -0.7095      0.8801
         5        -0.1137      0.0649      0.4758
 Ground to excited state transition velocity quadrupole moments (Au):
       state          XX          YY          ZZ          XY          XZ          YZ
         1        -1.5884      0.4436     -0.0340     -1.4806      0.2496      0.0587
         2        -1.7476     -0.1089      0.0157      0.6023      0.1710     -0.0399
         3         0.1374     -0.4588      0.0426      0.3029     -0.1061      0.0233
         4        -1.7515      0.3424      0.0018      0.5928      0.1545     -0.0812
         5        -2.4129      0.2485      0.0399      1.0880      0.1157     -0.1148
 <0|del|b> * <b|rxdel|0> + <0|del|b> * <b|delr+rdel|0>
 Rotatory Strengths (R) in cgs (10**-40 erg-esu-cm/Gauss)
       state          XX          YY          ZZ    R(velocity)    E-M Angle
         1       -35.9240     59.8677     19.9384     14.6274       89.32
         2        24.8978    -34.6253    -10.8568     -6.8614       92.51
         3         1.7870     -6.0592     12.8759      2.8679       84.21
         4        72.0726    -48.7428     84.1316     35.8205       80.80
         5       -82.4902    -47.2022    -31.6484    -53.7803      113.58
 1/2[<0|r|b>*<b|rxdel|0> + (<0|rxdel|b>*<b|r|0>)*]
 Rotatory Strengths (R) in cgs (10**-40 erg-esu-cm/Gauss)
       state          XX          YY          ZZ     R(length)
         1         9.0858   -409.3191    465.2656     21.6774
         2       -69.3010    111.4699    -66.2873     -8.0395
         3        -4.7910     18.6572     -7.0498      2.2721
         4       -36.9514    205.0787    -62.0952     35.3440
         5       -86.4378    -23.6187    -63.1209    -57.7258
  1/2[<0|del|b>*<b|r|0> + (<0|r|b>*<b|del|0>)*] (Au)
       state          X           Y           Z        Dip. S.   Osc.(frdel)
         1        -0.1057     -0.4620     -0.0083      0.5760      0.3840
         2        -0.1240     -0.0540     -0.0040      0.1820      0.1213
         3        -0.0001     -0.0023     -0.0000      0.0024      0.0016
[...]
 Alpha virt. eigenvalues --    1.20111   1.20479   1.20665   1.20962   1.21632
 Alpha virt. eigenvalues --    1.21753   1.22701   1.22821   1.23597   1.24080
 Alpha virt. eigenvalues --    1.24834   1.25606   1.25763   1.26152   1.26541
 Alpha virt. eigenvalues --    1.27051   1.27635   1.28179   1.28273   1.28462
 Alpha virt. eigenvalues --    1.28941   1.29810   1.30169   1.30987   1.31280
 Alpha virt. eigenvalues --    1.31758   1.32314   1.32742   1.33019   1.33610
 Alpha virt. eigenvalues --    1.33854   1.33913   1.35175   1.35846   1.36438
 Alpha virt. eigenvalues --    1.36515   1.36990   1.37302   1.37564   1.38024
 Alpha virt. eigenvalues --    1.38564   1.38732   1.39162   1.39412   1.40380
 Alpha virt. eigenvalues --    1.41148   1.41249   1.41404   1.42375   1.42721
 Alpha virt. eigenvalues --    1.42937   1.43313   1.43441   1.43683   1.44257
 Alpha virt. eigenvalues --    1.44757   1.45213   1.45361   1.45814   1.46430
 Alpha virt. eigenvalues --    1.46659   1.47124   1.47157   1.47761   1.47837
 Alpha virt. eigenvalues --    1.48129   1.48973   1.49142   1.49852   1.50005
 Alpha virt. eigenvalues --    1.50120   1.50579   1.50964   1.51273   1.52030
 Alpha virt. eigenvalues --    1.52644   1.53153   1.53644   1.53870   1.53949
 Alpha virt. eigenvalues --    1.54806   1.54982   1.55194   1.56586   1.57579
 Alpha virt. eigenvalues --    1.57654   1.57726   1.58141   1.58699   1.58725
 Alpha virt. eigenvalues --    1.59015   1.59716   1.60101   1.60276   1.60348
 Alpha virt. eigenvalues --    1.60764   1.61038   1.61419   1.61809   1.61826
 Alpha virt. eigenvalues --    1.62267   1.62348   1.62367   1.62798   1.62901
 Alpha virt. eigenvalues --    1.63271   1.63814   1.64005   1.64075   1.64260
 Alpha virt. eigenvalues --    1.64315   1.64990   1.65166   1.65245   1.66004
 Alpha virt. eigenvalues --    1.66267   1.66299   1.66932   1.67003   1.67111
 Alpha virt. eigenvalues --    1.67258   1.67963   1.68184   1.68270   1.68449
 Alpha virt. eigenvalues --    1.68792   1.69385   1.69739   1.69950   1.70070
 Alpha virt. eigenvalues --    1.71099   1.71269   1.71893   1.72900   1.73498
 Alpha virt. eigenvalues --    1.73763   1.74045   1.74305   1.74688   1.75253
 Alpha virt. eigenvalues --    1.76151   1.76297   1.76435   1.76616   1.76905
 Alpha virt. eigenvalues --    1.77549   1.77587   1.77897   1.78172   1.78175
 Alpha virt. eigenvalues --    1.79050   1.79191   1.79666   1.80228   1.80532
 Alpha virt. eigenvalues --    1.80836   1.81019   1.81207   1.81719   1.81994
 Alpha virt. eigenvalues --    1.82078   1.82136   1.82327   1.82779   1.82941
 Alpha virt. eigenvalues --    1.83144   1.83525   1.83654   1.83701   1.83981
 Alpha virt. eigenvalues --    1.84294   1.84528   1.84618   1.84707   1.84857
 Alpha virt. eigenvalues --    1.85146   1.85425   1.85433   1.86607   1.86626
 Alpha virt. eigenvalues --    1.86858   1.86930   1.86964   1.87398   1.87453
 Alpha virt. eigenvalues --    1.87698   1.87795   1.87925   1.88095   1.88415
 Alpha virt. eigenvalues --    1.88537   1.88726   1.88801   1.89108   1.89300
 Alpha virt. eigenvalues --    1.89368   1.89616   1.89800   1.90174   1.90270
 Alpha virt. eigenvalues --    1.90442   1.90869   1.91123   1.91250   1.91478
 Alpha virt. eigenvalues --    1.92246   1.92269   1.92406   1.92604   1.92694
 Alpha virt. eigenvalues --    1.93072   1.93190   1.93440   1.93578   1.93684
 Alpha virt. eigenvalues --    1.94029   1.94121   1.94466   1.94578   1.94706
 Alpha virt. eigenvalues --    1.94727   1.95174   1.95614   1.95760   1.95859
 Alpha virt. eigenvalues --    1.95883   1.96500   1.96589   1.96895   1.97180
 Alpha virt. eigenvalues --    1.97698   1.98072   1.98131   1.98294   1.98394
 Alpha virt. eigenvalues --    1.98680   1.99018   1.99258   1.99338   1.99816
 Alpha virt. eigenvalues --    2.00264   2.00315   2.00487   2.00780   2.00858
 Alpha virt. eigenvalues --    2.01078   2.01544   2.01551   2.01838   2.01947
 Alpha virt. eigenvalues --    2.02066   2.02376   2.02566   2.02812   2.03172
 Alpha virt. eigenvalues --    2.03527   2.03723   2.03882   2.04138   2.04838
 Alpha virt. eigenvalues --    2.05272   2.05525   2.05836   2.05981   2.06277
 Alpha virt. eigenvalues --    2.06575   2.06804   2.07045   2.07164   2.07539
 Alpha virt. eigenvalues --    2.07928   2.08114   2.08433   2.08663   2.08829
 Alpha virt. eigenvalues --    2.09302   2.09519   2.09789   2.10177   2.10459
 Alpha virt. eigenvalues --    2.11077   2.11532   2.11928   2.11955   2.12468
 Alpha virt. eigenvalues --    2.12751   2.13001   2.13514   2.13699   2.14103
 Alpha virt. eigenvalues --    2.14225   2.14626   2.14976   2.15632   2.15863
 Alpha virt. eigenvalues --    2.16113   2.16571   2.16581   2.16863   2.17683
 Alpha virt. eigenvalues --    2.17755   2.18133   2.18404   2.18517   2.18805
 Alpha virt. eigenvalues --    2.18854   2.19169   2.19389   2.19479   2.19693
 Alpha virt. eigenvalues --    2.19919   2.20574   2.20763   2.20878   2.21390
 Alpha virt. eigenvalues --    2.21523   2.21630   2.22273   2.22623   2.22796
 Alpha virt. eigenvalues --    2.23026   2.23173   2.23484   2.24163   2.24342
 Alpha virt. eigenvalues --    2.24697   2.25427   2.25543   2.26358   2.26718
 Alpha virt. eigenvalues --    2.26918   2.27803   2.27979   2.28529   2.28745
 Alpha virt. eigenvalues --    2.28929   2.29727   2.30041   2.30861   2.31383
 Alpha virt. eigenvalues --    2.31674   2.31746   2.32212   2.32735   2.33124
 Alpha virt. eigenvalues --    2.33403   2.33861   2.33977   2.34708   2.35349
 Alpha virt. eigenvalues --    2.35557   2.36263   2.36528   2.36905   2.36940
 Alpha virt. eigenvalues --    2.37591   2.37757   2.37855   2.38210   2.38508
 Alpha virt. eigenvalues --    2.39027   2.39126   2.39307   2.39958   2.40895
 Alpha virt. eigenvalues --    2.41248   2.41332   2.42264   2.42601   2.42747
 Alpha virt. eigenvalues --    2.43170   2.43422   2.43732   2.43883   2.44063
 Alpha virt. eigenvalues --    2.44503   2.44640   2.44798   2.46099   2.46395
 Alpha virt. eigenvalues --    2.46447   2.46465   2.46908   2.47314   2.48213
 Alpha virt. eigenvalues --    2.48278   2.48872   2.48936   2.49034   2.49420
 Alpha virt. eigenvalues --    2.50295   2.50819   2.50928   2.51304   2.51704
 Alpha virt. eigenvalues --    2.51945   2.52059   2.52230   2.52415   2.53043
 Alpha virt. eigenvalues --    2.53238   2.53646   2.53970   2.54300   2.54403
 Alpha virt. eigenvalues --    2.54835   2.55720   2.56137   2.56249   2.56327
 Alpha virt. eigenvalues --    2.56948   2.57402   2.58273   2.59098   2.59268
 Alpha virt. eigenvalues --    2.59656   2.61058   2.61426   2.61800   2.62199
 Alpha virt. eigenvalues --    2.62358   2.63271   2.63456   2.64143   2.64227
 Alpha virt. eigenvalues --    2.64534   2.64946   2.65336   2.65356   2.65494
 Alpha virt. eigenvalues --    2.65901   2.66241   2.66511   2.66965   2.67339
 Alpha virt. eigenvalues --    2.68427   2.68542   2.68762   2.69248   2.69610
 Alpha virt. eigenvalues --    2.69812   2.70099   2.71047   2.71285   2.71338
 Alpha virt. eigenvalues --    2.71724   2.71772   2.72477   2.72715   2.74010
 Alpha virt. eigenvalues --    2.74368   2.74750   2.75015   2.75091   2.75471
 Alpha virt. eigenvalues --    2.76214   2.76360   2.76814   2.76834   2.77765
 Alpha virt. eigenvalues --    2.78187   2.78521   2.78701   2.78993   2.79234
 Alpha virt. eigenvalues --    2.79999   2.80392   2.80564   2.80827   2.81191
 Alpha virt. eigenvalues --    2.81668   2.82609   2.83110   2.83287   2.83635
 Alpha virt. eigenvalues --    2.83826   2.84047   2.84575   2.85076   2.85555
 Alpha virt. eigenvalues --    2.85969   2.86432   2.86585   2.87494   2.87928
 Alpha virt. eigenvalues --    2.88674   2.89276   2.89470   2.90503   2.90784
 Alpha virt. eigenvalues --    2.91475   2.91641   2.91732   2.92620   2.92837
 Alpha virt. eigenvalues --    2.93140   2.93987   2.94593   2.95735   2.95868
 Alpha virt. eigenvalues --    2.96306   2.96997   2.97185   2.97796   2.98040
 Alpha virt. eigenvalues --    2.98507   2.99314   2.99503   3.00082   3.00326
 Alpha virt. eigenvalues --    3.00475   3.00700   3.01061   3.01431   3.02001
 Alpha virt. eigenvalues --    3.02055   3.02433   3.02820   3.02946   3.03403
 Alpha virt. eigenvalues --    3.03614   3.03971   3.04006   3.04250   3.04472
 Alpha virt. eigenvalues --    3.04822   3.05170   3.05274   3.05297   3.05615
 Alpha virt. eigenvalues --    3.05711   3.06096   3.06177   3.06226   3.07040
 Alpha virt. eigenvalues --    3.07400   3.07700   3.08066   3.08410   3.08828
 Alpha virt. eigenvalues --    3.09138   3.09253   3.09303   3.09595   3.10217
 Alpha virt. eigenvalues --    3.10380   3.11465   3.11921   3.11965   3.12177
 Alpha virt. eigenvalues --    3.12450   3.12914   3.13479   3.13669   3.14007
 Alpha virt. eigenvalues --    3.14075   3.14548   3.15112   3.15162   3.15618
 Alpha virt. eigenvalues --    3.16068   3.16160   3.17028   3.17817   3.18359
 Alpha virt. eigenvalues --    3.19289   3.19394   3.19790   3.20262   3.21258
 Alpha virt. eigenvalues --    3.22289   3.22745   3.22983   3.25786   3.26458
 Alpha virt. eigenvalues --    3.26810   3.29390   3.30024   3.30705   3.30935
 Alpha virt. eigenvalues --    3.31564   3.36446   3.41737   3.42477   3.47159
 Alpha virt. eigenvalues --    3.49564   3.53502   3.54538   3.58519   3.59912
 Alpha virt. eigenvalues --    3.66568   3.66922   3.67179   3.68685   3.71515
 Alpha virt. eigenvalues --    3.73736   3.80752
          Condensed to atoms (all electrons):
 Mulliken charges:
               1
     1  Mg   0.978295
     2  C   -0.008322
     3  C   -0.100520
     4  C   -0.068422
     5  C   -0.080394
     6  N   -0.346326
     7  C   -0.032990
     8  C    0.029393
     9  C   -0.168867
    10  C    0.087279
    11  C    0.038839
    12  C    0.040263
    13  C   -0.044598
    14  C    0.247648
    15  O   -0.267584
    16  O   -0.383919
    17  N   -0.529000
    18  C    0.202603
    19  C   -0.167240
    20  C   -0.067183
    21  C    0.155202
    22  C    0.053472
    23  C    0.075995
    24  O   -0.266466
    25  C   -0.023553
    26  N   -0.338130
    27  C    0.057079
    28  C   -0.086853
    29  C   -0.044124
    30  C    0.030705
    31  C    0.028271
    32  C   -0.060150
    33  C   -0.052453
    34  N   -0.410879
    35  C    0.123102
    36  C   -0.161959
    37  C    0.018680
    38  C    0.121416
    39  C    0.075302
    40  C    0.047588
    41  O   -0.200482
    42  C   -0.069758
    43  C    0.263105
    44  O   -0.267530
    45  O   -0.390445
    46  C    0.145058
    47  C    0.265243
    48  C   -0.159429
    49  C   -0.234206
    50  C    0.026142
    51  C    0.038316
    52  C    0.015269
    53  C   -0.015304
    54  C   -0.198843
    55  C    0.009549
    56  C    0.027279
    57  C   -0.057731
    58  C    0.015970
    59  C   -0.167899
    60  C   -0.000836
    61  C    0.040668
    62  C   -0.057176
    63  C   -0.013423
    64  C   -0.198966
    65  C   -0.011922
    66  C   -0.009419
    67  H   -0.006184
    68  H    0.030104
    69  H   -0.004963
    70  H    0.056040
    71  H    0.026360
    72  H    0.065614
    73  H    0.025320
    74  H    0.019707
    75  H    0.030739
    76  H    0.052817
    77  H    0.055306
    78  H    0.071074
    79  H    0.060603
    80  H    0.016045
    81  H    0.046433
    82  H    0.055997
    83  H    0.059633
    84  H    0.071835
    85  H    0.038599
    86  H    0.030656
    87  H    0.047262
    88  H    0.039421
    89  H    0.039775
    90  H    0.038945
    91  H    0.026293
    92  H    0.027338
    93  H    0.044216
    94  H    0.041903
    95  H    0.030487
    96  H    0.057781
    97  H    0.059726
    98  H    0.072451
    99  H    0.060151
   100  H    0.061042
   101  H    0.052607
   102  H    0.068102
   103  H    0.062798
   104  H    0.037689
   105  H    0.061215
   106  H    0.046281
   107  H    0.025073
   108  H    0.038217
   109  H   -0.006626
   110  H    0.030682
   111  H    0.025863
   112  H    0.006332
   113  H    0.021893
   114  H    0.018712
   115  H    0.033911
   116  H    0.020519
   117  H    0.027035
   118  H    0.018403
   119  H    0.017717
   120  H    0.024795
   121  H    0.025927
   122  H    0.008520
   123  H    0.003057
   124  H    0.014304
   125  H    0.026812
   126  H    0.017428
   127  H    0.027902
   128  H    0.011249
   129  H    0.016468
   130  H    0.023270
   131  H    0.017277
   132  H    0.014739
   133  H    0.014590
   134  H    0.024415
   135  H    0.019719
   136  H    0.039152
   137  H    0.028658
   138  H    0.021865
   139  H    0.032932
   140  H    0.037544
 Sum of Mulliken charges =  -0.00000
 Mulliken charges with hydrogens summed into heavy atoms:
               1
     1  Mg   0.978295
     2  C   -0.008322
     3  C   -0.106704
     4  C   -0.038318
     5  C   -0.085357
     6  N   -0.346326
     7  C   -0.032990
     8  C    0.085432
     9  C   -0.142507
    10  C    0.087279
    11  C    0.149481
    12  C    0.123820
    13  C    0.081781
    14  C    0.247648
    15  O   -0.267584
    16  O   -0.383919
    17  N   -0.529000
    18  C    0.202603
    19  C   -0.167240
    20  C   -0.067183
    21  C    0.155202
    22  C    0.176553
    23  C    0.075995
    24  O   -0.266466
    25  C    0.163913
    26  N   -0.338130
    27  C    0.057079
    28  C   -0.048254
    29  C   -0.013469
    30  C    0.030705
    31  C    0.154729
    32  C    0.005089
    33  C    0.061005
    34  N   -0.410879
    35  C    0.123102
    36  C   -0.161959
    37  C    0.018680
    38  C    0.121416
    39  C    0.223295
    40  C    0.047588
    41  O   -0.200482
    42  C    0.002693
    43  C    0.263105
    44  O   -0.267530
    45  O   -0.390445
    46  C    0.318858
    47  C    0.396143
    48  C   -0.121740
    49  C   -0.234206
    50  C    0.158710
    51  C    0.069908
    52  C    0.071814
    53  C    0.012921
    54  C   -0.180131
    55  C    0.091014
    56  C    0.063400
    57  C   -0.007009
    58  C    0.027547
    59  C   -0.153595
    60  C    0.071306
    61  C    0.068385
    62  C   -0.016629
    63  C    0.015906
    64  C   -0.174552
    65  C    0.075607
    66  C    0.082922
 Electronic spatial extent (au):  <R**2>=         113622.0001
 Charge=             -0.0000 electrons
 Dipole moment (field-independent basis, Debye):
    X=              4.6521    Y=              2.4984    Z=             -3.7185  Tot=              6.4584
 Quadrupole moment (field-independent basis, Debye-Ang):
   XX=           -364.2744   YY=           -425.1082   ZZ=           -400.1889
   XY=            -12.2055   XZ=              5.1214   YZ=              9.1035
 Traceless Quadrupole moment (field-independent basis, Debye-Ang):
   XX=             32.2494   YY=            -28.5844   ZZ=             -3.6651
   XY=            -12.2055   XZ=              5.1214   YZ=              9.1035
 Octapole moment (field-independent basis, Debye-Ang**2):
  XXX=           -388.1264  YYY=             -2.9546  ZZZ=            -16.4432  XYY=            315.3192
  XXY=            -39.2602  XXZ=             31.3236  XZZ=             19.6962  YZZ=             -8.7787
  YYZ=            -43.5033  XYZ=            -15.7893
 Hexadecapole moment (field-independent basis, Debye-Ang**3):
 XXXX=        -116064.9392 YYYY=         -23846.6843 ZZZZ=         -10951.2901 XXXY=           -134.1194
 XXXZ=           -639.3190 YYYX=           -131.5183 YYYZ=            -63.2002 ZZZX=             48.1387
 ZZZY=             69.4765 XXYY=         -25647.1077 XXZZ=         -22087.6848 YYZZ=          -5649.5173
 XXYZ=            224.9520 YYXZ=            306.8650 ZZXY=            -32.2322
 N-N= 9.592054927345D+03 E-N=-2.617800354288D+04  KE= 2.975993028356D+03
 Leave Link  601 at Wed May  4 14:50:28 2022, MaxMem= 10066329600 cpu:              11.5 elap:               0.6
 (Enter /sw/apps/gaussian-16.0/g16/l9999.exe)
 1\1\GINC-BP1-COMPUTE067\SP\RwB97XD TD-FC\def2SVP\C55H74Mg1N4O6\OF15641
 \04-May-2022\0\\#p wB97XD/Def2SVP td=(nstates=5)\\step_1801_chromophor
 e_9 TDDFT with wB97XD functional\\0,1\Mg,0,36.484,0.417,29.643\C,0,34.
 267,1.605,32.017\C,0,38.893,0.438,32.056\C,0,38.748,0.004,27.154\C,0,3
 4.009,1.117,27.155\N,0,36.507,0.942,31.772\C,0,35.517,1.41,32.57\C,0,3
 5.933,1.493,34.014\C,0,37.507,1.383,33.908\C,0,37.668,0.899,32.475\C,0
 ,38.325,2.704,34.081\C,0,35.209,0.435,34.856\C,0,35.618,0.254,36.372\C
 ,0,36.414,1.396,37.093\O,0,36.556,2.528,36.627\O,0,36.895,0.908,38.299
 \N,0,38.486,0.143,29.63\C,0,39.314,0.151,30.754\C,0,40.62,-0.104,30.32
 3\C,0,40.652,-0.353,28.933\C,0,39.262,-0.075,28.48\C,0,41.707,-0.245,3
 1.333\C,0,41.823,-0.67,27.942\O,0,41.635,-0.798,26.697\C,0,43.262,-0.7
 48,28.457\N,0,36.364,0.452,27.51\C,0,37.452,0.213,26.759\C,0,37.08,0.1
 9,25.215\C,0,35.629,0.474,25.236\C,0,35.311,0.71,26.71\C,0,37.938,1.06
 ,24.228\C,0,34.625,-0.564,24.521\C,0,34.168,-1.779,25.38\N,0,34.479,1.
 071,29.603\C,0,33.655,1.371,28.518\C,0,32.398,1.917,29.013\C,0,32.584,
 2.016,30.413\C,0,33.839,1.464,30.692\C,0,31.341,2.385,28.12\C,0,32.04,
 2.507,31.574\O,0,31.005,3.1,31.78\C,0,33.04,2.21,32.705\C,0,33.259,3.4
 35,33.482\O,0,33.966,4.395,33.169\O,0,32.733,3.319,34.762\C,0,32.899,4
 .539,35.6\C,0,37.619,1.915,39.125\C,0,38.374,1.043,40.087\C,0,39.113,1
 .462,41.153\C,0,39.341,2.927,41.589\C,0,39.699,0.413,42.026\C,0,40.867
 ,-0.446,41.535\C,0,41.91,-0.602,42.708\C,0,43.181,0.321,42.496\C,0,44.
 437,-0.559,42.465\C,0,43.272,1.429,43.598\C,0,43.488,2.824,42.969\C,0,
 44.516,3.722,43.682\C,0,45.498,4.42,42.804\C,0,46.787,3.618,42.498\C,0
 ,45.775,5.94,43.226\C,0,45.249,6.928,42.281\C,0,45.68,8.361,42.613\C,0
 ,44.459,9.359,42.62\C,0,43.469,9.122,43.837\C,0,43.775,9.385,41.224\H,
 0,39.648,0.471,32.844\H,0,39.361,-0.275,26.295\H,0,33.27,1.311,26.375\
 H,0,35.77,2.514,34.358\H,0,37.996,0.701,34.604\H,0,37.728,3.608,34.206
 \H,0,38.987,2.844,33.226\H,0,39.103,2.583,34.835\H,0,35.509,-0.469,34.
 326\H,0,34.124,0.531,34.878\H,0,36.327,-0.556,36.198\H,0,34.895,-0.18,
 37.063\H,0,42.235,0.674,31.587\H,0,42.444,-0.938,30.926\H,0,41.402,-0.
 82,32.207\H,0,43.461,0.035,29.188\H,0,43.888,-0.634,27.571\H,0,43.451,
 -1.727,28.897\H,0,37.192,-0.826,24.838\H,0,35.384,1.374,24.671\H,0,38.
 857,1.377,24.719\H,0,37.34,1.913,23.906\H,0,38.211,0.372,23.428\H,0,34
 .939,-1.005,23.576\H,0,33.716,0.01,24.338\H,0,34.275,-2.711,24.826\H,0
 ,33.114,-1.7,25.646\H,0,34.887,-1.857,26.196\H,0,31.146,1.63,27.359\H,
 0,31.726,3.237,27.559\H,0,30.356,2.559,28.555\H,0,32.625,1.459,33.377\
 H,0,32.385,5.385,35.142\H,0,33.971,4.733,35.627\H,0,32.51,4.326,36.596
 \H,0,36.934,2.627,39.586\H,0,38.364,2.425,38.515\H,0,38.193,-0.03,40.0
 25\H,0,40.238,3.356,41.143\H,0,39.367,3.098,42.665\H,0,38.474,3.479,41
 .224\H,0,38.9,-0.214,42.423\H,0,40.056,0.977,42.888\H,0,41.348,0.018,4
 0.674\H,0,40.478,-1.453,41.382\H,0,42.203,-1.651,42.662\H,0,41.565,-0.
 521,43.739\H,0,43.131,0.791,41.514\H,0,44.28,-1.519,42.956\H,0,45.255,
 -0.009,42.931\H,0,44.754,-0.741,41.438\H,0,44.105,1.215,44.268\H,0,42.
 33,1.557,44.133\H,0,42.502,3.286,43.028\H,0,43.817,2.702,41.937\H,0,45
 .049,3.205,44.48\H,0,43.907,4.404,44.276\H,0,44.936,4.541,41.878\H,0,4
 6.849,2.568,42.786\H,0,47.669,4.021,42.997\H,0,47.076,3.686,41.449\H,0
 ,46.856,6.076,43.236\H,0,45.343,6.034,44.222\H,0,44.185,6.866,42.051\H
 ,0,45.749,6.824,41.318\H,0,46.397,8.73,41.88\H,0,46.267,8.381,43.531\H
 ,0,44.951,10.325,42.729\H,0,42.472,8.79,43.548\H,0,43.327,10.051,44.38
 9\H,0,43.783,8.336,44.524\H,0,42.74,9.104,41.418\H,0,44.207,8.673,40.5
 21\H,0,43.821,10.366,40.75\\Version=ES64L-G16RevA.03\State=1-A\HF=-300
 7.8877006\RMSD=8.947e-09\PG=C01 [X(C55H74Mg1N4O6)]\\@


 WHEN YOU'VE SEEN ONE NUCLEAR WAR YOU'VE SEEN THEM ALL.
 Job cpu time:       0 days 10 hours 48 minutes 31.2 seconds.
 Elapsed time:       0 days  0 hours 27 minutes 29.7 seconds.
 File lengths (MBytes):  RWF=   8929 Int=      0 D2E=      0 Chk=    390 Scr=      1
 Normal termination of Gaussian 16 at Wed May  4 14:50:29 2022.
