 Entering Gaussian System, Link 0=g16
 Initial command:
 /sw/apps/gaussian-16.0/g16/l1.exe "/tmp/Gau-3826.inp" -scrdir="/tmp/"
 Entering Link 1 = /sw/apps/gaussian-16.0/g16/l1.exe PID=      3827.
  
 Copyright (c) 1988,1990,1992,1993,1995,1998,2003,2009,2016,
            Gaussian, Inc.  All Rights Reserved.
  
 This is part of the Gaussian(R) 16 program.  It is based on
 the Gaussian(R) 09 system (copyright 2009, Gaussian, Inc.),
 the Gaussian(R) 03 system (copyright 2003, Gaussian, Inc.),
 the Gaussian(R) 98 system (copyright 1998, Gaussian, Inc.),
 the Gaussian(R) 94 system (copyright 1995, Gaussian, Inc.),
 the Gaussian 92(TM) system (copyright 1992, Gaussian, Inc.),
 the Gaussian 90(TM) system (copyright 1990, Gaussian, Inc.),
 the Gaussian 88(TM) system (copyright 1988, Gaussian, Inc.),
 the Gaussian 86(TM) system (copyright 1986, Carnegie Mellon
 University), and the Gaussian 82(TM) system (copyright 1983,
 Carnegie Mellon University). Gaussian is a federally registered
 trademark of Gaussian, Inc.
  
 This software contains proprietary and confidential information,
 including trade secrets, belonging to Gaussian, Inc.
  
 This software is provided under written license and may be
 used, copied, transmitted, or stored only in accord with that
 written license.
  
 The following legend is applicable only to US Government
 contracts under FAR:
  
                    RESTRICTED RIGHTS LEGEND
  
 Use, reproduction and disclosure by the US Government is
 subject to restrictions as set forth in subparagraphs (a)
 and (c) of the Commercial Computer Software - Restricted
 Rights clause in FAR 52.227-19.
  
 Gaussian, Inc.
 340 Quinnipiac St., Bldg. 40, Wallingford CT 06492
  
  
 ---------------------------------------------------------------
 Warning -- This program may not be used in any manner that
 competes with the business of Gaussian, Inc. or will provide
 assistance to any competitor of Gaussian, Inc.  The licensee
 of this program is prohibited from giving any competitor of
 Gaussian, Inc. access to this program.  By using this program,
 the user acknowledges that Gaussian, Inc. is engaged in the
 business of creating and licensing software in the field of
 computational chemistry and represents and warrants to the
 licensee that it is not a competitor of Gaussian, Inc. and that
 it will not use this program in any manner prohibited above.
 ---------------------------------------------------------------
  

 Cite this work as:
 Gaussian 16, Revision A.03,
 M. J. Frisch, G. W. Trucks, H. B. Schlegel, G. E. Scuseria, 
 M. A. Robb, J. R. Cheeseman, G. Scalmani, V. Barone, 
 G. A. Petersson, H. Nakatsuji, X. Li, M. Caricato, A. V. Marenich, 
 J. Bloino, B. G. Janesko, R. Gomperts, B. Mennucci, H. P. Hratchian, 
 J. V. Ortiz, A. F. Izmaylov, J. L. Sonnenberg, D. Williams-Young, 
 F. Ding, F. Lipparini, F. Egidi, J. Goings, B. Peng, A. Petrone, 
 T. Henderson, D. Ranasinghe, V. G. Zakrzewski, J. Gao, N. Rega, 
 G. Zheng, W. Liang, M. Hada, M. Ehara, K. Toyota, R. Fukuda, 
 J. Hasegawa, M. Ishida, T. Nakajima, Y. Honda, O. Kitao, H. Nakai, 
 T. Vreven, K. Throssell, J. A. Montgomery, Jr., J. E. Peralta, 
 F. Ogliaro, M. J. Bearpark, J. J. Heyd, E. N. Brothers, K. N. Kudin, 
 V. N. Staroverov, T. A. Keith, R. Kobayashi, J. Normand, 
 K. Raghavachari, A. P. Rendell, J. C. Burant, S. S. Iyengar, 
 J. Tomasi, M. Cossi, J. M. Millam, M. Klene, C. Adamo, R. Cammi, 
 J. W. Ochterski, R. L. Martin, K. Morokuma, O. Farkas, 
 J. B. Foresman, and D. J. Fox, Gaussian, Inc., Wallingford CT, 2016.
 
 ******************************************
 Gaussian 16:  ES64L-G16RevA.03 25-Dec-2016
                27-Apr-2022 
 ******************************************
 %nproc=24
 Will use up to   24 processors via shared memory.
 %mem=50gb
 --------------------
 #p ZINDO=(nstates=5)
 --------------------
 1/38=1,172=1/1;
 2/12=2,17=6,18=5,40=1/2;
 3/5=2,25=1,41=400000/1,2,3,8;
 4/5=3,35=1/1;
 5/5=2,35=1,38=5/2;
 8/6=1,108=5/1;
 9/41=5,42=1,49=10/14;
 6/7=2,8=2,9=2,10=2/1;
 99/5=1,9=1/99;
 Leave Link    1 at Wed Apr 27 03:11:04 2022, MaxMem=  6710886400 cpu:               1.8 elap:               0.1
 (Enter /sw/apps/gaussian-16.0/g16/l101.exe)
 ------------------------------
 step_1051_chromophore_17 ZINDO
 ------------------------------
 Symbolic Z-matrix:
 Charge =  0 Multiplicity = 1
 Mg                    29.07     59.013    41.293 
 C                     26.15     57.42     40.308 
 C                     30.918    56.419    39.827 
 C                     31.825    61.039    41.276 
 C                     27.042    61.9      41.922 
 N                     28.491    57.173    40.142 
 C                     27.25     56.663    39.962 
 C                     27.351    55.328    39.192 
 C                     28.852    54.911    39.483 
 C                     29.485    56.273    39.74 
 C                     29.099    53.775    40.534 
 C                     26.989    55.374    37.664 
 C                     26.568    54.085    36.956 
 C                     26.162    54.25     35.49 
 O                     24.996    54.39     35.16 
 O                     27.251    54.443    34.607 
 N                     31.092    58.698    40.825 
 C                     31.6      57.589    40.183 
 C                     33.041    57.85     40. 
 C                     33.371    59.128    40.519 
 C                     32.091    59.681    40.911 
 C                     33.98     56.863    39.377 
 C                     34.817    59.709    40.623 
 O                     35.795    59.19     40.134 
 C                     35.14     61.001    41.431 
 N                     29.385    61.085    41.493 
 C                     30.628    61.623    41.627 
 C                     30.564    63.138    42.01 
 C                     29.077    63.376    42.377 
 C                     28.46     62.016    41.904 
 C                     31.482    63.663    43.13 
 C                     28.376    64.631    41.888 
 C                     27.858    65.579    42.875 
 N                     27.007    59.569    41.292 
 C                     26.318    60.736    41.634 
 C                     24.905    60.591    41.579 
 C                     24.755    59.243    41.098 
 C                     26.083    58.676    40.936 
 C                     23.821    61.466    42.104 
 C                     23.802    58.209    40.764 
 O                     22.591    58.085    40.819 
 C                     24.726    57.023    40.225 
 C                     24.529    55.794    41.081 
 O                     24.877    55.666    42.245 
 O                     23.914    54.782    40.33 
 C                     23.946    53.377    40.965 
 C                     26.86     54.846    33.237 
 C                     27.979    54.672    32.175 
 C                     28.031    54.121    30.901 
 C                     26.77     53.776    30.095 
 C                     29.396    53.975    30.199 
 C                     30.137    55.31     30.059 
 C                     31.313    55.489    30.976 
 C                     32.527    56.033    30.249 
 C                     32.317    57.569    29.968 
 C                     33.825    55.709    30.986 
 C                     34.392    54.265    30.541 
 C                     35.922    54.361    30.351 
 C                     36.635    53.607    29.243 
 C                     37.505    52.468    29.699 
 C                     37.312    54.441    28.162 
 C                     36.393    54.667    26.998 
 C                     37.105    55.535    25.919 
 C                     36.885    57.046    26.284 
 C                     36.05     57.828    25.26 
 C                     38.215    57.758    26.574 
 H                     31.529    55.573    39.503 
 H                     32.627    61.685    40.916 
 H                     26.401    62.597    42.466 
 H                     26.64     54.657    39.674 
 H                     29.308    54.523    38.572 
 H                     29.391    54.111    41.53 
 H                     30.012    53.332    40.135 
 H                     28.189    53.192    40.675 
 H                     27.847    55.803    37.147 
 H                     26.181    56.099    37.56 
 H                     25.781    53.59     37.525 
 H                     27.42     53.405    36.957 
 H                     34.65     57.416    38.719 
 H                     33.398    56.166    38.775 
 H                     34.424    56.355    40.233 
 H                     34.942    61.967    40.967 
 H                     36.177    61.097    41.75 
 H                     34.563    60.883    42.349 
 H                     30.833    63.681    41.104 
 H                     28.946    63.365    43.459 
 H                     32.297    62.997    43.411 
 H                     31.045    64.105    44.026 
 H                     32.044    64.507    42.729 
 H                     27.495    64.273    41.355 
 H                     28.988    65.215    41.202 
 H                     27.752    65.198    43.891 
 H                     26.806    65.758    42.656 
 H                     28.452    66.491    42.815 
 H                     24.145    62.171    42.868 
 H                     22.973    60.87     42.443 
 H                     23.521    62.16     41.319 
 H                     24.485    56.748    39.198 
 H                     24.711    53.351    41.741 
 H                     24.085    52.82     40.039 
 H                     23.061    53.041    41.505 
 H                     26.415    55.84     33.208 
 H                     26.014    54.338    32.773 
 H                     28.971    54.916    32.558 
 H                     27.014    52.952    29.424 
 H                     26.318    54.669    29.664 
 H                     26.068    53.255    30.746 
 H                     29.387    53.565    29.188 
 H                     29.962    53.302    30.843 
 H                     29.348    56.038    30.246 
 H                     30.313    55.52     29.004 
 H                     31.607    54.499    31.326 
 H                     31.032    56.096    31.837 
 H                     32.617    55.64     29.236 
 H                     31.384    58.025    30.298 
 H                     32.415    57.695    28.89 
 H                     33.065    58.186    30.467 
 H                     33.641    55.645    32.058 
 H                     34.53     56.526    30.833 
 H                     33.929    53.945    29.608 
 H                     34.205    53.517    31.311 
 H                     36.46     54.154    31.276 
 H                     36.227    55.405    30.284 
 H                     35.851    53.038    28.744 
 H                     37.54     51.676    28.95 
 H                     37.029    52.093    30.604 
 H                     38.539    52.757    29.889 
 H                     38.194    53.893    27.831 
 H                     37.579    55.413    28.578 
 H                     35.435    55.038    27.364 
 H                     36.086    53.742    26.509 
 H                     36.613    55.155    25.023 
 H                     38.149    55.27     25.748 
 H                     36.417    57.148    27.263 
 H                     36.583    58.565    24.661 
 H                     35.206    58.244    25.81 
 H                     35.655    57.105    24.546 
 H                     38.626    57.6      27.572 
 H                     38.072    58.837    26.509 
 H                     38.925    57.525    25.78 
 
 ITRead=  0  0  0  0  0  0  0  0  0  0  0  0  0  0  0  0  0  0  0  0
 ITRead=  0  0  0  0  0  0  0  0  0  0  0  0  0  0  0  0  0  0  0  0
 ITRead=  0  0  0  0  0  0  0  0  0  0  0  0  0  0  0  0  0  0  0  0
 ITRead=  0  0  0  0  0  0  0  0  0  0  0  0  0  0  0  0  0  0  0  0
 ITRead=  0  0  0  0  0  0  0  0  0  0  0  0  0  0  0  0  0  0  0  0
 ITRead=  0  0  0  0  0  0  0  0  0  0  0  0  0  0  0  0  0  0  0  0
 ITRead=  0  0  0  0  0  0  0  0  0  0  0  0  0  0  0  0  0  0  0  0
 MicOpt= -1 -1 -1 -1 -1 -1 -1 -1 -1 -1 -1 -1 -1 -1 -1 -1 -1 -1 -1 -1
 MicOpt= -1 -1 -1 -1 -1 -1 -1 -1 -1 -1 -1 -1 -1 -1 -1 -1 -1 -1 -1 -1
 MicOpt= -1 -1 -1 -1 -1 -1 -1 -1 -1 -1 -1 -1 -1 -1 -1 -1 -1 -1 -1 -1
 MicOpt= -1 -1 -1 -1 -1 -1 -1 -1 -1 -1 -1 -1 -1 -1 -1 -1 -1 -1 -1 -1
 MicOpt= -1 -1 -1 -1 -1 -1 -1 -1 -1 -1 -1 -1 -1 -1 -1 -1 -1 -1 -1 -1
 MicOpt= -1 -1 -1 -1 -1 -1 -1 -1 -1 -1 -1 -1 -1 -1 -1 -1 -1 -1 -1 -1
 MicOpt= -1 -1 -1 -1 -1 -1 -1 -1 -1 -1 -1 -1 -1 -1 -1 -1 -1 -1 -1 -1
 NAtoms=    140 NQM=      140 NQMF=       0 NMMI=      0 NMMIF=      0
                NMic=       0 NMicF=      0.
                    Isotopes and Nuclear Properties:
 (Nuclear quadrupole moments (NQMom) in fm**2, nuclear magnetic moments (NMagM)
  in nuclear magnetons)

  Atom         1           2           3           4           5           6           7           8           9          10
 IAtWgt=          24          12          12          12          12          14          12          12          12          12
 AtmWgt=  23.9850450  12.0000000  12.0000000  12.0000000  12.0000000  14.0030740  12.0000000  12.0000000  12.0000000  12.0000000
 NucSpn=           0           0           0           0           0           2           0           0           0           0
 AtZEff=  -0.0000000  -0.0000000  -0.0000000  -0.0000000  -0.0000000  -0.0000000  -0.0000000  -0.0000000  -0.0000000  -0.0000000
 NQMom=    0.0000000   0.0000000   0.0000000   0.0000000   0.0000000   2.0440000   0.0000000   0.0000000   0.0000000   0.0000000
 NMagM=    0.0000000   0.0000000   0.0000000   0.0000000   0.0000000   0.4037610   0.0000000   0.0000000   0.0000000   0.0000000
 AtZNuc=  12.0000000   6.0000000   6.0000000   6.0000000   6.0000000   7.0000000   6.0000000   6.0000000   6.0000000   6.0000000

  Atom        11          12          13          14          15          16          17          18          19          20
 IAtWgt=          12          12          12          12          16          16          14          12          12          12
 AtmWgt=  12.0000000  12.0000000  12.0000000  12.0000000  15.9949146  15.9949146  14.0030740  12.0000000  12.0000000  12.0000000
 NucSpn=           0           0           0           0           0           0           2           0           0           0
 AtZEff=  -0.0000000  -0.0000000  -0.0000000  -0.0000000  -0.0000000  -0.0000000  -0.0000000  -0.0000000  -0.0000000  -0.0000000
 NQMom=    0.0000000   0.0000000   0.0000000   0.0000000   0.0000000   0.0000000   2.0440000   0.0000000   0.0000000   0.0000000
 NMagM=    0.0000000   0.0000000   0.0000000   0.0000000   0.0000000   0.0000000   0.4037610   0.0000000   0.0000000   0.0000000
 AtZNuc=   6.0000000   6.0000000   6.0000000   6.0000000   8.0000000   8.0000000   7.0000000   6.0000000   6.0000000   6.0000000

  Atom        21          22          23          24          25          26          27          28          29          30
 IAtWgt=          12          12          12          16          12          14          12          12          12          12
 AtmWgt=  12.0000000  12.0000000  12.0000000  15.9949146  12.0000000  14.0030740  12.0000000  12.0000000  12.0000000  12.0000000
 NucSpn=           0           0           0           0           0           2           0           0           0           0
 AtZEff=  -0.0000000  -0.0000000  -0.0000000  -0.0000000  -0.0000000  -0.0000000  -0.0000000  -0.0000000  -0.0000000  -0.0000000
 NQMom=    0.0000000   0.0000000   0.0000000   0.0000000   0.0000000   2.0440000   0.0000000   0.0000000   0.0000000   0.0000000
 NMagM=    0.0000000   0.0000000   0.0000000   0.0000000   0.0000000   0.4037610   0.0000000   0.0000000   0.0000000   0.0000000
 AtZNuc=   6.0000000   6.0000000   6.0000000   8.0000000   6.0000000   7.0000000   6.0000000   6.0000000   6.0000000   6.0000000

  Atom        31          32          33          34          35          36          37          38          39          40
 IAtWgt=          12          12          12          14          12          12          12          12          12          12
 AtmWgt=  12.0000000  12.0000000  12.0000000  14.0030740  12.0000000  12.0000000  12.0000000  12.0000000  12.0000000  12.0000000
 NucSpn=           0           0           0           2           0           0           0           0           0           0
 AtZEff=  -0.0000000  -0.0000000  -0.0000000  -0.0000000  -0.0000000  -0.0000000  -0.0000000  -0.0000000  -0.0000000  -0.0000000
 NQMom=    0.0000000   0.0000000   0.0000000   2.0440000   0.0000000   0.0000000   0.0000000   0.0000000   0.0000000   0.0000000
 NMagM=    0.0000000   0.0000000   0.0000000   0.4037610   0.0000000   0.0000000   0.0000000   0.0000000   0.0000000   0.0000000
 AtZNuc=   6.0000000   6.0000000   6.0000000   7.0000000   6.0000000   6.0000000   6.0000000   6.0000000   6.0000000   6.0000000

  Atom        41          42          43          44          45          46          47          48          49          50
 IAtWgt=          16          12          12          16          16          12          12          12          12          12
 AtmWgt=  15.9949146  12.0000000  12.0000000  15.9949146  15.9949146  12.0000000  12.0000000  12.0000000  12.0000000  12.0000000
 NucSpn=           0           0           0           0           0           0           0           0           0           0
 AtZEff=  -0.0000000  -0.0000000  -0.0000000  -0.0000000  -0.0000000  -0.0000000  -0.0000000  -0.0000000  -0.0000000  -0.0000000
 NQMom=    0.0000000   0.0000000   0.0000000   0.0000000   0.0000000   0.0000000   0.0000000   0.0000000   0.0000000   0.0000000
 NMagM=    0.0000000   0.0000000   0.0000000   0.0000000   0.0000000   0.0000000   0.0000000   0.0000000   0.0000000   0.0000000
 AtZNuc=   8.0000000   6.0000000   6.0000000   8.0000000   8.0000000   6.0000000   6.0000000   6.0000000   6.0000000   6.0000000

  Atom        51          52          53          54          55          56          57          58          59          60
 IAtWgt=          12          12          12          12          12          12          12          12          12          12
 AtmWgt=  12.0000000  12.0000000  12.0000000  12.0000000  12.0000000  12.0000000  12.0000000  12.0000000  12.0000000  12.0000000
 NucSpn=           0           0           0           0           0           0           0           0           0           0
 AtZEff=  -0.0000000  -0.0000000  -0.0000000  -0.0000000  -0.0000000  -0.0000000  -0.0000000  -0.0000000  -0.0000000  -0.0000000
 NQMom=    0.0000000   0.0000000   0.0000000   0.0000000   0.0000000   0.0000000   0.0000000   0.0000000   0.0000000   0.0000000
 NMagM=    0.0000000   0.0000000   0.0000000   0.0000000   0.0000000   0.0000000   0.0000000   0.0000000   0.0000000   0.0000000
 AtZNuc=   6.0000000   6.0000000   6.0000000   6.0000000   6.0000000   6.0000000   6.0000000   6.0000000   6.0000000   6.0000000

  Atom        61          62          63          64          65          66          67          68          69          70
 IAtWgt=          12          12          12          12          12          12           1           1           1           1
 AtmWgt=  12.0000000  12.0000000  12.0000000  12.0000000  12.0000000  12.0000000   1.0078250   1.0078250   1.0078250   1.0078250
 NucSpn=           0           0           0           0           0           0           1           1           1           1
 AtZEff=  -0.0000000  -0.0000000  -0.0000000  -0.0000000  -0.0000000  -0.0000000  -0.0000000  -0.0000000  -0.0000000  -0.0000000
 NQMom=    0.0000000   0.0000000   0.0000000   0.0000000   0.0000000   0.0000000   0.0000000   0.0000000   0.0000000   0.0000000
 NMagM=    0.0000000   0.0000000   0.0000000   0.0000000   0.0000000   0.0000000   2.7928460   2.7928460   2.7928460   2.7928460
 AtZNuc=   6.0000000   6.0000000   6.0000000   6.0000000   6.0000000   6.0000000   1.0000000   1.0000000   1.0000000   1.0000000

  Atom        71          72          73          74          75          76          77          78          79          80
 IAtWgt=           1           1           1           1           1           1           1           1           1           1
 AtmWgt=   1.0078250   1.0078250   1.0078250   1.0078250   1.0078250   1.0078250   1.0078250   1.0078250   1.0078250   1.0078250
 NucSpn=           1           1           1           1           1           1           1           1           1           1
 AtZEff=  -0.0000000  -0.0000000  -0.0000000  -0.0000000  -0.0000000  -0.0000000  -0.0000000  -0.0000000  -0.0000000  -0.0000000
 NQMom=    0.0000000   0.0000000   0.0000000   0.0000000   0.0000000   0.0000000   0.0000000   0.0000000   0.0000000   0.0000000
 NMagM=    2.7928460   2.7928460   2.7928460   2.7928460   2.7928460   2.7928460   2.7928460   2.7928460   2.7928460   2.7928460
 AtZNuc=   1.0000000   1.0000000   1.0000000   1.0000000   1.0000000   1.0000000   1.0000000   1.0000000   1.0000000   1.0000000

  Atom        81          82          83          84          85          86          87          88          89          90
 IAtWgt=           1           1           1           1           1           1           1           1           1           1
 AtmWgt=   1.0078250   1.0078250   1.0078250   1.0078250   1.0078250   1.0078250   1.0078250   1.0078250   1.0078250   1.0078250
 NucSpn=           1           1           1           1           1           1           1           1           1           1
 AtZEff=  -0.0000000  -0.0000000  -0.0000000  -0.0000000  -0.0000000  -0.0000000  -0.0000000  -0.0000000  -0.0000000  -0.0000000
 NQMom=    0.0000000   0.0000000   0.0000000   0.0000000   0.0000000   0.0000000   0.0000000   0.0000000   0.0000000   0.0000000
 NMagM=    2.7928460   2.7928460   2.7928460   2.7928460   2.7928460   2.7928460   2.7928460   2.7928460   2.7928460   2.7928460
 AtZNuc=   1.0000000   1.0000000   1.0000000   1.0000000   1.0000000   1.0000000   1.0000000   1.0000000   1.0000000   1.0000000

  Atom        91          92          93          94          95          96          97          98          99         100
 IAtWgt=           1           1           1           1           1           1           1           1           1           1
 AtmWgt=   1.0078250   1.0078250   1.0078250   1.0078250   1.0078250   1.0078250   1.0078250   1.0078250   1.0078250   1.0078250
 NucSpn=           1           1           1           1           1           1           1           1           1           1
 AtZEff=  -0.0000000  -0.0000000  -0.0000000  -0.0000000  -0.0000000  -0.0000000  -0.0000000  -0.0000000  -0.0000000  -0.0000000
 NQMom=    0.0000000   0.0000000   0.0000000   0.0000000   0.0000000   0.0000000   0.0000000   0.0000000   0.0000000   0.0000000
 NMagM=    2.7928460   2.7928460   2.7928460   2.7928460   2.7928460   2.7928460   2.7928460   2.7928460   2.7928460   2.7928460
 AtZNuc=   1.0000000   1.0000000   1.0000000   1.0000000   1.0000000   1.0000000   1.0000000   1.0000000   1.0000000   1.0000000

  Atom       101         102         103         104         105         106         107         108         109         110
 IAtWgt=           1           1           1           1           1           1           1           1           1           1
 AtmWgt=   1.0078250   1.0078250   1.0078250   1.0078250   1.0078250   1.0078250   1.0078250   1.0078250   1.0078250   1.0078250
 NucSpn=           1           1           1           1           1           1           1           1           1           1
 AtZEff=  -0.0000000  -0.0000000  -0.0000000  -0.0000000  -0.0000000  -0.0000000  -0.0000000  -0.0000000  -0.0000000  -0.0000000
 NQMom=    0.0000000   0.0000000   0.0000000   0.0000000   0.0000000   0.0000000   0.0000000   0.0000000   0.0000000   0.0000000
 NMagM=    2.7928460   2.7928460   2.7928460   2.7928460   2.7928460   2.7928460   2.7928460   2.7928460   2.7928460   2.7928460
 AtZNuc=   1.0000000   1.0000000   1.0000000   1.0000000   1.0000000   1.0000000   1.0000000   1.0000000   1.0000000   1.0000000

  Atom       111         112         113         114         115         116         117         118         119         120
 IAtWgt=           1           1           1           1           1           1           1           1           1           1
 AtmWgt=   1.0078250   1.0078250   1.0078250   1.0078250   1.0078250   1.0078250   1.0078250   1.0078250   1.0078250   1.0078250
 NucSpn=           1           1           1           1           1           1           1           1           1           1
 AtZEff=  -0.0000000  -0.0000000  -0.0000000  -0.0000000  -0.0000000  -0.0000000  -0.0000000  -0.0000000  -0.0000000  -0.0000000
 NQMom=    0.0000000   0.0000000   0.0000000   0.0000000   0.0000000   0.0000000   0.0000000   0.0000000   0.0000000   0.0000000
 NMagM=    2.7928460   2.7928460   2.7928460   2.7928460   2.7928460   2.7928460   2.7928460   2.7928460   2.7928460   2.7928460
 AtZNuc=   1.0000000   1.0000000   1.0000000   1.0000000   1.0000000   1.0000000   1.0000000   1.0000000   1.0000000   1.0000000

  Atom       121         122         123         124         125         126         127         128         129         130
 IAtWgt=           1           1           1           1           1           1           1           1           1           1
 AtmWgt=   1.0078250   1.0078250   1.0078250   1.0078250   1.0078250   1.0078250   1.0078250   1.0078250   1.0078250   1.0078250
 NucSpn=           1           1           1           1           1           1           1           1           1           1
 AtZEff=  -0.0000000  -0.0000000  -0.0000000  -0.0000000  -0.0000000  -0.0000000  -0.0000000  -0.0000000  -0.0000000  -0.0000000
 NQMom=    0.0000000   0.0000000   0.0000000   0.0000000   0.0000000   0.0000000   0.0000000   0.0000000   0.0000000   0.0000000
 NMagM=    2.7928460   2.7928460   2.7928460   2.7928460   2.7928460   2.7928460   2.7928460   2.7928460   2.7928460   2.7928460
 AtZNuc=   1.0000000   1.0000000   1.0000000   1.0000000   1.0000000   1.0000000   1.0000000   1.0000000   1.0000000   1.0000000

  Atom       131         132         133         134         135         136         137         138         139         140
 IAtWgt=           1           1           1           1           1           1           1           1           1           1
 AtmWgt=   1.0078250   1.0078250   1.0078250   1.0078250   1.0078250   1.0078250   1.0078250   1.0078250   1.0078250   1.0078250
 NucSpn=           1           1           1           1           1           1           1           1           1           1
 AtZEff=  -0.0000000  -0.0000000  -0.0000000  -0.0000000  -0.0000000  -0.0000000  -0.0000000  -0.0000000  -0.0000000  -0.0000000
 NQMom=    0.0000000   0.0000000   0.0000000   0.0000000   0.0000000   0.0000000   0.0000000   0.0000000   0.0000000   0.0000000
 NMagM=    2.7928460   2.7928460   2.7928460   2.7928460   2.7928460   2.7928460   2.7928460   2.7928460   2.7928460   2.7928460
 AtZNuc=   1.0000000   1.0000000   1.0000000   1.0000000   1.0000000   1.0000000   1.0000000   1.0000000   1.0000000   1.0000000
 Leave Link  101 at Wed Apr 27 03:11:04 2022, MaxMem=  6710886400 cpu:               4.3 elap:               0.2
 (Enter /sw/apps/gaussian-16.0/g16/l202.exe)
 Stoichiometry    C55H74MgN4O6
 Framework group  C1[X(C55H74MgN4O6)]
 Deg. of freedom   414
 Full point group                 C1      NOp   1
 Largest Abelian subgroup         C1      NOp   1
 Largest concise Abelian subgroup C1      NOp   1
                         Standard orientation:                         
 ---------------------------------------------------------------------
 Center     Atomic      Atomic             Coordinates (Angstroms)
 Number     Number       Type             X           Y           Z
 ---------------------------------------------------------------------
      1         12           0       -4.584719    1.284082    0.636611
      2          6           0       -4.702955   -2.142635    0.109443
      3          6           0       -1.744404    0.825259    2.640405
      4          6           0       -3.835658    4.600030    0.264609
      5          6           0       -6.898578    1.577292   -2.084285
      6          7           0       -3.378486   -0.524249    1.202811
      7          6           0       -3.674816   -1.824900    0.972426
      8          6           0       -2.605368   -2.719812    1.636307
      9          6           0       -2.012753   -1.739966    2.731880
     10          6           0       -2.313494   -0.386067    2.100775
     11          6           0       -2.444542   -1.969643    4.220811
     12          6           0       -1.520644   -3.336731    0.681985
     13          6           0       -0.764710   -4.591905    1.121448
     14          6           0        0.213519   -5.157608    0.089816
     15          8           0       -0.107902   -6.052277   -0.674587
     16          8           0        1.411692   -4.415398   -0.038110
     17          7           0       -3.141812    2.544302    1.494865
     18          6           0       -2.049288    2.127138    2.224574
     19          6           0       -1.284729    3.348052    2.545369
     20          6           0       -1.923763    4.481438    1.980907
     21          6           0       -3.017716    3.915460    1.218799
     22          6           0       -0.037375    3.339639    3.374860
     23          6           0       -1.486790    5.963849    2.206307
     24          8           0       -0.465857    6.294013    2.766353
     25          6           0       -2.373440    7.169173    1.773289
     26          7           0       -5.192343    2.798787   -0.693377
     27          6           0       -4.864807    4.106530   -0.506349
     28          6           0       -5.646241    5.043822   -1.484539
     29          6           0       -6.728160    4.126247   -2.109045
     30          6           0       -6.240775    2.734243   -1.581032
     31          6           0       -6.289705    6.329056   -0.930575
     32          6           0       -7.014023    4.210675   -3.597904
     33          6           0       -8.352195    4.607454   -4.037290
     34          7           0       -5.726030    0.022580   -0.656110
     35          6           0       -6.671965    0.262842   -1.656637
     36          6           0       -7.258412   -0.924834   -2.172510
     37          6           0       -6.545185   -1.951787   -1.460023
     38          6           0       -5.615581   -1.302130   -0.551673
     39          6           0       -8.461435   -1.117748   -3.027978
     40          6           0       -6.426600   -3.376892   -1.250416
     41          8           0       -7.014207   -4.370213   -1.641511
     42          6           0       -5.199427   -3.494364   -0.234966
     43          6           0       -5.654191   -4.167733    1.038513
     44          8           0       -6.419541   -3.697033    1.866200
     45          8           0       -5.034060   -5.419024    1.165315
     46          6           0       -5.145674   -6.072720    2.557615
     47          6           0        2.249312   -4.805987   -1.194839
     48          6           0        3.715379   -4.300263   -1.122922
     49          6           0        4.956699   -4.890172   -1.324203
     50          6           0        5.124204   -6.258342   -2.001577
     51          6           0        6.232726   -4.092309   -0.988772
     52          6           0        6.321251   -2.766006   -1.752963
     53          6           0        6.068327   -1.534888   -0.930598
     54          6           0        7.096183   -0.451697   -1.192264
     55          6           0        6.791224    0.226821   -2.581138
     56          6           0        7.194664    0.533240   -0.029015
     57          6           0        8.247156    0.010694    1.077267
     58          6           0        9.107063    1.201035    1.556709
     59          6           0       10.583411    1.040227    1.871488
     60          6           0       10.944158    1.146681    3.327746
     61          6           0       11.566821    1.796347    0.986257
     62          6           0       12.032002    0.943531   -0.156916
     63          6           0       13.020727    1.747188   -1.051996
     64          6           0       12.181036    2.557601   -2.102185
     65          6           0       12.411138    2.131465   -3.559163
     66          6           0       12.370670    4.072466   -1.931405
     67          1           0       -0.942253    0.718843    3.374737
     68          1           0       -3.338450    5.513695   -0.064209
     69          1           0       -7.855408    1.625131   -2.608512
     70          1           0       -3.153493   -3.548969    2.083681
     71          1           0       -0.927189   -1.835504    2.760580
     72          1           0       -3.229366   -1.308103    4.590395
     73          1           0       -1.551117   -1.623159    4.741157
     74          1           0       -2.829135   -2.981645    4.346547
     75          1           0       -0.804261   -2.545637    0.461852
     76          1           0       -2.026312   -3.555890   -0.259064
     77          1           0       -1.471641   -5.354855    1.447503
     78          1           0       -0.165277   -4.336867    1.995485
     79          1           0        0.671223    4.025427    2.910901
     80          1           0        0.384681    2.335491    3.352660
     81          1           0       -0.392403    3.586206    4.375407
     82          1           0       -2.357809    7.476442    0.727824
     83          1           0       -2.171738    8.101238    2.299518
     84          1           0       -3.378055    6.874187    2.078752
     85          1           0       -4.919749    5.355426   -2.234978
     86          1           0       -7.687070    4.277359   -1.613400
     87          1           0       -5.944705    6.630764    0.057701
     88          1           0       -7.369156    6.467555   -0.999510
     89          1           0       -5.929339    7.164960   -1.530893
     90          1           0       -6.888642    3.192891   -3.967784
     91          1           0       -6.318643    4.863392   -4.123836
     92          1           0       -9.138688    4.543456   -3.284970
     93          1           0       -8.722694    3.850200   -4.727220
     94          1           0       -8.279503    5.589680   -4.504331
     95          1           0       -9.143453   -0.268978   -3.039687
     96          1           0       -8.977384   -2.042339   -2.766884
     97          1           0       -8.149891   -1.126490   -4.072356
     98          1           0       -4.381932   -4.087971   -0.644560
     99          1           0       -5.418767   -5.313132    3.290093
    100          1           0       -4.150505   -6.515972    2.572228
    101          1           0       -5.920599   -6.824178    2.707685
    102          1           0        1.777536   -4.568564   -2.147708
    103          1           0        2.376830   -5.868933   -1.402109
    104          1           0        3.800169   -3.300140   -0.695306
    105          1           0        6.033633   -6.717492   -1.613153
    106          1           0        5.012156   -6.182050   -3.082844
    107          1           0        4.397037   -6.951556   -1.578814
    108          1           0        7.186050   -4.583073   -1.190330
    109          1           0        6.159219   -3.899873    0.081549
    110          1           0        5.581839   -2.899212   -2.542267
    111          1           0        7.222354   -2.758416   -2.366198
    112          1           0        6.200093   -1.809601    0.116400
    113          1           0        5.045237   -1.187054   -1.075614
    114          1           0        8.093510   -0.856605   -1.365777
    115          1           0        5.941922   -0.143882   -3.154367
    116          1           0        7.698247    0.119180   -3.175516
    117          1           0        6.556773    1.287011   -2.480018
    118          1           0        6.233935    0.609807    0.479190
    119          1           0        7.424712    1.522652   -0.424066
    120          1           0        8.893517   -0.758111    0.654877
    121          1           0        7.731349   -0.391337    1.948867
    122          1           0        8.653549    1.714363    2.404492
    123          1           0        9.010128    2.036871    0.864299
    124          1           0       10.786998   -0.019345    1.718918
    125          1           0       11.809673    0.526741    3.564488
    126          1           0       10.071863    0.774580    3.863347
    127          1           0       11.196587    2.159635    3.642356
    128          1           0       12.418906    2.073155    1.606835
    129          1           0       11.070747    2.675781    0.574390
    130          1           0       11.165117    0.511946   -0.658520
    131          1           0       12.556285    0.043596    0.165945
    132          1           0       13.639630    0.929427   -1.422816
    133          1           0       13.736220    2.354269   -0.496187
    134          1           0       11.114860    2.491167   -1.886030
    135          1           0       12.952847    2.834489   -4.190326
    136          1           0       11.432767    1.858285   -3.954203
    137          1           0       13.022877    1.229295   -3.538824
    138          1           0       11.781933    4.534322   -1.137701
    139          1           0       12.048522    4.584228   -2.838728
    140          1           0       13.435790    4.292197   -1.853538
 ---------------------------------------------------------------------
 Rotational constants (GHZ):           0.0333346           0.0124542           0.0103155
 Leave Link  202 at Wed Apr 27 03:11:04 2022, MaxMem=  6710886400 cpu:               0.2 elap:               0.0
 (Enter /sw/apps/gaussian-16.0/g16/l301.exe)
 Standard basis: VSTO-6G (5D, 7F)
 Ernie: Thresh=  0.10000D-02 Tol=  0.10000D-05 Strict=F.
 There are   338 symmetry adapted cartesian basis functions of A   symmetry.
 There are   338 symmetry adapted basis functions of A   symmetry.
   338 basis functions,  2028 primitive gaussians,   338 cartesian basis functions
   176 alpha electrons      176 beta electrons
       nuclear repulsion energy      4816.7234295136 Hartrees.
 IExCor=    0 DFT=F Ex=HF Corr=None ExCW=0 ScaHFX=  1.000000
 ScaDFX=  1.000000  1.000000  1.000000  1.000000 ScalE2=  1.000000  1.000000
 IRadAn=      5 IRanWt=     -1 IRanGd=            0 ICorTp=0 IEmpDi=  4
 Integral buffers will be    131072 words long.
 Regular integral format.
 Two-electron integral symmetry is turned off.
 Leave Link  301 at Wed Apr 27 03:11:04 2022, MaxMem=  6710886400 cpu:               1.2 elap:               0.1
 (Enter /sw/apps/gaussian-16.0/g16/l302.exe)
 Do NDO integrals.
 NPDir=0 NMtPBC=     1 NCelOv=     1 NCel=       1 NClECP=     1 NCelD=      1
         NCelK=      1 NCelE2=     1 NClLst=     1 CellRange=     0.0.
 One-electron integrals computed using PRISM.
 Generate ZINDO/S integrals.
 NDO Nuclear repulsion=  4344.323011141596 Hartrees.
 NBasis=   338 RedAO= F EigKep=  0.00D+00  NBF=   338
 NBsUse=   338 1.00D-04 EigRej=  0.00D+00 NBFU=   338
 Leave Link  302 at Wed Apr 27 03:11:04 2022, MaxMem=  6710886400 cpu:               7.9 elap:               0.3
 (Enter /sw/apps/gaussian-16.0/g16/l303.exe)
 DipDrv:  MaxL=1.
 DipDrv:  will hold  3 matrices at once.
 Leave Link  303 at Wed Apr 27 03:11:04 2022, MaxMem=  6710886400 cpu:               0.5 elap:               0.0
 (Enter /sw/apps/gaussian-16.0/g16/l308.exe)
 Leave Link  308 at Wed Apr 27 03:11:05 2022, MaxMem=  6710886400 cpu:               4.5 elap:               0.2
 (Enter /sw/apps/gaussian-16.0/g16/l401.exe)
 Simple Huckel Guess.
 JPrj=0 DoOrth=F DoCkMO=F.
 Leave Link  401 at Wed Apr 27 03:11:05 2022, MaxMem=  6710886400 cpu:               3.7 elap:               0.2
 (Enter /sw/apps/gaussian-16.0/g16/l502.exe)
 Two-electron integral symmetry not used.
 Closed shell SCF:
 Using DIIS extrapolation, IDIIS=  1040.
 Overlap will be assumed to be unity.
 NGot=  6710886400 LenX=  6710643598 LenY=  6710528913
 Requested convergence on RMS density matrix=1.00D-08 within 128 cycles.
 Requested convergence on MAX density matrix=1.00D-06.
 Requested convergence on             energy=1.00D-06.
 No special actions if energy rises.
 Fock matrices will be formed incrementally for  20 cycles.

 Cycle   1  Pass 1  IDiag  1:
 E= -472.149136748502    
 DIIS: error= 5.06D-02 at cycle   1 NSaved=   1.
 NSaved= 1 IEnMin= 1 EnMin= -472.149136748502     IErMin= 1 ErrMin= 5.06D-02
 ErrMax= 5.06D-02  0.00D+00 EMaxC= 1.00D-01 BMatC= 8.25D-01 BMatP= 8.25D-01
 IDIUse=3 WtCom= 4.94D-01 WtEn= 5.06D-01
 Coeff-Com:  0.100D+01
 Coeff-En:   0.100D+01
 Coeff:      0.100D+01
 GapD=    2.000 DampG=2.000 DampE=0.500 DampFc=1.0000 IDamp=-1.
 RMSDP=3.99D-03 MaxDP=1.52D-01              OVMax= 0.00D+00

 Cycle   2  Pass 1  IDiag  1:
 RMSU=  3.99D-03    CP:  9.95D-01
 E= -473.973387177059     Delta-E=       -1.824250428556 Rises=F Damp=F
 DIIS: error= 1.84D-02 at cycle   2 NSaved=   2.
 NSaved= 2 IEnMin= 2 EnMin= -473.973387177059     IErMin= 2 ErrMin= 1.84D-02
 ErrMax= 1.84D-02  0.00D+00 EMaxC= 1.00D-01 BMatC= 5.16D-02 BMatP= 8.25D-01
 IDIUse=3 WtCom= 8.16D-01 WtEn= 1.84D-01
 Coeff-Com: -0.752D-01 0.108D+01
 Coeff-En:   0.000D+00 0.100D+01
 Coeff:     -0.613D-01 0.106D+01
 RMSDP=1.12D-03 MaxDP=4.77D-02 DE=-1.82D+00 OVMax= 0.00D+00

 Cycle   3  Pass 1  IDiag  1:
 RMSU=  1.05D-03    CP:  9.93D-01  1.10D+00
 E= -474.075836337051     Delta-E=       -0.102449159992 Rises=F Damp=F
 DIIS: error= 6.97D-03 at cycle   3 NSaved=   3.
 NSaved= 3 IEnMin= 3 EnMin= -474.075836337051     IErMin= 3 ErrMin= 6.97D-03
 ErrMax= 6.97D-03  0.00D+00 EMaxC= 1.00D-01 BMatC= 7.26D-03 BMatP= 5.16D-02
 IDIUse=3 WtCom= 9.30D-01 WtEn= 6.97D-02
 Coeff-Com: -0.682D-01 0.243D+00 0.825D+00
 Coeff-En:   0.000D+00 0.000D+00 0.100D+01
 Coeff:     -0.635D-01 0.226D+00 0.837D+00
 RMSDP=3.82D-04 MaxDP=1.60D-02 DE=-1.02D-01 OVMax= 0.00D+00

 Cycle   4  Pass 1  IDiag  1:
 RMSU=  2.52D-04    CP:  9.93D-01  1.17D+00  9.16D-01
 E= -474.088827189174     Delta-E=       -0.012990852124 Rises=F Damp=F
 DIIS: error= 1.25D-03 at cycle   4 NSaved=   4.
 NSaved= 4 IEnMin= 4 EnMin= -474.088827189174     IErMin= 4 ErrMin= 1.25D-03
 ErrMax= 1.25D-03  0.00D+00 EMaxC= 1.00D-01 BMatC= 3.28D-04 BMatP= 7.26D-03
 IDIUse=3 WtCom= 9.87D-01 WtEn= 1.25D-02
 Coeff-Com: -0.151D-02-0.287D-01 0.459D-01 0.984D+00
 Coeff-En:   0.000D+00 0.000D+00 0.000D+00 0.100D+01
 Coeff:     -0.149D-02-0.283D-01 0.453D-01 0.984D+00
 RMSDP=1.47D-04 MaxDP=5.34D-03 DE=-1.30D-02 OVMax= 0.00D+00

 Cycle   5  Pass 1  IDiag  1:
 RMSU=  1.01D-04    CP:  9.92D-01  1.17D+00  1.02D+00  1.00D+00
 E= -474.089907294277     Delta-E=       -0.001080105102 Rises=F Damp=F
 DIIS: error= 6.36D-04 at cycle   5 NSaved=   5.
 NSaved= 5 IEnMin= 5 EnMin= -474.089907294277     IErMin= 5 ErrMin= 6.36D-04
 ErrMax= 6.36D-04  0.00D+00 EMaxC= 1.00D-01 BMatC= 7.80D-05 BMatP= 3.28D-04
 IDIUse=3 WtCom= 9.94D-01 WtEn= 6.36D-03
 Coeff-Com:  0.691D-02-0.297D-01-0.102D+00 0.239D+00 0.885D+00
 Coeff-En:   0.000D+00 0.000D+00 0.000D+00 0.000D+00 0.100D+01
 Coeff:      0.686D-02-0.296D-01-0.101D+00 0.238D+00 0.886D+00
 RMSDP=5.93D-05 MaxDP=1.79D-03 DE=-1.08D-03 OVMax= 0.00D+00

 Cycle   6  Pass 1  IDiag  1:
 RMSU=  3.25D-05    CP:  9.92D-01  1.17D+00  1.03D+00  1.18D+00  1.06D+00
 E= -474.090141793748     Delta-E=       -0.000234499471 Rises=F Damp=F
 DIIS: error= 1.86D-04 at cycle   6 NSaved=   6.
 NSaved= 6 IEnMin= 6 EnMin= -474.090141793748     IErMin= 6 ErrMin= 1.86D-04
 ErrMax= 1.86D-04  0.00D+00 EMaxC= 1.00D-01 BMatC= 6.99D-06 BMatP= 7.80D-05
 IDIUse=3 WtCom= 9.98D-01 WtEn= 1.86D-03
 Coeff-Com: -0.918D-05 0.496D-02-0.168D-01-0.830D-01-0.191D-01 0.111D+01
 Coeff-En:   0.000D+00 0.000D+00 0.000D+00 0.000D+00 0.000D+00 0.100D+01
 Coeff:     -0.917D-05 0.495D-02-0.168D-01-0.829D-01-0.190D-01 0.111D+01
 RMSDP=3.88D-05 MaxDP=1.28D-03 DE=-2.34D-04 OVMax= 0.00D+00

 Cycle   7  Pass 1  IDiag  1:
 RMSU=  1.94D-05    CP:  9.92D-01  1.17D+00  1.05D+00  1.20D+00  1.34D+00
                    CP:  1.34D+00
 E= -474.090189717916     Delta-E=       -0.000047924168 Rises=F Damp=F
 DIIS: error= 1.18D-04 at cycle   7 NSaved=   7.
 NSaved= 7 IEnMin= 7 EnMin= -474.090189717916     IErMin= 7 ErrMin= 1.18D-04
 ErrMax= 1.18D-04  0.00D+00 EMaxC= 1.00D-01 BMatC= 2.55D-06 BMatP= 6.99D-06
 IDIUse=3 WtCom= 9.99D-01 WtEn= 1.18D-03
 Coeff-Com: -0.850D-03 0.462D-02 0.715D-02-0.274D-01-0.159D+00 0.272D+00
 Coeff-Com:  0.904D+00
 Coeff-En:   0.000D+00 0.000D+00 0.000D+00 0.000D+00 0.000D+00 0.000D+00
 Coeff-En:   0.100D+01
 Coeff:     -0.849D-03 0.461D-02 0.714D-02-0.274D-01-0.159D+00 0.272D+00
 Coeff:      0.904D+00
 RMSDP=2.03D-05 MaxDP=6.65D-04 DE=-4.79D-05 OVMax= 0.00D+00

 Cycle   8  Pass 1  IDiag  1:
 RMSU=  6.77D-06    CP:  9.92D-01  1.17D+00  1.05D+00  1.20D+00  1.44D+00
                    CP:  1.67D+00  1.58D+00
 E= -474.090208118454     Delta-E=       -0.000018400538 Rises=F Damp=F
 DIIS: error= 6.54D-05 at cycle   8 NSaved=   8.
 NSaved= 8 IEnMin= 8 EnMin= -474.090208118454     IErMin= 8 ErrMin= 6.54D-05
 ErrMax= 6.54D-05  0.00D+00 EMaxC= 1.00D-01 BMatC= 1.03D-06 BMatP= 2.55D-06
 IDIUse=1 WtCom= 1.00D+00 WtEn= 0.00D+00
 Coeff-Com:  0.665D-04-0.137D-02 0.233D-02 0.314D-01-0.366D-01-0.119D+00
 Coeff-Com: -0.419D+00 0.154D+01
 Coeff:      0.665D-04-0.137D-02 0.233D-02 0.314D-01-0.366D-01-0.119D+00
 Coeff:     -0.419D+00 0.154D+01
 RMSDP=2.82D-05 MaxDP=8.61D-04 DE=-1.84D-05 OVMax= 0.00D+00

 Cycle   9  Pass 1  IDiag  1:
 RMSU=  4.76D-06    CP:  9.92D-01  1.17D+00  1.05D+00  1.20D+00  1.58D+00
                    CP:  1.99D+00  2.61D+00  2.13D+00
 E= -474.090225428216     Delta-E=       -0.000017309762 Rises=F Damp=F
 DIIS: error= 5.30D-05 at cycle   9 NSaved=   9.
 NSaved= 9 IEnMin= 9 EnMin= -474.090225428216     IErMin= 9 ErrMin= 5.30D-05
 ErrMax= 5.30D-05  0.00D+00 EMaxC= 1.00D-01 BMatC= 6.82D-07 BMatP= 1.03D-06
 IDIUse=1 WtCom= 1.00D+00 WtEn= 0.00D+00
 Coeff-Com:  0.383D-03-0.164D-02-0.508D-02 0.916D-02 0.446D-01 0.705D-01
 Coeff-Com: -0.861D+00 0.114D+00 0.163D+01
 Coeff:      0.383D-03-0.164D-02-0.508D-02 0.916D-02 0.446D-01 0.705D-01
 Coeff:     -0.861D+00 0.114D+00 0.163D+01
 RMSDP=3.62D-05 MaxDP=1.08D-03 DE=-1.73D-05 OVMax= 0.00D+00

 Cycle  10  Pass 1  IDiag  1:
 RMSU=  1.94D-05    CP:  9.92D-01  1.17D+00  1.06D+00  1.19D+00  1.73D+00
                    CP:  2.38D+00  3.00D+00  3.00D+00  2.46D+00
 E= -474.090241140078     Delta-E=       -0.000015711862 Rises=F Damp=F
 DIIS: error= 3.21D-05 at cycle  10 NSaved=  10.
 NSaved=10 IEnMin=10 EnMin= -474.090241140078     IErMin=10 ErrMin= 3.21D-05
 ErrMax= 3.21D-05  0.00D+00 EMaxC= 1.00D-01 BMatC= 2.22D-07 BMatP= 6.82D-07
 IDIUse=1 WtCom= 1.00D+00 WtEn= 0.00D+00
 Coeff-Com: -0.132D-03 0.128D-02-0.857D-03-0.186D-01-0.463D-02 0.159D+00
 Coeff-Com:  0.109D+00-0.395D+00-0.720D+00 0.187D+01
 Coeff:     -0.132D-03 0.128D-02-0.857D-03-0.186D-01-0.463D-02 0.159D+00
 Coeff:      0.109D+00-0.395D+00-0.720D+00 0.187D+01
 RMSDP=3.21D-05 MaxDP=9.49D-04 DE=-1.57D-05 OVMax= 0.00D+00

 Cycle  11  Pass 1  IDiag  1:
 RMSU=  7.14D-06    CP:  9.92D-01  1.17D+00  1.06D+00  1.18D+00  1.86D+00
                    CP:  2.67D+00  3.00D+00  3.00D+00  3.00D+00  2.33D+00
 E= -474.090248789570     Delta-E=       -0.000007649492 Rises=F Damp=F
 DIIS: error= 1.44D-05 at cycle  11 NSaved=  11.
 NSaved=11 IEnMin=11 EnMin= -474.090248789570     IErMin=11 ErrMin= 1.44D-05
 ErrMax= 1.44D-05  0.00D+00 EMaxC= 1.00D-01 BMatC= 5.64D-08 BMatP= 2.22D-07
 IDIUse=1 WtCom= 1.00D+00 WtEn= 0.00D+00
 Coeff-Com: -0.116D-03 0.529D-03 0.162D-02-0.412D-02-0.145D-01-0.299D-02
 Coeff-Com:  0.188D+00 0.109D+00-0.757D+00 0.109D+00 0.137D+01
 Coeff:     -0.116D-03 0.529D-03 0.162D-02-0.412D-02-0.145D-01-0.299D-02
 Coeff:      0.188D+00 0.109D+00-0.757D+00 0.109D+00 0.137D+01
 RMSDP=2.02D-05 MaxDP=5.93D-04 DE=-7.65D-06 OVMax= 0.00D+00

 Cycle  12  Pass 1  IDiag  1:
 RMSU=  3.39D-06    CP:  9.92D-01  1.17D+00  1.06D+00  1.17D+00  1.94D+00
                    CP:  2.84D+00  3.00D+00  3.00D+00  3.00D+00  3.00D+00
                    CP:  1.90D+00
 E= -474.090250625502     Delta-E=       -0.000001835932 Rises=F Damp=F
 DIIS: error= 4.72D-06 at cycle  12 NSaved=  12.
 NSaved=12 IEnMin=12 EnMin= -474.090250625502     IErMin=12 ErrMin= 4.72D-06
 ErrMax= 4.72D-06  0.00D+00 EMaxC= 1.00D-01 BMatC= 6.92D-09 BMatP= 5.64D-08
 IDIUse=1 WtCom= 1.00D+00 WtEn= 0.00D+00
 Coeff-Com:  0.314D-04-0.289D-03 0.265D-03 0.375D-02 0.190D-02-0.328D-01
 Coeff-Com: -0.509D-01 0.158D+00 0.125D+00-0.417D+00-0.177D-01 0.123D+01
 Coeff:      0.314D-04-0.289D-03 0.265D-03 0.375D-02 0.190D-02-0.328D-01
 Coeff:     -0.509D-01 0.158D+00 0.125D+00-0.417D+00-0.177D-01 0.123D+01
 RMSDP=4.15D-06 MaxDP=1.24D-04 DE=-1.84D-06 OVMax= 0.00D+00

 Cycle  13  Pass 1  IDiag  1:
 RMSU=  1.02D-06    CP:  9.92D-01  1.17D+00  1.07D+00  1.17D+00  1.95D+00
                    CP:  2.87D+00  3.00D+00  3.00D+00  3.00D+00  3.00D+00
                    CP:  2.15D+00  1.93D+00
 E= -474.090250736769     Delta-E=       -0.000000111267 Rises=F Damp=F
 DIIS: error= 1.84D-06 at cycle  13 NSaved=  13.
 NSaved=13 IEnMin=13 EnMin= -474.090250736769     IErMin=13 ErrMin= 1.84D-06
 ErrMax= 1.84D-06  0.00D+00 EMaxC= 1.00D-01 BMatC= 1.05D-09 BMatP= 6.92D-09
 IDIUse=1 WtCom= 1.00D+00 WtEn= 0.00D+00
 Coeff-Com:  0.185D-04-0.992D-04-0.202D-03 0.868D-03 0.289D-02-0.315D-02
 Coeff-Com: -0.351D-01 0.166D-01 0.906D-01-0.413D-01-0.186D+00 0.123D+00
 Coeff-Com:  0.103D+01
 Coeff:      0.185D-04-0.992D-04-0.202D-03 0.868D-03 0.289D-02-0.315D-02
 Coeff:     -0.351D-01 0.166D-01 0.906D-01-0.413D-01-0.186D+00 0.123D+00
 Coeff:      0.103D+01
 RMSDP=9.31D-07 MaxDP=3.30D-05 DE=-1.11D-07 OVMax= 0.00D+00

 Cycle  14  Pass 1  IDiag  1:
 RMSU=  3.60D-07    CP:  9.92D-01  1.17D+00  1.07D+00  1.17D+00  1.95D+00
                    CP:  2.88D+00  3.00D+00  3.00D+00  3.00D+00  3.00D+00
                    CP:  2.20D+00  2.13D+00  1.23D+00
 E= -474.090250749560     Delta-E=       -0.000000012791 Rises=F Damp=F
 DIIS: error= 1.20D-06 at cycle  14 NSaved=  14.
 NSaved=14 IEnMin=14 EnMin= -474.090250749560     IErMin=14 ErrMin= 1.20D-06
 ErrMax= 1.20D-06  0.00D+00 EMaxC= 1.00D-01 BMatC= 3.90D-10 BMatP= 1.05D-09
 IDIUse=1 WtCom= 1.00D+00 WtEn= 0.00D+00
 Coeff-Com: -0.113D-04 0.862D-04-0.318D-04-0.106D-02-0.667D-03 0.748D-02
 Coeff-Com:  0.148D-01-0.307D-01-0.553D-01 0.115D+00 0.177D-01-0.271D+00
 Coeff-Com: -0.199D+00 0.140D+01
 Coeff:     -0.113D-04 0.862D-04-0.318D-04-0.106D-02-0.667D-03 0.748D-02
 Coeff:      0.148D-01-0.307D-01-0.553D-01 0.115D+00 0.177D-01-0.271D+00
 Coeff:     -0.199D+00 0.140D+01
 RMSDP=5.98D-07 MaxDP=1.88D-05 DE=-1.28D-08 OVMax= 0.00D+00

 Cycle  15  Pass 1  IDiag  1:
 RMSU=  1.42D-07    CP:  9.92D-01  1.17D+00  1.07D+00  1.17D+00  1.96D+00
                    CP:  2.88D+00  3.00D+00  3.00D+00  3.00D+00  3.00D+00
                    CP:  2.23D+00  2.21D+00  1.44D+00  2.12D+00
 E= -474.090250756008     Delta-E=       -0.000000006447 Rises=F Damp=F
 DIIS: error= 6.89D-07 at cycle  15 NSaved=  15.
 NSaved=15 IEnMin=15 EnMin= -474.090250756008     IErMin=15 ErrMin= 6.89D-07
 ErrMax= 6.89D-07  0.00D+00 EMaxC= 1.00D-01 BMatC= 1.47D-10 BMatP= 3.90D-10
 IDIUse=1 WtCom= 1.00D+00 WtEn= 0.00D+00
 Coeff-Com: -0.590D-05 0.292D-04 0.883D-04-0.217D-03-0.111D-02 0.582D-03
 Coeff-Com:  0.129D-01-0.783D-03-0.321D-01 0.100D-01 0.500D-01 0.170D-01
 Coeff-Com: -0.398D+00-0.217D+00 0.156D+01
 Coeff:     -0.590D-05 0.292D-04 0.883D-04-0.217D-03-0.111D-02 0.582D-03
 Coeff:      0.129D-01-0.783D-03-0.321D-01 0.100D-01 0.500D-01 0.170D-01
 Coeff:     -0.398D+00-0.217D+00 0.156D+01
 RMSDP=4.98D-07 MaxDP=1.34D-05 DE=-6.45D-09 OVMax= 0.00D+00

 Cycle  16  Pass 1  IDiag  1:
 RMSU=  1.42D-07    CP:  9.92D-01  1.17D+00  1.07D+00  1.17D+00  1.96D+00
                    CP:  2.88D+00  3.00D+00  3.00D+00  3.00D+00  3.00D+00
                    CP:  2.23D+00  2.23D+00  1.57D+00  3.00D+00  2.01D+00
 E= -474.090250759458     Delta-E=       -0.000000003451 Rises=F Damp=F
 DIIS: error= 4.50D-07 at cycle  16 NSaved=  16.
 NSaved=16 IEnMin=16 EnMin= -474.090250759458     IErMin=16 ErrMin= 4.50D-07
 ErrMax= 4.50D-07  0.00D+00 EMaxC= 1.00D-01 BMatC= 4.29D-11 BMatP= 1.47D-10
 IDIUse=1 WtCom= 1.00D+00 WtEn= 0.00D+00
 Coeff-Com:  0.686D-05-0.465D-04-0.561D-05 0.526D-03 0.465D-03-0.316D-02
 Coeff-Com: -0.959D-02 0.120D-01 0.326D-01-0.469D-01-0.331D-01 0.133D+00
 Coeff-Com:  0.143D+00-0.576D+00-0.299D+00 0.165D+01
 Coeff:      0.686D-05-0.465D-04-0.561D-05 0.526D-03 0.465D-03-0.316D-02
 Coeff:     -0.959D-02 0.120D-01 0.326D-01-0.469D-01-0.331D-01 0.133D+00
 Coeff:      0.143D+00-0.576D+00-0.299D+00 0.165D+01
 RMSDP=3.94D-07 MaxDP=1.21D-05 DE=-3.45D-09 OVMax= 0.00D+00

 Cycle  17  Pass 1  IDiag  1:
 RMSU=  9.66D-08    CP:  9.92D-01  1.17D+00  1.07D+00  1.17D+00  1.96D+00
                    CP:  2.88D+00  3.00D+00  3.00D+00  3.00D+00  3.00D+00
                    CP:  2.24D+00  2.26D+00  1.69D+00  3.00D+00  3.00D+00
                    CP:  3.00D+00
 E= -474.090250760592     Delta-E=       -0.000000001133 Rises=F Damp=F
 DIIS: error= 1.20D-07 at cycle  17 NSaved=  17.
 NSaved=17 IEnMin=17 EnMin= -474.090250760592     IErMin=17 ErrMin= 1.20D-07
 ErrMax= 1.20D-07  0.00D+00 EMaxC= 1.00D-01 BMatC= 4.70D-12 BMatP= 4.29D-11
 IDIUse=1 WtCom= 1.00D+00 WtEn= 0.00D+00
 Coeff-Com:  0.971D-06-0.469D-05-0.186D-04 0.442D-04 0.159D-03-0.129D-04
 Coeff-Com: -0.240D-02 0.207D-03 0.594D-02-0.168D-02-0.101D-01 0.187D-02
 Coeff-Com:  0.574D-01 0.476D-01-0.235D+00 0.756D-02 0.113D+01
 Coeff:      0.971D-06-0.469D-05-0.186D-04 0.442D-04 0.159D-03-0.129D-04
 Coeff:     -0.240D-02 0.207D-03 0.594D-02-0.168D-02-0.101D-01 0.187D-02
 Coeff:      0.574D-01 0.476D-01-0.235D+00 0.756D-02 0.113D+01
 RMSDP=6.60D-08 MaxDP=2.00D-06 DE=-1.13D-09 OVMax= 0.00D+00

 Cycle  18  Pass 1  IDiag  1:
 RMSU=  5.92D-08    CP:  9.92D-01  1.17D+00  1.07D+00  1.17D+00  1.96D+00
                    CP:  2.88D+00  3.00D+00  3.00D+00  3.00D+00  3.00D+00
                    CP:  2.24D+00  2.26D+00  1.71D+00  3.00D+00  3.00D+00
                    CP:  3.00D+00  1.23D+00
 E= -474.090250760641     Delta-E=       -0.000000000049 Rises=F Damp=F
 DIIS: error= 7.97D-08 at cycle  18 NSaved=  18.
 NSaved=18 IEnMin=18 EnMin= -474.090250760641     IErMin=18 ErrMin= 7.97D-08
 ErrMax= 7.97D-08  0.00D+00 EMaxC= 1.00D-01 BMatC= 1.04D-12 BMatP= 4.70D-12
 IDIUse=1 WtCom= 1.00D+00 WtEn= 0.00D+00
 Coeff-Com: -0.153D-05 0.105D-04-0.117D-05-0.114D-03-0.969D-04 0.729D-03
 Coeff-Com:  0.200D-02-0.270D-02-0.656D-02 0.977D-02 0.666D-02-0.287D-01
 Coeff-Com: -0.319D-01 0.125D+00 0.538D-01-0.359D+00-0.323D-01 0.126D+01
 Coeff:     -0.153D-05 0.105D-04-0.117D-05-0.114D-03-0.969D-04 0.729D-03
 Coeff:      0.200D-02-0.270D-02-0.656D-02 0.977D-02 0.666D-02-0.287D-01
 Coeff:     -0.319D-01 0.125D+00 0.538D-01-0.359D+00-0.323D-01 0.126D+01
 RMSDP=4.03D-08 MaxDP=1.11D-06 DE=-4.91D-11 OVMax= 0.00D+00

 Cycle  19  Pass 1  IDiag  1:
 RMSU=  6.81D-09    CP:  9.92D-01  1.17D+00  1.07D+00  1.17D+00  1.96D+00
                    CP:  2.88D+00  3.00D+00  3.00D+00  3.00D+00  3.00D+00
                    CP:  2.24D+00  2.26D+00  1.72D+00  3.00D+00  3.00D+00
                    CP:  3.00D+00  1.37D+00  1.57D+00
 E= -474.090250760643     Delta-E=       -0.000000000003 Rises=F Damp=F
 DIIS: error= 3.72D-08 at cycle  19 NSaved=  19.
 NSaved=19 IEnMin=19 EnMin= -474.090250760643     IErMin=19 ErrMin= 3.72D-08
 ErrMax= 3.72D-08  0.00D+00 EMaxC= 1.00D-01 BMatC= 1.42D-13 BMatP= 1.04D-12
 IDIUse=1 WtCom= 1.00D+00 WtEn= 0.00D+00
 Coeff-Com: -0.191D-06 0.108D-05 0.320D-05-0.113D-04-0.244D-04 0.137D-04
 Coeff-Com:  0.393D-03-0.170D-03-0.917D-03 0.390D-03 0.173D-02-0.453D-03
 Coeff-Com: -0.818D-02-0.843D-02 0.391D-01 0.558D-02-0.193D+00 0.310D-01
 Coeff-Com:  0.113D+01
 Coeff:     -0.191D-06 0.108D-05 0.320D-05-0.113D-04-0.244D-04 0.137D-04
 Coeff:      0.393D-03-0.170D-03-0.917D-03 0.390D-03 0.173D-02-0.453D-03
 Coeff:     -0.818D-02-0.843D-02 0.391D-01 0.558D-02-0.193D+00 0.310D-01
 Coeff:      0.113D+01
 RMSDP=7.08D-09 MaxDP=3.21D-07 DE=-2.73D-12 OVMax= 0.00D+00

 SCF Done:  E(RZINDO/S) =  -474.090250761     A.U. after   19 cycles
            NFock= 19  Conv=0.71D-08     -V/T= 0.9494
 KE=-9.362368799427D+03 PE=-8.163387974491D-07 EE= 4.543955538341D+03
 Leave Link  502 at Wed Apr 27 03:11:06 2022, MaxMem=  6710886400 cpu:              20.9 elap:               0.9
 (Enter /sw/apps/gaussian-16.0/g16/l801.exe)
 Range of M.O.s used for correlation:     1   338
 NBasis=   338 NAE=   176 NBE=   176 NFC=     0 NFV=     0
 NROrb=    338 NOA=   176 NOB=   176 NVA=   162 NVB=   162
 Leave Link  801 at Wed Apr 27 03:11:06 2022, MaxMem=  6710886400 cpu:               0.5 elap:               0.0
 (Enter /sw/apps/gaussian-16.0/g16/l914.exe)
 RHF ground state
 Two-electron integral symmetry not used.
 MDV=  6710886400 DFT=F DoStab=F Mixed=F DoRPA=F DoScal=F NonHer=F
 Making orbital integer symmetry assigments:
 Orbital symmetries:
       Occupied  (A) (A) (A) (A) (A) (A) (A) (A) (A) (A) (A) (A)
                 (A) (A) (A) (A) (A) (A) (A) (A) (A) (A) (A) (A)
                 (A) (A) (A) (A) (A) (A) (A) (A) (A) (A) (A) (A)
                 (A) (A) (A) (A) (A) (A) (A) (A) (A) (A) (A) (A)
                 (A) (A) (A) (A) (A) (A) (A) (A) (A) (A) (A) (A)
                 (A) (A) (A) (A) (A) (A) (A) (A) (A) (A) (A) (A)
                 (A) (A) (A) (A) (A) (A) (A) (A) (A) (A) (A) (A)
                 (A) (A) (A) (A) (A) (A) (A) (A) (A) (A) (A) (A)
                 (A) (A) (A) (A) (A) (A) (A) (A) (A) (A) (A) (A)
                 (A) (A) (A) (A) (A) (A) (A) (A) (A) (A) (A) (A)
                 (A) (A) (A) (A) (A) (A) (A) (A) (A) (A) (A) (A)
                 (A) (A) (A) (A) (A) (A) (A) (A) (A) (A) (A) (A)
                 (A) (A) (A) (A) (A) (A) (A) (A) (A) (A) (A) (A)
                 (A) (A) (A) (A) (A) (A) (A) (A) (A) (A) (A) (A)
                 (A) (A) (A) (A) (A) (A) (A) (A)
       Virtual   (A) (A) (A) (A) (A) (A) (A) (A) (A) (A) (A) (A)
                 (A) (A) (A) (A) (A) (A) (A) (A) (A) (A) (A) (A)
                 (A) (A) (A) (A) (A) (A) (A) (A) (A) (A) (A) (A)
                 (A) (A) (A) (A) (A) (A) (A) (A) (A) (A) (A) (A)
                 (A) (A) (A) (A) (A) (A) (A) (A) (A) (A) (A) (A)
                 (A) (A) (A) (A) (A) (A) (A) (A) (A) (A) (A) (A)
                 (A) (A) (A) (A) (A) (A) (A) (A) (A) (A) (A) (A)
                 (A) (A) (A) (A) (A) (A) (A) (A) (A) (A) (A) (A)
                 (A) (A) (A) (A) (A) (A) (A) (A) (A) (A) (A) (A)
                 (A) (A) (A) (A) (A) (A) (A) (A) (A) (A) (A) (A)
                 (A) (A) (A) (A) (A) (A) (A) (A) (A) (A) (A) (A)
                 (A) (A) (A) (A) (A) (A) (A) (A) (A) (A) (A) (A)
                 (A) (A) (A) (A) (A) (A) (A) (A) (A) (A) (A) (A)
                 (A) (A) (A) (A) (A) (A)
    20 initial guesses have been made.
 Convergence on wavefunction:    0.001000000000000
 Davidson Disk Diagonalization:  ConvIn= 1.00D-03 SkipCon=T Conv= 1.00D-03.
 Max sub-space:  2000 roots to seek:    20 dimension of matrix:        57024
 Iteration     1 Dimension    20 NMult     0 NNew     20
 CISAX will form    20 AO SS matrices at one time.
 NMat=    20 NSing=    20 JSym2X= 0.
 New state      3 was old state      5
 New state      4 was old state      3
 New state      5 was old state      4
 Excitation Energies [eV] at current iteration:
 Root      1 :     1.623300772596267
 Root      2 :     2.075945250751580
 Root      3 :     2.993309179581126
 Root      4 :     3.329674228705026
 Root      5 :     3.365742946197414
 Root      6 :     3.453973612719640
 Root      7 :     3.603712919483467
 Root      8 :     3.789149418106803
 Root      9 :     3.816211063198742
 Root     10 :     3.924034207800818
 Root     11 :     4.060111346374144
 Root     12 :     4.240705442737927
 Root     13 :     4.310981062271694
 Root     14 :     4.369207474556871
 Root     15 :     4.449010815531371
 Root     16 :     4.461552456773899
 Root     17 :     4.518028935669801
 Root     18 :     4.602890322353869
 Root     19 :     4.784989117012084
 Root     20 :     5.691716954239630
 Iteration     2 Dimension    40 NMult    20 NNew     20
 CISAX will form    20 AO SS matrices at one time.
 NMat=    20 NSing=    20 JSym2X= 0.
 Root      1 not converged, maximum delta is    0.041807625485208
 Root      2 not converged, maximum delta is    0.024740630447052
 Root      3 not converged, maximum delta is    0.255615923280125
 Root      4 not converged, maximum delta is    0.330304424060838
 Root      5 not converged, maximum delta is    0.143001880553762
 Excitation Energies [eV] at current iteration:
 Root      1 :     1.274035748950787   Change is   -0.349265023645480
 Root      2 :     1.882783065912656   Change is   -0.193162184838924
 Root      3 :     2.966150234254298   Change is   -0.027158945326827
 Root      4 :     2.968048533274037   Change is   -0.361625695430990
 Root      5 :     3.123409304225010   Change is   -0.242333641972404
 Root      6 :     3.250615754199265   Change is   -0.203357858520375
 Root      7 :     3.376178220358196   Change is   -0.227534699125272
 Root      8 :     3.468039080624562   Change is   -0.321110337482241
 Root      9 :     3.587843759159392   Change is   -0.228367304039349
 Root     10 :     3.613464574014339   Change is   -0.310569633786479
 Root     11 :     3.648652283329314   Change is   -0.800358532202056
 Root     12 :     3.699018831094735   Change is   -0.361092515279408
 Root     13 :     4.114226330095489   Change is   -0.254981144461383
 Root     14 :     4.139535736864795   Change is   -0.101169705873132
 Root     15 :     4.182338305447053   Change is   -0.128642756824642
 Root     16 :     4.240289079911315   Change is   -0.277739855758487
 Root     17 :     4.333138316769881   Change is   -0.269752005583988
 Root     18 :     4.404006154858378   Change is   -0.057546301915521
 Root     19 :     4.780328586361847   Change is   -0.004660530650237
 Root     20 :     5.634749486213930
 Iteration     3 Dimension    45 NMult    40 NNew      5
 CISAX will form     5 AO SS matrices at one time.
 NMat=     5 NSing=     5 JSym2X= 0.
 Root      1 not converged, maximum delta is    0.011254973507102
 Root      2 not converged, maximum delta is    0.018659936310165
 New state      3 was old state      4
 Root      3 not converged, maximum delta is    0.313856000014991
 New state      4 was old state      3
 Root      4 not converged, maximum delta is    0.244026657733464
 Root      5 not converged, maximum delta is    0.034825844289090
 Excitation Energies [eV] at current iteration:
 Root      1 :     1.256338506197951   Change is   -0.017697242752836
 Root      2 :     1.855987998148871   Change is   -0.026795067763785
 Root      3 :     2.949750992648760   Change is   -0.018297540625276
 Root      4 :     2.961944875175645   Change is   -0.004205359078654
 Root      5 :     3.087171968527602   Change is   -0.036237335697408
 Iteration     4 Dimension    50 NMult    45 NNew      5
 CISAX will form     5 AO SS matrices at one time.
 NMat=     5 NSing=     5 JSym2X= 0.
 Root      1 not converged, maximum delta is    0.002026720166386
 Root      2 not converged, maximum delta is    0.002781746810863
 Root      3 not converged, maximum delta is    0.006299664880890
 Root      4 not converged, maximum delta is    0.003938088399993
 Root      5 not converged, maximum delta is    0.010697112067200
 Excitation Energies [eV] at current iteration:
 Root      1 :     1.255547291110303   Change is   -0.000791215087648
 Root      2 :     1.855276272523544   Change is   -0.000711725625327
 Root      3 :     2.947203694557413   Change is   -0.002547298091347
 Root      4 :     2.961508790312663   Change is   -0.000436084862982
 Root      5 :     3.083649447372322   Change is   -0.003522521155280
 Iteration     5 Dimension    55 NMult    50 NNew      5
 CISAX will form     5 AO SS matrices at one time.
 NMat=     5 NSing=     5 JSym2X= 0.
 Root      1 has converged.
 Root      2 has converged.
 Root      3 not converged, maximum delta is    0.001896221723289
 Root      4 not converged, maximum delta is    0.001186361115033
 Root      5 not converged, maximum delta is    0.006045724172539
 Excitation Energies [eV] at current iteration:
 Root      1 :     1.255502797863702   Change is   -0.000044493246601
 Root      2 :     1.855240082267938   Change is   -0.000036190255606
 Root      3 :     2.946809171481954   Change is   -0.000394523075460
 Root      4 :     2.961448940636474   Change is   -0.000059849676189
 Root      5 :     3.082834946616634   Change is   -0.000814500755688
 Iteration     6 Dimension    58 NMult    55 NNew      3
 CISAX will form     3 AO SS matrices at one time.
 NMat=     3 NSing=     3 JSym2X= 0.
 Root      1 has converged.
 Root      2 has converged.
 Root      3 not converged, maximum delta is    0.001654488511558
 Root      4 not converged, maximum delta is    0.001468932323482
 Root      5 not converged, maximum delta is    0.015969590517318
 Excitation Energies [eV] at current iteration:
 Root      1 :     1.255502676281688   Change is   -0.000000121582014
 Root      2 :     1.855240042779730   Change is   -0.000000039488209
 Root      3 :     2.946715490057842   Change is   -0.000093681424112
 Root      4 :     2.961425262259658   Change is   -0.000023678376816
 Root      5 :     3.082128596004839   Change is   -0.000706350611796
 Iteration     7 Dimension    61 NMult    58 NNew      3
 CISAX will form     3 AO SS matrices at one time.
 NMat=     3 NSing=     3 JSym2X= 0.
 Root      1 has converged.
 Root      2 has converged.
 Root      3 not converged, maximum delta is    0.003577126702893
 Root      4 not converged, maximum delta is    0.003872574342963
 Root      5 not converged, maximum delta is    0.234231695909082
 Excitation Energies [eV] at current iteration:
 Root      1 :     1.255502646771822   Change is   -0.000000029509866
 Root      2 :     1.855239974485280   Change is   -0.000000068294449
 Root      3 :     2.946628561205271   Change is   -0.000086928852571
 Root      4 :     2.961388019328767   Change is   -0.000037242930890
 Root      5 :     3.070159016229178   Change is   -0.011969579775661
 Iteration     8 Dimension    64 NMult    61 NNew      3
 CISAX will form     3 AO SS matrices at one time.
 NMat=     3 NSing=     3 JSym2X= 0.
 Root      1 has converged.
 Root      2 has converged.
 Root      3 not converged, maximum delta is    0.008497971501882
 Root      4 not converged, maximum delta is    0.005192854064141
 Root      5 not converged, maximum delta is    0.229244128398010
 Excitation Energies [eV] at current iteration:
 Root      1 :     1.255502571955316   Change is   -0.000000074816506
 Root      2 :     1.855239820708768   Change is   -0.000000153776513
 Root      3 :     2.946492128278716   Change is   -0.000136432926554
 Root      4 :     2.961337566275041   Change is   -0.000050453053726
 Root      5 :     3.040048363484583   Change is   -0.030110652744595
 Iteration     9 Dimension    67 NMult    64 NNew      3
 CISAX will form     3 AO SS matrices at one time.
 NMat=     3 NSing=     3 JSym2X= 0.
 Root      1 has converged.
 Root      2 has converged.
 Root      3 not converged, maximum delta is    0.012640288794883
 Root      4 not converged, maximum delta is    0.008778993731809
 Root      5 not converged, maximum delta is    0.114409355689645
 Excitation Energies [eV] at current iteration:
 Root      1 :     1.255502509701576   Change is   -0.000000062253740
 Root      2 :     1.855239654282870   Change is   -0.000000166425898
 Root      3 :     2.946322915496292   Change is   -0.000169212782424
 Root      4 :     2.961269747463508   Change is   -0.000067818811534
 Root      5 :     3.033127884597708   Change is   -0.006920478886875
 Iteration    10 Dimension    70 NMult    67 NNew      3
 CISAX will form     3 AO SS matrices at one time.
 NMat=     3 NSing=     3 JSym2X= 0.
 Root      1 has converged.
 Root      2 has converged.
 Root      3 not converged, maximum delta is    0.005101489874763
 Root      4 not converged, maximum delta is    0.004285318401929
 Root      5 not converged, maximum delta is    0.210048445645331
 Excitation Energies [eV] at current iteration:
 Root      1 :     1.255502468938185   Change is   -0.000000040763390
 Root      2 :     1.855239613174068   Change is   -0.000000041108802
 Root      3 :     2.946258807410763   Change is   -0.000064108085530
 Root      4 :     2.961237172485681   Change is   -0.000032574977826
 Root      5 :     3.024130456763730   Change is   -0.008997427833978
 Iteration    11 Dimension    73 NMult    70 NNew      3
 CISAX will form     3 AO SS matrices at one time.
 NMat=     3 NSing=     3 JSym2X= 0.
 Root      1 has converged.
 Root      2 has converged.
 Root      3 has converged.
 Root      4 has converged.
 Root      5 not converged, maximum delta is    0.032255555354915
 Excitation Energies [eV] at current iteration:
 Root      1 :     1.255502464929394   Change is   -0.000000004008792
 Root      2 :     1.855239595668075   Change is   -0.000000017505992
 Root      3 :     2.946247618226894   Change is   -0.000011189183869
 Root      4 :     2.961230566133759   Change is   -0.000006606351923
 Root      5 :     3.021471733556910   Change is   -0.002658723206820
 Iteration    12 Dimension    74 NMult    73 NNew      1
 CISAX will form     1 AO SS matrices at one time.
 NMat=     1 NSing=     1 JSym2X= 0.
 Root      1 has converged.
 Root      2 has converged.
 Root      3 has converged.
 Root      4 has converged.
 Root      5 not converged, maximum delta is    0.006551678252373
 Excitation Energies [eV] at current iteration:
 Root      1 :     1.255502456612441   Change is   -0.000000008316953
 Root      2 :     1.855239560665172   Change is   -0.000000035002904
 Root      3 :     2.946244884371428   Change is   -0.000002733855466
 Root      4 :     2.961228902121632   Change is   -0.000001664012126
 Root      5 :     3.020746502360621   Change is   -0.000725231196289
 Iteration    13 Dimension    75 NMult    74 NNew      1
 CISAX will form     1 AO SS matrices at one time.
 NMat=     1 NSing=     1 JSym2X= 0.
 Root      1 has converged.
 Root      2 has converged.
 Root      3 has converged.
 Root      4 has converged.
 Root      5 not converged, maximum delta is    0.008574396124649
 Excitation Energies [eV] at current iteration:
 Root      1 :     1.255502454058772   Change is   -0.000000002553669
 Root      2 :     1.855239559387706   Change is   -0.000000001277466
 Root      3 :     2.946243011693350   Change is   -0.000001872678078
 Root      4 :     2.961227740195293   Change is   -0.000001161926340
 Root      5 :     3.020253046436194   Change is   -0.000493455924427
 Iteration    14 Dimension    76 NMult    75 NNew      1
 CISAX will form     1 AO SS matrices at one time.
 NMat=     1 NSing=     1 JSym2X= 0.
 Root      1 has converged.
 Root      2 has converged.
 Root      3 has converged.
 Root      4 has converged.
 Root      5 not converged, maximum delta is    0.005336861046582
 Excitation Energies [eV] at current iteration:
 Root      1 :     1.255502440531403   Change is   -0.000000013527369
 Root      2 :     1.855239540088636   Change is   -0.000000019299070
 Root      3 :     2.946242150778276   Change is   -0.000000860915074
 Root      4 :     2.961227175405983   Change is   -0.000000564789309
 Root      5 :     3.020025931630330   Change is   -0.000227114805864
 Iteration    15 Dimension    77 NMult    76 NNew      1
 CISAX will form     1 AO SS matrices at one time.
 NMat=     1 NSing=     1 JSym2X= 0.
 Root      1 has converged.
 Root      2 has converged.
 Root      3 has converged.
 Root      4 has converged.
 Root      5 not converged, maximum delta is    0.001196677363869
 Excitation Energies [eV] at current iteration:
 Root      1 :     1.255502440354555   Change is   -0.000000000176847
 Root      2 :     1.855239536037132   Change is   -0.000000004051503
 Root      3 :     2.946241972351042   Change is   -0.000000178427234
 Root      4 :     2.961227064785760   Change is   -0.000000110620223
 Root      5 :     3.019983837973894   Change is   -0.000042093656436
 Iteration    16 Dimension    78 NMult    77 NNew      1
 CISAX will form     1 AO SS matrices at one time.
 NMat=     1 NSing=     1 JSym2X= 0.
 Root      1 has converged.
 Root      2 has converged.
 Root      3 has converged.
 Root      4 has converged.
 Root      5 has converged.
 Excitation Energies [eV] at current iteration:
 Root      1 :     1.255502439360587   Change is   -0.000000000993968
 Root      2 :     1.855239534234755   Change is   -0.000000001802377
 Root      3 :     2.946241958812929   Change is   -0.000000013538112
 Root      4 :     2.961227053756799   Change is   -0.000000011028962
 Root      5 :     3.019978915782789   Change is   -0.000004922191105
 Convergence achieved on expansion vectors.
 ***********************************************************************
 Excited states from <AA,BB:AA,BB> singles matrix:
 ***********************************************************************
 
 1PDM for each excited state written to RWF  633
 Ground to excited state transition densities written to RWF  633
 Ground to excited state transition electric dipole moments (Au):
       state          X           Y           Z        Dip. S.      Osc.
         1         2.8950      2.2558      2.2636     18.5938      0.5719
         2         0.1491     -0.6742      0.3269      0.5836      0.0265
         3        -1.2479      3.4127     -1.3644     15.0651      1.0874
         4         0.1262      0.2265      0.1193      0.0815      0.0059
         5         0.1741     -0.2119      0.1551      0.0993      0.0073
 Ground to excited state transition velocity dipole moments (Au):
       state          X           Y           Z        Dip. S.      Osc.
         1         0.0518      0.0117      0.0498      0.0053      0.0767
         2        -0.0005      0.0161     -0.0049      0.0003      0.0028
         3         0.0431     -0.1118      0.0303      0.0153      0.0941
         4         0.0001     -0.0111      0.0027      0.0001      0.0008
         5        -0.0038      0.0093     -0.0047      0.0001      0.0007
 Ground to excited state transition magnetic dipole moments (Au):
       state          X           Y           Z
         1        -0.0046      0.4204     -0.0233
         2        -0.4353     -0.0147      0.3486
         3         0.4808      0.3688      0.7123
         4        -0.2815      0.0622      0.4730
         5         0.5404      0.3297      0.3481
 Ground to excited state transition velocity quadrupole moments (Au):
       state          XX          YY          ZZ          XY          XZ          YZ
         1        -0.8893     -0.0132     -0.0243     -0.0743     -0.3809     -0.0479
         2        -0.0059      0.0870     -0.0256     -0.1234      0.0487      0.0451
         3        -0.3787     -0.2215      0.0271      0.8639     -0.4472     -0.0051
         4        -0.0418     -0.0115      0.0002      0.2875     -0.0259      0.0991
         5         0.0318      0.0836     -0.0162      0.0503      0.0501      0.0105
 <0|del|b> * <b|rxdel|0> + <0|del|b> * <b|delr+rdel|0>
 Rotatory Strengths (R) in cgs (10**-40 erg-esu-cm/Gauss)
       state          XX          YY          ZZ    R(velocity)    E-M Angle
         1        34.6456     -1.4056     20.7256     17.9885       83.41
         2       -11.0371    -11.0264      4.1053     -5.9861      100.64
         3      -141.9809     51.9976     97.0742      2.3636       89.46
         4         3.5826      1.5983     -1.4145      1.2554       84.74
         5         2.3291    -11.1765      4.8528     -1.3315       94.47
 1/2[<0|r|b>*<b|rxdel|0> + (<0|rxdel|b>*<b|r|0>)*]
 Rotatory Strengths (R) in cgs (10**-40 erg-esu-cm/Gauss)
       state          XX          YY          ZZ     R(length)
         1         9.4829   -670.6369     37.3240   -207.9433
         2        45.8949     -7.0072    -80.5927    -13.9017
         3       424.2539   -890.0489    687.2308     73.8119
         4        25.1294     -9.9721    -39.8936     -8.2455
         5       -66.5500     49.4051    -38.1846    -18.4432
  1/2[<0|del|b>*<b|r|0> + (<0|r|b>*<b|del|0>)*] (Au)
       state          X           Y           Z        Dip. S.   Osc.(frdel)
         1         0.1500      0.0264      0.1128     -0.2892     -0.1928
         2        -0.0001     -0.0108     -0.0016      0.0125      0.0083
         3        -0.0538     -0.3817     -0.0414      0.4769      0.3179
         4         0.0000     -0.0025      0.0003      0.0022      0.0015
         5        -0.0007     -0.0020     -0.0007      0.0034      0.0023

 Excitation energies and oscillator strengths:
 
 Excited State   1:      Singlet-A      1.2555 eV  987.53 nm  f=0.5719  <S**2>=0.000
     175 ->178        -0.19479
     176 ->177         0.66202
 This state for optimization and/or second-order correction.
 Total Energy, E(CIS/TDA) =  -474.044111895    
 Copying the excited state density for this state as the 1-particle RhoCI density.
 
 Excited State   2:      Singlet-A      1.8552 eV  668.29 nm  f=0.0265  <S**2>=0.000
     175 ->177         0.53424
     176 ->178         0.43688
 
 Excited State   3:      Singlet-A      2.9462 eV  420.82 nm  f=1.0874  <S**2>=0.000
     173 ->177         0.11884
     175 ->177        -0.39831
     176 ->178         0.51424
 
 Excited State   4:      Singlet-A      2.9612 eV  418.69 nm  f=0.0059  <S**2>=0.000
     176 ->179         0.29914
     176 ->180         0.61048
     176 ->181         0.10876
 
 Excited State   5:      Singlet-A      3.0200 eV  410.55 nm  f=0.0073  <S**2>=0.000
     168 ->177         0.23191
     168 ->178        -0.11943
     168 ->179        -0.40262
     168 ->181         0.16027
     168 ->182        -0.30939
     168 ->186        -0.24156
     168 ->189         0.10628
 SavETr:  write IOETrn=   770 NScale= 10 NData=  16 NLR=1 NState=    5 LETran=     100.
 Leave Link  914 at Wed Apr 27 03:11:13 2022, MaxMem=  6710886400 cpu:             167.4 elap:               7.1
 (Enter /sw/apps/gaussian-16.0/g16/l601.exe)
 Copying SCF densities to generalized density rwf, IOpCl= 0 IROHF=0.

 **********************************************************************

            Population analysis using the SCF density.

 **********************************************************************

 Orbital symmetries:
       Occupied  (A) (A) (A) (A) (A) (A) (A) (A) (A) (A) (A) (A)
                 (A) (A) (A) (A) (A) (A) (A) (A) (A) (A) (A) (A)
                 (A) (A) (A) (A) (A) (A) (A) (A) (A) (A) (A) (A)
                 (A) (A) (A) (A) (A) (A) (A) (A) (A) (A) (A) (A)
                 (A) (A) (A) (A) (A) (A) (A) (A) (A) (A) (A) (A)
                 (A) (A) (A) (A) (A) (A) (A) (A) (A) (A) (A) (A)
                 (A) (A) (A) (A) (A) (A) (A) (A) (A) (A) (A) (A)
                 (A) (A) (A) (A) (A) (A) (A) (A) (A) (A) (A) (A)
                 (A) (A) (A) (A) (A) (A) (A) (A) (A) (A) (A) (A)
                 (A) (A) (A) (A) (A) (A) (A) (A) (A) (A) (A) (A)
                 (A) (A) (A) (A) (A) (A) (A) (A) (A) (A) (A) (A)
                 (A) (A) (A) (A) (A) (A) (A) (A) (A) (A) (A) (A)
                 (A) (A) (A) (A) (A) (A) (A) (A) (A) (A) (A) (A)
                 (A) (A) (A) (A) (A) (A) (A) (A) (A) (A) (A) (A)
                 (A) (A) (A) (A) (A) (A) (A) (A)
       Virtual   (A) (A) (A) (A) (A) (A) (A) (A) (A) (A) (A) (A)
                 (A) (A) (A) (A) (A) (A) (A) (A) (A) (A) (A) (A)
                 (A) (A) (A) (A) (A) (A) (A) (A) (A) (A) (A) (A)
                 (A) (A) (A) (A) (A) (A) (A) (A) (A) (A) (A) (A)
                 (A) (A) (A) (A) (A) (A) (A) (A) (A) (A) (A) (A)
                 (A) (A) (A) (A) (A) (A) (A) (A) (A) (A) (A) (A)
                 (A) (A) (A) (A) (A) (A) (A) (A) (A) (A) (A) (A)
                 (A) (A) (A) (A) (A) (A) (A) (A) (A) (A) (A) (A)
                 (A) (A) (A) (A) (A) (A) (A) (A) (A) (A) (A) (A)
                 (A) (A) (A) (A) (A) (A) (A) (A) (A) (A) (A) (A)
                 (A) (A) (A) (A) (A) (A) (A) (A) (A) (A) (A) (A)
                 (A) (A) (A) (A) (A) (A) (A) (A) (A) (A) (A) (A)
                 (A) (A) (A) (A) (A) (A) (A) (A) (A) (A) (A) (A)
                 (A) (A) (A) (A) (A) (A)
 The electronic state is 1-A.
 Alpha  occ. eigenvalues --   -1.83248  -1.79781  -1.78860  -1.70844  -1.69358
 Alpha  occ. eigenvalues --   -1.68835  -1.66883  -1.63086  -1.59496  -1.56855
 Alpha  occ. eigenvalues --   -1.55110  -1.51254  -1.50906  -1.48203  -1.47277
 Alpha  occ. eigenvalues --   -1.43842  -1.42717  -1.39834  -1.39000  -1.38249
 Alpha  occ. eigenvalues --   -1.36178  -1.33867  -1.33294  -1.32114  -1.29423
 Alpha  occ. eigenvalues --   -1.28505  -1.26168  -1.22658  -1.20240  -1.18610
 Alpha  occ. eigenvalues --   -1.17023  -1.15760  -1.14281  -1.14203  -1.13672
 Alpha  occ. eigenvalues --   -1.12206  -1.11357  -1.10261  -1.05418  -1.02867
 Alpha  occ. eigenvalues --   -1.02084  -1.01423  -0.98934  -0.98229  -0.97483
 Alpha  occ. eigenvalues --   -0.95219  -0.94536  -0.93802  -0.93183  -0.92172
 Alpha  occ. eigenvalues --   -0.91563  -0.91398  -0.90258  -0.88174  -0.87525
 Alpha  occ. eigenvalues --   -0.86673  -0.85684  -0.83707  -0.82281  -0.80075
 Alpha  occ. eigenvalues --   -0.79213  -0.78812  -0.76783  -0.76494  -0.76090
 Alpha  occ. eigenvalues --   -0.75132  -0.74522  -0.74452  -0.73873  -0.73605
 Alpha  occ. eigenvalues --   -0.73184  -0.72747  -0.72103  -0.71598  -0.71117
 Alpha  occ. eigenvalues --   -0.70953  -0.70155  -0.69480  -0.68753  -0.68217
 Alpha  occ. eigenvalues --   -0.67358  -0.66722  -0.66213  -0.65804  -0.65470
 Alpha  occ. eigenvalues --   -0.65106  -0.63943  -0.63890  -0.63397  -0.63361
 Alpha  occ. eigenvalues --   -0.63203  -0.62729  -0.62502  -0.62240  -0.62101
 Alpha  occ. eigenvalues --   -0.61747  -0.61541  -0.61306  -0.60834  -0.60647
 Alpha  occ. eigenvalues --   -0.60253  -0.60031  -0.59816  -0.58863  -0.58751
 Alpha  occ. eigenvalues --   -0.58448  -0.57990  -0.57835  -0.57457  -0.57238
 Alpha  occ. eigenvalues --   -0.56139  -0.55687  -0.55461  -0.55102  -0.55005
 Alpha  occ. eigenvalues --   -0.54611  -0.53553  -0.53251  -0.53132  -0.52821
 Alpha  occ. eigenvalues --   -0.52461  -0.52171  -0.51796  -0.51648  -0.51535
 Alpha  occ. eigenvalues --   -0.51311  -0.50664  -0.50540  -0.50310  -0.50175
 Alpha  occ. eigenvalues --   -0.49966  -0.49898  -0.49841  -0.49727  -0.49347
 Alpha  occ. eigenvalues --   -0.49072  -0.48717  -0.48501  -0.48394  -0.47884
 Alpha  occ. eigenvalues --   -0.47546  -0.47384  -0.47209  -0.46699  -0.46528
 Alpha  occ. eigenvalues --   -0.46325  -0.46193  -0.45774  -0.45671  -0.45453
 Alpha  occ. eigenvalues --   -0.45093  -0.44948  -0.44386  -0.43994  -0.43744
 Alpha  occ. eigenvalues --   -0.43632  -0.43091  -0.42893  -0.42577  -0.42264
 Alpha  occ. eigenvalues --   -0.42080  -0.41476  -0.40952  -0.39230  -0.38809
 Alpha  occ. eigenvalues --   -0.38170  -0.37584  -0.36239  -0.34977  -0.34386
 Alpha  occ. eigenvalues --   -0.33585  -0.32648  -0.31858  -0.31556  -0.26926
 Alpha  occ. eigenvalues --   -0.22058
 Alpha virt. eigenvalues --   -0.08766  -0.02832  -0.00643   0.00435   0.00945
 Alpha virt. eigenvalues --    0.01299   0.02172   0.03138   0.03975   0.04152
 Alpha virt. eigenvalues --    0.06077   0.06162   0.07053   0.07634   0.07751
 Alpha virt. eigenvalues --    0.08192   0.08531   0.08615   0.08778   0.09520
 Alpha virt. eigenvalues --    0.09644   0.09837   0.10309   0.10524   0.10620
 Alpha virt. eigenvalues --    0.10885   0.11044   0.11654   0.11774   0.12086
 Alpha virt. eigenvalues --    0.12317   0.12626   0.13029   0.13059   0.13270
 Alpha virt. eigenvalues --    0.13570   0.13955   0.14228   0.14328   0.14455
 Alpha virt. eigenvalues --    0.14862   0.15110   0.15549   0.15553   0.15693
 Alpha virt. eigenvalues --    0.15820   0.15976   0.16411   0.16686   0.16817
 Alpha virt. eigenvalues --    0.17074   0.17183   0.17410   0.17813   0.17831
 Alpha virt. eigenvalues --    0.18231   0.18487   0.18688   0.19355   0.19598
 Alpha virt. eigenvalues --    0.19697   0.19885   0.20370   0.20509   0.20816
 Alpha virt. eigenvalues --    0.21653   0.21788   0.22506   0.22865   0.23170
 Alpha virt. eigenvalues --    0.23361   0.23505   0.23529   0.23540   0.23714
 Alpha virt. eigenvalues --    0.24009   0.24081   0.24095   0.24239   0.24357
 Alpha virt. eigenvalues --    0.24418   0.24538   0.24618   0.24852   0.24945
 Alpha virt. eigenvalues --    0.24977   0.25005   0.25037   0.25087   0.25192
 Alpha virt. eigenvalues --    0.25201   0.25302   0.25350   0.25580   0.25646
 Alpha virt. eigenvalues --    0.25883   0.25952   0.25958   0.26142   0.26174
 Alpha virt. eigenvalues --    0.26355   0.26409   0.26424   0.26475   0.26544
 Alpha virt. eigenvalues --    0.26577   0.26600   0.26839   0.26960   0.27071
 Alpha virt. eigenvalues --    0.27259   0.27510   0.27587   0.27635   0.27707
 Alpha virt. eigenvalues --    0.27736   0.27852   0.28241   0.28391   0.29840
 Alpha virt. eigenvalues --    0.29991   0.30436   0.31024   0.31147   0.31192
 Alpha virt. eigenvalues --    0.31849   0.32218   0.32728   0.33322   0.34165
 Alpha virt. eigenvalues --    0.34782   0.35319   0.35949   0.36195   0.36407
 Alpha virt. eigenvalues --    0.36572   0.36897   0.36934   0.37305   0.38279
 Alpha virt. eigenvalues --    0.38812   0.39356   0.39787   0.40050   0.40312
 Alpha virt. eigenvalues --    0.40986   0.41100   0.41406   0.41902   0.42366
 Alpha virt. eigenvalues --    0.43268   0.43871   0.44702   0.45797   0.46469
 Alpha virt. eigenvalues --    0.47210   0.47511   0.47829   0.50544   0.52801
 Alpha virt. eigenvalues --    0.53679   0.56789
          Condensed to atoms (all electrons):
 Mulliken charges:
               1
     1  Mg   0.437774
     2  C   -0.012379
     3  C   -0.072685
     4  C   -0.101255
     5  C   -0.074925
     6  N   -0.278001
     7  C    0.110519
     8  C    0.004473
     9  C    0.001641
    10  C    0.132808
    11  C   -0.049608
    12  C   -0.012345
    13  C    0.016465
    14  C    0.462619
    15  O   -0.498048
    16  O   -0.268216
    17  N   -0.336126
    18  C    0.121231
    19  C    0.050436
    20  C   -0.052744
    21  C    0.142588
    22  C   -0.039531
    23  C    0.329141
    24  O   -0.502081
    25  C   -0.030546
    26  N   -0.259936
    27  C    0.156351
    28  C    0.008137
    29  C   -0.002299
    30  C    0.099375
    31  C   -0.056093
    32  C   -0.022736
    33  C   -0.053511
    34  N   -0.324782
    35  C    0.084871
    36  C    0.023025
    37  C   -0.072406
    38  C    0.113397
    39  C   -0.031570
    40  C    0.334307
    41  O   -0.517491
    42  C    0.053256
    43  C    0.486059
    44  O   -0.526996
    45  O   -0.288252
    46  C    0.064956
    47  C    0.103668
    48  C   -0.105813
    49  C   -0.000030
    50  C   -0.046772
    51  C   -0.019799
    52  C   -0.033409
    53  C   -0.017648
    54  C   -0.010512
    55  C   -0.066598
    56  C   -0.036845
    57  C   -0.034983
    58  C   -0.036663
    59  C   -0.012845
    60  C   -0.052712
    61  C   -0.025309
    62  C   -0.034050
    63  C   -0.038420
    64  C   -0.007646
    65  C   -0.055704
    66  C   -0.058500
    67  H    0.037318
    68  H    0.030616
    69  H    0.032260
    70  H    0.027348
    71  H    0.017887
    72  H    0.024178
    73  H    0.025381
    74  H    0.035165
    75  H    0.024144
    76  H    0.025674
    77  H    0.042120
    78  H    0.026325
    79  H    0.047448
    80  H    0.019747
    81  H    0.047172
    82  H    0.042703
    83  H    0.036330
    84  H    0.022165
    85  H    0.034361
    86  H    0.030952
    87  H    0.020011
    88  H    0.029387
    89  H    0.006589
    90  H    0.020686
    91  H    0.018140
    92  H    0.019030
    93  H    0.014343
    94  H    0.022081
    95  H    0.022305
    96  H    0.041314
    97  H    0.028825
    98  H    0.048119
    99  H    0.052775
   100  H    0.037502
   101  H    0.049346
   102  H    0.048998
   103  H    0.045465
   104  H    0.017617
   105  H    0.022598
   106  H    0.044040
   107  H    0.022336
   108  H    0.020631
   109  H    0.025925
   110  H    0.012088
   111  H    0.016929
   112  H    0.011282
   113  H    0.027434
   114  H    0.021393
   115  H    0.020276
   116  H    0.015221
   117  H    0.014436
   118  H    0.016513
   119  H    0.024772
   120  H    0.025840
   121  H    0.023329
   122  H    0.010781
   123  H    0.009721
   124  H    0.006741
   125  H    0.014279
   126  H    0.013152
   127  H    0.017006
   128  H    0.019285
   129  H    0.022218
   130  H    0.021121
   131  H    0.007594
   132  H    0.013212
   133  H    0.025703
   134  H    0.020790
   135  H    0.026635
   136  H    0.019737
   137  H    0.012450
   138  H    0.020094
   139  H    0.007611
   140  H    0.016723
 Sum of Mulliken charges =  -0.00000
 Mulliken charges with hydrogens summed into heavy atoms:
               1
     1  Mg   0.437774
     2  C   -0.012379
     3  C   -0.035367
     4  C   -0.070639
     5  C   -0.042665
     6  N   -0.278001
     7  C    0.110519
     8  C    0.031821
     9  C    0.019528
    10  C    0.132808
    11  C    0.035117
    12  C    0.037473
    13  C    0.084910
    14  C    0.462619
    15  O   -0.498048
    16  O   -0.268216
    17  N   -0.336126
    18  C    0.121231
    19  C    0.050436
    20  C   -0.052744
    21  C    0.142588
    22  C    0.074836
    23  C    0.329141
    24  O   -0.502081
    25  C    0.070652
    26  N   -0.259936
    27  C    0.156351
    28  C    0.042498
    29  C    0.028653
    30  C    0.099375
    31  C   -0.000105
    32  C    0.016090
    33  C    0.001942
    34  N   -0.324782
    35  C    0.084871
    36  C    0.023025
    37  C   -0.072406
    38  C    0.113397
    39  C    0.060874
    40  C    0.334307
    41  O   -0.517491
    42  C    0.101375
    43  C    0.486059
    44  O   -0.526996
    45  O   -0.288252
    46  C    0.204578
    47  C    0.198130
    48  C   -0.088197
    49  C   -0.000030
    50  C    0.042201
    51  C    0.026757
    52  C   -0.004393
    53  C    0.021068
    54  C    0.010881
    55  C   -0.016666
    56  C    0.004440
    57  C    0.014185
    58  C   -0.016160
    59  C   -0.006104
    60  C   -0.008274
    61  C    0.016194
    62  C   -0.005335
    63  C    0.000495
    64  C    0.013144
    65  C    0.003117
    66  C   -0.014071
 Charge=             -0.0000 electrons
 Dipole moment (field-independent basis, Debye):
    X=              3.2429    Y=              5.6356    Z=              1.7215  Tot=              6.7261
 N-N= 4.344323011142D+03 E-N= 0.000000000000D+00  KE=-9.362368799427D+03
 Leave Link  601 at Wed Apr 27 03:11:13 2022, MaxMem=  6710886400 cpu:               0.8 elap:               0.0
 (Enter /sw/apps/gaussian-16.0/g16/l9999.exe)
 1\1\GINC-BP1-COMPUTE156\SP\RZINDO CIS\STO-3G\C55H74Mg1N4O6\OF15641\27-
 Apr-2022\0\\#p ZINDO=(nstates=5)\\step_1051_chromophore_17 ZINDO\\0,1\
 Mg,0,29.07,59.013,41.293\C,0,26.15,57.42,40.308\C,0,30.918,56.419,39.8
 27\C,0,31.825,61.039,41.276\C,0,27.042,61.9,41.922\N,0,28.491,57.173,4
 0.142\C,0,27.25,56.663,39.962\C,0,27.351,55.328,39.192\C,0,28.852,54.9
 11,39.483\C,0,29.485,56.273,39.74\C,0,29.099,53.775,40.534\C,0,26.989,
 55.374,37.664\C,0,26.568,54.085,36.956\C,0,26.162,54.25,35.49\O,0,24.9
 96,54.39,35.16\O,0,27.251,54.443,34.607\N,0,31.092,58.698,40.825\C,0,3
 1.6,57.589,40.183\C,0,33.041,57.85,40.\C,0,33.371,59.128,40.519\C,0,32
 .091,59.681,40.911\C,0,33.98,56.863,39.377\C,0,34.817,59.709,40.623\O,
 0,35.795,59.19,40.134\C,0,35.14,61.001,41.431\N,0,29.385,61.085,41.493
 \C,0,30.628,61.623,41.627\C,0,30.564,63.138,42.01\C,0,29.077,63.376,42
 .377\C,0,28.46,62.016,41.904\C,0,31.482,63.663,43.13\C,0,28.376,64.631
 ,41.888\C,0,27.858,65.579,42.875\N,0,27.007,59.569,41.292\C,0,26.318,6
 0.736,41.634\C,0,24.905,60.591,41.579\C,0,24.755,59.243,41.098\C,0,26.
 083,58.676,40.936\C,0,23.821,61.466,42.104\C,0,23.802,58.209,40.764\O,
 0,22.591,58.085,40.819\C,0,24.726,57.023,40.225\C,0,24.529,55.794,41.0
 81\O,0,24.877,55.666,42.245\O,0,23.914,54.782,40.33\C,0,23.946,53.377,
 40.965\C,0,26.86,54.846,33.237\C,0,27.979,54.672,32.175\C,0,28.031,54.
 121,30.901\C,0,26.77,53.776,30.095\C,0,29.396,53.975,30.199\C,0,30.137
 ,55.31,30.059\C,0,31.313,55.489,30.976\C,0,32.527,56.033,30.249\C,0,32
 .317,57.569,29.968\C,0,33.825,55.709,30.986\C,0,34.392,54.265,30.541\C
 ,0,35.922,54.361,30.351\C,0,36.635,53.607,29.243\C,0,37.505,52.468,29.
 699\C,0,37.312,54.441,28.162\C,0,36.393,54.667,26.998\C,0,37.105,55.53
 5,25.919\C,0,36.885,57.046,26.284\C,0,36.05,57.828,25.26\C,0,38.215,57
 .758,26.574\H,0,31.529,55.573,39.503\H,0,32.627,61.685,40.916\H,0,26.4
 01,62.597,42.466\H,0,26.64,54.657,39.674\H,0,29.308,54.523,38.572\H,0,
 29.391,54.111,41.53\H,0,30.012,53.332,40.135\H,0,28.189,53.192,40.675\
 H,0,27.847,55.803,37.147\H,0,26.181,56.099,37.56\H,0,25.781,53.59,37.5
 25\H,0,27.42,53.405,36.957\H,0,34.65,57.416,38.719\H,0,33.398,56.166,3
 8.775\H,0,34.424,56.355,40.233\H,0,34.942,61.967,40.967\H,0,36.177,61.
 097,41.75\H,0,34.563,60.883,42.349\H,0,30.833,63.681,41.104\H,0,28.946
 ,63.365,43.459\H,0,32.297,62.997,43.411\H,0,31.045,64.105,44.026\H,0,3
 2.044,64.507,42.729\H,0,27.495,64.273,41.355\H,0,28.988,65.215,41.202\
 H,0,27.752,65.198,43.891\H,0,26.806,65.758,42.656\H,0,28.452,66.491,42
 .815\H,0,24.145,62.171,42.868\H,0,22.973,60.87,42.443\H,0,23.521,62.16
 ,41.319\H,0,24.485,56.748,39.198\H,0,24.711,53.351,41.741\H,0,24.085,5
 2.82,40.039\H,0,23.061,53.041,41.505\H,0,26.415,55.84,33.208\H,0,26.01
 4,54.338,32.773\H,0,28.971,54.916,32.558\H,0,27.014,52.952,29.424\H,0,
 26.318,54.669,29.664\H,0,26.068,53.255,30.746\H,0,29.387,53.565,29.188
 \H,0,29.962,53.302,30.843\H,0,29.348,56.038,30.246\H,0,30.313,55.52,29
 .004\H,0,31.607,54.499,31.326\H,0,31.032,56.096,31.837\H,0,32.617,55.6
 4,29.236\H,0,31.384,58.025,30.298\H,0,32.415,57.695,28.89\H,0,33.065,5
 8.186,30.467\H,0,33.641,55.645,32.058\H,0,34.53,56.526,30.833\H,0,33.9
 29,53.945,29.608\H,0,34.205,53.517,31.311\H,0,36.46,54.154,31.276\H,0,
 36.227,55.405,30.284\H,0,35.851,53.038,28.744\H,0,37.54,51.676,28.95\H
 ,0,37.029,52.093,30.604\H,0,38.539,52.757,29.889\H,0,38.194,53.893,27.
 831\H,0,37.579,55.413,28.578\H,0,35.435,55.038,27.364\H,0,36.086,53.74
 2,26.509\H,0,36.613,55.155,25.023\H,0,38.149,55.27,25.748\H,0,36.417,5
 7.148,27.263\H,0,36.583,58.565,24.661\H,0,35.206,58.244,25.81\H,0,35.6
 55,57.105,24.546\H,0,38.626,57.6,27.572\H,0,38.072,58.837,26.509\H,0,3
 8.925,57.525,25.78\\Version=ES64L-G16RevA.03\State=1-A\HF=-474.0902508
 \RMSD=7.076e-09\PG=C01 [X(C55H74Mg1N4O6)]\\@


 TOM, TOM, THE BURGLAR'S SON
 STOLE A MACHINE AND AWAY HE RUN
 THE JOB WAS NEAT, BUT TOM GOT BEAT
 BY THE TIME HE GOT HOME IT WAS OBSOLETE.
 Job cpu time:       0 days  0 hours  3 minutes 34.9 seconds.
 Elapsed time:       0 days  0 hours  0 minutes  9.4 seconds.
 File lengths (MBytes):  RWF=   1276 Int=      0 D2E=      0 Chk=     38 Scr=      1
 Normal termination of Gaussian 16 at Wed Apr 27 03:11:13 2022.
