 Entering Gaussian System, Link 0=g16
 Initial command:
 /sw/apps/gaussian-16.0/g16/l1.exe "/tmp/Gau-250872.inp" -scrdir="/tmp/"
 Entering Link 1 = /sw/apps/gaussian-16.0/g16/l1.exe PID=    250873.
  
 Copyright (c) 1988,1990,1992,1993,1995,1998,2003,2009,2016,
            Gaussian, Inc.  All Rights Reserved.
  
 This is part of the Gaussian(R) 16 program.  It is based on
 the Gaussian(R) 09 system (copyright 2009, Gaussian, Inc.),
 the Gaussian(R) 03 system (copyright 2003, Gaussian, Inc.),
 the Gaussian(R) 98 system (copyright 1998, Gaussian, Inc.),
 the Gaussian(R) 94 system (copyright 1995, Gaussian, Inc.),
 the Gaussian 92(TM) system (copyright 1992, Gaussian, Inc.),
 the Gaussian 90(TM) system (copyright 1990, Gaussian, Inc.),
 the Gaussian 88(TM) system (copyright 1988, Gaussian, Inc.),
 the Gaussian 86(TM) system (copyright 1986, Carnegie Mellon
 University), and the Gaussian 82(TM) system (copyright 1983,
 Carnegie Mellon University). Gaussian is a federally registered
 trademark of Gaussian, Inc.
  
 This software contains proprietary and confidential information,
 including trade secrets, belonging to Gaussian, Inc.
  
 This software is provided under written license and may be
 used, copied, transmitted, or stored only in accord with that
 written license.
  
 The following legend is applicable only to US Government
 contracts under FAR:
  
                    RESTRICTED RIGHTS LEGEND
  
 Use, reproduction and disclosure by the US Government is
 subject to restrictions as set forth in subparagraphs (a)
 and (c) of the Commercial Computer Software - Restricted
 Rights clause in FAR 52.227-19.
  
 Gaussian, Inc.
 340 Quinnipiac St., Bldg. 40, Wallingford CT 06492
  
  
 ---------------------------------------------------------------
 Warning -- This program may not be used in any manner that
 competes with the business of Gaussian, Inc. or will provide
 assistance to any competitor of Gaussian, Inc.  The licensee
 of this program is prohibited from giving any competitor of
 Gaussian, Inc. access to this program.  By using this program,
 the user acknowledges that Gaussian, Inc. is engaged in the
 business of creating and licensing software in the field of
 computational chemistry and represents and warrants to the
 licensee that it is not a competitor of Gaussian, Inc. and that
 it will not use this program in any manner prohibited above.
 ---------------------------------------------------------------
  

 Cite this work as:
 Gaussian 16, Revision A.03,
 M. J. Frisch, G. W. Trucks, H. B. Schlegel, G. E. Scuseria, 
 M. A. Robb, J. R. Cheeseman, G. Scalmani, V. Barone, 
 G. A. Petersson, H. Nakatsuji, X. Li, M. Caricato, A. V. Marenich, 
 J. Bloino, B. G. Janesko, R. Gomperts, B. Mennucci, H. P. Hratchian, 
 J. V. Ortiz, A. F. Izmaylov, J. L. Sonnenberg, D. Williams-Young, 
 F. Ding, F. Lipparini, F. Egidi, J. Goings, B. Peng, A. Petrone, 
 T. Henderson, D. Ranasinghe, V. G. Zakrzewski, J. Gao, N. Rega, 
 G. Zheng, W. Liang, M. Hada, M. Ehara, K. Toyota, R. Fukuda, 
 J. Hasegawa, M. Ishida, T. Nakajima, Y. Honda, O. Kitao, H. Nakai, 
 T. Vreven, K. Throssell, J. A. Montgomery, Jr., J. E. Peralta, 
 F. Ogliaro, M. J. Bearpark, J. J. Heyd, E. N. Brothers, K. N. Kudin, 
 V. N. Staroverov, T. A. Keith, R. Kobayashi, J. Normand, 
 K. Raghavachari, A. P. Rendell, J. C. Burant, S. S. Iyengar, 
 J. Tomasi, M. Cossi, J. M. Millam, M. Klene, C. Adamo, R. Cammi, 
 J. W. Ochterski, R. L. Martin, K. Morokuma, O. Farkas, 
 J. B. Foresman, and D. J. Fox, Gaussian, Inc., Wallingford CT, 2016.
 
 ******************************************
 Gaussian 16:  ES64L-G16RevA.03 25-Dec-2016
                29-Apr-2022 
 ******************************************
 %nproc=24
 Will use up to   24 processors via shared memory.
 %mem=75GB
 ---------------------------------
 #p PBE1PBE/Def2SVP td=(nstates=5)
 ---------------------------------
 1/38=1,172=1/1;
 2/12=2,17=6,18=5,40=1/2;
 3/5=43,7=101,11=9,25=1,30=1,74=-13/1,2,3,8;
 4//1;
 5/5=2,38=5/2;
 8/6=1,10=1,108=5/1;
 9/41=5,42=1,70=2/14;
 6/7=2,8=2,9=2,10=2/1;
 99/5=1,9=1/99;
 Leave Link    1 at Fri Apr 29 10:45:50 2022, MaxMem= 10066329600 cpu:               1.7 elap:               0.1
 (Enter /sw/apps/gaussian-16.0/g16/l101.exe)
 ----------------------------------------------------
 step_251_chromophore_5 TDDFT with PBE1PBE functional
 ----------------------------------------------------
 Symbolic Z-matrix:
 Charge =  0 Multiplicity = 1
 Mg                    24.105   -6.987     45.763 
 C                     26.357   -4.6       44.672 
 C                     21.601   -5.397     43.815 
 C                     21.973   -9.611     46.321 
 C                     26.645   -8.786     47.26 
 N                     24.01    -5.131     44.521 
 C                     25.1     -4.376     44.142 
 C                     24.786   -3.322     43.015 
 C                     23.185   -3.322     43.046 
 C                     22.837   -4.677     43.88 
 C                     22.425   -2.067     43.622 
 C                     25.326   -3.652     41.668 
 C                     26.324   -2.736     40.986 
 C                     26.306   -2.744     39.449 
 O                     26.511   -1.742     38.733 
 O                     26.071   -4.007     39.001 
 N                     22.019   -7.397     45.223 
 C                     21.197   -6.55      44.456 
 C                     19.876   -7.09      44.396 
 C                     20.      -8.439     45.008 
 C                     21.386   -8.565     45.556 
 C                     18.73    -6.471     43.589 
 C                     18.814   -9.419     45.03 
 O                     17.696   -9.244     44.554 
 C                     19.115   -10.835    45.373 
 N                     24.326   -9.092     46.544 
 C                     23.25    -9.844     46.813 
 C                     23.773   -11.224    47.209 
 C                     25.302   -11.       47.623 
 C                     25.471   -9.491     47.139 
 C                     22.986   -11.746    48.463 
 C                     26.426   -11.944    47.028 
 C                     27.212   -12.878    47.936 
 N                     26.135   -6.721     46.02 
 C                     27.061   -7.525     46.692 
 C                     28.373   -6.968     46.565 
 C                     28.181   -5.798     45.767 
 C                     26.756   -5.703     45.52 
 C                     29.665   -7.491     47.109 
 C                     28.78    -4.667     45.188 
 O                     29.951   -4.345     45.214 
 C                     27.661   -3.89      44.392 
 C                     27.788   -2.454     44.686 
 O                     28.263   -1.645     43.897 
 O                     27.324   -2.185     45.965 
 C                     27.464   -0.761     46.344 
 C                     26.263   -4.251     37.565 
 C                     25.555   -5.532     37.039 
 C                     25.889   -6.366     35.984 
 C                     26.911   -6.048     34.949 
 C                     25.088   -7.669     35.75 
 C                     23.648   -7.413     35.273 
 C                     23.579   -6.829     33.821 
 C                     22.932   -5.413     33.724 
 C                     21.463   -5.525     34.093 
 C                     23.075   -4.904     32.213 
 C                     24.108   -3.834     31.967 
 C                     25.36    -4.459     31.096 
 C                     25.342   -3.833     29.678 
 C                     26.738   -3.896     28.983 
 C                     24.245   -4.478     28.835 
 C                     23.182   -3.422     28.288 
 C                     23.56    -3.055     26.86 
 C                     22.631   -3.805     25.89 
 C                     23.513   -4.595     24.872 
 C                     21.592   -2.836     25.129 
 H                     20.742   -4.975     43.29 
 H                     21.205   -10.36     46.527 
 H                     27.44    -9.39      47.702 
 H                     25.155   -2.344     43.322 
 H                     22.858   -3.532     42.027 
 H                     23.156   -1.263     43.707 
 H                     21.936   -2.233     44.582 
 H                     21.627   -1.831     42.919 
 H                     24.472   -3.656     40.989 
 H                     25.829   -4.618     41.696 
 H                     27.323   -3.087     41.243 
 H                     26.19    -1.685     41.241 
 H                     18.886   -5.592     42.964 
 H                     17.972   -6.319     44.357 
 H                     18.311   -7.327     43.061 
 H                     19.073   -11.159    46.412 
 H                     20.04    -11.183    44.913 
 H                     18.317   -11.426    44.922 
 H                     23.695   -11.954    46.403 
 H                     25.392   -10.939    48.707 
 H                     22.657   -12.758    48.227 
 H                     22.133   -11.139    48.769 
 H                     23.593   -11.78     49.368 
 H                     27.109   -11.254    46.533 
 H                     25.901   -12.605    46.337 
 H                     28.148   -13.062    47.408 
 H                     26.682   -13.828    48.008 
 H                     27.496   -12.555    48.937 
 H                     30.429   -6.778     46.798 
 H                     29.799   -8.496     46.71 
 H                     29.721   -7.552     48.196 
 H                     27.945   -4.034     43.349 
 H                     28.431   -0.593     46.818 
 H                     26.591   -0.529     46.954 
 H                     27.371   -0.101     45.482 
 H                     27.345   -4.23      37.433 
 H                     25.951   -3.39      36.974 
 H                     24.818   -6.011     37.683 
 H                     27.397   -5.085     35.108 
 H                     26.44    -6.07      33.967 
 H                     27.732   -6.762     34.876 
 H                     25.059   -8.202     36.7 
 H                     25.532   -8.336     35.01 
 H                     23.035   -6.836     35.966 
 H                     23.172   -8.392     35.217 
 H                     23.012   -7.477     33.153 
 H                     24.577   -6.746     33.389 
 H                     23.597   -4.95      34.453 
 H                     20.756   -5.239     33.314 
 H                     21.338   -4.759     34.859 
 H                     21.167   -6.464     34.56 
 H                     22.132   -4.444     31.918 
 H                     23.193   -5.766     31.556 
 H                     24.478   -3.403     32.898 
 H                     23.545   -3.058     31.448 
 H                     25.341   -5.541     31.229 
 H                     26.286   -4.131     31.568 
 H                     25.007   -2.812     29.859 
 H                     26.587   -3.556     27.958 
 H                     27.142   -4.907     28.926 
 H                     27.477   -3.23      29.427 
 H                     23.531   -5.158     29.3 
 H                     24.779   -5.07      28.092 
 H                     23.197   -2.561     28.957 
 H                     22.278   -3.964     28.561 
 H                     24.608   -3.297     26.686 
 H                     23.433   -1.974     26.803 
 H                     22.007   -4.548     26.388 
 H                     23.293   -5.658     24.969 
 H                     24.588   -4.585     25.052 
 H                     23.373   -4.331     23.824 
 H                     20.67    -3.352     24.861 
 H                     22.051   -2.5       24.199 
 H                     21.33    -2.098     25.887 
 
 ITRead=  0  0  0  0  0  0  0  0  0  0  0  0  0  0  0  0  0  0  0  0
 ITRead=  0  0  0  0  0  0  0  0  0  0  0  0  0  0  0  0  0  0  0  0
 ITRead=  0  0  0  0  0  0  0  0  0  0  0  0  0  0  0  0  0  0  0  0
 ITRead=  0  0  0  0  0  0  0  0  0  0  0  0  0  0  0  0  0  0  0  0
 ITRead=  0  0  0  0  0  0  0  0  0  0  0  0  0  0  0  0  0  0  0  0
 ITRead=  0  0  0  0  0  0  0  0  0  0  0  0  0  0  0  0  0  0  0  0
 ITRead=  0  0  0  0  0  0  0  0  0  0  0  0  0  0  0  0  0  0  0  0
 MicOpt= -1 -1 -1 -1 -1 -1 -1 -1 -1 -1 -1 -1 -1 -1 -1 -1 -1 -1 -1 -1
 MicOpt= -1 -1 -1 -1 -1 -1 -1 -1 -1 -1 -1 -1 -1 -1 -1 -1 -1 -1 -1 -1
 MicOpt= -1 -1 -1 -1 -1 -1 -1 -1 -1 -1 -1 -1 -1 -1 -1 -1 -1 -1 -1 -1
 MicOpt= -1 -1 -1 -1 -1 -1 -1 -1 -1 -1 -1 -1 -1 -1 -1 -1 -1 -1 -1 -1
 MicOpt= -1 -1 -1 -1 -1 -1 -1 -1 -1 -1 -1 -1 -1 -1 -1 -1 -1 -1 -1 -1
 MicOpt= -1 -1 -1 -1 -1 -1 -1 -1 -1 -1 -1 -1 -1 -1 -1 -1 -1 -1 -1 -1
 MicOpt= -1 -1 -1 -1 -1 -1 -1 -1 -1 -1 -1 -1 -1 -1 -1 -1 -1 -1 -1 -1
 NAtoms=    140 NQM=      140 NQMF=       0 NMMI=      0 NMMIF=      0
                NMic=       0 NMicF=      0.
                    Isotopes and Nuclear Properties:
 (Nuclear quadrupole moments (NQMom) in fm**2, nuclear magnetic moments (NMagM)
  in nuclear magnetons)

  Atom         1           2           3           4           5           6           7           8           9          10
 IAtWgt=          24          12          12          12          12          14          12          12          12          12
 AtmWgt=  23.9850450  12.0000000  12.0000000  12.0000000  12.0000000  14.0030740  12.0000000  12.0000000  12.0000000  12.0000000
 NucSpn=           0           0           0           0           0           2           0           0           0           0
 AtZEff=  -0.0000000  -0.0000000  -0.0000000  -0.0000000  -0.0000000  -0.0000000  -0.0000000  -0.0000000  -0.0000000  -0.0000000
 NQMom=    0.0000000   0.0000000   0.0000000   0.0000000   0.0000000   2.0440000   0.0000000   0.0000000   0.0000000   0.0000000
 NMagM=    0.0000000   0.0000000   0.0000000   0.0000000   0.0000000   0.4037610   0.0000000   0.0000000   0.0000000   0.0000000
 AtZNuc=  12.0000000   6.0000000   6.0000000   6.0000000   6.0000000   7.0000000   6.0000000   6.0000000   6.0000000   6.0000000

  Atom        11          12          13          14          15          16          17          18          19          20
 IAtWgt=          12          12          12          12          16          16          14          12          12          12
 AtmWgt=  12.0000000  12.0000000  12.0000000  12.0000000  15.9949146  15.9949146  14.0030740  12.0000000  12.0000000  12.0000000
 NucSpn=           0           0           0           0           0           0           2           0           0           0
 AtZEff=  -0.0000000  -0.0000000  -0.0000000  -0.0000000  -0.0000000  -0.0000000  -0.0000000  -0.0000000  -0.0000000  -0.0000000
 NQMom=    0.0000000   0.0000000   0.0000000   0.0000000   0.0000000   0.0000000   2.0440000   0.0000000   0.0000000   0.0000000
 NMagM=    0.0000000   0.0000000   0.0000000   0.0000000   0.0000000   0.0000000   0.4037610   0.0000000   0.0000000   0.0000000
 AtZNuc=   6.0000000   6.0000000   6.0000000   6.0000000   8.0000000   8.0000000   7.0000000   6.0000000   6.0000000   6.0000000

  Atom        21          22          23          24          25          26          27          28          29          30
 IAtWgt=          12          12          12          16          12          14          12          12          12          12
 AtmWgt=  12.0000000  12.0000000  12.0000000  15.9949146  12.0000000  14.0030740  12.0000000  12.0000000  12.0000000  12.0000000
 NucSpn=           0           0           0           0           0           2           0           0           0           0
 AtZEff=  -0.0000000  -0.0000000  -0.0000000  -0.0000000  -0.0000000  -0.0000000  -0.0000000  -0.0000000  -0.0000000  -0.0000000
 NQMom=    0.0000000   0.0000000   0.0000000   0.0000000   0.0000000   2.0440000   0.0000000   0.0000000   0.0000000   0.0000000
 NMagM=    0.0000000   0.0000000   0.0000000   0.0000000   0.0000000   0.4037610   0.0000000   0.0000000   0.0000000   0.0000000
 AtZNuc=   6.0000000   6.0000000   6.0000000   8.0000000   6.0000000   7.0000000   6.0000000   6.0000000   6.0000000   6.0000000

  Atom        31          32          33          34          35          36          37          38          39          40
 IAtWgt=          12          12          12          14          12          12          12          12          12          12
 AtmWgt=  12.0000000  12.0000000  12.0000000  14.0030740  12.0000000  12.0000000  12.0000000  12.0000000  12.0000000  12.0000000
 NucSpn=           0           0           0           2           0           0           0           0           0           0
 AtZEff=  -0.0000000  -0.0000000  -0.0000000  -0.0000000  -0.0000000  -0.0000000  -0.0000000  -0.0000000  -0.0000000  -0.0000000
 NQMom=    0.0000000   0.0000000   0.0000000   2.0440000   0.0000000   0.0000000   0.0000000   0.0000000   0.0000000   0.0000000
 NMagM=    0.0000000   0.0000000   0.0000000   0.4037610   0.0000000   0.0000000   0.0000000   0.0000000   0.0000000   0.0000000
 AtZNuc=   6.0000000   6.0000000   6.0000000   7.0000000   6.0000000   6.0000000   6.0000000   6.0000000   6.0000000   6.0000000

  Atom        41          42          43          44          45          46          47          48          49          50
 IAtWgt=          16          12          12          16          16          12          12          12          12          12
 AtmWgt=  15.9949146  12.0000000  12.0000000  15.9949146  15.9949146  12.0000000  12.0000000  12.0000000  12.0000000  12.0000000
 NucSpn=           0           0           0           0           0           0           0           0           0           0
 AtZEff=  -0.0000000  -0.0000000  -0.0000000  -0.0000000  -0.0000000  -0.0000000  -0.0000000  -0.0000000  -0.0000000  -0.0000000
 NQMom=    0.0000000   0.0000000   0.0000000   0.0000000   0.0000000   0.0000000   0.0000000   0.0000000   0.0000000   0.0000000
 NMagM=    0.0000000   0.0000000   0.0000000   0.0000000   0.0000000   0.0000000   0.0000000   0.0000000   0.0000000   0.0000000
 AtZNuc=   8.0000000   6.0000000   6.0000000   8.0000000   8.0000000   6.0000000   6.0000000   6.0000000   6.0000000   6.0000000

  Atom        51          52          53          54          55          56          57          58          59          60
 IAtWgt=          12          12          12          12          12          12          12          12          12          12
 AtmWgt=  12.0000000  12.0000000  12.0000000  12.0000000  12.0000000  12.0000000  12.0000000  12.0000000  12.0000000  12.0000000
 NucSpn=           0           0           0           0           0           0           0           0           0           0
 AtZEff=  -0.0000000  -0.0000000  -0.0000000  -0.0000000  -0.0000000  -0.0000000  -0.0000000  -0.0000000  -0.0000000  -0.0000000
 NQMom=    0.0000000   0.0000000   0.0000000   0.0000000   0.0000000   0.0000000   0.0000000   0.0000000   0.0000000   0.0000000
 NMagM=    0.0000000   0.0000000   0.0000000   0.0000000   0.0000000   0.0000000   0.0000000   0.0000000   0.0000000   0.0000000
 AtZNuc=   6.0000000   6.0000000   6.0000000   6.0000000   6.0000000   6.0000000   6.0000000   6.0000000   6.0000000   6.0000000

  Atom        61          62          63          64          65          66          67          68          69          70
 IAtWgt=          12          12          12          12          12          12           1           1           1           1
 AtmWgt=  12.0000000  12.0000000  12.0000000  12.0000000  12.0000000  12.0000000   1.0078250   1.0078250   1.0078250   1.0078250
 NucSpn=           0           0           0           0           0           0           1           1           1           1
 AtZEff=  -0.0000000  -0.0000000  -0.0000000  -0.0000000  -0.0000000  -0.0000000  -0.0000000  -0.0000000  -0.0000000  -0.0000000
 NQMom=    0.0000000   0.0000000   0.0000000   0.0000000   0.0000000   0.0000000   0.0000000   0.0000000   0.0000000   0.0000000
 NMagM=    0.0000000   0.0000000   0.0000000   0.0000000   0.0000000   0.0000000   2.7928460   2.7928460   2.7928460   2.7928460
 AtZNuc=   6.0000000   6.0000000   6.0000000   6.0000000   6.0000000   6.0000000   1.0000000   1.0000000   1.0000000   1.0000000

  Atom        71          72          73          74          75          76          77          78          79          80
 IAtWgt=           1           1           1           1           1           1           1           1           1           1
 AtmWgt=   1.0078250   1.0078250   1.0078250   1.0078250   1.0078250   1.0078250   1.0078250   1.0078250   1.0078250   1.0078250
 NucSpn=           1           1           1           1           1           1           1           1           1           1
 AtZEff=  -0.0000000  -0.0000000  -0.0000000  -0.0000000  -0.0000000  -0.0000000  -0.0000000  -0.0000000  -0.0000000  -0.0000000
 NQMom=    0.0000000   0.0000000   0.0000000   0.0000000   0.0000000   0.0000000   0.0000000   0.0000000   0.0000000   0.0000000
 NMagM=    2.7928460   2.7928460   2.7928460   2.7928460   2.7928460   2.7928460   2.7928460   2.7928460   2.7928460   2.7928460
 AtZNuc=   1.0000000   1.0000000   1.0000000   1.0000000   1.0000000   1.0000000   1.0000000   1.0000000   1.0000000   1.0000000

  Atom        81          82          83          84          85          86          87          88          89          90
 IAtWgt=           1           1           1           1           1           1           1           1           1           1
 AtmWgt=   1.0078250   1.0078250   1.0078250   1.0078250   1.0078250   1.0078250   1.0078250   1.0078250   1.0078250   1.0078250
 NucSpn=           1           1           1           1           1           1           1           1           1           1
 AtZEff=  -0.0000000  -0.0000000  -0.0000000  -0.0000000  -0.0000000  -0.0000000  -0.0000000  -0.0000000  -0.0000000  -0.0000000
 NQMom=    0.0000000   0.0000000   0.0000000   0.0000000   0.0000000   0.0000000   0.0000000   0.0000000   0.0000000   0.0000000
 NMagM=    2.7928460   2.7928460   2.7928460   2.7928460   2.7928460   2.7928460   2.7928460   2.7928460   2.7928460   2.7928460
 AtZNuc=   1.0000000   1.0000000   1.0000000   1.0000000   1.0000000   1.0000000   1.0000000   1.0000000   1.0000000   1.0000000

  Atom        91          92          93          94          95          96          97          98          99         100
 IAtWgt=           1           1           1           1           1           1           1           1           1           1
 AtmWgt=   1.0078250   1.0078250   1.0078250   1.0078250   1.0078250   1.0078250   1.0078250   1.0078250   1.0078250   1.0078250
 NucSpn=           1           1           1           1           1           1           1           1           1           1
 AtZEff=  -0.0000000  -0.0000000  -0.0000000  -0.0000000  -0.0000000  -0.0000000  -0.0000000  -0.0000000  -0.0000000  -0.0000000
 NQMom=    0.0000000   0.0000000   0.0000000   0.0000000   0.0000000   0.0000000   0.0000000   0.0000000   0.0000000   0.0000000
 NMagM=    2.7928460   2.7928460   2.7928460   2.7928460   2.7928460   2.7928460   2.7928460   2.7928460   2.7928460   2.7928460
 AtZNuc=   1.0000000   1.0000000   1.0000000   1.0000000   1.0000000   1.0000000   1.0000000   1.0000000   1.0000000   1.0000000

  Atom       101         102         103         104         105         106         107         108         109         110
 IAtWgt=           1           1           1           1           1           1           1           1           1           1
 AtmWgt=   1.0078250   1.0078250   1.0078250   1.0078250   1.0078250   1.0078250   1.0078250   1.0078250   1.0078250   1.0078250
 NucSpn=           1           1           1           1           1           1           1           1           1           1
 AtZEff=  -0.0000000  -0.0000000  -0.0000000  -0.0000000  -0.0000000  -0.0000000  -0.0000000  -0.0000000  -0.0000000  -0.0000000
 NQMom=    0.0000000   0.0000000   0.0000000   0.0000000   0.0000000   0.0000000   0.0000000   0.0000000   0.0000000   0.0000000
 NMagM=    2.7928460   2.7928460   2.7928460   2.7928460   2.7928460   2.7928460   2.7928460   2.7928460   2.7928460   2.7928460
 AtZNuc=   1.0000000   1.0000000   1.0000000   1.0000000   1.0000000   1.0000000   1.0000000   1.0000000   1.0000000   1.0000000

  Atom       111         112         113         114         115         116         117         118         119         120
 IAtWgt=           1           1           1           1           1           1           1           1           1           1
 AtmWgt=   1.0078250   1.0078250   1.0078250   1.0078250   1.0078250   1.0078250   1.0078250   1.0078250   1.0078250   1.0078250
 NucSpn=           1           1           1           1           1           1           1           1           1           1
 AtZEff=  -0.0000000  -0.0000000  -0.0000000  -0.0000000  -0.0000000  -0.0000000  -0.0000000  -0.0000000  -0.0000000  -0.0000000
 NQMom=    0.0000000   0.0000000   0.0000000   0.0000000   0.0000000   0.0000000   0.0000000   0.0000000   0.0000000   0.0000000
 NMagM=    2.7928460   2.7928460   2.7928460   2.7928460   2.7928460   2.7928460   2.7928460   2.7928460   2.7928460   2.7928460
 AtZNuc=   1.0000000   1.0000000   1.0000000   1.0000000   1.0000000   1.0000000   1.0000000   1.0000000   1.0000000   1.0000000

  Atom       121         122         123         124         125         126         127         128         129         130
 IAtWgt=           1           1           1           1           1           1           1           1           1           1
 AtmWgt=   1.0078250   1.0078250   1.0078250   1.0078250   1.0078250   1.0078250   1.0078250   1.0078250   1.0078250   1.0078250
 NucSpn=           1           1           1           1           1           1           1           1           1           1
 AtZEff=  -0.0000000  -0.0000000  -0.0000000  -0.0000000  -0.0000000  -0.0000000  -0.0000000  -0.0000000  -0.0000000  -0.0000000
 NQMom=    0.0000000   0.0000000   0.0000000   0.0000000   0.0000000   0.0000000   0.0000000   0.0000000   0.0000000   0.0000000
 NMagM=    2.7928460   2.7928460   2.7928460   2.7928460   2.7928460   2.7928460   2.7928460   2.7928460   2.7928460   2.7928460
 AtZNuc=   1.0000000   1.0000000   1.0000000   1.0000000   1.0000000   1.0000000   1.0000000   1.0000000   1.0000000   1.0000000

  Atom       131         132         133         134         135         136         137         138         139         140
 IAtWgt=           1           1           1           1           1           1           1           1           1           1
 AtmWgt=   1.0078250   1.0078250   1.0078250   1.0078250   1.0078250   1.0078250   1.0078250   1.0078250   1.0078250   1.0078250
 NucSpn=           1           1           1           1           1           1           1           1           1           1
 AtZEff=  -0.0000000  -0.0000000  -0.0000000  -0.0000000  -0.0000000  -0.0000000  -0.0000000  -0.0000000  -0.0000000  -0.0000000
 NQMom=    0.0000000   0.0000000   0.0000000   0.0000000   0.0000000   0.0000000   0.0000000   0.0000000   0.0000000   0.0000000
 NMagM=    2.7928460   2.7928460   2.7928460   2.7928460   2.7928460   2.7928460   2.7928460   2.7928460   2.7928460   2.7928460
 AtZNuc=   1.0000000   1.0000000   1.0000000   1.0000000   1.0000000   1.0000000   1.0000000   1.0000000   1.0000000   1.0000000
 Leave Link  101 at Fri Apr 29 10:45:50 2022, MaxMem= 10066329600 cpu:               2.8 elap:               0.1
 (Enter /sw/apps/gaussian-16.0/g16/l202.exe)
 Stoichiometry    C55H74MgN4O6
 Framework group  C1[X(C55H74MgN4O6)]
 Deg. of freedom   414
 Full point group                 C1      NOp   1
 Largest Abelian subgroup         C1      NOp   1
 Largest concise Abelian subgroup C1      NOp   1
                         Standard orientation:                         
 ---------------------------------------------------------------------
 Center     Atomic      Atomic             Coordinates (Angstroms)
 Number     Number       Type             X           Y           Z
 ---------------------------------------------------------------------
      1         12           0        5.283390    0.477002   -0.456820
      2          6           0        3.821227   -2.652990   -0.614231
      3          6           0        2.931310    1.606755   -2.861856
      4          6           0        6.280297    3.715068    0.056280
      5          6           0        7.240533   -0.505342    2.214060
      6          7           0        3.676526   -0.491230   -1.672071
      7          6           0        3.198407   -1.769850   -1.476370
      8          6           0        1.862017   -2.077347   -2.250417
      9          6           0        1.818170   -0.842907   -3.269435
     10          6           0        2.900922    0.193690   -2.632410
     11          6           0        2.082164   -1.098652   -4.802179
     12          6           0        0.640739   -2.155798   -1.403520
     13          6           0       -0.171346   -3.434521   -1.328900
     14          6           0       -1.671591   -3.264888   -1.040375
     15          8           0       -2.571643   -3.981244   -1.525581
     16          8           0       -1.854962   -2.247602   -0.155727
     17          7           0        4.745469    2.399317   -1.365908
     18          6           0        3.780588    2.578935   -2.374930
     19          6           0        3.774151    3.944376   -2.794181
     20          6           0        4.660683    4.634151   -1.820531
     21          6           0        5.286489    3.588105   -0.953738
     22          6           0        2.803050    4.521272   -3.829497
     23          6           0        4.832914    6.163020   -1.839885
     24          8           0        4.279551    6.964142   -2.587626
     25          6           0        5.478986    6.784359   -0.652520
     26          7           0        6.498112    1.549133    1.113153
     27          6           0        6.868820    2.825837    0.945094
     28          6           0        7.569376    3.247819    2.235791
     29          6           0        7.997486    1.884983    2.956076
     30          6           0        7.215952    0.855889    2.023301
     31          6           0        8.867185    4.060386    1.889672
     32          6           0        7.666525    1.666288    4.489430
     33          6           0        8.785702    1.555207    5.513988
     34          7           0        5.572549   -1.284012    0.578999
     35          6           0        6.440441   -1.561656    1.639731
     36          6           0        6.260263   -2.912461    2.076290
     37          6           0        5.226492   -3.419231    1.229491
     38          6           0        4.899353   -2.353121    0.303721
     39          6           0        6.961122   -3.636597    3.182253
     40          6           0        4.451410   -4.534424    0.870609
     41          8           0        4.463445   -5.643935    1.365019
     42          6           0        3.459146   -4.078519   -0.268280
     43          6           0        3.450811   -5.105673   -1.321630
     44          8           0        2.532466   -5.902583   -1.477208
     45          8           0        4.621997   -5.041060   -2.061661
     46          6           0        4.699795   -6.079075   -3.114034
     47          6           0       -3.197319   -2.102252    0.423450
     48          6           0       -3.474989   -0.700433    1.037212
     49          6           0       -4.314862   -0.332354    2.076091
     50          6           0       -5.345097   -1.220156    2.682106
     51          6           0       -4.307043    1.126509    2.591675
     52          6           0       -4.893288    2.125841    1.579589
     53          6           0       -6.437112    1.955462    1.375385
     54          6           0       -6.858950    1.577440   -0.077965
     55          6           0       -6.543079    2.746918   -0.994051
     56          6           0       -8.434842    1.295996   -0.080462
     57          6           0       -8.851810   -0.149066   -0.182621
     58          6           0       -9.513339   -0.639602    1.245148
     59          6           0      -11.030410   -0.879063    1.035200
     60          6           0      -11.631320   -1.850451    2.098741
     61          6           0      -11.769149    0.455834    0.986208
     62          6           0      -12.574186    0.669147   -0.374206
     63          6           0      -14.028338    0.286937   -0.137321
     64          6           0      -14.861297    1.570251    0.023067
     65          6           0      -15.648896    1.483548    1.368622
     66          6           0      -15.855967    1.840533   -1.215958
     67          1           0        2.290249    2.057656   -3.621671
     68          1           0        6.603107    4.758003    0.092916
     69          1           0        7.835763   -0.784549    3.085811
     70          1           0        1.973693   -3.005728   -2.809461
     71          1           0        0.851907   -0.358601   -3.123926
     72          1           0        2.030301   -2.175998   -4.959143
     73          1           0        3.031931   -0.710755   -5.170629
     74          1           0        1.309118   -0.560851   -5.349792
     75          1           0       -0.061096   -1.426621   -1.811076
     76          1           0        0.894089   -1.941791   -0.365751
     77          1           0        0.199558   -4.011863   -0.482521
     78          1           0       -0.149061   -4.014775   -2.251066
     79          1           0        2.015416    3.910970   -4.270819
     80          1           0        3.486116    4.936576   -4.570061
     81          1           0        2.447620    5.433494   -3.351374
     82          1           0        6.559758    6.918048   -0.634668
     83          1           0        5.145586    6.332637    0.281890
     84          1           0        5.125599    7.815859   -0.627787
     85          1           0        6.931787    3.844743    2.888311
     86          1           0        9.047526    1.670891    2.759968
     87          1           0        8.833836    4.972201    2.485963
     88          1           0        8.999164    4.309200    0.835933
     89          1           0        9.786278    3.523786    2.126226
     90          1           0        7.069914    0.754374    4.498541
     91          1           0        7.106075    2.554187    4.785331
     92          1           0        8.351985    0.998846    6.345305
     93          1           0        9.030841    2.553318    5.877670
     94          1           0        9.708681    1.035067    5.259923
     95          1           0        6.543136   -4.643578    3.190177
     96          1           0        6.788549   -3.071059    4.097440
     97          1           0        8.038120   -3.748226    3.055598
     98          1           0        2.483881   -4.105499    0.218928
     99          1           0        5.172236   -6.978298   -2.718829
    100          1           0        5.206441   -5.609538   -3.957183
    101          1           0        3.715127   -6.336395   -3.503275
    102          1           0       -3.280548   -2.938796    1.117609
    103          1           0       -3.969638   -2.342867   -0.307011
    104          1           0       -2.779638    0.106344    0.807116
    105          1           0       -5.369398   -2.215057    2.236655
    106          1           0       -6.321344   -0.746023    2.588355
    107          1           0       -5.228548   -1.400009    3.751328
    108          1           0       -3.268730    1.389888    2.791594
    109          1           0       -4.869227    1.273993    3.514617
    110          1           0       -4.365944    2.170009    0.626225
    111          1           0       -4.764573    3.112943    2.023679
    112          1           0       -6.979773    2.865420    1.630556
    113          1           0       -6.830232    1.174395    2.027235
    114          1           0       -6.213355    0.701720   -0.143975
    115          1           0       -7.396628    3.190490   -1.507064
    116          1           0       -5.961508    2.288257   -1.794390
    117          1           0       -5.903643    3.518535   -0.566084
    118          1           0       -8.863140    1.765453   -0.965925
    119          1           0       -8.890137    1.809558    0.766638
    120          1           0       -8.015877   -0.796515   -0.449918
    121          1           0       -9.547594   -0.149450   -1.021900
    122          1           0       -9.157267    0.040300    2.019564
    123          1           0       -9.078326   -1.607235    1.494737
    124          1           0      -11.083406   -1.277893    0.022504
    125          1           0      -12.710713   -1.846365    1.944079
    126          1           0      -11.456125   -1.523381    3.123883
    127          1           0      -11.303241   -2.882676    1.981737
    128          1           0      -11.205370    1.388381    0.955713
    129          1           0      -12.345835    0.487033    1.910399
    130          1           0      -12.100804    0.052234   -1.138690
    131          1           0      -12.235678    1.680873   -0.591763
    132          1           0      -14.098969   -0.354346    0.740695
    133          1           0      -14.316735   -0.286941   -1.017906
    134          1           0      -14.247902    2.469490    0.090484
    135          1           0      -15.341276    2.310431    2.008476
    136          1           0      -15.425431    0.628718    2.006943
    137          1           0      -16.734294    1.529029    1.282345
    138          1           0      -16.052108    2.902920   -1.360961
    139          1           0      -16.813498    1.366318   -0.999786
    140          1           0      -15.282676    1.506102   -2.080450
 ---------------------------------------------------------------------
 Rotational constants (GHZ):           0.0399637           0.0105990           0.0095938
 Leave Link  202 at Fri Apr 29 10:45:50 2022, MaxMem= 10066329600 cpu:               0.2 elap:               0.0
 (Enter /sw/apps/gaussian-16.0/g16/l301.exe)
 Standard basis: def2SVP (5D, 7F)
 Ernie: Thresh=  0.10000D-02 Tol=  0.10000D-05 Strict=F.
 There are  1364 symmetry adapted cartesian basis functions of A   symmetry.
 There are  1298 symmetry adapted basis functions of A   symmetry.
  1298 basis functions,  2180 primitive gaussians,  1364 cartesian basis functions
   246 alpha electrons      246 beta electrons
       nuclear repulsion energy      9574.9820350680 Hartrees.
 IExCor= 1009 DFT=T Ex+Corr=PBE1PBE ExCW=0 ScaHFX=  0.250000
 ScaDFX=  0.750000  0.750000  1.000000  1.000000 ScalE2=  1.000000  1.000000
 IRadAn=      5 IRanWt=     -1 IRanGd=            0 ICorTp=0 IEmpDi=  4
 NAtoms=  140 NActive=  140 NUniq=  140 SFac= 1.00D+00 NAtFMM=   60 NAOKFM=T Big=T
 Integral buffers will be    131072 words long.
 Regular integral format.
 Two-electron integral symmetry is turned on.
 Leave Link  301 at Fri Apr 29 10:45:50 2022, MaxMem= 10066329600 cpu:               1.5 elap:               0.1
 (Enter /sw/apps/gaussian-16.0/g16/l302.exe)
 NPDir=0 NMtPBC=     1 NCelOv=     1 NCel=       1 NClECP=     1 NCelD=      1
         NCelK=      1 NCelE2=     1 NClLst=     1 CellRange=     0.0.
 One-electron integrals computed using PRISM.
 One-electron integral symmetry used in STVInt
   1 Symmetry operations used in ECPInt.
 ECPInt:  NShTT=  192510 NPrTT=  683786 LenC2=   96591 LenP2D=  210077.
 LDataN:  DoStor=T MaxTD1= 4 Len=   56
 NBasis=  1298 RedAO= T EigKep=  3.31D-04  NBF=  1298
 NBsUse=  1298 1.00D-06 EigRej= -1.00D+00 NBFU=  1298
 Precomputing XC quadrature grid using
 IXCGrd= 4 IRadAn=           5 IRanWt=          -1 IRanGd=           0 AccXCQ= 0.00D+00.
 Generated NRdTot=       0 NPtTot=           0 NUsed=           0 NTot=          32
 NSgBfM=  1058  1058  1058  1058  1058 MxSgAt=   140 MxSgA2=   140.
 Leave Link  302 at Fri Apr 29 10:45:54 2022, MaxMem= 10066329600 cpu:              87.6 elap:               3.7
 (Enter /sw/apps/gaussian-16.0/g16/l303.exe)
 DipDrv:  MaxL=1.
 Leave Link  303 at Fri Apr 29 10:45:54 2022, MaxMem= 10066329600 cpu:               5.7 elap:               0.3
 (Enter /sw/apps/gaussian-16.0/g16/l308.exe)
 Leave Link  308 at Fri Apr 29 10:45:54 2022, MaxMem= 10066329600 cpu:              11.6 elap:               0.6
 (Enter /sw/apps/gaussian-16.0/g16/l401.exe)
 ExpMin= 3.36D-02 ExpMax= 4.95D+03 ExpMxC= 7.45D+02 IAcc=3 IRadAn=         5 AccDes= 0.00D+00
 Harris functional with IExCor= 1009 and IRadAn=       5 diagonalized for initial guess.
 HarFok:  IExCor= 1009 AccDes= 0.00D+00 IRadAn=         5 IDoV= 1 UseB2=F ITyADJ=14
 ICtDFT=  3500011 ScaDFX=  1.000000  1.000000  1.000000  1.000000
 FoFCou: FMM=F IPFlag=           0 FMFlag=      100000 FMFlg1=        2001
         NFxFlg=           0 DoJE=T BraDBF=F KetDBF=T FulRan=T
         wScrn=  0.000000 ICntrl=       500 IOpCl=  0 I1Cent=   200000004 NGrid=           0
         NMat0=    1 NMatS0=      1 NMatT0=    0 NMatD0=    1 NMtDS0=    0 NMtDT0=    0
 Petite list used in FoFCou.
 Harris En= -3006.11288265179    
 JPrj=0 DoOrth=F DoCkMO=F.
 Leave Link  401 at Fri Apr 29 10:46:00 2022, MaxMem= 10066329600 cpu:             143.9 elap:               6.0
 (Enter /sw/apps/gaussian-16.0/g16/l502.exe)
 Integral symmetry usage will be decided dynamically.
 Closed shell SCF:
 Using DIIS extrapolation, IDIIS=  1040.
 NGot= 10066329600 LenX= 10062561258 LenY= 10060699398
 Requested convergence on RMS density matrix=1.00D-08 within 128 cycles.
 Requested convergence on MAX density matrix=1.00D-06.
 Requested convergence on             energy=1.00D-06.
 No special actions if energy rises.
 Fock matrices will be formed incrementally for  20 cycles.

 Cycle   1  Pass 1  IDiag  1:
 FoFJK:  IHMeth= 1 ICntrl=       0 DoSepK=F KAlg= 0 I1Cent=           0 FoldK=F
 IRaf= 520000000 NMat=       1 IRICut=       1 DoRegI=T DoRafI=F ISym2E= 0 IDoP0=0 IntGTp=1.
 FoFCou: FMM=T IPFlag=           0 FMFlag=      100000 FMFlg1=        2001
         NFxFlg=           0 DoJE=F BraDBF=F KetDBF=F FulRan=T
         wScrn=  0.000000 ICntrl=         0 IOpCl=  0 I1Cent=           0 NGrid=           0
         NMat0=    1 NMatS0=      1 NMatT0=    0 NMatD0=    1 NMtDS0=    0 NMtDT0=    0
 Symmetry not used in FoFCou.
 FMM levels:  10  Number of levels for PrismC:   9
 E= -3003.80804823460    
 DIIS: error= 1.86D-02 at cycle   1 NSaved=   1.
 NSaved= 1 IEnMin= 1 EnMin= -3003.80804823460     IErMin= 1 ErrMin= 1.86D-02
 ErrMax= 1.86D-02  0.00D+00 EMaxC= 1.00D-01 BMatC= 1.44D+00 BMatP= 1.44D+00
 IDIUse=3 WtCom= 8.14D-01 WtEn= 1.86D-01
 Coeff-Com:  0.100D+01
 Coeff-En:   0.100D+01
 Coeff:      0.100D+01
 Gap=     0.077 Goal=   None    Shift=    0.000
 GapD=    0.077 DampG=0.500 DampE=0.500 DampFc=0.2500 IDamp=-1.
 Damping current iteration by 2.50D-01
 RMSDP=2.75D-03 MaxDP=7.46D-01              OVMax= 2.93D-01

 Cycle   2  Pass 1  IDiag  1:
 RMSU=  6.83D-04    CP:  9.90D-01
 E= -3004.34877348966     Delta-E=       -0.540725255056 Rises=F Damp=T
 DIIS: error= 8.99D-03 at cycle   2 NSaved=   2.
 NSaved= 2 IEnMin= 2 EnMin= -3004.34877348966     IErMin= 2 ErrMin= 8.99D-03
 ErrMax= 8.99D-03  0.00D+00 EMaxC= 1.00D-01 BMatC= 3.58D-01 BMatP= 1.44D+00
 IDIUse=3 WtCom= 9.10D-01 WtEn= 8.99D-02
 Coeff-Com: -0.754D+00 0.175D+01
 Coeff-En:   0.000D+00 0.100D+01
 Coeff:     -0.686D+00 0.169D+01
 Gap=     0.181 Goal=   None    Shift=    0.000
 RMSDP=9.78D-04 MaxDP=5.54D-02 DE=-5.41D-01 OVMax= 3.66D-01

 Cycle   3  Pass 1  IDiag  1:
 RMSU=  8.71D-04    CP:  9.67D-01  1.57D+00
 E= -3005.13313199455     Delta-E=       -0.784358504892 Rises=F Damp=F
 DIIS: error= 1.43D-02 at cycle   3 NSaved=   3.
 NSaved= 3 IEnMin= 3 EnMin= -3005.13313199455     IErMin= 2 ErrMin= 8.99D-03
 ErrMax= 1.43D-02  0.00D+00 EMaxC= 1.00D-01 BMatC= 1.99D-01 BMatP= 3.58D-01
 IDIUse=3 WtCom= 8.57D-01 WtEn= 1.43D-01
 Coeff-Com: -0.506D+00 0.108D+01 0.427D+00
 Coeff-En:   0.000D+00 0.000D+00 0.100D+01
 Coeff:     -0.434D+00 0.925D+00 0.509D+00
 Gap=     0.074 Goal=   None    Shift=    0.000
 RMSDP=7.00D-04 MaxDP=1.25D-01 DE=-7.84D-01 OVMax= 3.14D-01

 Cycle   4  Pass 1  IDiag  1:
 RMSU=  4.41D-04    CP:  9.72D-01  1.92D+00  4.43D-01
 E= -3005.25600588002     Delta-E=       -0.122873885475 Rises=F Damp=F
 DIIS: error= 7.58D-03 at cycle   4 NSaved=   4.
 NSaved= 4 IEnMin= 4 EnMin= -3005.25600588002     IErMin= 4 ErrMin= 7.58D-03
 ErrMax= 7.58D-03  0.00D+00 EMaxC= 1.00D-01 BMatC= 6.37D-02 BMatP= 1.99D-01
 IDIUse=3 WtCom= 9.24D-01 WtEn= 7.58D-02
 Coeff-Com: -0.130D+00 0.285D+00 0.353D+00 0.493D+00
 Coeff-En:   0.000D+00 0.000D+00 0.313D+00 0.687D+00
 Coeff:     -0.120D+00 0.263D+00 0.350D+00 0.507D+00
 Gap=     0.073 Goal=   None    Shift=    0.000
 RMSDP=3.84D-04 MaxDP=4.85D-02 DE=-1.23D-01 OVMax= 2.36D-01

 Cycle   5  Pass 1  IDiag  1:
 RMSU=  1.88D-04    CP:  9.71D-01  1.76D+00  6.69D-01  4.39D-01
 E= -3005.30864948369     Delta-E=       -0.052643603671 Rises=F Damp=F
 DIIS: error= 3.09D-03 at cycle   5 NSaved=   5.
 NSaved= 5 IEnMin= 5 EnMin= -3005.30864948369     IErMin= 5 ErrMin= 3.09D-03
 ErrMax= 3.09D-03  0.00D+00 EMaxC= 1.00D-01 BMatC= 1.24D-02 BMatP= 6.37D-02
 IDIUse=3 WtCom= 9.69D-01 WtEn= 3.09D-02
 Coeff-Com: -0.303D-01 0.710D-01 0.214D+00 0.392D+00 0.354D+00
 Coeff-En:   0.000D+00 0.000D+00 0.000D+00 0.232D+00 0.768D+00
 Coeff:     -0.294D-01 0.688D-01 0.207D+00 0.387D+00 0.367D+00
 Gap=     0.074 Goal=   None    Shift=    0.000
 RMSDP=1.74D-04 MaxDP=1.11D-02 DE=-5.26D-02 OVMax= 1.23D-01

 Cycle   6  Pass 1  IDiag  1:
 RMSU=  6.40D-05    CP:  9.71D-01  1.76D+00  6.33D-01  6.16D-01  2.67D-01
 E= -3005.32530775929     Delta-E=       -0.016658275599 Rises=F Damp=F
 DIIS: error= 8.12D-04 at cycle   6 NSaved=   6.
 NSaved= 6 IEnMin= 6 EnMin= -3005.32530775929     IErMin= 6 ErrMin= 8.12D-04
 ErrMax= 8.12D-04  0.00D+00 EMaxC= 1.00D-01 BMatC= 1.00D-03 BMatP= 1.24D-02
 IDIUse=3 WtCom= 9.92D-01 WtEn= 8.12D-03
 Coeff-Com:  0.112D-02 0.221D-03 0.707D-01 0.158D+00 0.245D+00 0.525D+00
 Coeff-En:   0.000D+00 0.000D+00 0.000D+00 0.000D+00 0.869D-01 0.913D+00
 Coeff:      0.111D-02 0.220D-03 0.702D-01 0.157D+00 0.244D+00 0.528D+00
 Gap=     0.076 Goal=   None    Shift=    0.000
 RMSDP=4.97D-05 MaxDP=4.31D-03 DE=-1.67D-02 OVMax= 3.50D-02

 Cycle   7  Pass 1  IDiag  1:
 RMSU=  2.89D-05    CP:  9.71D-01  1.76D+00  6.43D-01  5.93D-01  4.18D-01
                    CP:  5.99D-01
 E= -3005.32638690748     Delta-E=       -0.001079148189 Rises=F Damp=F
 DIIS: error= 4.09D-04 at cycle   7 NSaved=   7.
 NSaved= 7 IEnMin= 7 EnMin= -3005.32638690748     IErMin= 7 ErrMin= 4.09D-04
 ErrMax= 4.09D-04  0.00D+00 EMaxC= 1.00D-01 BMatC= 1.92D-04 BMatP= 1.00D-03
 IDIUse=3 WtCom= 9.96D-01 WtEn= 4.09D-03
 Coeff-Com:  0.395D-02-0.775D-02 0.170D-01 0.474D-01 0.111D+00 0.366D+00
 Coeff-Com:  0.463D+00
 Coeff-En:   0.000D+00 0.000D+00 0.000D+00 0.000D+00 0.000D+00 0.168D+00
 Coeff-En:   0.832D+00
 Coeff:      0.393D-02-0.772D-02 0.170D-01 0.472D-01 0.110D+00 0.365D+00
 Coeff:      0.464D+00
 Gap=     0.076 Goal=   None    Shift=    0.000
 RMSDP=2.18D-05 MaxDP=1.69D-03 DE=-1.08D-03 OVMax= 1.23D-02

 Cycle   8  Pass 1  IDiag  1:
 RMSU=  1.21D-05    CP:  9.71D-01  1.76D+00  6.42D-01  5.96D-01  3.99D-01
                    CP:  7.07D-01  4.35D-01
 E= -3005.32657454806     Delta-E=       -0.000187640580 Rises=F Damp=F
 DIIS: error= 1.82D-04 at cycle   8 NSaved=   8.
 NSaved= 8 IEnMin= 8 EnMin= -3005.32657454806     IErMin= 8 ErrMin= 1.82D-04
 ErrMax= 1.82D-04  0.00D+00 EMaxC= 1.00D-01 BMatC= 3.39D-05 BMatP= 1.92D-04
 IDIUse=3 WtCom= 9.98D-01 WtEn= 1.82D-03
 Coeff-Com:  0.212D-02-0.450D-02 0.144D-02 0.873D-02 0.392D-01 0.177D+00
 Coeff-Com:  0.333D+00 0.443D+00
 Coeff-En:   0.000D+00 0.000D+00 0.000D+00 0.000D+00 0.000D+00 0.000D+00
 Coeff-En:   0.187D+00 0.813D+00
 Coeff:      0.211D-02-0.449D-02 0.144D-02 0.872D-02 0.391D-01 0.177D+00
 Coeff:      0.333D+00 0.443D+00
 Gap=     0.076 Goal=   None    Shift=    0.000
 RMSDP=8.94D-06 MaxDP=8.01D-04 DE=-1.88D-04 OVMax= 4.80D-03

 Cycle   9  Pass 1  IDiag  1:
 RMSU=  3.83D-06    CP:  9.71D-01  1.76D+00  6.42D-01  5.97D-01  4.04D-01
                    CP:  6.94D-01  5.92D-01  4.59D-01
 E= -3005.32661433487     Delta-E=       -0.000039786812 Rises=F Damp=F
 DIIS: error= 4.15D-05 at cycle   9 NSaved=   9.
 NSaved= 9 IEnMin= 9 EnMin= -3005.32661433487     IErMin= 9 ErrMin= 4.15D-05
 ErrMax= 4.15D-05  0.00D+00 EMaxC= 1.00D-01 BMatC= 3.61D-06 BMatP= 3.39D-05
 IDIUse=1 WtCom= 1.00D+00 WtEn= 0.00D+00
 Coeff-Com:  0.699D-03-0.155D-02-0.119D-02-0.905D-03 0.107D-01 0.692D-01
 Coeff-Com:  0.160D+00 0.296D+00 0.467D+00
 Coeff:      0.699D-03-0.155D-02-0.119D-02-0.905D-03 0.107D-01 0.692D-01
 Coeff:      0.160D+00 0.296D+00 0.467D+00
 Gap=     0.076 Goal=   None    Shift=    0.000
 RMSDP=2.76D-06 MaxDP=4.31D-04 DE=-3.98D-05 OVMax= 1.30D-03

 Cycle  10  Pass 1  IDiag  1:
 RMSU=  1.86D-06    CP:  9.71D-01  1.76D+00  6.42D-01  5.97D-01  4.04D-01
                    CP:  7.05D-01  5.82D-01  5.50D-01  6.09D-01
 E= -3005.32661810228     Delta-E=       -0.000003767404 Rises=F Damp=F
 DIIS: error= 1.40D-05 at cycle  10 NSaved=  10.
 NSaved=10 IEnMin=10 EnMin= -3005.32661810228     IErMin=10 ErrMin= 1.40D-05
 ErrMax= 1.40D-05  0.00D+00 EMaxC= 1.00D-01 BMatC= 4.61D-07 BMatP= 3.61D-06
 IDIUse=1 WtCom= 1.00D+00 WtEn= 0.00D+00
 Coeff-Com:  0.846D-04-0.202D-03-0.922D-03-0.207D-02 0.230D-03 0.150D-01
 Coeff-Com:  0.471D-01 0.121D+00 0.296D+00 0.524D+00
 Coeff:      0.846D-04-0.202D-03-0.922D-03-0.207D-02 0.230D-03 0.150D-01
 Coeff:      0.471D-01 0.121D+00 0.296D+00 0.524D+00
 Gap=     0.076 Goal=   None    Shift=    0.000
 RMSDP=1.04D-06 MaxDP=7.25D-05 DE=-3.77D-06 OVMax= 5.01D-04

 Cycle  11  Pass 1  IDiag  1:
 RMSU=  6.21D-07    CP:  9.71D-01  1.76D+00  6.43D-01  5.97D-01  4.04D-01
                    CP:  7.06D-01  5.85D-01  5.44D-01  7.50D-01  6.66D-01
 E= -3005.32661862207     Delta-E=       -0.000000519789 Rises=F Damp=F
 DIIS: error= 5.59D-06 at cycle  11 NSaved=  11.
 NSaved=11 IEnMin=11 EnMin= -3005.32661862207     IErMin=11 ErrMin= 5.59D-06
 ErrMax= 5.59D-06  0.00D+00 EMaxC= 1.00D-01 BMatC= 9.17D-08 BMatP= 4.61D-07
 IDIUse=1 WtCom= 1.00D+00 WtEn= 0.00D+00
 Coeff-Com: -0.563D-04 0.116D-03-0.457D-03-0.134D-02-0.182D-02-0.185D-02
 Coeff-Com:  0.396D-02 0.340D-01 0.111D+00 0.351D+00 0.506D+00
 Coeff:     -0.563D-04 0.116D-03-0.457D-03-0.134D-02-0.182D-02-0.185D-02
 Coeff:      0.396D-02 0.340D-01 0.111D+00 0.351D+00 0.506D+00
 Gap=     0.076 Goal=   None    Shift=    0.000
 RMSDP=3.85D-07 MaxDP=2.63D-05 DE=-5.20D-07 OVMax= 1.57D-04

 Cycle  12  Pass 1  IDiag  1:
 RMSU=  2.36D-07    CP:  9.71D-01  1.76D+00  6.43D-01  5.97D-01  4.04D-01
                    CP:  7.06D-01  5.87D-01  5.57D-01  7.47D-01  7.73D-01
                    CP:  7.74D-01
 E= -3005.32661873140     Delta-E=       -0.000000109336 Rises=F Damp=F
 DIIS: error= 2.42D-06 at cycle  12 NSaved=  12.
 NSaved=12 IEnMin=12 EnMin= -3005.32661873140     IErMin=12 ErrMin= 2.42D-06
 ErrMax= 2.42D-06  0.00D+00 EMaxC= 1.00D-01 BMatC= 6.66D-09 BMatP= 9.17D-08
 IDIUse=1 WtCom= 1.00D+00 WtEn= 0.00D+00
 Coeff-Com: -0.280D-04 0.641D-04-0.106D-03-0.354D-03-0.913D-03-0.270D-02
 Coeff-Com: -0.438D-02 0.273D-02 0.887D-02 0.108D+00 0.238D+00 0.651D+00
 Coeff:     -0.280D-04 0.641D-04-0.106D-03-0.354D-03-0.913D-03-0.270D-02
 Coeff:     -0.438D-02 0.273D-02 0.887D-02 0.108D+00 0.238D+00 0.651D+00
 Gap=     0.076 Goal=   None    Shift=    0.000
 RMSDP=1.39D-07 MaxDP=1.99D-05 DE=-1.09D-07 OVMax= 5.54D-05

 Cycle  13  Pass 1  IDiag  1:
 RMSU=  9.93D-08    CP:  9.71D-01  1.76D+00  6.43D-01  5.97D-01  4.04D-01
                    CP:  7.06D-01  5.88D-01  5.59D-01  7.57D-01  7.95D-01
                    CP:  8.80D-01  8.94D-01
 E= -3005.32661873873     Delta-E=       -0.000000007331 Rises=F Damp=F
 DIIS: error= 1.29D-06 at cycle  13 NSaved=  13.
 NSaved=13 IEnMin=13 EnMin= -3005.32661873873     IErMin=13 ErrMin= 1.29D-06
 ErrMax= 1.29D-06  0.00D+00 EMaxC= 1.00D-01 BMatC= 2.57D-09 BMatP= 6.66D-09
 IDIUse=1 WtCom= 1.00D+00 WtEn= 0.00D+00
 Coeff-Com: -0.634D-05 0.174D-04 0.248D-04 0.547D-04-0.274D-03-0.157D-02
 Coeff-Com: -0.445D-02-0.564D-02-0.219D-01-0.558D-02 0.381D-01 0.430D+00
 Coeff-Com:  0.571D+00
 Coeff:     -0.634D-05 0.174D-04 0.248D-04 0.547D-04-0.274D-03-0.157D-02
 Coeff:     -0.445D-02-0.564D-02-0.219D-01-0.558D-02 0.381D-01 0.430D+00
 Coeff:      0.571D+00
 Gap=     0.076 Goal=   None    Shift=    0.000
 RMSDP=6.99D-08 MaxDP=6.97D-06 DE=-7.33D-09 OVMax= 2.82D-05

 Cycle  14  Pass 1  IDiag  1:
 RMSU=  4.36D-08    CP:  9.71D-01  1.76D+00  6.43D-01  5.97D-01  4.04D-01
                    CP:  7.06D-01  5.88D-01  5.60D-01  7.61D-01  8.11D-01
                    CP:  9.10D-01  1.02D+00  8.51D-01
 E= -3005.32661874164     Delta-E=       -0.000000002910 Rises=F Damp=F
 DIIS: error= 5.78D-07 at cycle  14 NSaved=  14.
 NSaved=14 IEnMin=14 EnMin= -3005.32661874164     IErMin=14 ErrMin= 5.78D-07
 ErrMax= 5.78D-07  0.00D+00 EMaxC= 1.00D-01 BMatC= 3.43D-10 BMatP= 2.57D-09
 IDIUse=1 WtCom= 1.00D+00 WtEn= 0.00D+00
 Coeff-Com:  0.934D-06-0.324D-06 0.295D-04 0.859D-04-0.378D-04-0.514D-03
 Coeff-Com: -0.212D-02-0.342D-02-0.151D-01-0.185D-01-0.148D-01 0.157D+00
 Coeff-Com:  0.329D+00 0.569D+00
 Coeff:      0.934D-06-0.324D-06 0.295D-04 0.859D-04-0.378D-04-0.514D-03
 Coeff:     -0.212D-02-0.342D-02-0.151D-01-0.185D-01-0.148D-01 0.157D+00
 Coeff:      0.329D+00 0.569D+00
 Gap=     0.076 Goal=   None    Shift=    0.000
 RMSDP=2.67D-08 MaxDP=2.49D-06 DE=-2.91D-09 OVMax= 1.10D-05

 Cycle  15  Pass 1  IDiag  1:
 RMSU=  1.82D-08    CP:  9.71D-01  1.76D+00  6.43D-01  5.97D-01  4.04D-01
                    CP:  7.06D-01  5.88D-01  5.61D-01  7.62D-01  8.15D-01
                    CP:  9.23D-01  1.06D+00  9.31D-01  9.42D-01
 E= -3005.32661874196     Delta-E=       -0.000000000313 Rises=F Damp=F
 DIIS: error= 1.38D-07 at cycle  15 NSaved=  15.
 NSaved=15 IEnMin=15 EnMin= -3005.32661874196     IErMin=15 ErrMin= 1.38D-07
 ErrMax= 1.38D-07  0.00D+00 EMaxC= 1.00D-01 BMatC= 5.53D-11 BMatP= 3.43D-10
 IDIUse=1 WtCom= 1.00D+00 WtEn= 0.00D+00
 Coeff-Com:  0.115D-05-0.241D-05 0.982D-05 0.324D-04 0.254D-04 0.639D-04
 Coeff-Com: -0.283D-03-0.280D-03-0.351D-02-0.686D-02-0.133D-01 0.203D-02
 Coeff-Com:  0.597D-01 0.302D+00 0.660D+00
 Coeff:      0.115D-05-0.241D-05 0.982D-05 0.324D-04 0.254D-04 0.639D-04
 Coeff:     -0.283D-03-0.280D-03-0.351D-02-0.686D-02-0.133D-01 0.203D-02
 Coeff:      0.597D-01 0.302D+00 0.660D+00
 Gap=     0.076 Goal=   None    Shift=    0.000
 RMSDP=1.17D-08 MaxDP=6.57D-07 DE=-3.13D-10 OVMax= 5.09D-06

 Cycle  16  Pass 1  IDiag  1:
 RMSU=  6.94D-09    CP:  9.71D-01  1.76D+00  6.43D-01  5.97D-01  4.04D-01
                    CP:  7.07D-01  5.88D-01  5.61D-01  7.62D-01  8.16D-01
                    CP:  9.28D-01  1.08D+00  9.77D-01  1.06D+00  9.35D-01
 E= -3005.32661874230     Delta-E=       -0.000000000342 Rises=F Damp=F
 DIIS: error= 6.69D-08 at cycle  16 NSaved=  16.
 NSaved=16 IEnMin=16 EnMin= -3005.32661874230     IErMin=16 ErrMin= 6.69D-08
 ErrMax= 6.69D-08  0.00D+00 EMaxC= 1.00D-01 BMatC= 9.30D-12 BMatP= 5.53D-11
 IDIUse=1 WtCom= 1.00D+00 WtEn= 0.00D+00
 Coeff-Com:  0.218D-06-0.894D-06 0.454D-06 0.459D-05 0.182D-04 0.122D-03
 Coeff-Com:  0.148D-03 0.457D-03 0.363D-03-0.771D-03-0.517D-02-0.248D-01
 Coeff-Com: -0.210D-01 0.756D-01 0.344D+00 0.631D+00
 Coeff:      0.218D-06-0.894D-06 0.454D-06 0.459D-05 0.182D-04 0.122D-03
 Coeff:      0.148D-03 0.457D-03 0.363D-03-0.771D-03-0.517D-02-0.248D-01
 Coeff:     -0.210D-01 0.756D-01 0.344D+00 0.631D+00
 Gap=     0.076 Goal=   None    Shift=    0.000
 RMSDP=4.99D-09 MaxDP=2.82D-07 DE=-3.42D-10 OVMax= 2.31D-06

 SCF Done:  E(RPBE1PBE) =  -3005.32661874     A.U. after   16 cycles
            NFock= 16  Conv=0.50D-08     -V/T= 2.0105
 KE= 2.974002139838D+03 PE=-2.613928702335D+04 EE= 1.058497622971D+04
 Leave Link  502 at Fri Apr 29 10:50:19 2022, MaxMem= 10066329600 cpu:            6171.7 elap:             258.9
 (Enter /sw/apps/gaussian-16.0/g16/l801.exe)
 DoSCS=F DFT=T ScalE2(SS,OS)=  1.000000  1.000000
 ExpMin= 3.36D-02 ExpMax= 4.95D+03 ExpMxC= 7.45D+02 IAcc=3 IRadAn=         5 AccDes= 0.00D+00
 HarFok:  IExCor=  205 AccDes= 0.00D+00 IRadAn=         5 IDoV=-2 UseB2=F ITyADJ=14
 ICtDFT= 12500011 ScaDFX=  1.000000  1.000000  1.000000  1.000000
 GSVD:  LWork=       -5460 too small for GESVD, short by       25550 words or       25550 for optimal perf.
 Largest valence mixing into a core orbital is  1.16D-04
 Largest core mixing into a valence orbital is  5.71D-05
 Range of M.O.s used for correlation:    71  1298
 NBasis=  1298 NAE=   246 NBE=   246 NFC=    70 NFV=     0
 NROrb=   1228 NOA=   176 NOB=   176 NVA=  1052 NVB=  1052

 **** Warning!!: The smallest alpha delta epsilon is  0.76211079D-01

 Leave Link  801 at Fri Apr 29 10:50:20 2022, MaxMem= 10066329600 cpu:               6.8 elap:               0.3
 (Enter /sw/apps/gaussian-16.0/g16/l914.exe)
 RHF ground state
 Two-electron integrals replicated using symmetry.
 MDV= 10066329600 DFT=T DoStab=F Mixed=T DoRPA=T DoScal=F NonHer=T
 Making orbital integer symmetry assigments:
 Orbital symmetries:
       Occupied  (A) (A) (A) (A) (A) (A) (A) (A) (A) (A) (A) (A)
                 (A) (A) (A) (A) (A) (A) (A) (A) (A) (A) (A) (A)
                 (A) (A) (A) (A) (A) (A) (A) (A) (A) (A) (A) (A)
                 (A) (A) (A) (A) (A) (A) (A) (A) (A) (A) (A) (A)
                 (A) (A) (A) (A) (A) (A) (A) (A) (A) (A) (A) (A)
                 (A) (A) (A) (A) (A) (A) (A) (A) (A) (A) (A) (A)
                 (A) (A) (A) (A) (A) (A) (A) (A) (A) (A) (A) (A)
                 (A) (A) (A) (A) (A) (A) (A) (A) (A) (A) (A) (A)
                 (A) (A) (A) (A) (A) (A) (A) (A) (A) (A) (A) (A)
                 (A) (A) (A) (A) (A) (A) (A) (A) (A) (A) (A) (A)
                 (A) (A) (A) (A) (A) (A) (A) (A) (A) (A) (A) (A)
                 (A) (A) (A) (A) (A) (A) (A) (A) (A) (A) (A) (A)
                 (A) (A) (A) (A) (A) (A) (A) (A) (A) (A) (A) (A)
                 (A) (A) (A) (A) (A) (A) (A) (A) (A) (A) (A) (A)
                 (A) (A) (A) (A) (A) (A) (A) (A) (A) (A) (A) (A)
                 (A) (A) (A) (A) (A) (A) (A) (A) (A) (A) (A) (A)
                 (A) (A) (A) (A) (A) (A) (A) (A) (A) (A) (A) (A)
                 (A) (A) (A) (A) (A) (A) (A) (A) (A) (A) (A) (A)
                 (A) (A) (A) (A) (A) (A) (A) (A) (A) (A) (A) (A)
                 (A) (A) (A) (A) (A) (A) (A) (A) (A) (A) (A) (A)
                 (A) (A) (A) (A) (A) (A)
       Virtual   (A) (A) (A) (A) (A) (A) (A) (A) (A) (A) (A) (A)
                 (A) (A) (A) (A) (A) (A) (A) (A) (A) (A) (A) (A)
                 (A) (A) (A) (A) (A) (A) (A) (A) (A) (A) (A) (A)
                 (A) (A) (A) (A) (A) (A) (A) (A) (A) (A) (A) (A)
                 (A) (A) (A) (A) (A) (A) (A) (A) (A) (A) (A) (A)
                 (A) (A) (A) (A) (A) (A) (A) (A) (A) (A) (A) (A)
                 (A) (A) (A) (A) (A) (A) (A) (A) (A) (A) (A) (A)
                 (A) (A) (A) (A) (A) (A) (A) (A) (A) (A) (A) (A)
                 (A) (A) (A) (A) (A) (A) (A) (A) (A) (A) (A) (A)
                 (A) (A) (A) (A) (A) (A) (A) (A) (A) (A) (A) (A)
                 (A) (A) (A) (A) (A) (A) (A) (A) (A) (A) (A) (A)
                 (A) (A) (A) (A) (A) (A) (A) (A) (A) (A) (A) (A)
                 (A) (A) (A) (A) (A) (A) (A) (A) (A) (A) (A) (A)
                 (A) (A) (A) (A) (A) (A) (A) (A) (A) (A) (A) (A)
                 (A) (A) (A) (A) (A) (A) (A) (A) (A) (A) (A) (A)
                 (A) (A) (A) (A) (A) (A) (A) (A) (A) (A) (A) (A)
                 (A) (A) (A) (A) (A) (A) (A) (A) (A) (A) (A) (A)
                 (A) (A) (A) (A) (A) (A) (A) (A) (A) (A) (A) (A)
                 (A) (A) (A) (A) (A) (A) (A) (A) (A) (A) (A) (A)
                 (A) (A) (A) (A) (A) (A) (A) (A) (A) (A) (A) (A)
                 (A) (A) (A) (A) (A) (A) (A) (A) (A) (A) (A) (A)
                 (A) (A) (A) (A) (A) (A) (A) (A) (A) (A) (A) (A)
                 (A) (A) (A) (A) (A) (A) (A) (A) (A) (A) (A) (A)
                 (A) (A) (A) (A) (A) (A) (A) (A) (A) (A) (A) (A)
                 (A) (A) (A) (A) (A) (A) (A) (A) (A) (A) (A) (A)
                 (A) (A) (A) (A) (A) (A) (A) (A) (A) (A) (A) (A)
                 (A) (A) (A) (A) (A) (A) (A) (A) (A) (A) (A) (A)
                 (A) (A) (A) (A) (A) (A) (A) (A) (A) (A) (A) (A)
                 (A) (A) (A) (A) (A) (A) (A) (A) (A) (A) (A) (A)
                 (A) (A) (A) (A) (A) (A) (A) (A) (A) (A) (A) (A)
                 (A) (A) (A) (A) (A) (A) (A) (A) (A) (A) (A) (A)
                 (A) (A) (A) (A) (A) (A) (A) (A) (A) (A) (A) (A)
                 (A) (A) (A) (A) (A) (A) (A) (A) (A) (A) (A) (A)
                 (A) (A) (A) (A) (A) (A) (A) (A) (A) (A) (A) (A)
                 (A) (A) (A) (A) (A) (A) (A) (A) (A) (A) (A) (A)
                 (A) (A) (A) (A) (A) (A) (A) (A) (A) (A) (A) (A)
                 (A) (A) (A) (A) (A) (A) (A) (A) (A) (A) (A) (A)
                 (A) (A) (A) (A) (A) (A) (A) (A) (A) (A) (A) (A)
                 (A) (A) (A) (A) (A) (A) (A) (A) (A) (A) (A) (A)
                 (A) (A) (A) (A) (A) (A) (A) (A) (A) (A) (A) (A)
                 (A) (A) (A) (A) (A) (A) (A) (A) (A) (A) (A) (A)
                 (A) (A) (A) (A) (A) (A) (A) (A) (A) (A) (A) (A)
                 (A) (A) (A) (A) (A) (A) (A) (A) (A) (A) (A) (A)
                 (A) (A) (A) (A) (A) (A) (A) (A) (A) (A) (A) (A)
                 (A) (A) (A) (A) (A) (A) (A) (A) (A) (A) (A) (A)
                 (A) (A) (A) (A) (A) (A) (A) (A) (A) (A) (A) (A)
                 (A) (A) (A) (A) (A) (A) (A) (A) (A) (A) (A) (A)
                 (A) (A) (A) (A) (A) (A) (A) (A) (A) (A) (A) (A)
                 (A) (A) (A) (A) (A) (A) (A) (A) (A) (A) (A) (A)
                 (A) (A) (A) (A) (A) (A) (A) (A) (A) (A) (A) (A)
                 (A) (A) (A) (A) (A) (A) (A) (A) (A) (A) (A) (A)
                 (A) (A) (A) (A) (A) (A) (A) (A) (A) (A) (A) (A)
                 (A) (A) (A) (A) (A) (A) (A) (A) (A) (A) (A) (A)
                 (A) (A) (A) (A) (A) (A) (A) (A) (A) (A) (A) (A)
                 (A) (A) (A) (A) (A) (A) (A) (A) (A) (A) (A) (A)
                 (A) (A) (A) (A) (A) (A) (A) (A) (A) (A) (A) (A)
                 (A) (A) (A) (A) (A) (A) (A) (A) (A) (A) (A) (A)
                 (A) (A) (A) (A) (A) (A) (A) (A) (A) (A) (A) (A)
                 (A) (A) (A) (A) (A) (A) (A) (A) (A) (A) (A) (A)
                 (A) (A) (A) (A) (A) (A) (A) (A) (A) (A) (A) (A)
                 (A) (A) (A) (A) (A) (A) (A) (A) (A) (A) (A) (A)
                 (A) (A) (A) (A) (A) (A) (A) (A) (A) (A) (A) (A)
                 (A) (A) (A) (A) (A) (A) (A) (A) (A) (A) (A) (A)
                 (A) (A) (A) (A) (A) (A) (A) (A) (A) (A) (A) (A)
                 (A) (A) (A) (A) (A) (A) (A) (A) (A) (A) (A) (A)
                 (A) (A) (A) (A) (A) (A) (A) (A) (A) (A) (A) (A)
                 (A) (A) (A) (A) (A) (A) (A) (A) (A) (A) (A) (A)
                 (A) (A) (A) (A) (A) (A) (A) (A) (A) (A) (A) (A)
                 (A) (A) (A) (A) (A) (A) (A) (A) (A) (A) (A) (A)
                 (A) (A) (A) (A) (A) (A) (A) (A) (A) (A) (A) (A)
                 (A) (A) (A) (A) (A) (A) (A) (A) (A) (A) (A) (A)
                 (A) (A) (A) (A) (A) (A) (A) (A) (A) (A) (A) (A)
                 (A) (A) (A) (A) (A) (A) (A) (A) (A) (A) (A) (A)
                 (A) (A) (A) (A) (A) (A) (A) (A) (A) (A) (A) (A)
                 (A) (A) (A) (A) (A) (A) (A) (A) (A) (A) (A) (A)
                 (A) (A) (A) (A) (A) (A) (A) (A) (A) (A) (A) (A)
                 (A) (A) (A) (A) (A) (A) (A) (A) (A) (A) (A) (A)
                 (A) (A) (A) (A) (A) (A) (A) (A) (A) (A) (A) (A)
                 (A) (A) (A) (A) (A) (A) (A) (A) (A) (A) (A) (A)
                 (A) (A) (A) (A) (A) (A) (A) (A) (A) (A) (A) (A)
                 (A) (A) (A) (A) (A) (A) (A) (A) (A) (A) (A) (A)
                 (A) (A) (A) (A) (A) (A) (A) (A) (A) (A) (A) (A)
                 (A) (A) (A) (A) (A) (A) (A) (A) (A) (A) (A) (A)
                 (A) (A) (A) (A) (A) (A) (A) (A) (A) (A) (A) (A)
                 (A) (A) (A) (A) (A) (A) (A) (A) (A) (A) (A) (A)
                 (A) (A) (A) (A) (A) (A) (A) (A) (A) (A) (A) (A)
                 (A) (A) (A) (A) (A) (A) (A) (A) (A) (A) (A) (A)
                 (A) (A) (A) (A) (A) (A) (A) (A)
    20 initial guesses have been made.
 Convergence on wavefunction:    0.001000000000000
 Davidson Disk Diagonalization:  ConvIn= 1.00D-03 SkipCon=T Conv= 1.00D-03.
 Max sub-space:  2000 roots to seek:    20 dimension of matrix:       370304
 Iteration     1 Dimension    20 NMult     0 NNew     20
 CISAX will form    20 AO SS matrices at one time.
 NMat=    20 NSing=    20 JSym2X= 0.
 FoFJK:  IHMeth= 1 ICntrl=       0 DoSepK=F KAlg= 0 I1Cent=           0 FoldK=F
 IRaf= 520000000 NMat=      40 IRICut=       1 DoRegI=T DoRafI=F ISym2E= 0 IDoP0=3 IntGTp=3.
 FoFCou: FMM=T IPFlag=           0 FMFlag=      100000 FMFlg1=        2001
         NFxFlg=           0 DoJE=F BraDBF=F KetDBF=F FulRan=T
         wScrn=  0.000000 ICntrl=         0 IOpCl=  0 I1Cent=           0 NGrid=           0
         NMat0=   40 NMatS0=     20 NMatT0=    0 NMatD0=   40 NMtDS0=    0 NMtDT0=    0
 Symmetry not used in FoFCou.
 FMM levels:  10  Number of levels for PrismC:   9
 New state      3 was old state      5
 New state      4 was old state      6
 New state      5 was old state      3
 Excitation Energies [eV] at current iteration:
 Root      1 :     2.231739997023238
 Root      2 :     2.502436219040470
 Root      3 :     2.893331436950775
 Root      4 :     2.966244312948201
 Root      5 :     3.013906501577103
 Root      6 :     3.055459393449992
 Root      7 :     3.370846195684734
 Root      8 :     3.715904996900365
 Root      9 :     3.776475697696195
 Root     10 :     3.930501908426655
 Root     11 :     3.979419712984667
 Root     12 :     3.994901949248920
 Root     13 :     4.072727726488248
 Root     14 :     4.196928010315517
 Root     15 :     4.315969480103707
 Root     16 :     4.326987964202456
 Root     17 :     4.388287960808923
 Root     18 :     4.547864503546357
 Root     19 :     4.815181315483555
 Root     20 :     4.941867378493730
 Iteration     2 Dimension    30 NMult    20 NNew     10
 CISAX will form    10 AO SS matrices at one time.
 NMat=    10 NSing=    10 JSym2X= 0.
 Root      1 not converged, maximum delta is    0.054928636837020
 Root      2 not converged, maximum delta is    0.062559424406238
 New state      3 was old state      4
 Root      3 not converged, maximum delta is    0.451743951250648
 New state      4 was old state      3
 Root      4 not converged, maximum delta is    0.113150311338070
 New state      5 was old state      6
 Root      5 not converged, maximum delta is    0.381067079208244
 Excitation Energies [eV] at current iteration:
 Root      1 :     1.892414739753026   Change is   -0.339325257270212
 Root      2 :     2.210269231149145   Change is   -0.292166987891325
 Root      3 :     2.747358931906123   Change is   -0.218885381042078
 Root      4 :     2.794576577086103   Change is   -0.098754859864672
 Root      5 :     2.922170508371567   Change is   -0.133288885078424
 Iteration     3 Dimension    40 NMult    30 NNew     10
 CISAX will form    10 AO SS matrices at one time.
 NMat=    10 NSing=    10 JSym2X= 0.
 Root      1 not converged, maximum delta is    0.024692431851585
 Root      2 not converged, maximum delta is    0.025420723815775
 Root      3 not converged, maximum delta is    0.061884832149706
 Root      4 not converged, maximum delta is    0.015300394630098
 Root      5 not converged, maximum delta is    0.060950088288715
 Excitation Energies [eV] at current iteration:
 Root      1 :     1.861730951265057   Change is   -0.030683788487969
 Root      2 :     2.187633610721504   Change is   -0.022635620427641
 Root      3 :     2.728315120066669   Change is   -0.019043811839454
 Root      4 :     2.787270057250095   Change is   -0.007306519836008
 Root      5 :     2.882357672158864   Change is   -0.039812836212703
 Iteration     4 Dimension    50 NMult    40 NNew     10
 CISAX will form    10 AO SS matrices at one time.
 NMat=    10 NSing=    10 JSym2X= 0.
 Root      1 not converged, maximum delta is    0.002847030133425
 Root      2 not converged, maximum delta is    0.007339410641632
 Root      3 not converged, maximum delta is    0.006291773161056
 Root      4 not converged, maximum delta is    0.008982002122669
 Root      5 not converged, maximum delta is    0.006457688484707
 Excitation Energies [eV] at current iteration:
 Root      1 :     1.858643664313578   Change is   -0.003087286951479
 Root      2 :     2.184749583039457   Change is   -0.002884027682047
 Root      3 :     2.725829856187443   Change is   -0.002485263879226
 Root      4 :     2.786262140375300   Change is   -0.001007916874795
 Root      5 :     2.880293041671709   Change is   -0.002064630487156
 Iteration     5 Dimension    60 NMult    50 NNew     10
 CISAX will form    10 AO SS matrices at one time.
 NMat=    10 NSing=    10 JSym2X= 0.
 Root      1 has converged.
 Root      2 has converged.
 Root      3 has converged.
 Root      4 has converged.
 Root      5 not converged, maximum delta is    0.001080333990017
 Excitation Energies [eV] at current iteration:
 Root      1 :     1.858295338214133   Change is   -0.000348326099445
 Root      2 :     2.184494169270661   Change is   -0.000255413768795
 Root      3 :     2.725542047550435   Change is   -0.000287808637009
 Root      4 :     2.786168727613195   Change is   -0.000093412762106
 Root      5 :     2.879950892697037   Change is   -0.000342148974672
 Iteration     6 Dimension    62 NMult    60 NNew      2
 CISAX will form     2 AO SS matrices at one time.
 NMat=     2 NSing=     2 JSym2X= 0.
 Root      1 has converged.
 Root      2 has converged.
 Root      3 has converged.
 Root      4 has converged.
 Root      5 has converged.
 Excitation Energies [eV] at current iteration:
 Root      1 :     1.858294968183704   Change is   -0.000000370030429
 Root      2 :     2.184494124502763   Change is   -0.000000044767898
 Root      3 :     2.725536389179624   Change is   -0.000005658370811
 Root      4 :     2.786168691659881   Change is   -0.000000035953313
 Root      5 :     2.879910857527388   Change is   -0.000040035169649
 Convergence achieved on expansion vectors.
 ***********************************************************************
 Excited states from <AA,BB:AA,BB> singles matrix:
 ***********************************************************************
 
 1PDM for each excited state written to RWF  633
 Ground to excited state transition densities written to RWF  633
 Ground to excited state transition electric dipole moments (Au):
       state          X           Y           Z        Dip. S.      Osc.
         1        -0.7702      2.1962     -1.5217      7.7321      0.3520
         2         0.9045      1.3307      0.5205      2.8599      0.1531
         3         0.2228      0.2982      0.2111      0.1832      0.0122
         4        -0.0403     -0.0248     -0.0078      0.0023      0.0002
         5        -0.0487     -0.0390     -0.0384      0.0054      0.0004
 Ground to excited state transition velocity dipole moments (Au):
       state          X           Y           Z        Dip. S.      Osc.
         1         0.0499     -0.1457      0.1000      0.0337      0.3292
         2        -0.0699     -0.1024     -0.0391      0.0169      0.1404
         3        -0.0219     -0.0280     -0.0205      0.0017      0.0112
         4         0.0027      0.0026      0.0030      0.0000      0.0001
         5         0.0028      0.0037      0.0060      0.0001      0.0004
 Ground to excited state transition magnetic dipole moments (Au):
       state          X           Y           Z
         1         0.0434     -1.0673     -1.5559
         2        -0.4488      0.5691     -0.6350
         3        -0.7622      0.3889      0.3018
         4        -0.0307     -0.4601      0.1679
         5         0.0524      0.2223     -0.2943
 Ground to excited state transition velocity quadrupole moments (Au):
       state          XX          YY          ZZ          XY          XZ          YZ
         1         0.9446     -0.2826     -0.1205     -1.3464      0.9482      0.2104
         2        -1.1856     -0.1223     -0.0198     -1.0014     -0.4305      0.0928
         3        -0.2832     -0.4584      0.1480     -0.3299     -0.1061      0.0086
         4         0.0370      0.0236      0.0109      0.0265      0.0269      0.0006
         5         0.0444      0.1071     -0.0477      0.0458      0.0518      0.0064
 <0|del|b> * <b|rxdel|0> + <0|del|b> * <b|delr+rdel|0>
 Rotatory Strengths (R) in cgs (10**-40 erg-esu-cm/Gauss)
       state          XX          YY          ZZ    R(velocity)    E-M Angle
         1        17.4690    -42.9457     46.6761      7.0664       89.66
         2      -169.4030     46.5479    104.2395     -6.2052       90.97
         3       -46.9543     12.5634     31.5835     -0.9358       90.61
         4        -2.3507      1.1630     -4.1450     -1.7776      109.34
         5        -2.8521     -6.2743      3.8512     -1.7584      106.20
 1/2[<0|r|b>*<b|rxdel|0> + (<0|rxdel|b>*<b|r|0>)*]
 Rotatory Strengths (R) in cgs (10**-40 erg-esu-cm/Gauss)
       state          XX          YY          ZZ     R(length)
         1        23.6610   1657.5630  -1674.3060      2.3060
         2       287.0450   -535.5933    233.7109     -4.9458
         3       120.1126    -82.0238    -45.0563     -2.3225
         4        -0.8741     -8.0642      0.9292     -2.6697
         5         1.8038      6.1298     -7.9991     -0.0218
  1/2[<0|del|b>*<b|r|0> + (<0|r|b>*<b|del|0>)*] (Au)
       state          X           Y           Z        Dip. S.   Osc.(frdel)
         1        -0.0384     -0.3200     -0.1522      0.5106      0.3404
         2        -0.0632     -0.1363     -0.0203      0.2199      0.1466
         3        -0.0049     -0.0084     -0.0043      0.0176      0.0117
         4        -0.0001     -0.0001     -0.0000      0.0002      0.0001
         5        -0.0001     -0.0001     -0.0002      0.0005      0.0003

 Excitation energies and oscillator strengths:
 
 Excited State   1:      Singlet-A      1.8583 eV  667.19 nm  f=0.3520  <S**2>=0.000
     245 -> 248        0.16998
     246 -> 247        0.69196
     246 <- 247       -0.10667
 This state for optimization and/or second-order correction.
 Total Energy, E(TD-HF/TD-DFT) =  -3005.25832766    
 Copying the excited state density for this state as the 1-particle RhoCI density.
 
 Excited State   2:      Singlet-A      2.1845 eV  567.56 nm  f=0.1531  <S**2>=0.000
     245 -> 247        0.65892
     246 -> 248       -0.23359
 
 Excited State   3:      Singlet-A      2.7255 eV  454.90 nm  f=0.0122  <S**2>=0.000
     243 -> 247        0.69425
 
 Excited State   4:      Singlet-A      2.7862 eV  445.00 nm  f=0.0002  <S**2>=0.000
     242 -> 247        0.68405
     242 -> 249       -0.12544
 
 Excited State   5:      Singlet-A      2.8799 eV  430.51 nm  f=0.0004  <S**2>=0.000
     241 -> 247        0.67874
     241 -> 249        0.13787
 SavETr:  write IOETrn=   770 NScale= 10 NData=  16 NLR=1 NState=    5 LETran=     100.
 Leave Link  914 at Fri Apr 29 11:00:57 2022, MaxMem= 10066329600 cpu:           15251.7 elap:             637.1
 (Enter /sw/apps/gaussian-16.0/g16/l601.exe)
 Copying SCF densities to generalized density rwf, IOpCl= 0 IROHF=0.
 Hyperfine terms turned off by default for NAtoms > 100.

 **********************************************************************

            Population analysis using the SCF density.

 **********************************************************************

 Orbital symmetries:
       Occupied  (A) (A) (A) (A) (A) (A) (A) (A) (A) (A) (A) (A)
                 (A) (A) (A) (A) (A) (A) (A) (A) (A) (A) (A) (A)
                 (A) (A) (A) (A) (A) (A) (A) (A) (A) (A) (A) (A)
                 (A) (A) (A) (A) (A) (A) (A) (A) (A) (A) (A) (A)
                 (A) (A) (A) (A) (A) (A) (A) (A) (A) (A) (A) (A)
                 (A) (A) (A) (A) (A) (A) (A) (A) (A) (A) (A) (A)
                 (A) (A) (A) (A) (A) (A) (A) (A) (A) (A) (A) (A)
                 (A) (A) (A) (A) (A) (A) (A) (A) (A) (A) (A) (A)
                 (A) (A) (A) (A) (A) (A) (A) (A) (A) (A) (A) (A)
                 (A) (A) (A) (A) (A) (A) (A) (A) (A) (A) (A) (A)
                 (A) (A) (A) (A) (A) (A) (A) (A) (A) (A) (A) (A)
                 (A) (A) (A) (A) (A) (A) (A) (A) (A) (A) (A) (A)
                 (A) (A) (A) (A) (A) (A) (A) (A) (A) (A) (A) (A)
                 (A) (A) (A) (A) (A) (A) (A) (A) (A) (A) (A) (A)
                 (A) (A) (A) (A) (A) (A) (A) (A) (A) (A) (A) (A)
                 (A) (A) (A) (A) (A) (A) (A) (A) (A) (A) (A) (A)
                 (A) (A) (A) (A) (A) (A) (A) (A) (A) (A) (A) (A)
                 (A) (A) (A) (A) (A) (A) (A) (A) (A) (A) (A) (A)
                 (A) (A) (A) (A) (A) (A) (A) (A) (A) (A) (A) (A)
                 (A) (A) (A) (A) (A) (A) (A) (A) (A) (A) (A) (A)
                 (A) (A) (A) (A) (A) (A)
       Virtual   (A) (A) (A) (A) (A) (A) (A) (A) (A) (A) (A) (A)
                 (A) (A) (A) (A) (A) (A) (A) (A) (A) (A) (A) (A)
                 (A) (A) (A) (A) (A) (A) (A) (A) (A) (A) (A) (A)
                 (A) (A) (A) (A) (A) (A) (A) (A) (A) (A) (A) (A)
                 (A) (A) (A) (A) (A) (A) (A) (A) (A) (A) (A) (A)
                 (A) (A) (A) (A) (A) (A) (A) (A) (A) (A) (A) (A)
                 (A) (A) (A) (A) (A) (A) (A) (A) (A) (A) (A) (A)
                 (A) (A) (A) (A) (A) (A) (A) (A) (A) (A) (A) (A)
                 (A) (A) (A) (A) (A) (A) (A) (A) (A) (A) (A) (A)
                 (A) (A) (A) (A) (A) (A) (A) (A) (A) (A) (A) (A)
                 (A) (A) (A) (A) (A) (A) (A) (A) (A) (A) (A) (A)
                 (A) (A) (A) (A) (A) (A) (A) (A) (A) (A) (A) (A)
                 (A) (A) (A) (A) (A) (A) (A) (A) (A) (A) (A) (A)
                 (A) (A) (A) (A) (A) (A) (A) (A) (A) (A) (A) (A)
                 (A) (A) (A) (A) (A) (A) (A) (A) (A) (A) (A) (A)
                 (A) (A) (A) (A) (A) (A) (A) (A) (A) (A) (A) (A)
                 (A) (A) (A) (A) (A) (A) (A) (A) (A) (A) (A) (A)
                 (A) (A) (A) (A) (A) (A) (A) (A) (A) (A) (A) (A)
                 (A) (A) (A) (A) (A) (A) (A) (A) (A) (A) (A) (A)
                 (A) (A) (A) (A) (A) (A) (A) (A) (A) (A) (A) (A)
                 (A) (A) (A) (A) (A) (A) (A) (A) (A) (A) (A) (A)
                 (A) (A) (A) (A) (A) (A) (A) (A) (A) (A) (A) (A)
                 (A) (A) (A) (A) (A) (A) (A) (A) (A) (A) (A) (A)
                 (A) (A) (A) (A) (A) (A) (A) (A) (A) (A) (A) (A)
                 (A) (A) (A) (A) (A) (A) (A) (A) (A) (A) (A) (A)
                 (A) (A) (A) (A) (A) (A) (A) (A) (A) (A) (A) (A)
                 (A) (A) (A) (A) (A) (A) (A) (A) (A) (A) (A) (A)
                 (A) (A) (A) (A) (A) (A) (A) (A) (A) (A) (A) (A)
                 (A) (A) (A) (A) (A) (A) (A) (A) (A) (A) (A) (A)
                 (A) (A) (A) (A) (A) (A) (A) (A) (A) (A) (A) (A)
                 (A) (A) (A) (A) (A) (A) (A) (A) (A) (A) (A) (A)
                 (A) (A) (A) (A) (A) (A) (A) (A) (A) (A) (A) (A)
                 (A) (A) (A) (A) (A) (A) (A) (A) (A) (A) (A) (A)
                 (A) (A) (A) (A) (A) (A) (A) (A) (A) (A) (A) (A)
                 (A) (A) (A) (A) (A) (A) (A) (A) (A) (A) (A) (A)
                 (A) (A) (A) (A) (A) (A) (A) (A) (A) (A) (A) (A)
                 (A) (A) (A) (A) (A) (A) (A) (A) (A) (A) (A) (A)
                 (A) (A) (A) (A) (A) (A) (A) (A) (A) (A) (A) (A)
                 (A) (A) (A) (A) (A) (A) (A) (A) (A) (A) (A) (A)
                 (A) (A) (A) (A) (A) (A) (A) (A) (A) (A) (A) (A)
                 (A) (A) (A) (A) (A) (A) (A) (A) (A) (A) (A) (A)
                 (A) (A) (A) (A) (A) (A) (A) (A) (A) (A) (A) (A)
                 (A) (A) (A) (A) (A) (A) (A) (A) (A) (A) (A) (A)
                 (A) (A) (A) (A) (A) (A) (A) (A) (A) (A) (A) (A)
                 (A) (A) (A) (A) (A) (A) (A) (A) (A) (A) (A) (A)
                 (A) (A) (A) (A) (A) (A) (A) (A) (A) (A) (A) (A)
[...]
 Alpha virt. eigenvalues --    1.16899   1.17370   1.17708   1.18120   1.18258
 Alpha virt. eigenvalues --    1.19248   1.19579   1.19956   1.20445   1.20958
 Alpha virt. eigenvalues --    1.21326   1.21800   1.22944   1.23412   1.23650
 Alpha virt. eigenvalues --    1.24229   1.24532   1.24823   1.25003   1.25699
 Alpha virt. eigenvalues --    1.26250   1.26583   1.27301   1.27475   1.27773
 Alpha virt. eigenvalues --    1.27935   1.28792   1.29128   1.29385   1.29836
 Alpha virt. eigenvalues --    1.30322   1.30687   1.31076   1.31791   1.31887
 Alpha virt. eigenvalues --    1.32641   1.33012   1.33410   1.33586   1.33979
 Alpha virt. eigenvalues --    1.34386   1.34567   1.34751   1.35674   1.36332
 Alpha virt. eigenvalues --    1.36750   1.37188   1.37321   1.37503   1.37903
 Alpha virt. eigenvalues --    1.38308   1.38828   1.39252   1.39456   1.39763
 Alpha virt. eigenvalues --    1.40051   1.40665   1.41167   1.41763   1.42142
 Alpha virt. eigenvalues --    1.42501   1.42751   1.43463   1.43768   1.44115
 Alpha virt. eigenvalues --    1.44411   1.44831   1.45037   1.45201   1.45724
 Alpha virt. eigenvalues --    1.46409   1.46475   1.47088   1.47952   1.48276
 Alpha virt. eigenvalues --    1.48708   1.49819   1.49910   1.50350   1.50667
 Alpha virt. eigenvalues --    1.50799   1.51343   1.51859   1.52505   1.52634
 Alpha virt. eigenvalues --    1.52775   1.52991   1.53461   1.53806   1.53881
 Alpha virt. eigenvalues --    1.54432   1.54466   1.54549   1.54689   1.54803
 Alpha virt. eigenvalues --    1.55209   1.55254   1.55844   1.55908   1.56139
 Alpha virt. eigenvalues --    1.56255   1.56328   1.56522   1.56660   1.56772
 Alpha virt. eigenvalues --    1.57070   1.57196   1.57380   1.58094   1.58188
 Alpha virt. eigenvalues --    1.58246   1.58313   1.59442   1.60231   1.60348
 Alpha virt. eigenvalues --    1.60550   1.60843   1.61167   1.62088   1.62261
 Alpha virt. eigenvalues --    1.62811   1.63365   1.63467   1.63833   1.64306
 Alpha virt. eigenvalues --    1.64520   1.64838   1.65782   1.66136   1.66579
 Alpha virt. eigenvalues --    1.66632   1.67502   1.68045   1.68473   1.68526
 Alpha virt. eigenvalues --    1.69163   1.69551   1.69917   1.70323   1.70573
 Alpha virt. eigenvalues --    1.70638   1.71138   1.71587   1.71756   1.72134
 Alpha virt. eigenvalues --    1.72214   1.72491   1.72692   1.73069   1.73166
 Alpha virt. eigenvalues --    1.73377   1.73716   1.74169   1.74481   1.74603
 Alpha virt. eigenvalues --    1.74669   1.74857   1.75183   1.75829   1.75875
 Alpha virt. eigenvalues --    1.76036   1.76313   1.76487   1.77142   1.77295
 Alpha virt. eigenvalues --    1.77366   1.77611   1.77771   1.77990   1.78021
 Alpha virt. eigenvalues --    1.78073   1.78239   1.78324   1.78638   1.78664
 Alpha virt. eigenvalues --    1.78710   1.79173   1.79803   1.79871   1.80145
 Alpha virt. eigenvalues --    1.80288   1.80454   1.80658   1.80955   1.81051
 Alpha virt. eigenvalues --    1.81430   1.81685   1.82009   1.82122   1.82139
 Alpha virt. eigenvalues --    1.82288   1.82540   1.82750   1.82789   1.83044
 Alpha virt. eigenvalues --    1.83107   1.83292   1.83454   1.83687   1.83811
 Alpha virt. eigenvalues --    1.83949   1.84130   1.84502   1.84633   1.84815
 Alpha virt. eigenvalues --    1.84833   1.85390   1.85697   1.86135   1.86316
 Alpha virt. eigenvalues --    1.86364   1.86900   1.86969   1.87159   1.87544
 Alpha virt. eigenvalues --    1.87649   1.87855   1.88051   1.88394   1.88549
 Alpha virt. eigenvalues --    1.88603   1.88906   1.89360   1.89498   1.89619
 Alpha virt. eigenvalues --    1.89765   1.89895   1.90056   1.90710   1.91166
 Alpha virt. eigenvalues --    1.91692   1.92083   1.92170   1.92393   1.92556
 Alpha virt. eigenvalues --    1.92745   1.92919   1.93127   1.93244   1.93395
 Alpha virt. eigenvalues --    1.94031   1.94378   1.94598   1.94721   1.95325
 Alpha virt. eigenvalues --    1.95508   1.95958   1.96065   1.96221   1.96424
 Alpha virt. eigenvalues --    1.96693   1.96823   1.97226   1.97465   1.97759
 Alpha virt. eigenvalues --    1.98251   1.98269   1.98439   1.98601   1.99026
 Alpha virt. eigenvalues --    1.99532   1.99884   1.99934   2.00241   2.00389
 Alpha virt. eigenvalues --    2.00497   2.00868   2.00915   2.01421   2.01966
 Alpha virt. eigenvalues --    2.02306   2.02545   2.02792   2.03229   2.03923
 Alpha virt. eigenvalues --    2.04284   2.04637   2.05215   2.05282   2.05731
 Alpha virt. eigenvalues --    2.05917   2.06103   2.06476   2.06721   2.07238
 Alpha virt. eigenvalues --    2.07413   2.07731   2.08218   2.08422   2.08654
 Alpha virt. eigenvalues --    2.08821   2.08985   2.09405   2.09427   2.09989
 Alpha virt. eigenvalues --    2.10673   2.10995   2.11105   2.11304   2.11447
 Alpha virt. eigenvalues --    2.11699   2.11857   2.11950   2.12321   2.12430
 Alpha virt. eigenvalues --    2.13229   2.13563   2.14245   2.14533   2.14822
 Alpha virt. eigenvalues --    2.15048   2.15170   2.15703   2.15965   2.16101
 Alpha virt. eigenvalues --    2.16526   2.17437   2.17741   2.18169   2.18469
 Alpha virt. eigenvalues --    2.18739   2.19222   2.19526   2.19794   2.19885
 Alpha virt. eigenvalues --    2.20241   2.20317   2.20600   2.21664   2.21965
 Alpha virt. eigenvalues --    2.22795   2.23158   2.23422   2.23579   2.23709
 Alpha virt. eigenvalues --    2.24341   2.24569   2.25286   2.25399   2.25419
 Alpha virt. eigenvalues --    2.25746   2.26255   2.26330   2.27377   2.28291
 Alpha virt. eigenvalues --    2.28723   2.28856   2.29451   2.30151   2.30312
 Alpha virt. eigenvalues --    2.30621   2.31030   2.31280   2.31536   2.31890
 Alpha virt. eigenvalues --    2.32220   2.32839   2.33144   2.33496   2.33927
 Alpha virt. eigenvalues --    2.34372   2.34536   2.34688   2.35212   2.35748
 Alpha virt. eigenvalues --    2.36040   2.36397   2.37074   2.37289   2.37541
 Alpha virt. eigenvalues --    2.37871   2.37997   2.38568   2.38676   2.39170
 Alpha virt. eigenvalues --    2.39226   2.39969   2.40005   2.40460   2.40932
 Alpha virt. eigenvalues --    2.41052   2.42360   2.42530   2.42660   2.43466
 Alpha virt. eigenvalues --    2.43805   2.43969   2.44408   2.44476   2.45113
 Alpha virt. eigenvalues --    2.45480   2.46308   2.46387   2.46904   2.47610
 Alpha virt. eigenvalues --    2.47790   2.47994   2.48288   2.49080   2.49212
 Alpha virt. eigenvalues --    2.49333   2.50130   2.50505   2.50927   2.50990
 Alpha virt. eigenvalues --    2.51590   2.52127   2.52325   2.52562   2.52683
 Alpha virt. eigenvalues --    2.52794   2.53787   2.54178   2.54534   2.54699
 Alpha virt. eigenvalues --    2.55380   2.55907   2.56016   2.56490   2.57034
 Alpha virt. eigenvalues --    2.57261   2.57540   2.58132   2.58469   2.58498
 Alpha virt. eigenvalues --    2.58890   2.59540   2.60185   2.60729   2.60975
 Alpha virt. eigenvalues --    2.61627   2.62175   2.62280   2.62724   2.63041
 Alpha virt. eigenvalues --    2.63336   2.63691   2.63733   2.63919   2.64450
 Alpha virt. eigenvalues --    2.65080   2.65526   2.65632   2.66852   2.67372
 Alpha virt. eigenvalues --    2.67885   2.68043   2.68468   2.69131   2.69550
 Alpha virt. eigenvalues --    2.69726   2.70314   2.70496   2.70835   2.71322
 Alpha virt. eigenvalues --    2.71364   2.71777   2.72122   2.72397   2.73383
 Alpha virt. eigenvalues --    2.73555   2.73607   2.74367   2.74817   2.74891
 Alpha virt. eigenvalues --    2.75721   2.75815   2.77196   2.77453   2.77795
 Alpha virt. eigenvalues --    2.78196   2.78417   2.78638   2.78838   2.79831
 Alpha virt. eigenvalues --    2.81104   2.81343   2.81774   2.82107   2.82374
 Alpha virt. eigenvalues --    2.84065   2.84156   2.84758   2.84899   2.85500
 Alpha virt. eigenvalues --    2.86040   2.86384   2.87125   2.87870   2.88268
 Alpha virt. eigenvalues --    2.88615   2.89127   2.89558   2.90424   2.90651
 Alpha virt. eigenvalues --    2.90965   2.91047   2.91557   2.91574   2.91890
 Alpha virt. eigenvalues --    2.92119   2.92848   2.93158   2.93260   2.93500
 Alpha virt. eigenvalues --    2.94288   2.94473   2.94538   2.94644   2.95265
 Alpha virt. eigenvalues --    2.95389   2.95661   2.96489   2.96767   2.97192
 Alpha virt. eigenvalues --    2.97521   2.97892   2.97976   2.98420   2.98512
 Alpha virt. eigenvalues --    2.98877   2.99121   2.99173   2.99925   3.00056
 Alpha virt. eigenvalues --    3.00107   3.00292   3.00555   3.00823   3.01167
 Alpha virt. eigenvalues --    3.01793   3.02045   3.02729   3.02979   3.03011
 Alpha virt. eigenvalues --    3.03789   3.03970   3.04337   3.04536   3.04652
 Alpha virt. eigenvalues --    3.05350   3.05536   3.05659   3.05792   3.06151
 Alpha virt. eigenvalues --    3.06974   3.07253   3.07317   3.07902   3.08489
 Alpha virt. eigenvalues --    3.09119   3.09437   3.09660   3.10397   3.11968
 Alpha virt. eigenvalues --    3.12819   3.13249   3.13681   3.14929   3.15522
 Alpha virt. eigenvalues --    3.15836   3.16076   3.17159   3.17323   3.17727
 Alpha virt. eigenvalues --    3.18209   3.19658   3.19808   3.19943   3.21150
 Alpha virt. eigenvalues --    3.23355   3.25852   3.36264   3.38426   3.38542
 Alpha virt. eigenvalues --    3.40497   3.42439   3.43637   3.48109   3.49568
 Alpha virt. eigenvalues --    3.56289   3.58884   3.61394   3.63566   3.63594
 Alpha virt. eigenvalues --    3.67258   3.69884
          Condensed to atoms (all electrons):
 Mulliken charges:
               1
     1  Mg   0.935846
     2  C    0.060023
     3  C   -0.039967
     4  C   -0.053186
     5  C   -0.050934
     6  N   -0.398428
     7  C    0.019331
     8  C   -0.087098
     9  C   -0.149337
    10  C    0.103156
    11  C    0.021502
    12  C    0.031933
    13  C   -0.026277
    14  C    0.210123
    15  O   -0.282935
    16  O   -0.360215
    17  N   -0.484810
    18  C    0.138395
    19  C   -0.158138
    20  C   -0.145606
    21  C    0.182469
    22  C    0.071644
    23  C    0.098745
    24  O   -0.246803
    25  C   -0.076553
    26  N   -0.367270
    27  C    0.130167
    28  C   -0.165850
    29  C   -0.069330
    30  C    0.034877
    31  C   -0.001776
    32  C   -0.030246
    33  C   -0.067498
    34  N   -0.465517
    35  C    0.132080
    36  C   -0.171236
    37  C   -0.023812
    38  C    0.101366
    39  C    0.069092
    40  C    0.089999
    41  O   -0.209911
    42  C   -0.109468
    43  C    0.271756
    44  O   -0.250759
    45  O   -0.383881
    46  C    0.118944
    47  C    0.232217
    48  C   -0.103257
    49  C   -0.228886
    50  C    0.025675
    51  C    0.008949
    52  C   -0.031224
    53  C   -0.057163
    54  C   -0.220591
    55  C    0.000866
    56  C   -0.020403
    57  C   -0.044700
    58  C   -0.027666
    59  C   -0.168260
    60  C   -0.006663
    61  C   -0.045072
    62  C   -0.095059
    63  C    0.036362
    64  C   -0.223723
    65  C   -0.033092
    66  C   -0.027701
    67  H   -0.004379
    68  H   -0.004902
    69  H    0.004616
    70  H    0.050559
    71  H    0.052308
    72  H    0.048955
    73  H    0.053671
    74  H    0.048757
    75  H    0.047450
    76  H    0.052262
    77  H    0.084998
    78  H    0.061120
    79  H    0.057929
    80  H    0.061821
    81  H    0.068213
    82  H    0.070634
    83  H    0.061212
    84  H    0.050066
    85  H    0.063378
    86  H    0.043055
    87  H    0.041403
    88  H    0.046295
    89  H    0.036263
    90  H    0.050934
    91  H    0.037476
    92  H    0.042849
    93  H    0.044302
    94  H    0.044097
    95  H    0.067380
    96  H    0.052041
    97  H    0.052928
    98  H    0.077589
    99  H    0.073321
   100  H    0.056443
   101  H    0.060768
   102  H    0.053077
   103  H    0.064931
   104  H    0.030884
   105  H    0.033643
   106  H    0.046589
   107  H    0.047525
   108  H    0.042835
   109  H    0.032874
   110  H    0.037233
   111  H    0.028698
   112  H    0.023483
   113  H    0.019735
   114  H    0.047505
   115  H    0.037450
   116  H    0.030350
   117  H    0.038349
   118  H    0.015171
   119  H    0.038740
   120  H    0.034219
   121  H    0.028515
   122  H    0.030978
   123  H    0.017721
   124  H    0.032812
   125  H    0.026800
   126  H    0.039474
   127  H    0.038920
   128  H    0.020747
   129  H    0.023125
   130  H    0.027746
   131  H    0.028768
   132  H    0.040496
   133  H    0.023262
   134  H    0.042627
   135  H    0.026693
   136  H    0.026967
   137  H    0.030704
   138  H    0.034574
   139  H    0.044735
   140  H    0.040019
 Sum of Mulliken charges =  -0.00000
 Mulliken charges with hydrogens summed into heavy atoms:
               1
     1  Mg   0.935846
     2  C    0.060023
     3  C   -0.044346
     4  C   -0.058088
     5  C   -0.046318
     6  N   -0.398428
     7  C    0.019331
     8  C   -0.036539
     9  C   -0.097030
    10  C    0.103156
    11  C    0.172885
    12  C    0.131644
    13  C    0.119841
    14  C    0.210123
    15  O   -0.282935
    16  O   -0.360215
    17  N   -0.484810
    18  C    0.138395
    19  C   -0.158138
    20  C   -0.145606
    21  C    0.182469
    22  C    0.259608
    23  C    0.098745
    24  O   -0.246803
    25  C    0.105360
    26  N   -0.367270
    27  C    0.130167
    28  C   -0.102472
    29  C   -0.026275
    30  C    0.034877
    31  C    0.122184
    32  C    0.058164
    33  C    0.063750
    34  N   -0.465517
    35  C    0.132080
    36  C   -0.171236
    37  C   -0.023812
    38  C    0.101366
    39  C    0.241442
    40  C    0.089999
    41  O   -0.209911
    42  C   -0.031880
    43  C    0.271756
    44  O   -0.250759
    45  O   -0.383881
    46  C    0.309476
    47  C    0.350224
    48  C   -0.072373
    49  C   -0.228886
    50  C    0.153431
    51  C    0.084658
    52  C    0.034708
    53  C   -0.013946
    54  C   -0.173086
    55  C    0.107015
    56  C    0.033508
    57  C    0.018034
    58  C    0.021033
    59  C   -0.135448
    60  C    0.098530
    61  C   -0.001200
    62  C   -0.038545
    63  C    0.100120
    64  C   -0.181096
    65  C    0.051272
    66  C    0.091627
 Electronic spatial extent (au):  <R**2>=         113640.8682
 Charge=             -0.0000 electrons
 Dipole moment (field-independent basis, Debye):
    X=              2.8651    Y=              4.2211    Z=              1.8488  Tot=              5.4263
 Quadrupole moment (field-independent basis, Debye-Ang):
   XX=           -361.1792   YY=           -461.6147   ZZ=           -380.7970
   XY=              1.7322   XZ=              5.2686   YZ=             24.3966
 Traceless Quadrupole moment (field-independent basis, Debye-Ang):
   XX=             40.0177   YY=            -60.4177   ZZ=             20.4000
   XY=              1.7322   XZ=              5.2686   YZ=             24.3966
 Octapole moment (field-independent basis, Debye-Ang**2):
  XXX=            463.6614  YYY=              9.2286  ZZZ=            -31.2509  XYY=            -56.9027
  XXY=             84.0389  XXZ=            197.5838  XZZ=            111.3635  YZZ=            -76.3565
  YYZ=             69.1590  XYZ=            184.7254
 Hexadecapole moment (field-independent basis, Debye-Ang**3):
 XXXX=        -121058.4656 YYYY=         -25983.5931 ZZZZ=         -10610.8582 XXXY=            517.0537
 XXXZ=            842.4459 YYYX=           -377.3320 YYYZ=           1485.2252 ZZZX=             74.9674
 ZZZY=            330.0743 XXYY=         -24206.3923 XXZZ=         -21646.6936 YYZZ=          -5735.8435
 XXYZ=            635.5302 YYXZ=             38.5004 ZZXY=           -372.8347
 N-N= 9.574982035068D+03 E-N=-2.613928697795D+04  KE= 2.974002139838D+03
 Leave Link  601 at Fri Apr 29 11:00:58 2022, MaxMem= 10066329600 cpu:              15.6 elap:               0.7
 (Enter /sw/apps/gaussian-16.0/g16/l9999.exe)
 1\1\GINC-BP1-COMPUTE139\SP\RPBE1PBE TD-FC\def2SVP\C55H74Mg1N4O6\OF1564
 1\29-Apr-2022\0\\#p PBE1PBE/Def2SVP td=(nstates=5)\\step_251_chromopho
 re_5 TDDFT with PBE1PBE functional\\0,1\Mg,0,24.105,-6.987,45.763\C,0,
 26.357,-4.6,44.672\C,0,21.601,-5.397,43.815\C,0,21.973,-9.611,46.321\C
 ,0,26.645,-8.786,47.26\N,0,24.01,-5.131,44.521\C,0,25.1,-4.376,44.142\
 C,0,24.786,-3.322,43.015\C,0,23.185,-3.322,43.046\C,0,22.837,-4.677,43
 .88\C,0,22.425,-2.067,43.622\C,0,25.326,-3.652,41.668\C,0,26.324,-2.73
 6,40.986\C,0,26.306,-2.744,39.449\O,0,26.511,-1.742,38.733\O,0,26.071,
 -4.007,39.001\N,0,22.019,-7.397,45.223\C,0,21.197,-6.55,44.456\C,0,19.
 876,-7.09,44.396\C,0,20.,-8.439,45.008\C,0,21.386,-8.565,45.556\C,0,18
 .73,-6.471,43.589\C,0,18.814,-9.419,45.03\O,0,17.696,-9.244,44.554\C,0
 ,19.115,-10.835,45.373\N,0,24.326,-9.092,46.544\C,0,23.25,-9.844,46.81
 3\C,0,23.773,-11.224,47.209\C,0,25.302,-11.,47.623\C,0,25.471,-9.491,4
 7.139\C,0,22.986,-11.746,48.463\C,0,26.426,-11.944,47.028\C,0,27.212,-
 12.878,47.936\N,0,26.135,-6.721,46.02\C,0,27.061,-7.525,46.692\C,0,28.
 373,-6.968,46.565\C,0,28.181,-5.798,45.767\C,0,26.756,-5.703,45.52\C,0
 ,29.665,-7.491,47.109\C,0,28.78,-4.667,45.188\O,0,29.951,-4.345,45.214
 \C,0,27.661,-3.89,44.392\C,0,27.788,-2.454,44.686\O,0,28.263,-1.645,43
 .897\O,0,27.324,-2.185,45.965\C,0,27.464,-0.761,46.344\C,0,26.263,-4.2
 51,37.565\C,0,25.555,-5.532,37.039\C,0,25.889,-6.366,35.984\C,0,26.911
 ,-6.048,34.949\C,0,25.088,-7.669,35.75\C,0,23.648,-7.413,35.273\C,0,23
 .579,-6.829,33.821\C,0,22.932,-5.413,33.724\C,0,21.463,-5.525,34.093\C
 ,0,23.075,-4.904,32.213\C,0,24.108,-3.834,31.967\C,0,25.36,-4.459,31.0
 96\C,0,25.342,-3.833,29.678\C,0,26.738,-3.896,28.983\C,0,24.245,-4.478
 ,28.835\C,0,23.182,-3.422,28.288\C,0,23.56,-3.055,26.86\C,0,22.631,-3.
 805,25.89\C,0,23.513,-4.595,24.872\C,0,21.592,-2.836,25.129\H,0,20.742
 ,-4.975,43.29\H,0,21.205,-10.36,46.527\H,0,27.44,-9.39,47.702\H,0,25.1
 55,-2.344,43.322\H,0,22.858,-3.532,42.027\H,0,23.156,-1.263,43.707\H,0
 ,21.936,-2.233,44.582\H,0,21.627,-1.831,42.919\H,0,24.472,-3.656,40.98
 9\H,0,25.829,-4.618,41.696\H,0,27.323,-3.087,41.243\H,0,26.19,-1.685,4
 1.241\H,0,18.886,-5.592,42.964\H,0,17.972,-6.319,44.357\H,0,18.311,-7.
 327,43.061\H,0,19.073,-11.159,46.412\H,0,20.04,-11.183,44.913\H,0,18.3
 17,-11.426,44.922\H,0,23.695,-11.954,46.403\H,0,25.392,-10.939,48.707\
 H,0,22.657,-12.758,48.227\H,0,22.133,-11.139,48.769\H,0,23.593,-11.78,
 49.368\H,0,27.109,-11.254,46.533\H,0,25.901,-12.605,46.337\H,0,28.148,
 -13.062,47.408\H,0,26.682,-13.828,48.008\H,0,27.496,-12.555,48.937\H,0
 ,30.429,-6.778,46.798\H,0,29.799,-8.496,46.71\H,0,29.721,-7.552,48.196
 \H,0,27.945,-4.034,43.349\H,0,28.431,-0.593,46.818\H,0,26.591,-0.529,4
 6.954\H,0,27.371,-0.101,45.482\H,0,27.345,-4.23,37.433\H,0,25.951,-3.3
 9,36.974\H,0,24.818,-6.011,37.683\H,0,27.397,-5.085,35.108\H,0,26.44,-
 6.07,33.967\H,0,27.732,-6.762,34.876\H,0,25.059,-8.202,36.7\H,0,25.532
 ,-8.336,35.01\H,0,23.035,-6.836,35.966\H,0,23.172,-8.392,35.217\H,0,23
 .012,-7.477,33.153\H,0,24.577,-6.746,33.389\H,0,23.597,-4.95,34.453\H,
 0,20.756,-5.239,33.314\H,0,21.338,-4.759,34.859\H,0,21.167,-6.464,34.5
 6\H,0,22.132,-4.444,31.918\H,0,23.193,-5.766,31.556\H,0,24.478,-3.403,
 32.898\H,0,23.545,-3.058,31.448\H,0,25.341,-5.541,31.229\H,0,26.286,-4
 .131,31.568\H,0,25.007,-2.812,29.859\H,0,26.587,-3.556,27.958\H,0,27.1
 42,-4.907,28.926\H,0,27.477,-3.23,29.427\H,0,23.531,-5.158,29.3\H,0,24
 .779,-5.07,28.092\H,0,23.197,-2.561,28.957\H,0,22.278,-3.964,28.561\H,
 0,24.608,-3.297,26.686\H,0,23.433,-1.974,26.803\H,0,22.007,-4.548,26.3
 88\H,0,23.293,-5.658,24.969\H,0,24.588,-4.585,25.052\H,0,23.373,-4.331
 ,23.824\H,0,20.67,-3.352,24.861\H,0,22.051,-2.5,24.199\H,0,21.33,-2.09
 8,25.887\\Version=ES64L-G16RevA.03\State=1-A\HF=-3005.3266187\RMSD=4.9
 89e-09\PG=C01 [X(C55H74Mg1N4O6)]\\@


 Until you make peace with who you are,
 you'll never be content with what you have.
                           -- Doris Mortman
 Job cpu time:       0 days  6 hours  1 minutes 48.3 seconds.
 Elapsed time:       0 days  0 hours 15 minutes  8.3 seconds.
 File lengths (MBytes):  RWF=   8929 Int=      0 D2E=      0 Chk=    390 Scr=      1
 Normal termination of Gaussian 16 at Fri Apr 29 11:00:59 2022.
