 Entering Gaussian System, Link 0=g16
 Initial command:
 /sw/apps/gaussian-16.0/g16/l1.exe "/tmp/Gau-250208.inp" -scrdir="/tmp/"
 Entering Link 1 = /sw/apps/gaussian-16.0/g16/l1.exe PID=    250209.
  
 Copyright (c) 1988,1990,1992,1993,1995,1998,2003,2009,2016,
            Gaussian, Inc.  All Rights Reserved.
  
 This is part of the Gaussian(R) 16 program.  It is based on
 the Gaussian(R) 09 system (copyright 2009, Gaussian, Inc.),
 the Gaussian(R) 03 system (copyright 2003, Gaussian, Inc.),
 the Gaussian(R) 98 system (copyright 1998, Gaussian, Inc.),
 the Gaussian(R) 94 system (copyright 1995, Gaussian, Inc.),
 the Gaussian 92(TM) system (copyright 1992, Gaussian, Inc.),
 the Gaussian 90(TM) system (copyright 1990, Gaussian, Inc.),
 the Gaussian 88(TM) system (copyright 1988, Gaussian, Inc.),
 the Gaussian 86(TM) system (copyright 1986, Carnegie Mellon
 University), and the Gaussian 82(TM) system (copyright 1983,
 Carnegie Mellon University). Gaussian is a federally registered
 trademark of Gaussian, Inc.
  
 This software contains proprietary and confidential information,
 including trade secrets, belonging to Gaussian, Inc.
  
 This software is provided under written license and may be
 used, copied, transmitted, or stored only in accord with that
 written license.
  
 The following legend is applicable only to US Government
 contracts under FAR:
  
                    RESTRICTED RIGHTS LEGEND
  
 Use, reproduction and disclosure by the US Government is
 subject to restrictions as set forth in subparagraphs (a)
 and (c) of the Commercial Computer Software - Restricted
 Rights clause in FAR 52.227-19.
  
 Gaussian, Inc.
 340 Quinnipiac St., Bldg. 40, Wallingford CT 06492
  
  
 ---------------------------------------------------------------
 Warning -- This program may not be used in any manner that
 competes with the business of Gaussian, Inc. or will provide
 assistance to any competitor of Gaussian, Inc.  The licensee
 of this program is prohibited from giving any competitor of
 Gaussian, Inc. access to this program.  By using this program,
 the user acknowledges that Gaussian, Inc. is engaged in the
 business of creating and licensing software in the field of
 computational chemistry and represents and warrants to the
 licensee that it is not a competitor of Gaussian, Inc. and that
 it will not use this program in any manner prohibited above.
 ---------------------------------------------------------------
  

 Cite this work as:
 Gaussian 16, Revision A.03,
 M. J. Frisch, G. W. Trucks, H. B. Schlegel, G. E. Scuseria, 
 M. A. Robb, J. R. Cheeseman, G. Scalmani, V. Barone, 
 G. A. Petersson, H. Nakatsuji, X. Li, M. Caricato, A. V. Marenich, 
 J. Bloino, B. G. Janesko, R. Gomperts, B. Mennucci, H. P. Hratchian, 
 J. V. Ortiz, A. F. Izmaylov, J. L. Sonnenberg, D. Williams-Young, 
 F. Ding, F. Lipparini, F. Egidi, J. Goings, B. Peng, A. Petrone, 
 T. Henderson, D. Ranasinghe, V. G. Zakrzewski, J. Gao, N. Rega, 
 G. Zheng, W. Liang, M. Hada, M. Ehara, K. Toyota, R. Fukuda, 
 J. Hasegawa, M. Ishida, T. Nakajima, Y. Honda, O. Kitao, H. Nakai, 
 T. Vreven, K. Throssell, J. A. Montgomery, Jr., J. E. Peralta, 
 F. Ogliaro, M. J. Bearpark, J. J. Heyd, E. N. Brothers, K. N. Kudin, 
 V. N. Staroverov, T. A. Keith, R. Kobayashi, J. Normand, 
 K. Raghavachari, A. P. Rendell, J. C. Burant, S. S. Iyengar, 
 J. Tomasi, M. Cossi, J. M. Millam, M. Klene, C. Adamo, R. Cammi, 
 J. W. Ochterski, R. L. Martin, K. Morokuma, O. Farkas, 
 J. B. Foresman, and D. J. Fox, Gaussian, Inc., Wallingford CT, 2016.
 
 ******************************************
 Gaussian 16:  ES64L-G16RevA.03 25-Dec-2016
                 5-May-2022 
 ******************************************
 %nproc=24
 Will use up to   24 processors via shared memory.
 %mem=75GB
 --------------------------------
 #p wB97XD/Def2SVP td=(nstates=5)
 --------------------------------
 1/38=1,172=1/1;
 2/12=2,17=6,18=5,40=1/2;
 3/5=43,7=101,11=9,25=1,30=1,74=-58/1,2,3,8;
 4//1;
 5/5=2,38=5/2;
 8/6=1,10=1,108=5/1;
 9/41=5,42=1,70=2/14;
 6/7=2,8=2,9=2,10=2/1;
 99/5=1,9=1/99;
 Leave Link    1 at Thu May  5 04:07:06 2022, MaxMem= 10066329600 cpu:               0.9 elap:               0.0
 (Enter /sw/apps/gaussian-16.0/g16/l101.exe)
 ---------------------------------------------------
 step_551_chromophore_5 TDDFT with wB97XD functional
 ---------------------------------------------------
 Symbolic Z-matrix:
 Charge =  0 Multiplicity = 1
 Mg                    23.661   -6.625     46.472 
 C                     26.163   -4.46      45.363 
 C                     21.336   -5.079     44.257 
 C                     21.684   -9.343     46.558 
 C                     26.269   -8.491     48.017 
 N                     23.709   -4.883     45.094 
 C                     24.928   -4.166     44.775 
 C                     24.59    -3.19      43.646 
 C                     23.044   -3.252     43.402 
 C                     22.644   -4.552     44.286 
 C                     22.195   -2.031     43.904 
 C                     25.438   -3.411     42.396 
 C                     25.526   -2.082     41.576 
 C                     24.45    -1.975     40.472 
 O                     23.266   -1.781     40.654 
 O                     24.974   -2.101     39.163 
 N                     21.673   -7.064     45.698 
 C                     20.871   -6.28      44.895 
 C                     19.616   -6.944     44.793 
 C                     19.659   -8.148     45.354 
 C                     21.061   -8.23      45.9 
 C                     18.465   -6.362     43.975 
 C                     18.589   -9.085     45.364 
 O                     17.429   -8.79      45.133 
 C                     18.842   -10.549    45.72 
 N                     23.971   -8.655     47.229 
 C                     23.002   -9.559     47.146 
 C                     23.338   -10.921    47.73 
 C                     24.881   -10.673    48.15 
 C                     25.042   -9.177     47.814 
 C                     22.329   -11.256    48.887 
 C                     26.021   -11.508    47.42 
 C                     27.097   -12.009    48.353 
 N                     25.755   -6.384     46.853 
 C                     26.667   -7.157     47.521 
 C                     27.935   -6.502     47.521 
 C                     27.751   -5.443     46.736 
 C                     26.45    -5.418     46.28 
 C                     29.198   -7.058     48.147 
 C                     28.509   -4.365     46.023 
 O                     29.677   -4.007     46.028 
 C                     27.483   -3.714     45.091 
 C                     27.488   -2.192     45.281 
 O                     27.529   -1.434     44.333 
 O                     27.21    -1.746     46.579 
 C                     26.736   -0.344     46.626 
 C                     24.016   -1.719     38.118 
 C                     23.444   -3.007     37.51 
 C                     23.994   -3.914     36.656 
 C                     25.349   -3.731     36.09 
 C                     23.146   -5.112     36.202 
 C                     22.609   -5.095     34.824 
 C                     22.311   -6.476     34.181 
 C                     22.995   -6.646     32.797 
 C                     22.674   -7.974     32.038 
 C                     24.582   -6.766     33.1 
 C                     25.473   -6.302     31.897 
 C                     25.325   -4.793     31.49 
 C                     24.498   -4.585     30.109 
 C                     23.265   -3.696     30.406 
 C                     25.387   -3.962     28.999 
 C                     25.939   -5.012     28.032 
 C                     25.675   -4.572     26.496 
 C                     24.65    -5.513     25.759 
 C                     25.182   -5.774     24.371 
 C                     23.255   -4.816     25.781 
 H                     20.562   -4.678     43.598 
 H                     21.137   -10.284    46.47 
 H                     27.068   -9.017     48.544 
 H                     24.913   -2.262     44.117 
 H                     22.706   -3.545     42.408 
 H                     22.77    -1.389     44.571 
 H                     21.401   -2.378     44.566 
 H                     21.664   -1.564     43.074 
 H                     24.779   -4.086     41.851 
 H                     26.324   -4.005     42.619 
 H                     26.521   -1.97      41.147 
 H                     25.269   -1.245     42.225 
 H                     18.424   -6.856     43.004 
 H                     18.799   -5.337     43.813 
 H                     17.46    -6.239     44.38 
 H                     19.119   -10.577    46.774 
 H                     19.7     -11.013    45.234 
 H                     17.959   -11.117    45.426 
 H                     23.241   -11.749    47.028 
 H                     24.859   -10.696    49.239 
 H                     21.387   -10.709    48.938 
 H                     22.921   -11.181    49.799 
 H                     22.107   -12.323    48.899 
 H                     26.602   -10.957    46.68 
 H                     25.679   -12.418    46.926 
 H                     28.083   -11.643    48.067 
 H                     27.221   -13.09     48.291 
 H                     26.887   -11.687    49.373 
 H                     29.073   -7.042     49.229 
 H                     30.017   -6.415     47.823 
 H                     29.354   -8.081     47.806 
 H                     27.794   -3.944     44.072 
 H                     26.247    0.089     45.754 
 H                     27.617    0.237     46.898 
 H                     26.025   -0.345     47.453 
 H                     24.627   -1.201     37.379 
 H                     23.222   -1.068     38.484 
 H                     22.402   -3.17      37.786 
 H                     25.518   -2.77      35.604 
 H                     25.506   -4.458     35.292 
 H                     26.268   -3.837     36.667 
 H                     22.316   -5.135     36.907 
 H                     23.682   -6.055     36.304 
 H                     23.265   -4.426     34.268 
 H                     21.683   -4.524     34.888 
 H                     21.245   -6.685     34.098 
 H                     22.564   -7.359     34.768 
 H                     22.686   -5.778     32.216 
 H                     23.618   -8.456     31.784 
 H                     22.181   -7.792     31.083 
 H                     22.044   -8.625     32.643 
 H                     24.877   -7.776     33.385 
 H                     24.911   -6.307     34.032 
 H                     25.324   -6.927     31.018 
 H                     26.455   -6.366     32.365 
 H                     26.346   -4.492     31.253 
 H                     24.951   -4.235     32.348 
 H                     24.077   -5.512     29.721 
 H                     23.122   -3.49      31.466 
 H                     22.388   -4.157     29.951 
 H                     23.395   -2.725     29.929 
 H                     26.299   -3.565     29.446 
 H                     24.853   -3.204     28.426 
 H                     25.506   -6.009     28.109 
 H                     27.005   -5.098     28.242 
 H                     26.7     -4.522     26.126 
 H                     25.438   -3.51      26.438 
 H                     24.581   -6.479     26.258 
 H                     25.791   -4.924     24.062 
 H                     24.341   -5.882     23.685 
 H                     25.72    -6.721     24.342 
 H                     22.854   -4.598     24.791 
 H                     23.228   -3.86      26.303 
 H                     22.571   -5.381     26.414 
 
 ITRead=  0  0  0  0  0  0  0  0  0  0  0  0  0  0  0  0  0  0  0  0
 ITRead=  0  0  0  0  0  0  0  0  0  0  0  0  0  0  0  0  0  0  0  0
 ITRead=  0  0  0  0  0  0  0  0  0  0  0  0  0  0  0  0  0  0  0  0
 ITRead=  0  0  0  0  0  0  0  0  0  0  0  0  0  0  0  0  0  0  0  0
 ITRead=  0  0  0  0  0  0  0  0  0  0  0  0  0  0  0  0  0  0  0  0
 ITRead=  0  0  0  0  0  0  0  0  0  0  0  0  0  0  0  0  0  0  0  0
 ITRead=  0  0  0  0  0  0  0  0  0  0  0  0  0  0  0  0  0  0  0  0
 MicOpt= -1 -1 -1 -1 -1 -1 -1 -1 -1 -1 -1 -1 -1 -1 -1 -1 -1 -1 -1 -1
 MicOpt= -1 -1 -1 -1 -1 -1 -1 -1 -1 -1 -1 -1 -1 -1 -1 -1 -1 -1 -1 -1
 MicOpt= -1 -1 -1 -1 -1 -1 -1 -1 -1 -1 -1 -1 -1 -1 -1 -1 -1 -1 -1 -1
 MicOpt= -1 -1 -1 -1 -1 -1 -1 -1 -1 -1 -1 -1 -1 -1 -1 -1 -1 -1 -1 -1
 MicOpt= -1 -1 -1 -1 -1 -1 -1 -1 -1 -1 -1 -1 -1 -1 -1 -1 -1 -1 -1 -1
 MicOpt= -1 -1 -1 -1 -1 -1 -1 -1 -1 -1 -1 -1 -1 -1 -1 -1 -1 -1 -1 -1
 MicOpt= -1 -1 -1 -1 -1 -1 -1 -1 -1 -1 -1 -1 -1 -1 -1 -1 -1 -1 -1 -1
 NAtoms=    140 NQM=      140 NQMF=       0 NMMI=      0 NMMIF=      0
                NMic=       0 NMicF=      0.
                    Isotopes and Nuclear Properties:
 (Nuclear quadrupole moments (NQMom) in fm**2, nuclear magnetic moments (NMagM)
  in nuclear magnetons)

  Atom         1           2           3           4           5           6           7           8           9          10
 IAtWgt=          24          12          12          12          12          14          12          12          12          12
 AtmWgt=  23.9850450  12.0000000  12.0000000  12.0000000  12.0000000  14.0030740  12.0000000  12.0000000  12.0000000  12.0000000
 NucSpn=           0           0           0           0           0           2           0           0           0           0
 AtZEff=  -0.0000000  -0.0000000  -0.0000000  -0.0000000  -0.0000000  -0.0000000  -0.0000000  -0.0000000  -0.0000000  -0.0000000
 NQMom=    0.0000000   0.0000000   0.0000000   0.0000000   0.0000000   2.0440000   0.0000000   0.0000000   0.0000000   0.0000000
 NMagM=    0.0000000   0.0000000   0.0000000   0.0000000   0.0000000   0.4037610   0.0000000   0.0000000   0.0000000   0.0000000
 AtZNuc=  12.0000000   6.0000000   6.0000000   6.0000000   6.0000000   7.0000000   6.0000000   6.0000000   6.0000000   6.0000000

  Atom        11          12          13          14          15          16          17          18          19          20
 IAtWgt=          12          12          12          12          16          16          14          12          12          12
 AtmWgt=  12.0000000  12.0000000  12.0000000  12.0000000  15.9949146  15.9949146  14.0030740  12.0000000  12.0000000  12.0000000
 NucSpn=           0           0           0           0           0           0           2           0           0           0
 AtZEff=  -0.0000000  -0.0000000  -0.0000000  -0.0000000  -0.0000000  -0.0000000  -0.0000000  -0.0000000  -0.0000000  -0.0000000
 NQMom=    0.0000000   0.0000000   0.0000000   0.0000000   0.0000000   0.0000000   2.0440000   0.0000000   0.0000000   0.0000000
 NMagM=    0.0000000   0.0000000   0.0000000   0.0000000   0.0000000   0.0000000   0.4037610   0.0000000   0.0000000   0.0000000
 AtZNuc=   6.0000000   6.0000000   6.0000000   6.0000000   8.0000000   8.0000000   7.0000000   6.0000000   6.0000000   6.0000000

  Atom        21          22          23          24          25          26          27          28          29          30
 IAtWgt=          12          12          12          16          12          14          12          12          12          12
 AtmWgt=  12.0000000  12.0000000  12.0000000  15.9949146  12.0000000  14.0030740  12.0000000  12.0000000  12.0000000  12.0000000
 NucSpn=           0           0           0           0           0           2           0           0           0           0
 AtZEff=  -0.0000000  -0.0000000  -0.0000000  -0.0000000  -0.0000000  -0.0000000  -0.0000000  -0.0000000  -0.0000000  -0.0000000
 NQMom=    0.0000000   0.0000000   0.0000000   0.0000000   0.0000000   2.0440000   0.0000000   0.0000000   0.0000000   0.0000000
 NMagM=    0.0000000   0.0000000   0.0000000   0.0000000   0.0000000   0.4037610   0.0000000   0.0000000   0.0000000   0.0000000
 AtZNuc=   6.0000000   6.0000000   6.0000000   8.0000000   6.0000000   7.0000000   6.0000000   6.0000000   6.0000000   6.0000000

  Atom        31          32          33          34          35          36          37          38          39          40
 IAtWgt=          12          12          12          14          12          12          12          12          12          12
 AtmWgt=  12.0000000  12.0000000  12.0000000  14.0030740  12.0000000  12.0000000  12.0000000  12.0000000  12.0000000  12.0000000
 NucSpn=           0           0           0           2           0           0           0           0           0           0
 AtZEff=  -0.0000000  -0.0000000  -0.0000000  -0.0000000  -0.0000000  -0.0000000  -0.0000000  -0.0000000  -0.0000000  -0.0000000
 NQMom=    0.0000000   0.0000000   0.0000000   2.0440000   0.0000000   0.0000000   0.0000000   0.0000000   0.0000000   0.0000000
 NMagM=    0.0000000   0.0000000   0.0000000   0.4037610   0.0000000   0.0000000   0.0000000   0.0000000   0.0000000   0.0000000
 AtZNuc=   6.0000000   6.0000000   6.0000000   7.0000000   6.0000000   6.0000000   6.0000000   6.0000000   6.0000000   6.0000000

  Atom        41          42          43          44          45          46          47          48          49          50
 IAtWgt=          16          12          12          16          16          12          12          12          12          12
 AtmWgt=  15.9949146  12.0000000  12.0000000  15.9949146  15.9949146  12.0000000  12.0000000  12.0000000  12.0000000  12.0000000
 NucSpn=           0           0           0           0           0           0           0           0           0           0
 AtZEff=  -0.0000000  -0.0000000  -0.0000000  -0.0000000  -0.0000000  -0.0000000  -0.0000000  -0.0000000  -0.0000000  -0.0000000
 NQMom=    0.0000000   0.0000000   0.0000000   0.0000000   0.0000000   0.0000000   0.0000000   0.0000000   0.0000000   0.0000000
 NMagM=    0.0000000   0.0000000   0.0000000   0.0000000   0.0000000   0.0000000   0.0000000   0.0000000   0.0000000   0.0000000
 AtZNuc=   8.0000000   6.0000000   6.0000000   8.0000000   8.0000000   6.0000000   6.0000000   6.0000000   6.0000000   6.0000000

  Atom        51          52          53          54          55          56          57          58          59          60
 IAtWgt=          12          12          12          12          12          12          12          12          12          12
 AtmWgt=  12.0000000  12.0000000  12.0000000  12.0000000  12.0000000  12.0000000  12.0000000  12.0000000  12.0000000  12.0000000
 NucSpn=           0           0           0           0           0           0           0           0           0           0
 AtZEff=  -0.0000000  -0.0000000  -0.0000000  -0.0000000  -0.0000000  -0.0000000  -0.0000000  -0.0000000  -0.0000000  -0.0000000
 NQMom=    0.0000000   0.0000000   0.0000000   0.0000000   0.0000000   0.0000000   0.0000000   0.0000000   0.0000000   0.0000000
 NMagM=    0.0000000   0.0000000   0.0000000   0.0000000   0.0000000   0.0000000   0.0000000   0.0000000   0.0000000   0.0000000
 AtZNuc=   6.0000000   6.0000000   6.0000000   6.0000000   6.0000000   6.0000000   6.0000000   6.0000000   6.0000000   6.0000000

  Atom        61          62          63          64          65          66          67          68          69          70
 IAtWgt=          12          12          12          12          12          12           1           1           1           1
 AtmWgt=  12.0000000  12.0000000  12.0000000  12.0000000  12.0000000  12.0000000   1.0078250   1.0078250   1.0078250   1.0078250
 NucSpn=           0           0           0           0           0           0           1           1           1           1
 AtZEff=  -0.0000000  -0.0000000  -0.0000000  -0.0000000  -0.0000000  -0.0000000  -0.0000000  -0.0000000  -0.0000000  -0.0000000
 NQMom=    0.0000000   0.0000000   0.0000000   0.0000000   0.0000000   0.0000000   0.0000000   0.0000000   0.0000000   0.0000000
 NMagM=    0.0000000   0.0000000   0.0000000   0.0000000   0.0000000   0.0000000   2.7928460   2.7928460   2.7928460   2.7928460
 AtZNuc=   6.0000000   6.0000000   6.0000000   6.0000000   6.0000000   6.0000000   1.0000000   1.0000000   1.0000000   1.0000000

  Atom        71          72          73          74          75          76          77          78          79          80
 IAtWgt=           1           1           1           1           1           1           1           1           1           1
 AtmWgt=   1.0078250   1.0078250   1.0078250   1.0078250   1.0078250   1.0078250   1.0078250   1.0078250   1.0078250   1.0078250
 NucSpn=           1           1           1           1           1           1           1           1           1           1
 AtZEff=  -0.0000000  -0.0000000  -0.0000000  -0.0000000  -0.0000000  -0.0000000  -0.0000000  -0.0000000  -0.0000000  -0.0000000
 NQMom=    0.0000000   0.0000000   0.0000000   0.0000000   0.0000000   0.0000000   0.0000000   0.0000000   0.0000000   0.0000000
 NMagM=    2.7928460   2.7928460   2.7928460   2.7928460   2.7928460   2.7928460   2.7928460   2.7928460   2.7928460   2.7928460
 AtZNuc=   1.0000000   1.0000000   1.0000000   1.0000000   1.0000000   1.0000000   1.0000000   1.0000000   1.0000000   1.0000000

  Atom        81          82          83          84          85          86          87          88          89          90
 IAtWgt=           1           1           1           1           1           1           1           1           1           1
 AtmWgt=   1.0078250   1.0078250   1.0078250   1.0078250   1.0078250   1.0078250   1.0078250   1.0078250   1.0078250   1.0078250
 NucSpn=           1           1           1           1           1           1           1           1           1           1
 AtZEff=  -0.0000000  -0.0000000  -0.0000000  -0.0000000  -0.0000000  -0.0000000  -0.0000000  -0.0000000  -0.0000000  -0.0000000
 NQMom=    0.0000000   0.0000000   0.0000000   0.0000000   0.0000000   0.0000000   0.0000000   0.0000000   0.0000000   0.0000000
 NMagM=    2.7928460   2.7928460   2.7928460   2.7928460   2.7928460   2.7928460   2.7928460   2.7928460   2.7928460   2.7928460
 AtZNuc=   1.0000000   1.0000000   1.0000000   1.0000000   1.0000000   1.0000000   1.0000000   1.0000000   1.0000000   1.0000000

  Atom        91          92          93          94          95          96          97          98          99         100
 IAtWgt=           1           1           1           1           1           1           1           1           1           1
 AtmWgt=   1.0078250   1.0078250   1.0078250   1.0078250   1.0078250   1.0078250   1.0078250   1.0078250   1.0078250   1.0078250
 NucSpn=           1           1           1           1           1           1           1           1           1           1
 AtZEff=  -0.0000000  -0.0000000  -0.0000000  -0.0000000  -0.0000000  -0.0000000  -0.0000000  -0.0000000  -0.0000000  -0.0000000
 NQMom=    0.0000000   0.0000000   0.0000000   0.0000000   0.0000000   0.0000000   0.0000000   0.0000000   0.0000000   0.0000000
 NMagM=    2.7928460   2.7928460   2.7928460   2.7928460   2.7928460   2.7928460   2.7928460   2.7928460   2.7928460   2.7928460
 AtZNuc=   1.0000000   1.0000000   1.0000000   1.0000000   1.0000000   1.0000000   1.0000000   1.0000000   1.0000000   1.0000000

  Atom       101         102         103         104         105         106         107         108         109         110
 IAtWgt=           1           1           1           1           1           1           1           1           1           1
 AtmWgt=   1.0078250   1.0078250   1.0078250   1.0078250   1.0078250   1.0078250   1.0078250   1.0078250   1.0078250   1.0078250
 NucSpn=           1           1           1           1           1           1           1           1           1           1
 AtZEff=  -0.0000000  -0.0000000  -0.0000000  -0.0000000  -0.0000000  -0.0000000  -0.0000000  -0.0000000  -0.0000000  -0.0000000
 NQMom=    0.0000000   0.0000000   0.0000000   0.0000000   0.0000000   0.0000000   0.0000000   0.0000000   0.0000000   0.0000000
 NMagM=    2.7928460   2.7928460   2.7928460   2.7928460   2.7928460   2.7928460   2.7928460   2.7928460   2.7928460   2.7928460
 AtZNuc=   1.0000000   1.0000000   1.0000000   1.0000000   1.0000000   1.0000000   1.0000000   1.0000000   1.0000000   1.0000000

  Atom       111         112         113         114         115         116         117         118         119         120
 IAtWgt=           1           1           1           1           1           1           1           1           1           1
 AtmWgt=   1.0078250   1.0078250   1.0078250   1.0078250   1.0078250   1.0078250   1.0078250   1.0078250   1.0078250   1.0078250
 NucSpn=           1           1           1           1           1           1           1           1           1           1
 AtZEff=  -0.0000000  -0.0000000  -0.0000000  -0.0000000  -0.0000000  -0.0000000  -0.0000000  -0.0000000  -0.0000000  -0.0000000
 NQMom=    0.0000000   0.0000000   0.0000000   0.0000000   0.0000000   0.0000000   0.0000000   0.0000000   0.0000000   0.0000000
 NMagM=    2.7928460   2.7928460   2.7928460   2.7928460   2.7928460   2.7928460   2.7928460   2.7928460   2.7928460   2.7928460
 AtZNuc=   1.0000000   1.0000000   1.0000000   1.0000000   1.0000000   1.0000000   1.0000000   1.0000000   1.0000000   1.0000000

  Atom       121         122         123         124         125         126         127         128         129         130
 IAtWgt=           1           1           1           1           1           1           1           1           1           1
 AtmWgt=   1.0078250   1.0078250   1.0078250   1.0078250   1.0078250   1.0078250   1.0078250   1.0078250   1.0078250   1.0078250
 NucSpn=           1           1           1           1           1           1           1           1           1           1
 AtZEff=  -0.0000000  -0.0000000  -0.0000000  -0.0000000  -0.0000000  -0.0000000  -0.0000000  -0.0000000  -0.0000000  -0.0000000
 NQMom=    0.0000000   0.0000000   0.0000000   0.0000000   0.0000000   0.0000000   0.0000000   0.0000000   0.0000000   0.0000000
 NMagM=    2.7928460   2.7928460   2.7928460   2.7928460   2.7928460   2.7928460   2.7928460   2.7928460   2.7928460   2.7928460
 AtZNuc=   1.0000000   1.0000000   1.0000000   1.0000000   1.0000000   1.0000000   1.0000000   1.0000000   1.0000000   1.0000000

  Atom       131         132         133         134         135         136         137         138         139         140
 IAtWgt=           1           1           1           1           1           1           1           1           1           1
 AtmWgt=   1.0078250   1.0078250   1.0078250   1.0078250   1.0078250   1.0078250   1.0078250   1.0078250   1.0078250   1.0078250
 NucSpn=           1           1           1           1           1           1           1           1           1           1
 AtZEff=  -0.0000000  -0.0000000  -0.0000000  -0.0000000  -0.0000000  -0.0000000  -0.0000000  -0.0000000  -0.0000000  -0.0000000
 NQMom=    0.0000000   0.0000000   0.0000000   0.0000000   0.0000000   0.0000000   0.0000000   0.0000000   0.0000000   0.0000000
 NMagM=    2.7928460   2.7928460   2.7928460   2.7928460   2.7928460   2.7928460   2.7928460   2.7928460   2.7928460   2.7928460
 AtZNuc=   1.0000000   1.0000000   1.0000000   1.0000000   1.0000000   1.0000000   1.0000000   1.0000000   1.0000000   1.0000000
 Leave Link  101 at Thu May  5 04:07:07 2022, MaxMem= 10066329600 cpu:               3.7 elap:               0.2
 (Enter /sw/apps/gaussian-16.0/g16/l202.exe)
 Stoichiometry    C55H74MgN4O6
 Framework group  C1[X(C55H74MgN4O6)]
 Deg. of freedom   414
 Full point group                 C1      NOp   1
 Largest Abelian subgroup         C1      NOp   1
 Largest concise Abelian subgroup C1      NOp   1
                         Standard orientation:                         
 ---------------------------------------------------------------------
 Center     Atomic      Atomic             Coordinates (Angstroms)
 Number     Number       Type             X           Y           Z
 ---------------------------------------------------------------------
      1         12           0        5.534464    0.500912   -0.299597
      2          6           0        4.149332   -2.661696    0.206789
      3          6           0        3.125961    1.152600   -2.844471
      4          6           0        5.981701    3.815156    0.045675
      5          6           0        7.322879   -0.041360    2.729950
      6          7           0        3.934265   -0.672003   -1.299289
      7          6           0        3.524260   -1.987172   -0.847587
      8          6           0        2.273200   -2.363438   -1.644290
      9          6           0        2.036285   -1.252394   -2.722690
     10          6           0        3.086599   -0.117535   -2.232391
     11          6           0        2.367131   -1.623818   -4.211391
     12          6           0        1.066343   -2.650312   -0.754547
     13          6           0        0.074827   -3.602463   -1.500662
     14          6           0       -1.035955   -2.847489   -2.265004
     15          8           0       -0.884461   -2.209647   -3.286191
     16          8           0       -2.314818   -2.979837   -1.672614
     17          7           0        4.822225    2.237885   -1.403943
     18          6           0        3.919025    2.282889   -2.445516
     19          6           0        3.904648    3.624811   -2.920243
     20          6           0        4.622972    4.422562   -2.136796
     21          6           0        5.178219    3.484373   -1.096630
     22          6           0        3.013033    4.054382   -4.083488
     23          6           0        4.756803    5.828777   -2.302980
     24          8           0        4.485505    6.417004   -3.335633
     25          6           0        5.307535    6.695562   -1.171866
     26          7           0        6.558983    1.704464    1.214296
     27          6           0        6.596443    3.027582    1.109321
     28          6           0        7.359526    3.741368    2.212594
     29          6           0        7.745746    2.478854    3.148354
     30          6           0        7.211455    1.307718    2.299941
     31          6           0        8.548842    4.553047    1.583577
     32          6           0        7.137594    2.393881    4.615547
     33          6           0        8.132066    1.944239    5.658673
     34          7           0        5.884233   -1.123912    1.051582
     35          6           0        6.652432   -1.237843    2.179584
     36          6           0        6.566984   -2.571924    2.679360
     37          6           0        5.645939   -3.146497    1.909227
     38          6           0        5.187785   -2.243447    0.973408
     39          6           0        7.265101   -3.077162    3.925774
     40          6           0        4.795810   -4.376769    1.815805
     41          8           0        4.755138   -5.426446    2.439452
     42          6           0        3.782216   -4.070770    0.709418
     43          6           0        3.765260   -5.207449   -0.320283
     44          8           0        2.723802   -5.697189   -0.708187
     45          8           0        4.990631   -5.474134   -0.943458
     46          6           0        4.847077   -6.186146   -2.233776
     47          6           0       -3.403953   -2.511562   -2.538764
     48          6           0       -3.834017   -1.123197   -2.045530
     49          6           0       -4.556666   -0.745730   -0.954767
     50          6           0       -5.139100   -1.737215   -0.023317
     51          6           0       -4.846898    0.747579   -0.739788
     52          6           0       -6.215819    1.232175   -1.020439
     53          6           0       -6.667401    2.507463   -0.259435
     54          6           0       -8.014284    2.306890    0.487486
     55          6           0       -8.588005    3.570243    1.206853
     56          6           0       -7.694273    1.295722    1.712193
     57          6           0       -8.946830    0.473589    2.172177
     58          6           0       -9.553926   -0.491897    1.093333
     59          6           0      -10.952232    0.048513    0.471198
     60          6           0      -10.780616    0.199089   -1.060694
     61          6           0      -12.134084   -0.897844    0.814979
     62          6           0      -12.949412   -0.405908    2.013116
     63          6           0      -14.531310   -0.399549    1.666485
     64          6           0      -15.137013    1.052574    1.605332
     65          6           0      -16.475932    1.021456    2.301044
     66          6           0      -15.212362    1.479905    0.107324
     67          1           0        2.417155    1.445105   -3.623054
     68          1           0        6.020152    4.881520    0.277678
     69          1           0        7.917804   -0.246212    3.622647
     70          1           0        2.615495   -3.306931   -2.068566
     71          1           0        1.090109   -0.712530   -2.684924
     72          1           0        2.942771   -2.546883   -4.276713
     73          1           0        3.068073   -0.899647   -4.627737
     74          1           0        1.480538   -1.526604   -4.838649
     75          1           0        0.615847   -1.658451   -0.740556
     76          1           0        1.369411   -2.834154    0.275945
     77          1           0       -0.363101   -4.312825   -0.800508
     78          1           0        0.604451   -4.105972   -2.309239
     79          1           0        2.117423    4.539076   -3.694242
     80          1           0        2.715056    3.094550   -4.505812
     81          1           0        3.395469    4.601729   -4.945655
     82          1           0        6.356310    6.426003   -1.046013
     83          1           0        4.890487    6.504949   -0.183233
     84          1           0        5.090810    7.735362   -1.418027
     85          1           0        6.775370    4.482011    2.758493
     86          1           0        8.827849    2.403665    3.046697
     87          1           0        8.523481    4.782156    0.517726
     88          1           0        9.443739    4.009740    1.886579
     89          1           0        8.704107    5.482891    2.130569
     90          1           0        6.331373    1.671479    4.745567
     91          1           0        6.770039    3.339250    5.015898
     92          1           0        7.801561    1.039888    6.169422
     93          1           0        8.216679    2.658462    6.477518
     94          1           0        9.098852    1.749827    5.194224
     95          1           0        8.334776   -3.110826    3.722627
     96          1           0        6.859213   -4.068126    4.131765
     97          1           0        7.065515   -2.399601    4.755366
     98          1           0        2.804244   -4.011889    1.187001
     99          1           0        3.923547   -6.088210   -2.803421
    100          1           0        5.040245   -7.231961   -1.995733
    101          1           0        5.665045   -5.787491   -2.834986
    102          1           0       -4.204666   -3.230107   -2.364644
    103          1           0       -3.130880   -2.489250   -3.593812
    104          1           0       -3.540922   -0.328803   -2.732219
    105          1           0       -5.749861   -2.507206   -0.494871
    106          1           0       -5.831422   -1.232266    0.651737
    107          1           0       -4.550994   -2.335424    0.673105
    108          1           0       -4.147119    1.254500   -1.402957
    109          1           0       -4.617458    1.067038    0.276210
    110          1           0       -6.855463    0.354764   -0.930780
    111          1           0       -6.231498    1.431651   -2.091689
    112          1           0       -6.723878    3.386944   -0.899943
    113          1           0       -5.966124    2.926075    0.462535
    114          1           0       -8.707720    1.936408   -0.266407
    115          1           0       -8.772550    3.312101    2.249581
    116          1           0       -9.559940    3.862843    0.809454
    117          1           0       -7.902178    4.412144    1.119859
    118          1           0       -7.275016    1.808678    2.577901
    119          1           0       -6.831935    0.646432    1.562721
    120          1           0       -9.733861    1.117968    2.560542
    121          1           0       -8.472250   -0.187133    2.897203
    122          1           0       -9.827034   -1.377035    1.668793
    123          1           0       -8.779855   -0.732748    0.365179
    124          1           0      -11.212642    1.049161    0.814714
    125          1           0       -9.758402    0.040563   -1.401916
    126          1           0      -11.171285    1.172281   -1.358941
    127          1           0      -11.383897   -0.552830   -1.568572
    128          1           0      -11.742633   -1.846962    1.182543
    129          1           0      -12.805271   -1.036946   -0.032492
    130          1           0      -12.739659    0.608464    2.351464
    131          1           0      -12.727318   -1.081802    2.838763
    132          1           0      -14.902348   -1.090507    2.424728
    133          1           0      -14.732521   -1.011943    0.787927
    134          1           0      -14.512469    1.757571    2.152911
    135          1           0      -16.895346    0.018918    2.212319
    136          1           0      -17.143009    1.734532    1.815170
    137          1           0      -16.375751    1.355351    3.333310
    138          1           0      -16.223622    1.687585   -0.242884
    139          1           0      -14.824102    0.746732   -0.598976
    140          1           0      -14.510509    2.292460   -0.079560
 ---------------------------------------------------------------------
 Rotational constants (GHZ):           0.0392465           0.0101942           0.0093705
 Leave Link  202 at Thu May  5 04:07:07 2022, MaxMem= 10066329600 cpu:               0.3 elap:               0.0
 (Enter /sw/apps/gaussian-16.0/g16/l301.exe)
 Standard basis: def2SVP (5D, 7F)
 Ernie: Thresh=  0.10000D-02 Tol=  0.10000D-05 Strict=F.
 There are  1364 symmetry adapted cartesian basis functions of A   symmetry.
 There are  1298 symmetry adapted basis functions of A   symmetry.
  1298 basis functions,  2180 primitive gaussians,  1364 cartesian basis functions
   246 alpha electrons      246 beta electrons
       nuclear repulsion energy      9592.0246722648 Hartrees.
 IExCor= 4639 DFT=T Ex+Corr=wB97XD ExCW=0 ScaHFX=  1.000000
 ScaDFX=  1.000000  1.000000  1.000000  1.000000 ScalE2=  1.000000  1.000000
 IRadAn=      5 IRanWt=     -1 IRanGd=            0 ICorTp=0 IEmpDi=121
 HFx  wShort=  0.000000 wLong=  0.200000 cFull=  0.222036 cShort=  0.000000 cLong=  0.777964
 DFx  wShort=  0.000000 wLong=  0.200000 cFull=  0.000000 cShort=  0.000000 cLong=  1.000000
 NAtoms=  140 NActive=  140 NUniq=  140 SFac= 1.00D+00 NAtFMM=   60 NAOKFM=T Big=T
 Integral buffers will be    131072 words long.
 Raffenetti 1 integral format.
 Two-electron integral symmetry is turned on.
 R6Disp:  Grimme-D2 Dispersion energy=       -0.1373384543 Hartrees.
 Nuclear repulsion after empirical dispersion term =     9591.8873338105 Hartrees.
 Leave Link  301 at Thu May  5 04:07:07 2022, MaxMem= 10066329600 cpu:               1.5 elap:               0.1
 (Enter /sw/apps/gaussian-16.0/g16/l302.exe)
 NPDir=0 NMtPBC=     1 NCelOv=     1 NCel=       1 NClECP=     1 NCelD=      1
         NCelK=      1 NCelE2=     1 NClLst=     1 CellRange=     0.0.
 One-electron integrals computed using PRISM.
 One-electron integral symmetry used in STVInt
   1 Symmetry operations used in ECPInt.
 ECPInt:  NShTT=  192510 NPrTT=  683786 LenC2=   95065 LenP2D=  208523.
 LDataN:  DoStor=T MaxTD1= 4 Len=   56
 NBasis=  1298 RedAO= T EigKep=  2.34D-04  NBF=  1298
 NBsUse=  1298 1.00D-06 EigRej= -1.00D+00 NBFU=  1298
 Precomputing XC quadrature grid using
 IXCGrd= 4 IRadAn=           5 IRanWt=          -1 IRanGd=           0 AccXCQ= 0.00D+00.
 Generated NRdTot=       0 NPtTot=           0 NUsed=           0 NTot=          32
 NSgBfM=   988   988   988   988   988 MxSgAt=   140 MxSgA2=   140.
 Leave Link  302 at Thu May  5 04:07:11 2022, MaxMem= 10066329600 cpu:              93.8 elap:               3.9
 (Enter /sw/apps/gaussian-16.0/g16/l303.exe)
 DipDrv:  MaxL=1.
 Leave Link  303 at Thu May  5 04:07:11 2022, MaxMem= 10066329600 cpu:               7.5 elap:               0.4
 (Enter /sw/apps/gaussian-16.0/g16/l308.exe)
 Leave Link  308 at Thu May  5 04:07:12 2022, MaxMem= 10066329600 cpu:              10.3 elap:               0.5
 (Enter /sw/apps/gaussian-16.0/g16/l401.exe)
 ExpMin= 3.36D-02 ExpMax= 4.95D+03 ExpMxC= 7.45D+02 IAcc=3 IRadAn=         5 AccDes= 0.00D+00
 Harris functional with IExCor= 4639 and IRadAn=       5 diagonalized for initial guess.
 HarFok:  IExCor= 4639 AccDes= 0.00D+00 IRadAn=         5 IDoV= 1 UseB2=F ITyADJ=14
 ICtDFT=  3500011 ScaDFX=  1.000000  1.000000  1.000000  1.000000
 FoFCou: FMM=F IPFlag=           0 FMFlag=      100000 FMFlg1=        2001
         NFxFlg=           0 DoJE=T BraDBF=F KetDBF=T FulRan=T
         wScrn=  0.000000 ICntrl=       500 IOpCl=  0 I1Cent=   200000004 NGrid=           0
         NMat0=    1 NMatS0=      1 NMatT0=    0 NMatD0=    1 NMtDS0=    0 NMtDT0=    0
 Petite list used in FoFCou.
 Harris En= -2877.99794317358    
 JPrj=0 DoOrth=F DoCkMO=F.
 Leave Link  401 at Thu May  5 04:07:18 2022, MaxMem= 10066329600 cpu:             161.2 elap:               6.8
 (Enter /sw/apps/gaussian-16.0/g16/l502.exe)
 Integral symmetry usage will be decided dynamically.
 Closed shell SCF:
 Using DIIS extrapolation, IDIIS=  1040.
 NGot= 10066329600 LenX= 10062561258 LenY= 10060699398
 Requested convergence on RMS density matrix=1.00D-08 within 128 cycles.
 Requested convergence on MAX density matrix=1.00D-06.
 Requested convergence on             energy=1.00D-06.
 No special actions if energy rises.
 Fock matrices will be formed incrementally for  20 cycles.

 Cycle   1  Pass 1  IDiag  1:
 FoFJK:  IHMeth= 1 ICntrl=       0 DoSepK=T KAlg= 0 I1Cent=           0 FoldK=F
 IRaf=         1 NMat=       1 IRICut=       1 DoRegI=T DoRafI=F ISym2E= 0 IDoP0=0 IntGTp=1.
 FoFCou: FMM=T IPFlag=           0 FMFlag=      100000 FMFlg1=        2001
         NFxFlg=           0 DoJE=T BraDBF=F KetDBF=F FulRan=T
         wScrn=  0.000000 ICntrl=       500 IOpCl=  0 I1Cent=           0 NGrid=           0
         NMat0=    1 NMatS0=      1 NMatT0=    0 NMatD0=    1 NMtDS0=    0 NMtDT0=    0
 Symmetry not used in FoFCou.
 FMM levels:  10  Number of levels for PrismC:   9
 E= -3007.15091359502    
 DIIS: error= 3.47D-02 at cycle   1 NSaved=   1.
 NSaved= 1 IEnMin= 1 EnMin= -3007.15091359502     IErMin= 1 ErrMin= 3.47D-02
 ErrMax= 3.47D-02  0.00D+00 EMaxC= 1.00D-01 BMatC= 1.50D+00 BMatP= 1.50D+00
 IDIUse=3 WtCom= 6.53D-01 WtEn= 3.47D-01
 Coeff-Com:  0.100D+01
 Coeff-En:   0.100D+01
 Coeff:      0.100D+01
 Gap=     0.160 Goal=   None    Shift=    0.000
 GapD=    0.160 DampG=1.000 DampE=0.500 DampFc=0.5000 IDamp=-1.
 Damping current iteration by 5.00D-01
 RMSDP=1.56D-03 MaxDP=1.68D-01              OVMax= 1.91D-01

 Cycle   2  Pass 1  IDiag  1:
 RMSU=  7.70D-04    CP:  9.87D-01
 E= -3007.47591505163     Delta-E=       -0.325001456609 Rises=F Damp=T
 DIIS: error= 1.43D-02 at cycle   2 NSaved=   2.
 NSaved= 2 IEnMin= 2 EnMin= -3007.47591505163     IErMin= 2 ErrMin= 1.43D-02
 ErrMax= 1.43D-02  0.00D+00 EMaxC= 1.00D-01 BMatC= 2.90D-01 BMatP= 1.50D+00
 IDIUse=3 WtCom= 8.57D-01 WtEn= 1.43D-01
 Coeff-Com: -0.334D+00 0.133D+01
 Coeff-En:   0.000D+00 0.100D+01
 Coeff:     -0.287D+00 0.129D+01
 Gap=     0.183 Goal=   None    Shift=    0.000
 RMSDP=7.36D-04 MaxDP=7.66D-02 DE=-3.25D-01 OVMax= 1.54D-01

 Cycle   3  Pass 1  IDiag  1:
 RMSU=  7.04D-04    CP:  9.79D-01  1.27D+00
 E= -3007.71595568348     Delta-E=       -0.240040631843 Rises=F Damp=F
 DIIS: error= 1.26D-02 at cycle   3 NSaved=   3.
 NSaved= 3 IEnMin= 3 EnMin= -3007.71595568348     IErMin= 3 ErrMin= 1.26D-02
 ErrMax= 1.26D-02  0.00D+00 EMaxC= 1.00D-01 BMatC= 1.42D-01 BMatP= 2.90D-01
 IDIUse=3 WtCom= 8.74D-01 WtEn= 1.26D-01
 Coeff-Com: -0.306D+00 0.679D+00 0.627D+00
 Coeff-En:   0.000D+00 0.000D+00 0.100D+01
 Coeff:     -0.267D+00 0.594D+00 0.674D+00
 Gap=     0.162 Goal=   None    Shift=    0.000
 RMSDP=4.34D-04 MaxDP=4.50D-02 DE=-2.40D-01 OVMax= 8.53D-02

 Cycle   4  Pass 1  IDiag  1:
 RMSU=  2.14D-04    CP:  9.75D-01  1.58D+00  5.90D-01
 E= -3007.82424955724     Delta-E=       -0.108293873760 Rises=F Damp=F
 DIIS: error= 4.12D-03 at cycle   4 NSaved=   4.
 NSaved= 4 IEnMin= 4 EnMin= -3007.82424955724     IErMin= 4 ErrMin= 4.12D-03
 ErrMax= 4.12D-03  0.00D+00 EMaxC= 1.00D-01 BMatC= 1.89D-02 BMatP= 1.42D-01
 IDIUse=3 WtCom= 9.59D-01 WtEn= 4.12D-02
 Coeff-Com: -0.111D+00 0.223D+00 0.361D+00 0.527D+00
 Coeff-En:   0.000D+00 0.000D+00 0.754D-01 0.925D+00
 Coeff:     -0.107D+00 0.214D+00 0.349D+00 0.543D+00
 Gap=     0.160 Goal=   None    Shift=    0.000
 RMSDP=1.21D-04 MaxDP=1.40D-02 DE=-1.08D-01 OVMax= 2.22D-02

 Cycle   5  Pass 1  IDiag  1:
 RMSU=  5.65D-05    CP:  9.75D-01  1.54D+00  7.05D-01  7.04D-01
 E= -3007.84000430761     Delta-E=       -0.015754750375 Rises=F Damp=F
 DIIS: error= 4.56D-04 at cycle   5 NSaved=   5.
 NSaved= 5 IEnMin= 5 EnMin= -3007.84000430761     IErMin= 5 ErrMin= 4.56D-04
 ErrMax= 4.56D-04  0.00D+00 EMaxC= 1.00D-01 BMatC= 3.34D-04 BMatP= 1.89D-02
 IDIUse=3 WtCom= 9.95D-01 WtEn= 4.56D-03
 Coeff-Com: -0.239D-01 0.447D-01 0.101D+00 0.208D+00 0.670D+00
 Coeff-En:   0.000D+00 0.000D+00 0.000D+00 0.000D+00 0.100D+01
 Coeff:     -0.238D-01 0.445D-01 0.100D+00 0.207D+00 0.672D+00
 Gap=     0.160 Goal=   None    Shift=    0.000
 RMSDP=2.37D-05 MaxDP=2.83D-03 DE=-1.58D-02 OVMax= 6.54D-03

 Cycle   6  Pass 1  IDiag  1:
 RMSU=  2.09D-05    CP:  9.75D-01  1.55D+00  7.08D-01  7.50D-01  9.48D-01
 E= -3007.84030738548     Delta-E=       -0.000303077866 Rises=F Damp=F
 DIIS: error= 2.49D-04 at cycle   6 NSaved=   6.
 NSaved= 6 IEnMin= 6 EnMin= -3007.84030738548     IErMin= 6 ErrMin= 2.49D-04
 ErrMax= 2.49D-04  0.00D+00 EMaxC= 1.00D-01 BMatC= 6.99D-05 BMatP= 3.34D-04
 IDIUse=3 WtCom= 9.98D-01 WtEn= 2.49D-03
 Coeff-Com:  0.104D-01-0.222D-01-0.203D-01-0.715D-02 0.321D+00 0.718D+00
 Coeff-En:   0.000D+00 0.000D+00 0.000D+00 0.000D+00 0.000D+00 0.100D+01
 Coeff:      0.103D-01-0.221D-01-0.202D-01-0.713D-02 0.320D+00 0.719D+00
 Gap=     0.161 Goal=   None    Shift=    0.000
 RMSDP=1.26D-05 MaxDP=1.44D-03 DE=-3.03D-04 OVMax= 5.23D-03

 Cycle   7  Pass 1  IDiag  1:
 RMSU=  8.88D-06    CP:  9.75D-01  1.55D+00  7.13D-01  7.68D-01  1.07D+00
                    CP:  9.62D-01
 E= -3007.84040891275     Delta-E=       -0.000101527276 Rises=F Damp=F
 DIIS: error= 6.57D-05 at cycle   7 NSaved=   7.
 NSaved= 7 IEnMin= 7 EnMin= -3007.84040891275     IErMin= 7 ErrMin= 6.57D-05
 ErrMax= 6.57D-05  0.00D+00 EMaxC= 1.00D-01 BMatC= 5.69D-06 BMatP= 6.99D-05
 IDIUse=1 WtCom= 1.00D+00 WtEn= 0.00D+00
 Coeff-Com:  0.566D-02-0.113D-01-0.161D-01-0.247D-01 0.256D-01 0.213D+00
 Coeff-Com:  0.808D+00
 Coeff:      0.566D-02-0.113D-01-0.161D-01-0.247D-01 0.256D-01 0.213D+00
 Coeff:      0.808D+00
 Gap=     0.161 Goal=   None    Shift=    0.000
 RMSDP=6.15D-06 MaxDP=3.71D-04 DE=-1.02D-04 OVMax= 3.92D-03

 Cycle   8  Pass 1  IDiag  1:
 RMSU=  4.10D-06    CP:  9.75D-01  1.55D+00  7.15D-01  7.73D-01  1.11D+00
                    CP:  1.12D+00  1.21D+00
 E= -3007.84043184411     Delta-E=       -0.000022931354 Rises=F Damp=F
 DIIS: error= 4.57D-05 at cycle   8 NSaved=   8.
 NSaved= 8 IEnMin= 8 EnMin= -3007.84043184411     IErMin= 8 ErrMin= 4.57D-05
 ErrMax= 4.57D-05  0.00D+00 EMaxC= 1.00D-01 BMatC= 2.49D-06 BMatP= 5.69D-06
 IDIUse=1 WtCom= 1.00D+00 WtEn= 0.00D+00
 Coeff-Com:  0.744D-03-0.120D-02-0.391D-02-0.112D-01-0.501D-01-0.445D-01
 Coeff-Com:  0.396D+00 0.714D+00
 Coeff:      0.744D-03-0.120D-02-0.391D-02-0.112D-01-0.501D-01-0.445D-01
 Coeff:      0.396D+00 0.714D+00
 Gap=     0.161 Goal=   None    Shift=    0.000
 RMSDP=4.13D-06 MaxDP=3.30D-04 DE=-2.29D-05 OVMax= 2.62D-03

 Cycle   9  Pass 1  IDiag  1:
 RMSU=  2.11D-06    CP:  9.75D-01  1.55D+00  7.15D-01  7.76D-01  1.13D+00
                    CP:  1.19D+00  1.52D+00  1.34D+00
 E= -3007.84044348358     Delta-E=       -0.000011639479 Rises=F Damp=F
 DIIS: error= 3.04D-05 at cycle   9 NSaved=   9.
 NSaved= 9 IEnMin= 9 EnMin= -3007.84044348358     IErMin= 9 ErrMin= 3.04D-05
 ErrMax= 3.04D-05  0.00D+00 EMaxC= 1.00D-01 BMatC= 6.94D-07 BMatP= 2.49D-06
 IDIUse=1 WtCom= 1.00D+00 WtEn= 0.00D+00
 Coeff-Com: -0.179D-02 0.365D-02 0.442D-02 0.515D-02-0.230D-01-0.991D-01
 Coeff-Com: -0.131D+00 0.187D+00 0.105D+01
 Coeff:     -0.179D-02 0.365D-02 0.442D-02 0.515D-02-0.230D-01-0.991D-01
 Coeff:     -0.131D+00 0.187D+00 0.105D+01
 Gap=     0.161 Goal=   None    Shift=    0.000
 RMSDP=4.43D-06 MaxDP=2.92D-04 DE=-1.16D-05 OVMax= 3.38D-03

 Cycle  10  Pass 1  IDiag  1:
 RMSU=  1.50D-06    CP:  9.75D-01  1.55D+00  7.15D-01  7.76D-01  1.14D+00
                    CP:  1.25D+00  1.78D+00  2.03D+00  1.60D+00
 E= -3007.84045177466     Delta-E=       -0.000008291072 Rises=F Damp=F
 DIIS: error= 1.98D-05 at cycle  10 NSaved=  10.
 NSaved=10 IEnMin=10 EnMin= -3007.84045177466     IErMin=10 ErrMin= 1.98D-05
 ErrMax= 1.98D-05  0.00D+00 EMaxC= 1.00D-01 BMatC= 4.21D-07 BMatP= 6.94D-07
 IDIUse=1 WtCom= 1.00D+00 WtEn= 0.00D+00
 Coeff-Com: -0.127D-02 0.245D-02 0.396D-02 0.787D-02 0.131D-01-0.354D-01
 Coeff-Com: -0.248D+00-0.281D+00 0.592D+00 0.946D+00
 Coeff:     -0.127D-02 0.245D-02 0.396D-02 0.787D-02 0.131D-01-0.354D-01
 Coeff:     -0.248D+00-0.281D+00 0.592D+00 0.946D+00
 Gap=     0.161 Goal=   None    Shift=    0.000
 RMSDP=3.89D-06 MaxDP=2.63D-04 DE=-8.29D-06 OVMax= 2.75D-03

 Cycle  11  Pass 1  IDiag  1:
 RMSU=  7.98D-07    CP:  9.75D-01  1.55D+00  7.15D-01  7.77D-01  1.15D+00
                    CP:  1.30D+00  2.02D+00  2.57D+00  2.43D+00  1.49D+00
 E= -3007.84045604418     Delta-E=       -0.000004269519 Rises=F Damp=F
 DIIS: error= 9.82D-06 at cycle  11 NSaved=  11.
 NSaved=11 IEnMin=11 EnMin= -3007.84045604418     IErMin=11 ErrMin= 9.82D-06
 ErrMax= 9.82D-06  0.00D+00 EMaxC= 1.00D-01 BMatC= 9.58D-08 BMatP= 4.21D-07
 IDIUse=1 WtCom= 1.00D+00 WtEn= 0.00D+00
 Coeff-Com:  0.658D-04-0.184D-03 0.144D-03 0.188D-02 0.147D-01 0.171D-01
 Coeff-Com: -0.613D-01-0.184D+00-0.636D-01 0.355D+00 0.920D+00
 Coeff:      0.658D-04-0.184D-03 0.144D-03 0.188D-02 0.147D-01 0.171D-01
 Coeff:     -0.613D-01-0.184D+00-0.636D-01 0.355D+00 0.920D+00
 Gap=     0.161 Goal=   None    Shift=    0.000
 RMSDP=2.07D-06 MaxDP=1.83D-04 DE=-4.27D-06 OVMax= 1.57D-03

 Cycle  12  Pass 1  IDiag  1:
 RMSU=  4.53D-07    CP:  9.75D-01  1.55D+00  7.15D-01  7.77D-01  1.15D+00
                    CP:  1.31D+00  2.12D+00  2.88D+00  2.83D+00  2.07D+00
                    CP:  1.33D+00
 E= -3007.84045712669     Delta-E=       -0.000001082515 Rises=F Damp=F
 DIIS: error= 4.41D-06 at cycle  12 NSaved=  12.
 NSaved=12 IEnMin=12 EnMin= -3007.84045712669     IErMin=12 ErrMin= 4.41D-06
 ErrMax= 4.41D-06  0.00D+00 EMaxC= 1.00D-01 BMatC= 3.51D-08 BMatP= 9.58D-08
 IDIUse=1 WtCom= 1.00D+00 WtEn= 0.00D+00
 Coeff-Com:  0.466D-03-0.925D-03-0.135D-02-0.188D-02 0.139D-02 0.189D-01
 Coeff-Com:  0.624D-01 0.304D-01-0.244D+00-0.246D+00 0.422D+00 0.958D+00
 Coeff:      0.466D-03-0.925D-03-0.135D-02-0.188D-02 0.139D-02 0.189D-01
 Coeff:      0.624D-01 0.304D-01-0.244D+00-0.246D+00 0.422D+00 0.958D+00
 Gap=     0.161 Goal=   None    Shift=    0.000
 RMSDP=1.32D-06 MaxDP=8.23D-05 DE=-1.08D-06 OVMax= 9.33D-04

 Cycle  13  Pass 1  IDiag  1:
 RMSU=  3.98D-07    CP:  9.75D-01  1.55D+00  7.15D-01  7.77D-01  1.15D+00
                    CP:  1.32D+00  2.18D+00  3.00D+00  3.00D+00  2.43D+00
                    CP:  1.85D+00  1.32D+00
 E= -3007.84045741734     Delta-E=       -0.000000290645 Rises=F Damp=F
 DIIS: error= 2.30D-06 at cycle  13 NSaved=  13.
 NSaved=13 IEnMin=13 EnMin= -3007.84045741734     IErMin=13 ErrMin= 2.30D-06
 ErrMax= 2.30D-06  0.00D+00 EMaxC= 1.00D-01 BMatC= 6.15D-09 BMatP= 3.51D-08
 IDIUse=1 WtCom= 1.00D+00 WtEn= 0.00D+00
 Coeff-Com:  0.206D-03-0.401D-03-0.669D-03-0.118D-02-0.198D-02 0.511D-02
 Coeff-Com:  0.393D-01 0.507D-01-0.912D-01-0.182D+00 0.199D-01 0.429D+00
 Coeff-Com:  0.733D+00
 Coeff:      0.206D-03-0.401D-03-0.669D-03-0.118D-02-0.198D-02 0.511D-02
 Coeff:      0.393D-01 0.507D-01-0.912D-01-0.182D+00 0.199D-01 0.429D+00
 Coeff:      0.733D+00
 Gap=     0.161 Goal=   None    Shift=    0.000
 RMSDP=3.05D-07 MaxDP=2.99D-05 DE=-2.91D-07 OVMax= 2.10D-04

 Cycle  14  Pass 1  IDiag  1:
 RMSU=  1.22D-07    CP:  9.75D-01  1.55D+00  7.15D-01  7.77D-01  1.15D+00
                    CP:  1.32D+00  2.19D+00  3.00D+00  3.00D+00  2.54D+00
                    CP:  1.99D+00  1.54D+00  1.37D+00
 E= -3007.84045744040     Delta-E=       -0.000000023065 Rises=F Damp=F
 DIIS: error= 7.26D-07 at cycle  14 NSaved=  14.
 NSaved=14 IEnMin=14 EnMin= -3007.84045744040     IErMin=14 ErrMin= 7.26D-07
 ErrMax= 7.26D-07  0.00D+00 EMaxC= 1.00D-01 BMatC= 8.87D-10 BMatP= 6.15D-09
 IDIUse=1 WtCom= 1.00D+00 WtEn= 0.00D+00
 Coeff-Com: -0.694D-05 0.173D-04-0.830D-05-0.901D-04-0.929D-03-0.150D-02
 Coeff-Com:  0.262D-02 0.123D-01 0.913D-02-0.277D-01-0.585D-01-0.499D-02
 Coeff-Com:  0.247D+00 0.823D+00
 Coeff:     -0.694D-05 0.173D-04-0.830D-05-0.901D-04-0.929D-03-0.150D-02
 Coeff:      0.262D-02 0.123D-01 0.913D-02-0.277D-01-0.585D-01-0.499D-02
 Coeff:      0.247D+00 0.823D+00
 Gap=     0.161 Goal=   None    Shift=    0.000
 RMSDP=1.18D-07 MaxDP=8.24D-06 DE=-2.31D-08 OVMax= 7.47D-05

 Cycle  15  Pass 1  IDiag  1:
 RMSU=  5.05D-08    CP:  9.75D-01  1.55D+00  7.15D-01  7.77D-01  1.15D+00
                    CP:  1.33D+00  2.19D+00  3.00D+00  3.00D+00  2.57D+00
                    CP:  2.04D+00  1.62D+00  1.54D+00  1.11D+00
 E= -3007.84045744440     Delta-E=       -0.000000004002 Rises=F Damp=F
 DIIS: error= 5.74D-07 at cycle  15 NSaved=  15.
 NSaved=15 IEnMin=15 EnMin= -3007.84045744440     IErMin=15 ErrMin= 5.74D-07
 ErrMax= 5.74D-07  0.00D+00 EMaxC= 1.00D-01 BMatC= 3.15D-10 BMatP= 8.87D-10
 IDIUse=1 WtCom= 1.00D+00 WtEn= 0.00D+00
 Coeff-Com: -0.529D-04 0.105D-03 0.155D-03 0.237D-03-0.278D-05-0.191D-02
 Coeff-Com: -0.810D-02-0.599D-02 0.272D-01 0.278D-01-0.281D-01-0.102D+00
 Coeff-Com: -0.710D-01 0.388D+00 0.773D+00
 Coeff:     -0.529D-04 0.105D-03 0.155D-03 0.237D-03-0.278D-05-0.191D-02
 Coeff:     -0.810D-02-0.599D-02 0.272D-01 0.278D-01-0.281D-01-0.102D+00
 Coeff:     -0.710D-01 0.388D+00 0.773D+00
 Gap=     0.161 Goal=   None    Shift=    0.000
 RMSDP=5.18D-08 MaxDP=3.81D-06 DE=-4.00D-09 OVMax= 3.23D-05

 Cycle  16  Pass 1  IDiag  1:
 RMSU=  3.29D-08    CP:  9.75D-01  1.55D+00  7.15D-01  7.77D-01  1.15D+00
                    CP:  1.33D+00  2.19D+00  3.00D+00  3.00D+00  2.58D+00
                    CP:  2.06D+00  1.66D+00  1.59D+00  1.22D+00  1.42D+00
 E= -3007.84045744589     Delta-E=       -0.000000001490 Rises=F Damp=F
 DIIS: error= 2.55D-07 at cycle  16 NSaved=  16.
 NSaved=16 IEnMin=16 EnMin= -3007.84045744589     IErMin=16 ErrMin= 2.55D-07
 ErrMax= 2.55D-07  0.00D+00 EMaxC= 1.00D-01 BMatC= 7.76D-11 BMatP= 3.15D-10
 IDIUse=1 WtCom= 1.00D+00 WtEn= 0.00D+00
 Coeff-Com: -0.136D-04 0.258D-04 0.458D-04 0.874D-04 0.214D-03-0.118D-03
 Coeff-Com: -0.301D-02-0.468D-02 0.677D-02 0.126D-01 0.660D-02-0.289D-01
 Coeff-Com: -0.881D-01-0.924D-01 0.248D+00 0.942D+00
 Coeff:     -0.136D-04 0.258D-04 0.458D-04 0.874D-04 0.214D-03-0.118D-03
 Coeff:     -0.301D-02-0.468D-02 0.677D-02 0.126D-01 0.660D-02-0.289D-01
 Coeff:     -0.881D-01-0.924D-01 0.248D+00 0.942D+00
 Gap=     0.161 Goal=   None    Shift=    0.000
 RMSDP=3.82D-08 MaxDP=2.29D-06 DE=-1.49D-09 OVMax= 2.32D-05

 Cycle  17  Pass 1  IDiag  1:
 RMSU=  1.25D-08    CP:  9.75D-01  1.55D+00  7.15D-01  7.77D-01  1.15D+00
                    CP:  1.33D+00  2.19D+00  3.00D+00  3.00D+00  2.58D+00
                    CP:  2.07D+00  1.68D+00  1.62D+00  1.30D+00  1.90D+00
                    CP:  1.52D+00
 E= -3007.84045744627     Delta-E=       -0.000000000375 Rises=F Damp=F
 DIIS: error= 1.67D-07 at cycle  17 NSaved=  17.
 NSaved=17 IEnMin=17 EnMin= -3007.84045744627     IErMin=17 ErrMin= 1.67D-07
 ErrMax= 1.67D-07  0.00D+00 EMaxC= 1.00D-01 BMatC= 2.35D-11 BMatP= 7.76D-11
 IDIUse=1 WtCom= 1.00D+00 WtEn= 0.00D+00
 Coeff-Com:  0.152D-04-0.305D-04-0.444D-04-0.621D-04 0.633D-04 0.719D-03
 Coeff-Com:  0.210D-02 0.782D-03-0.798D-02-0.821D-02 0.141D-01 0.328D-01
 Coeff-Com:  0.296D-03-0.176D+00-0.192D+00 0.209D+00 0.112D+01
 Coeff:      0.152D-04-0.305D-04-0.444D-04-0.621D-04 0.633D-04 0.719D-03
 Coeff:      0.210D-02 0.782D-03-0.798D-02-0.821D-02 0.141D-01 0.328D-01
 Coeff:      0.296D-03-0.176D+00-0.192D+00 0.209D+00 0.112D+01
 Gap=     0.161 Goal=   None    Shift=    0.000
 RMSDP=3.08D-08 MaxDP=1.87D-06 DE=-3.75D-10 OVMax= 1.97D-05

 Cycle  18  Pass 1  IDiag  1:
 RMSU=  9.03D-09    CP:  9.75D-01  1.55D+00  7.15D-01  7.77D-01  1.15D+00
                    CP:  1.33D+00  2.19D+00  3.00D+00  3.00D+00  2.58D+00
                    CP:  2.07D+00  1.69D+00  1.63D+00  1.35D+00  2.31D+00
                    CP:  2.00D+00  1.67D+00
 E= -3007.84045744662     Delta-E=       -0.000000000355 Rises=F Damp=F
 DIIS: error= 8.22D-08 at cycle  18 NSaved=  18.
 NSaved=18 IEnMin=18 EnMin= -3007.84045744662     IErMin=18 ErrMin= 8.22D-08
 ErrMax= 8.22D-08  0.00D+00 EMaxC= 1.00D-01 BMatC= 8.42D-12 BMatP= 2.35D-11
 IDIUse=1 WtCom= 1.00D+00 WtEn= 0.00D+00
 Coeff-Com:  0.104D-04-0.203D-04-0.333D-04-0.528D-04-0.439D-04 0.346D-03
 Coeff-Com:  0.183D-02 0.186D-02-0.524D-02-0.777D-02 0.412D-02 0.233D-01
 Coeff-Com:  0.262D-01-0.507D-01-0.145D+00-0.218D+00 0.512D+00 0.858D+00
 Coeff:      0.104D-04-0.203D-04-0.333D-04-0.528D-04-0.439D-04 0.346D-03
 Coeff:      0.183D-02 0.186D-02-0.524D-02-0.777D-02 0.412D-02 0.233D-01
 Coeff:      0.262D-01-0.507D-01-0.145D+00-0.218D+00 0.512D+00 0.858D+00
 Gap=     0.161 Goal=   None    Shift=    0.000
 RMSDP=1.55D-08 MaxDP=8.59D-07 DE=-3.55D-10 OVMax= 1.07D-05

 Cycle  19  Pass 1  IDiag  1:
 RMSU=  3.84D-09    CP:  9.75D-01  1.55D+00  7.15D-01  7.77D-01  1.15D+00
                    CP:  1.33D+00  2.19D+00  3.00D+00  3.00D+00  2.58D+00
                    CP:  2.07D+00  1.69D+00  1.64D+00  1.38D+00  2.49D+00
                    CP:  2.26D+00  2.18D+00  1.34D+00
 E= -3007.84045744670     Delta-E=       -0.000000000076 Rises=F Damp=F
 DIIS: error= 3.15D-08 at cycle  19 NSaved=  19.
 NSaved=19 IEnMin=19 EnMin= -3007.84045744670     IErMin=19 ErrMin= 3.15D-08
 ErrMax= 3.15D-08  0.00D+00 EMaxC= 1.00D-01 BMatC= 2.51D-12 BMatP= 8.42D-12
 IDIUse=1 WtCom= 1.00D+00 WtEn= 0.00D+00
 Coeff-Com: -0.249D-06 0.681D-06-0.908D-06-0.277D-05-0.404D-04-0.710D-04
 Coeff-Com:  0.111D-03 0.540D-03 0.116D-03-0.932D-03-0.257D-02 0.752D-04
 Coeff-Com:  0.104D-01 0.285D-01-0.287D-03-0.172D+00-0.127D+00 0.384D+00
 Coeff-Com:  0.879D+00
 Coeff:     -0.249D-06 0.681D-06-0.908D-06-0.277D-05-0.404D-04-0.710D-04
 Coeff:      0.111D-03 0.540D-03 0.116D-03-0.932D-03-0.257D-02 0.752D-04
 Coeff:      0.104D-01 0.285D-01-0.287D-03-0.172D+00-0.127D+00 0.384D+00
 Coeff:      0.879D+00
 Gap=     0.161 Goal=   None    Shift=    0.000
 RMSDP=9.00D-09 MaxDP=4.91D-07 DE=-7.64D-11 OVMax= 5.46D-06

 SCF Done:  E(RwB97XD) =  -3007.84045745     A.U. after   19 cycles
            NFock= 19  Conv=0.90D-08     -V/T= 2.0109
 KE= 2.975547172632D+03 PE=-2.617621824254D+04 EE= 1.060094327866D+04
 Leave Link  502 at Thu May  5 04:15:36 2022, MaxMem= 10066329600 cpu:           11504.8 elap:             497.8
 (Enter /sw/apps/gaussian-16.0/g16/l801.exe)
 DoSCS=F DFT=T ScalE2(SS,OS)=  1.000000  1.000000
 ExpMin= 3.36D-02 ExpMax= 4.95D+03 ExpMxC= 7.45D+02 IAcc=3 IRadAn=         5 AccDes= 0.00D+00
 HarFok:  IExCor=  205 AccDes= 0.00D+00 IRadAn=         5 IDoV=-2 UseB2=F ITyADJ=14
 ICtDFT= 12500011 ScaDFX=  1.000000  1.000000  1.000000  1.000000
 GSVD:  LWork=       -5460 too small for GESVD, short by       25550 words or       25550 for optimal perf.
 Largest valence mixing into a core orbital is  1.06D-04
 Largest core mixing into a valence orbital is  5.46D-05
 Range of M.O.s used for correlation:    71  1298
 NBasis=  1298 NAE=   246 NBE=   246 NFC=    70 NFV=     0
 NROrb=   1228 NOA=   176 NOB=   176 NVA=  1052 NVB=  1052
 Leave Link  801 at Thu May  5 04:15:36 2022, MaxMem= 10066329600 cpu:               7.1 elap:               0.3
 (Enter /sw/apps/gaussian-16.0/g16/l914.exe)
 RHF ground state
 Two-electron integrals replicated using symmetry.
 MDV= 10066329600 DFT=T DoStab=F Mixed=T DoRPA=T DoScal=F NonHer=T
 Making orbital integer symmetry assigments:
 Orbital symmetries:
       Occupied  (A) (A) (A) (A) (A) (A) (A) (A) (A) (A) (A) (A)
                 (A) (A) (A) (A) (A) (A) (A) (A) (A) (A) (A) (A)
                 (A) (A) (A) (A) (A) (A) (A) (A) (A) (A) (A) (A)
                 (A) (A) (A) (A) (A) (A) (A) (A) (A) (A) (A) (A)
                 (A) (A) (A) (A) (A) (A) (A) (A) (A) (A) (A) (A)
                 (A) (A) (A) (A) (A) (A) (A) (A) (A) (A) (A) (A)
                 (A) (A) (A) (A) (A) (A) (A) (A) (A) (A) (A) (A)
                 (A) (A) (A) (A) (A) (A) (A) (A) (A) (A) (A) (A)
                 (A) (A) (A) (A) (A) (A) (A) (A) (A) (A) (A) (A)
                 (A) (A) (A) (A) (A) (A) (A) (A) (A) (A) (A) (A)
                 (A) (A) (A) (A) (A) (A) (A) (A) (A) (A) (A) (A)
                 (A) (A) (A) (A) (A) (A) (A) (A) (A) (A) (A) (A)
                 (A) (A) (A) (A) (A) (A) (A) (A) (A) (A) (A) (A)
                 (A) (A) (A) (A) (A) (A) (A) (A) (A) (A) (A) (A)
                 (A) (A) (A) (A) (A) (A) (A) (A) (A) (A) (A) (A)
                 (A) (A) (A) (A) (A) (A) (A) (A) (A) (A) (A) (A)
                 (A) (A) (A) (A) (A) (A) (A) (A) (A) (A) (A) (A)
                 (A) (A) (A) (A) (A) (A) (A) (A) (A) (A) (A) (A)
                 (A) (A) (A) (A) (A) (A) (A) (A) (A) (A) (A) (A)
                 (A) (A) (A) (A) (A) (A) (A) (A) (A) (A) (A) (A)
                 (A) (A) (A) (A) (A) (A)
       Virtual   (A) (A) (A) (A) (A) (A) (A) (A) (A) (A) (A) (A)
                 (A) (A) (A) (A) (A) (A) (A) (A) (A) (A) (A) (A)
                 (A) (A) (A) (A) (A) (A) (A) (A) (A) (A) (A) (A)
                 (A) (A) (A) (A) (A) (A) (A) (A) (A) (A) (A) (A)
                 (A) (A) (A) (A) (A) (A) (A) (A) (A) (A) (A) (A)
                 (A) (A) (A) (A) (A) (A) (A) (A) (A) (A) (A) (A)
                 (A) (A) (A) (A) (A) (A) (A) (A) (A) (A) (A) (A)
                 (A) (A) (A) (A) (A) (A) (A) (A) (A) (A) (A) (A)
                 (A) (A) (A) (A) (A) (A) (A) (A) (A) (A) (A) (A)
                 (A) (A) (A) (A) (A) (A) (A) (A) (A) (A) (A) (A)
                 (A) (A) (A) (A) (A) (A) (A) (A) (A) (A) (A) (A)
                 (A) (A) (A) (A) (A) (A) (A) (A) (A) (A) (A) (A)
                 (A) (A) (A) (A) (A) (A) (A) (A) (A) (A) (A) (A)
                 (A) (A) (A) (A) (A) (A) (A) (A) (A) (A) (A) (A)
                 (A) (A) (A) (A) (A) (A) (A) (A) (A) (A) (A) (A)
                 (A) (A) (A) (A) (A) (A) (A) (A) (A) (A) (A) (A)
                 (A) (A) (A) (A) (A) (A) (A) (A) (A) (A) (A) (A)
                 (A) (A) (A) (A) (A) (A) (A) (A) (A) (A) (A) (A)
                 (A) (A) (A) (A) (A) (A) (A) (A) (A) (A) (A) (A)
                 (A) (A) (A) (A) (A) (A) (A) (A) (A) (A) (A) (A)
                 (A) (A) (A) (A) (A) (A) (A) (A) (A) (A) (A) (A)
                 (A) (A) (A) (A) (A) (A) (A) (A) (A) (A) (A) (A)
                 (A) (A) (A) (A) (A) (A) (A) (A) (A) (A) (A) (A)
                 (A) (A) (A) (A) (A) (A) (A) (A) (A) (A) (A) (A)
                 (A) (A) (A) (A) (A) (A) (A) (A) (A) (A) (A) (A)
                 (A) (A) (A) (A) (A) (A) (A) (A) (A) (A) (A) (A)
                 (A) (A) (A) (A) (A) (A) (A) (A) (A) (A) (A) (A)
                 (A) (A) (A) (A) (A) (A) (A) (A) (A) (A) (A) (A)
                 (A) (A) (A) (A) (A) (A) (A) (A) (A) (A) (A) (A)
                 (A) (A) (A) (A) (A) (A) (A) (A) (A) (A) (A) (A)
                 (A) (A) (A) (A) (A) (A) (A) (A) (A) (A) (A) (A)
                 (A) (A) (A) (A) (A) (A) (A) (A) (A) (A) (A) (A)
                 (A) (A) (A) (A) (A) (A) (A) (A) (A) (A) (A) (A)
                 (A) (A) (A) (A) (A) (A) (A) (A) (A) (A) (A) (A)
                 (A) (A) (A) (A) (A) (A) (A) (A) (A) (A) (A) (A)
                 (A) (A) (A) (A) (A) (A) (A) (A) (A) (A) (A) (A)
                 (A) (A) (A) (A) (A) (A) (A) (A) (A) (A) (A) (A)
                 (A) (A) (A) (A) (A) (A) (A) (A) (A) (A) (A) (A)
                 (A) (A) (A) (A) (A) (A) (A) (A) (A) (A) (A) (A)
                 (A) (A) (A) (A) (A) (A) (A) (A) (A) (A) (A) (A)
                 (A) (A) (A) (A) (A) (A) (A) (A) (A) (A) (A) (A)
                 (A) (A) (A) (A) (A) (A) (A) (A) (A) (A) (A) (A)
                 (A) (A) (A) (A) (A) (A) (A) (A) (A) (A) (A) (A)
                 (A) (A) (A) (A) (A) (A) (A) (A) (A) (A) (A) (A)
                 (A) (A) (A) (A) (A) (A) (A) (A) (A) (A) (A) (A)
                 (A) (A) (A) (A) (A) (A) (A) (A) (A) (A) (A) (A)
                 (A) (A) (A) (A) (A) (A) (A) (A) (A) (A) (A) (A)
                 (A) (A) (A) (A) (A) (A) (A) (A) (A) (A) (A) (A)
                 (A) (A) (A) (A) (A) (A) (A) (A) (A) (A) (A) (A)
                 (A) (A) (A) (A) (A) (A) (A) (A) (A) (A) (A) (A)
                 (A) (A) (A) (A) (A) (A) (A) (A) (A) (A) (A) (A)
                 (A) (A) (A) (A) (A) (A) (A) (A) (A) (A) (A) (A)
                 (A) (A) (A) (A) (A) (A) (A) (A) (A) (A) (A) (A)
                 (A) (A) (A) (A) (A) (A) (A) (A) (A) (A) (A) (A)
                 (A) (A) (A) (A) (A) (A) (A) (A) (A) (A) (A) (A)
                 (A) (A) (A) (A) (A) (A) (A) (A) (A) (A) (A) (A)
                 (A) (A) (A) (A) (A) (A) (A) (A) (A) (A) (A) (A)
                 (A) (A) (A) (A) (A) (A) (A) (A) (A) (A) (A) (A)
                 (A) (A) (A) (A) (A) (A) (A) (A) (A) (A) (A) (A)
                 (A) (A) (A) (A) (A) (A) (A) (A) (A) (A) (A) (A)
                 (A) (A) (A) (A) (A) (A) (A) (A) (A) (A) (A) (A)
                 (A) (A) (A) (A) (A) (A) (A) (A) (A) (A) (A) (A)
                 (A) (A) (A) (A) (A) (A) (A) (A) (A) (A) (A) (A)
                 (A) (A) (A) (A) (A) (A) (A) (A) (A) (A) (A) (A)
                 (A) (A) (A) (A) (A) (A) (A) (A) (A) (A) (A) (A)
                 (A) (A) (A) (A) (A) (A) (A) (A) (A) (A) (A) (A)
                 (A) (A) (A) (A) (A) (A) (A) (A) (A) (A) (A) (A)
                 (A) (A) (A) (A) (A) (A) (A) (A) (A) (A) (A) (A)
                 (A) (A) (A) (A) (A) (A) (A) (A) (A) (A) (A) (A)
                 (A) (A) (A) (A) (A) (A) (A) (A) (A) (A) (A) (A)
                 (A) (A) (A) (A) (A) (A) (A) (A) (A) (A) (A) (A)
                 (A) (A) (A) (A) (A) (A) (A) (A) (A) (A) (A) (A)
                 (A) (A) (A) (A) (A) (A) (A) (A) (A) (A) (A) (A)
                 (A) (A) (A) (A) (A) (A) (A) (A) (A) (A) (A) (A)
                 (A) (A) (A) (A) (A) (A) (A) (A) (A) (A) (A) (A)
                 (A) (A) (A) (A) (A) (A) (A) (A) (A) (A) (A) (A)
                 (A) (A) (A) (A) (A) (A) (A) (A) (A) (A) (A) (A)
                 (A) (A) (A) (A) (A) (A) (A) (A) (A) (A) (A) (A)
                 (A) (A) (A) (A) (A) (A) (A) (A) (A) (A) (A) (A)
                 (A) (A) (A) (A) (A) (A) (A) (A) (A) (A) (A) (A)
                 (A) (A) (A) (A) (A) (A) (A) (A) (A) (A) (A) (A)
                 (A) (A) (A) (A) (A) (A) (A) (A) (A) (A) (A) (A)
                 (A) (A) (A) (A) (A) (A) (A) (A) (A) (A) (A) (A)
                 (A) (A) (A) (A) (A) (A) (A) (A) (A) (A) (A) (A)
                 (A) (A) (A) (A) (A) (A) (A) (A) (A) (A) (A) (A)
                 (A) (A) (A) (A) (A) (A) (A) (A) (A) (A) (A) (A)
                 (A) (A) (A) (A) (A) (A) (A) (A) (A) (A) (A) (A)
                 (A) (A) (A) (A) (A) (A) (A) (A)
    20 initial guesses have been made.
 Convergence on wavefunction:    0.001000000000000
 Davidson Disk Diagonalization:  ConvIn= 1.00D-03 SkipCon=T Conv= 1.00D-03.
 Max sub-space:  2000 roots to seek:    20 dimension of matrix:       370304
 Iteration     1 Dimension    20 NMult     0 NNew     20
 CISAX will form    20 AO SS matrices at one time.
 NMat=    20 NSing=    20 JSym2X= 0.
 FoFJK:  IHMeth= 1 ICntrl=       0 DoSepK=T KAlg= 0 I1Cent=           0 FoldK=F
 IRaf=         1 NMat=      40 IRICut=       1 DoRegI=T DoRafI=F ISym2E= 0 IDoP0=3 IntGTp=3.
 FoFCou: FMM=T IPFlag=           0 FMFlag=      100000 FMFlg1=        2001
         NFxFlg=           0 DoJE=F BraDBF=F KetDBF=F FulRan=T
         wScrn=  0.000000 ICntrl=       500 IOpCl=  0 I1Cent=           0 NGrid=           0
         NMat0=   20 NMatS0=     20 NMatT0=    0 NMatD0=   20 NMtDS0=    0 NMtDT0=    0
 Symmetry not used in FoFCou.
 FMM levels:  10  Number of levels for PrismC:   9
 New state      3 was old state      5
 New state      4 was old state      3
 New state      5 was old state     12
 Excitation Energies [eV] at current iteration:
 Root      1 :     2.244268559976217
 Root      2 :     2.652347091370232
 Root      3 :     4.064002546721107
 Root      4 :     4.144196742258832
 Root      5 :     4.254714642204769
 Root      6 :     4.310291185589273
 Root      7 :     4.433866861487826
 Root      8 :     4.541968794302071
 Root      9 :     4.575256805519498
 Root     10 :     4.718179771407585
 Root     11 :     5.026808557340455
 Root     12 :     5.153919728671308
 Root     13 :     5.214970539196180
 Root     14 :     5.268121470462380
 Root     15 :     5.378275881405400
 Root     16 :     5.443355826517162
 Root     17 :     5.514712672753494
 Root     18 :     6.460191980178327
 Root     19 :     6.802551827814045
 Root     20 :     7.023755160879972
 Iteration     2 Dimension    30 NMult    20 NNew     10
 CISAX will form    10 AO SS matrices at one time.
 NMat=    10 NSing=    10 JSym2X= 0.
 Root      1 not converged, maximum delta is    0.073208001504584
 Root      2 not converged, maximum delta is    0.053305344557389
 New state      3 was old state      4
 Root      3 not converged, maximum delta is    0.234779667624239
 New state      4 was old state      3
 Root      4 not converged, maximum delta is    0.145777149709399
 Root      5 not converged, maximum delta is    0.103745582277485
 Excitation Energies [eV] at current iteration:
 Root      1 :     1.751294655756967   Change is   -0.492973904219250
 Root      2 :     2.247629948349899   Change is   -0.404717143020333
 Root      3 :     3.561666365073382   Change is   -0.582530377185451
 Root      4 :     3.706736907220919   Change is   -0.357265639500188
 Root      5 :     4.130702396210515   Change is   -0.124012245994254
 Iteration     3 Dimension    40 NMult    30 NNew     10
 CISAX will form    10 AO SS matrices at one time.
 NMat=    10 NSing=    10 JSym2X= 0.
 Root      1 not converged, maximum delta is    0.018711781793639
 Root      2 not converged, maximum delta is    0.008987032561975
 Root      3 not converged, maximum delta is    0.091160281098499
 Root      4 not converged, maximum delta is    0.070464947107684
 Root      5 not converged, maximum delta is    0.401067490129225
 Excitation Energies [eV] at current iteration:
 Root      1 :     1.713934468691056   Change is   -0.037360187065911
 Root      2 :     2.228566189605710   Change is   -0.019063758744190
 Root      3 :     3.493476088489997   Change is   -0.068190276583385
 Root      4 :     3.683441871304850   Change is   -0.023295035916069
 Root      5 :     4.028772232666765   Change is   -0.101930163543750
 Iteration     4 Dimension    50 NMult    40 NNew     10
 CISAX will form    10 AO SS matrices at one time.
 NMat=    10 NSing=    10 JSym2X= 0.
 Root      1 not converged, maximum delta is    0.003801482397804
 Root      2 not converged, maximum delta is    0.004194304630791
 Root      3 not converged, maximum delta is    0.022029314838908
 Root      4 not converged, maximum delta is    0.021561256508129
 Root      5 not converged, maximum delta is    0.227412538957368
 Excitation Energies [eV] at current iteration:
 Root      1 :     1.710114903195853   Change is   -0.003819565495203
 Root      2 :     2.225942620554445   Change is   -0.002623569051264
 Root      3 :     3.482245364178925   Change is   -0.011230724311072
 Root      4 :     3.677522045902497   Change is   -0.005919825402353
 Root      5 :     3.889494207786884   Change is   -0.139278024879881
 Iteration     5 Dimension    60 NMult    50 NNew     10
 CISAX will form    10 AO SS matrices at one time.
 NMat=    10 NSing=    10 JSym2X= 0.
 Root      1 has converged.
 Root      2 has converged.
 Root      3 not converged, maximum delta is    0.007003935056247
 New state      4 was old state      5
 Root      4 not converged, maximum delta is    0.282224822288341
 New state      5 was old state      4
 Root      5 not converged, maximum delta is    0.115455083242959
 Excitation Energies [eV] at current iteration:
 Root      1 :     1.709767198963190   Change is   -0.000347704232663
 Root      2 :     2.225748158430934   Change is   -0.000194462123510
 Root      3 :     3.480829635146687   Change is   -0.001415729032238
 Root      4 :     3.637137656102394   Change is   -0.252356551684490
 Root      5 :     3.678180874581167   Change is    0.000658828678670
 Iteration     6 Dimension    66 NMult    60 NNew      6
 CISAX will form     6 AO SS matrices at one time.
 NMat=     6 NSing=     6 JSym2X= 0.
 Root      1 has converged.
 Root      2 has converged.
 Root      3 not converged, maximum delta is    0.004344095944998
 Root      4 not converged, maximum delta is    0.074509805525194
 Root      5 not converged, maximum delta is    0.074582166847353
 Excitation Energies [eV] at current iteration:
 Root      1 :     1.709766342711085   Change is   -0.000000856252104
 Root      2 :     2.225745969081363   Change is   -0.000002189349572
 Root      3 :     3.480625663436599   Change is   -0.000203971710088
 Root      4 :     3.538816129593791   Change is   -0.098321526508602
 Root      5 :     3.676783999489011   Change is   -0.001396875092156
 Iteration     7 Dimension    72 NMult    66 NNew      6
 CISAX will form     6 AO SS matrices at one time.
 NMat=     6 NSing=     6 JSym2X= 0.
 Root      1 has converged.
 Root      2 has converged.
 Root      3 has converged.
 Root      4 not converged, maximum delta is    0.031663890517795
 Root      5 not converged, maximum delta is    0.014389017133304
 Excitation Energies [eV] at current iteration:
 Root      1 :     1.709766004393299   Change is   -0.000000338317786
 Root      2 :     2.225745585116410   Change is   -0.000000383964953
 Root      3 :     3.480599046837351   Change is   -0.000026616599248
 Root      4 :     3.520898788871758   Change is   -0.017917340722033
 Root      5 :     3.676406565541194   Change is   -0.000377433947817
 Iteration     8 Dimension    76 NMult    72 NNew      4
 CISAX will form     4 AO SS matrices at one time.
 NMat=     4 NSing=     4 JSym2X= 0.
 Root      1 has converged.
 Root      2 has converged.
 Root      3 has converged.
 Root      4 not converged, maximum delta is    0.010216510917271
 Root      5 not converged, maximum delta is    0.010154797900223
 Excitation Energies [eV] at current iteration:
 Root      1 :     1.709765978622187   Change is   -0.000000025771112
 Root      2 :     2.225744962246275   Change is   -0.000000622870135
 Root      3 :     3.480598048972745   Change is   -0.000000997864606
 Root      4 :     3.518342625459660   Change is   -0.002556163412098
 Root      5 :     3.676218111742198   Change is   -0.000188453798996
 Iteration     9 Dimension    80 NMult    76 NNew      4
 CISAX will form     4 AO SS matrices at one time.
 NMat=     4 NSing=     4 JSym2X= 0.
 Root      1 has converged.
 Root      2 has converged.
 Root      3 has converged.
 Root      4 not converged, maximum delta is    0.001869584218479
 Root      5 not converged, maximum delta is    0.002369952992198
 Excitation Energies [eV] at current iteration:
 Root      1 :     1.709765673095440   Change is   -0.000000305526748
 Root      2 :     2.225744195109095   Change is   -0.000000767137180
 Root      3 :     3.480597654899817   Change is   -0.000000394072927
 Root      4 :     3.517993332605038   Change is   -0.000349292854622
 Root      5 :     3.676178608196867   Change is   -0.000039503545331
 Iteration    10 Dimension    84 NMult    80 NNew      4
 CISAX will form     4 AO SS matrices at one time.
 NMat=     4 NSing=     4 JSym2X= 0.
 Root      1 has converged.
 Root      2 has converged.
 Root      3 has converged.
 Root      4 has converged.
 Root      5 has converged.
 Excitation Energies [eV] at current iteration:
 Root      1 :     1.709765230194917   Change is   -0.000000442900522
 Root      2 :     2.225743994867750   Change is   -0.000000200241345
 Root      3 :     3.480597578778502   Change is   -0.000000076121316
 Root      4 :     3.517951130547342   Change is   -0.000042202057695
 Root      5 :     3.676171464929632   Change is   -0.000007143267235
 Convergence achieved on expansion vectors.
 ***********************************************************************
 Excited states from <AA,BB:AA,BB> singles matrix:
 ***********************************************************************
 
 1PDM for each excited state written to RWF  633
 Ground to excited state transition densities written to RWF  633
 Ground to excited state transition electric dipole moments (Au):
       state          X           Y           Z        Dip. S.      Osc.
         1         0.5824     -2.3984      1.6368      8.7704      0.3674
         2        -0.6771     -0.7590     -0.5524      1.3396      0.0730
         3        -1.7929     -1.6806     -1.4417      8.1172      0.6922
         4        -0.0336     -0.0007      0.0018      0.0011      0.0001
         5        -0.3387     -0.6357     -0.1520      0.5419      0.0488
 Ground to excited state transition velocity dipole moments (Au):
       state          X           Y           Z        Dip. S.      Osc.
         1        -0.0351      0.1462     -0.0994      0.0325      0.3447
         2         0.0519      0.0587      0.0415      0.0079      0.0641
         3         0.2196      0.2112      0.1748      0.1234      0.6432
         4         0.0005     -0.0010      0.0024      0.0000      0.0000
         5         0.0433      0.0839      0.0195      0.0093      0.0459
 Ground to excited state transition magnetic dipole moments (Au):
       state          X           Y           Z
         1        -0.1654      1.0293      1.6093
         2         0.6487     -0.6262      0.0494
         3        -0.2110     -1.8272      2.4390
         4        -0.1233      0.4475     -0.6113
         5         0.5751     -0.5693      0.4700
 Ground to excited state transition velocity quadrupole moments (Au):
       state          XX          YY          ZZ          XY          XZ          YZ
         1        -0.7116      0.2901      0.0371      1.3947     -0.9895     -0.1503
         2         0.9151      0.1204      0.0088      0.6128      0.4396      0.0032
         3         3.5905      0.0859      0.0568      2.4454      1.7950      0.5299
         4         0.0277     -0.0252     -0.0298      0.0114      0.0348      0.0255
         5         0.5705      0.4038      0.0639      0.9133      0.1688     -0.0190
 <0|del|b> * <b|rxdel|0> + <0|del|b> * <b|delr+rdel|0>
 Rotatory Strengths (R) in cgs (10**-40 erg-esu-cm/Gauss)
       state          XX          YY          ZZ    R(velocity)    E-M Angle
         1       -20.0317    -57.7291     35.7563    -14.0015       90.62
         2      -151.7478     45.1600     97.4287     -3.0530       90.76
         3       244.8274    190.5764   -468.6121    -11.0694       90.32
         4        -5.1318     -4.2895     -1.5342     -3.6518      166.27
         5       -91.4331     40.4068    -20.5645    -23.8636       98.72
 1/2[<0|r|b>*<b|rxdel|0> + (<0|rxdel|b>*<b|r|0>)*]
 Rotatory Strengths (R) in cgs (10**-40 erg-esu-cm/Gauss)
       state          XX          YY          ZZ     R(length)
[...]
 Alpha virt. eigenvalues --    1.24529   1.25481   1.25886   1.26190   1.26651
 Alpha virt. eigenvalues --    1.26907   1.27387   1.27674   1.27831   1.27938
 Alpha virt. eigenvalues --    1.28877   1.29182   1.29503   1.29803   1.30737
 Alpha virt. eigenvalues --    1.31548   1.31990   1.32185   1.32902   1.32946
 Alpha virt. eigenvalues --    1.33166   1.33932   1.34594   1.35065   1.35333
 Alpha virt. eigenvalues --    1.35630   1.36194   1.36715   1.37228   1.37369
 Alpha virt. eigenvalues --    1.38535   1.38676   1.38784   1.39279   1.39487
 Alpha virt. eigenvalues --    1.40055   1.40507   1.40627   1.41061   1.41305
 Alpha virt. eigenvalues --    1.41876   1.42714   1.43030   1.43372   1.43976
 Alpha virt. eigenvalues --    1.44503   1.44614   1.44802   1.45078   1.45383
 Alpha virt. eigenvalues --    1.45575   1.46039   1.46272   1.47028   1.47444
 Alpha virt. eigenvalues --    1.47746   1.48698   1.49103   1.49389   1.49513
 Alpha virt. eigenvalues --    1.49621   1.50301   1.50657   1.50778   1.51343
 Alpha virt. eigenvalues --    1.51539   1.51891   1.52478   1.53357   1.53398
 Alpha virt. eigenvalues --    1.53662   1.54193   1.54573   1.55305   1.55739
 Alpha virt. eigenvalues --    1.56014   1.57316   1.57352   1.57858   1.58518
 Alpha virt. eigenvalues --    1.58803   1.59004   1.59132   1.59433   1.59885
 Alpha virt. eigenvalues --    1.60016   1.60627   1.60774   1.60865   1.61035
 Alpha virt. eigenvalues --    1.61608   1.61637   1.61948   1.62210   1.62395
 Alpha virt. eigenvalues --    1.62746   1.62871   1.63005   1.63184   1.63446
 Alpha virt. eigenvalues --    1.64179   1.64345   1.64643   1.65014   1.65159
 Alpha virt. eigenvalues --    1.65653   1.65885   1.66299   1.66706   1.66833
 Alpha virt. eigenvalues --    1.67063   1.68009   1.68468   1.68671   1.68907
 Alpha virt. eigenvalues --    1.69115   1.69635   1.69948   1.70471   1.70756
 Alpha virt. eigenvalues --    1.71093   1.71289   1.71782   1.72216   1.72866
 Alpha virt. eigenvalues --    1.73031   1.73193   1.73850   1.74474   1.74615
 Alpha virt. eigenvalues --    1.75420   1.75589   1.75978   1.76304   1.76682
 Alpha virt. eigenvalues --    1.77276   1.77766   1.78152   1.78355   1.78648
 Alpha virt. eigenvalues --    1.78894   1.79256   1.79787   1.80065   1.80143
 Alpha virt. eigenvalues --    1.80391   1.80613   1.80646   1.81274   1.81493
 Alpha virt. eigenvalues --    1.81633   1.82042   1.82364   1.82582   1.82806
 Alpha virt. eigenvalues --    1.83091   1.83257   1.83350   1.84023   1.84071
 Alpha virt. eigenvalues --    1.84235   1.84403   1.84625   1.84680   1.84990
 Alpha virt. eigenvalues --    1.85238   1.85554   1.85620   1.85800   1.86052
 Alpha virt. eigenvalues --    1.86338   1.86559   1.86992   1.87188   1.87414
 Alpha virt. eigenvalues --    1.87534   1.87572   1.87758   1.87851   1.88180
 Alpha virt. eigenvalues --    1.88455   1.88625   1.88685   1.88975   1.89048
 Alpha virt. eigenvalues --    1.89394   1.89529   1.89709   1.89814   1.90005
 Alpha virt. eigenvalues --    1.90259   1.90531   1.90732   1.90835   1.91272
 Alpha virt. eigenvalues --    1.91336   1.91421   1.91588   1.91930   1.92181
 Alpha virt. eigenvalues --    1.92315   1.92569   1.92671   1.92880   1.93072
 Alpha virt. eigenvalues --    1.93427   1.93539   1.93962   1.94124   1.94411
 Alpha virt. eigenvalues --    1.94568   1.95065   1.95233   1.95381   1.95777
 Alpha virt. eigenvalues --    1.96156   1.96253   1.96324   1.96468   1.97096
 Alpha virt. eigenvalues --    1.97181   1.97519   1.97667   1.97895   1.98012
 Alpha virt. eigenvalues --    1.98243   1.98497   1.98601   1.98860   1.99371
 Alpha virt. eigenvalues --    1.99705   2.00028   2.00342   2.00548   2.00821
 Alpha virt. eigenvalues --    2.01058   2.01113   2.01778   2.01973   2.02063
 Alpha virt. eigenvalues --    2.02263   2.02344   2.02652   2.02846   2.02988
 Alpha virt. eigenvalues --    2.03229   2.03714   2.03993   2.04182   2.04210
 Alpha virt. eigenvalues --    2.04703   2.04860   2.05059   2.05443   2.05807
 Alpha virt. eigenvalues --    2.05963   2.06307   2.06541   2.07198   2.07783
 Alpha virt. eigenvalues --    2.07978   2.08209   2.08636   2.08877   2.08897
 Alpha virt. eigenvalues --    2.09035   2.09357   2.10631   2.10767   2.10838
 Alpha virt. eigenvalues --    2.10993   2.11470   2.12023   2.12030   2.13052
 Alpha virt. eigenvalues --    2.13164   2.13256   2.13550   2.13684   2.13909
 Alpha virt. eigenvalues --    2.14284   2.14298   2.14604   2.14680   2.15000
 Alpha virt. eigenvalues --    2.15410   2.15645   2.16119   2.16640   2.16846
 Alpha virt. eigenvalues --    2.17085   2.17311   2.17647   2.17836   2.18102
 Alpha virt. eigenvalues --    2.18254   2.18471   2.18618   2.19204   2.19559
 Alpha virt. eigenvalues --    2.19832   2.20247   2.20308   2.20569   2.20822
 Alpha virt. eigenvalues --    2.21101   2.21230   2.21507   2.22227   2.22940
 Alpha virt. eigenvalues --    2.23345   2.23696   2.24027   2.24238   2.24327
 Alpha virt. eigenvalues --    2.24485   2.24510   2.25090   2.25478   2.25720
 Alpha virt. eigenvalues --    2.26464   2.26685   2.27096   2.27641   2.28073
 Alpha virt. eigenvalues --    2.28489   2.28540   2.29017   2.29393   2.29581
 Alpha virt. eigenvalues --    2.30678   2.31224   2.31244   2.31514   2.32072
 Alpha virt. eigenvalues --    2.32318   2.32600   2.32890   2.33638   2.34099
 Alpha virt. eigenvalues --    2.34183   2.34361   2.34455   2.35125   2.35374
 Alpha virt. eigenvalues --    2.35510   2.36697   2.36787   2.37522   2.38033
 Alpha virt. eigenvalues --    2.38149   2.38771   2.39070   2.39879   2.41193
 Alpha virt. eigenvalues --    2.41345   2.41435   2.41578   2.42195   2.42316
 Alpha virt. eigenvalues --    2.42783   2.43006   2.43088   2.43652   2.43913
 Alpha virt. eigenvalues --    2.44115   2.44323   2.45250   2.45390   2.45461
 Alpha virt. eigenvalues --    2.45751   2.46352   2.46431   2.46614   2.47382
 Alpha virt. eigenvalues --    2.47795   2.47978   2.48424   2.48956   2.49201
 Alpha virt. eigenvalues --    2.49745   2.50190   2.50232   2.50570   2.50852
 Alpha virt. eigenvalues --    2.51424   2.51513   2.52081   2.52758   2.52985
 Alpha virt. eigenvalues --    2.53339   2.53954   2.54312   2.54463   2.54967
 Alpha virt. eigenvalues --    2.55142   2.55477   2.56359   2.56469   2.57020
 Alpha virt. eigenvalues --    2.57374   2.57787   2.58046   2.58891   2.59051
 Alpha virt. eigenvalues --    2.59157   2.59710   2.60514   2.60642   2.61655
 Alpha virt. eigenvalues --    2.62016   2.62162   2.62213   2.62468   2.62785
 Alpha virt. eigenvalues --    2.63018   2.63615   2.63882   2.64087   2.64163
 Alpha virt. eigenvalues --    2.65556   2.65760   2.66146   2.66389   2.66581
 Alpha virt. eigenvalues --    2.66884   2.67066   2.68287   2.68788   2.69385
 Alpha virt. eigenvalues --    2.69434   2.70284   2.70540   2.71110   2.71273
 Alpha virt. eigenvalues --    2.71363   2.71879   2.72589   2.73002   2.73212
 Alpha virt. eigenvalues --    2.73424   2.73698   2.74120   2.74671   2.75247
 Alpha virt. eigenvalues --    2.75483   2.76332   2.77359   2.77569   2.77810
 Alpha virt. eigenvalues --    2.78216   2.78990   2.79170   2.79302   2.79508
 Alpha virt. eigenvalues --    2.79596   2.79745   2.79933   2.80416   2.80918
 Alpha virt. eigenvalues --    2.81177   2.81419   2.81865   2.82536   2.82788
 Alpha virt. eigenvalues --    2.83441   2.83893   2.83959   2.84110   2.84352
 Alpha virt. eigenvalues --    2.85278   2.86749   2.86962   2.87444   2.87864
 Alpha virt. eigenvalues --    2.88577   2.89130   2.89498   2.90307   2.90638
 Alpha virt. eigenvalues --    2.91084   2.91694   2.92590   2.93017   2.93368
 Alpha virt. eigenvalues --    2.93723   2.94164   2.94609   2.96149   2.96383
 Alpha virt. eigenvalues --    2.96513   2.96869   2.97312   2.98097   2.98384
 Alpha virt. eigenvalues --    2.98921   2.99288   2.99549   2.99825   2.99906
 Alpha virt. eigenvalues --    2.99930   3.00063   3.00775   3.01344   3.01674
 Alpha virt. eigenvalues --    3.01742   3.01937   3.02152   3.02449   3.02805
 Alpha virt. eigenvalues --    3.02964   3.03541   3.03945   3.04215   3.04379
 Alpha virt. eigenvalues --    3.04838   3.04877   3.04938   3.05024   3.05538
 Alpha virt. eigenvalues --    3.05791   3.06069   3.06231   3.06423   3.06953
 Alpha virt. eigenvalues --    3.07174   3.07535   3.07965   3.08151   3.08512
 Alpha virt. eigenvalues --    3.08837   3.09456   3.09589   3.09894   3.10068
 Alpha virt. eigenvalues --    3.10120   3.10200   3.10627   3.10965   3.11343
 Alpha virt. eigenvalues --    3.11950   3.12311   3.12405   3.12475   3.13235
 Alpha virt. eigenvalues --    3.14085   3.14164   3.14689   3.16216   3.17235
 Alpha virt. eigenvalues --    3.17348   3.17655   3.18781   3.20315   3.20500
 Alpha virt. eigenvalues --    3.21064   3.21192   3.22008   3.23003   3.23345
 Alpha virt. eigenvalues --    3.23699   3.24617   3.25067   3.26070   3.26494
 Alpha virt. eigenvalues --    3.26905   3.27251   3.28025   3.29438   3.29947
 Alpha virt. eigenvalues --    3.35974   3.37225   3.45926   3.46514   3.47194
 Alpha virt. eigenvalues --    3.48947   3.53643   3.55036   3.56210   3.58763
 Alpha virt. eigenvalues --    3.63231   3.65783   3.66583   3.72415   3.73365
 Alpha virt. eigenvalues --    3.75027   3.76590
          Condensed to atoms (all electrons):
 Mulliken charges:
               1
     1  Mg   0.953824
     2  C   -0.055336
     3  C   -0.057005
     4  C   -0.083608
     5  C   -0.070170
     6  N   -0.398777
     7  C   -0.012872
     8  C   -0.036571
     9  C   -0.118397
    10  C    0.086509
    11  C    0.036981
    12  C    0.018021
    13  C    0.077017
    14  C    0.186798
    15  O   -0.260438
    16  O   -0.381987
    17  N   -0.412832
    18  C    0.084812
    19  C   -0.150647
    20  C    0.018460
    21  C    0.159598
    22  C    0.085193
    23  C   -0.026343
    24  O   -0.229204
    25  C   -0.020538
    26  N   -0.303595
    27  C    0.034887
    28  C   -0.120291
    29  C   -0.020840
    30  C    0.019471
    31  C    0.005946
    32  C    0.000457
    33  C   -0.072190
    34  N   -0.385697
    35  C    0.058267
    36  C   -0.231367
    37  C   -0.053025
    38  C    0.158056
    39  C    0.087917
    40  C    0.151891
    41  O   -0.197936
    42  C   -0.057189
    43  C    0.281134
    44  O   -0.246395
    45  O   -0.387679
    46  C    0.129742
    47  C    0.283863
    48  C   -0.163807
    49  C   -0.175188
    50  C    0.026879
    51  C    0.038976
    52  C    0.000599
    53  C    0.029536
    54  C   -0.198199
    55  C    0.020141
    56  C   -0.028237
    57  C   -0.009519
    58  C    0.019523
    59  C   -0.205024
    60  C    0.002987
    61  C    0.035740
    62  C   -0.050022
    63  C   -0.034924
    64  C   -0.197002
    65  C    0.013489
    66  C    0.000562
    67  H    0.010620
    68  H   -0.025366
    69  H   -0.008933
    70  H    0.029506
    71  H    0.053979
    72  H    0.028262
    73  H    0.020609
    74  H    0.059710
    75  H    0.036105
    76  H    0.036680
    77  H    0.060301
    78  H    0.061262
    79  H    0.059078
    80  H    0.009143
    81  H    0.069107
    82  H    0.056528
    83  H    0.051342
    84  H    0.056832
    85  H    0.048800
    86  H    0.038502
    87  H    0.063874
    88  H    0.023272
    89  H    0.031711
    90  H    0.051067
    91  H    0.034279
    92  H    0.032576
    93  H    0.034852
    94  H    0.036423
    95  H    0.047235
    96  H    0.058947
    97  H    0.043499
    98  H    0.076579
    99  H    0.066502
   100  H    0.061606
   101  H    0.053326
   102  H    0.032035
   103  H    0.052790
   104  H    0.018872
   105  H    0.034786
   106  H    0.008007
   107  H    0.055074
   108  H    0.018313
   109  H    0.021719
   110  H    0.015448
   111  H    0.018549
   112  H    0.011191
   113  H    0.006531
   114  H    0.030989
   115  H    0.031139
   116  H    0.025161
   117  H    0.028399
   118  H    0.009303
   119  H   -0.011159
   120  H    0.024635
   121  H    0.018864
   122  H    0.015686
   123  H    0.020984
   124  H    0.020237
   125  H    0.029701
   126  H    0.028887
   127  H    0.017744
   128  H    0.020373
   129  H    0.019522
   130  H    0.015047
   131  H    0.020921
   132  H    0.014418
   133  H    0.015791
   134  H    0.028348
   135  H    0.034448
   136  H    0.016296
   137  H    0.032915
   138  H    0.031320
   139  H    0.017537
   140  H    0.026939
 Sum of Mulliken charges =  -0.00000
 Mulliken charges with hydrogens summed into heavy atoms:
               1
     1  Mg   0.953824
     2  C   -0.055336
     3  C   -0.046385
     4  C   -0.108974
     5  C   -0.079102
     6  N   -0.398777
     7  C   -0.012872
     8  C   -0.007065
     9  C   -0.064418
    10  C    0.086509
    11  C    0.145562
    12  C    0.090806
    13  C    0.198581
    14  C    0.186798
    15  O   -0.260438
    16  O   -0.381987
    17  N   -0.412832
    18  C    0.084812
    19  C   -0.150647
    20  C    0.018460
    21  C    0.159598
    22  C    0.222521
    23  C   -0.026343
    24  O   -0.229204
    25  C    0.144164
    26  N   -0.303595
    27  C    0.034887
    28  C   -0.071491
    29  C    0.017662
    30  C    0.019471
    31  C    0.124803
    32  C    0.085802
    33  C    0.031661
    34  N   -0.385697
    35  C    0.058267
    36  C   -0.231367
    37  C   -0.053025
    38  C    0.158056
    39  C    0.237598
    40  C    0.151891
    41  O   -0.197936
    42  C    0.019390
    43  C    0.281134
    44  O   -0.246395
    45  O   -0.387679
    46  C    0.311176
    47  C    0.368688
    48  C   -0.144935
    49  C   -0.175188
    50  C    0.124746
    51  C    0.079008
    52  C    0.034596
    53  C    0.047258
    54  C   -0.167210
    55  C    0.104841
    56  C   -0.030093
    57  C    0.033980
    58  C    0.056193
    59  C   -0.184788
    60  C    0.079319
    61  C    0.075635
    62  C   -0.014054
    63  C   -0.004715
    64  C   -0.168654
    65  C    0.097149
    66  C    0.076358
 Electronic spatial extent (au):  <R**2>=         116911.5525
 Charge=             -0.0000 electrons
 Dipole moment (field-independent basis, Debye):
    X=              0.6964    Y=              2.9737    Z=              1.4003  Tot=              3.3599
 Quadrupole moment (field-independent basis, Debye-Ang):
   XX=           -362.4963   YY=           -433.7187   ZZ=           -398.3614
   XY=             19.2498   XZ=             10.8793   YZ=             41.3406
 Traceless Quadrupole moment (field-independent basis, Debye-Ang):
   XX=             35.6959   YY=            -35.5266   ZZ=             -0.1693
   XY=             19.2498   XZ=             10.8793   YZ=             41.3406
 Octapole moment (field-independent basis, Debye-Ang**2):
  XXX=            276.0443  YYY=            -24.3608  ZZZ=             28.5095  XYY=            -94.0466
  XXY=            102.3875  XXZ=             84.2074  XZZ=             70.5523  YZZ=            -65.7795
  YYZ=             11.0825  XYZ=            220.0999
 Hexadecapole moment (field-independent basis, Debye-Ang**3):
 XXXX=        -124513.2795 YYYY=         -24120.1871 ZZZZ=         -11870.6407 XXXY=           1120.4205
 XXXZ=           1256.0904 YYYX=             76.2696 YYYZ=           1851.7076 ZZZX=            420.6305
 ZZZY=            456.6995 XXYY=         -24751.6253 XXZZ=         -22774.2763 YYZZ=          -6148.2723
 XXYZ=           1221.6563 YYXZ=            137.8374 ZZXY=           -243.9838
 N-N= 9.591887333811D+03 E-N=-2.617621824435D+04  KE= 2.975547172632D+03
 Leave Link  601 at Thu May  5 04:40:52 2022, MaxMem= 10066329600 cpu:              17.2 elap:               0.8
 (Enter /sw/apps/gaussian-16.0/g16/l9999.exe)
 1\1\GINC-BP1-COMPUTE216\SP\RwB97XD TD-FC\def2SVP\C55H74Mg1N4O6\OF15641
 \05-May-2022\0\\#p wB97XD/Def2SVP td=(nstates=5)\\step_551_chromophore
 _5 TDDFT with wB97XD functional\\0,1\Mg,0,23.661,-6.625,46.472\C,0,26.
 163,-4.46,45.363\C,0,21.336,-5.079,44.257\C,0,21.684,-9.343,46.558\C,0
 ,26.269,-8.491,48.017\N,0,23.709,-4.883,45.094\C,0,24.928,-4.166,44.77
 5\C,0,24.59,-3.19,43.646\C,0,23.044,-3.252,43.402\C,0,22.644,-4.552,44
 .286\C,0,22.195,-2.031,43.904\C,0,25.438,-3.411,42.396\C,0,25.526,-2.0
 82,41.576\C,0,24.45,-1.975,40.472\O,0,23.266,-1.781,40.654\O,0,24.974,
 -2.101,39.163\N,0,21.673,-7.064,45.698\C,0,20.871,-6.28,44.895\C,0,19.
 616,-6.944,44.793\C,0,19.659,-8.148,45.354\C,0,21.061,-8.23,45.9\C,0,1
 8.465,-6.362,43.975\C,0,18.589,-9.085,45.364\O,0,17.429,-8.79,45.133\C
 ,0,18.842,-10.549,45.72\N,0,23.971,-8.655,47.229\C,0,23.002,-9.559,47.
 146\C,0,23.338,-10.921,47.73\C,0,24.881,-10.673,48.15\C,0,25.042,-9.17
 7,47.814\C,0,22.329,-11.256,48.887\C,0,26.021,-11.508,47.42\C,0,27.097
 ,-12.009,48.353\N,0,25.755,-6.384,46.853\C,0,26.667,-7.157,47.521\C,0,
 27.935,-6.502,47.521\C,0,27.751,-5.443,46.736\C,0,26.45,-5.418,46.28\C
 ,0,29.198,-7.058,48.147\C,0,28.509,-4.365,46.023\O,0,29.677,-4.007,46.
 028\C,0,27.483,-3.714,45.091\C,0,27.488,-2.192,45.281\O,0,27.529,-1.43
 4,44.333\O,0,27.21,-1.746,46.579\C,0,26.736,-0.344,46.626\C,0,24.016,-
 1.719,38.118\C,0,23.444,-3.007,37.51\C,0,23.994,-3.914,36.656\C,0,25.3
 49,-3.731,36.09\C,0,23.146,-5.112,36.202\C,0,22.609,-5.095,34.824\C,0,
 22.311,-6.476,34.181\C,0,22.995,-6.646,32.797\C,0,22.674,-7.974,32.038
 \C,0,24.582,-6.766,33.1\C,0,25.473,-6.302,31.897\C,0,25.325,-4.793,31.
 49\C,0,24.498,-4.585,30.109\C,0,23.265,-3.696,30.406\C,0,25.387,-3.962
 ,28.999\C,0,25.939,-5.012,28.032\C,0,25.675,-4.572,26.496\C,0,24.65,-5
 .513,25.759\C,0,25.182,-5.774,24.371\C,0,23.255,-4.816,25.781\H,0,20.5
 62,-4.678,43.598\H,0,21.137,-10.284,46.47\H,0,27.068,-9.017,48.544\H,0
 ,24.913,-2.262,44.117\H,0,22.706,-3.545,42.408\H,0,22.77,-1.389,44.571
 \H,0,21.401,-2.378,44.566\H,0,21.664,-1.564,43.074\H,0,24.779,-4.086,4
 1.851\H,0,26.324,-4.005,42.619\H,0,26.521,-1.97,41.147\H,0,25.269,-1.2
 45,42.225\H,0,18.424,-6.856,43.004\H,0,18.799,-5.337,43.813\H,0,17.46,
 -6.239,44.38\H,0,19.119,-10.577,46.774\H,0,19.7,-11.013,45.234\H,0,17.
 959,-11.117,45.426\H,0,23.241,-11.749,47.028\H,0,24.859,-10.696,49.239
 \H,0,21.387,-10.709,48.938\H,0,22.921,-11.181,49.799\H,0,22.107,-12.32
 3,48.899\H,0,26.602,-10.957,46.68\H,0,25.679,-12.418,46.926\H,0,28.083
 ,-11.643,48.067\H,0,27.221,-13.09,48.291\H,0,26.887,-11.687,49.373\H,0
 ,29.073,-7.042,49.229\H,0,30.017,-6.415,47.823\H,0,29.354,-8.081,47.80
 6\H,0,27.794,-3.944,44.072\H,0,26.247,0.089,45.754\H,0,27.617,0.237,46
 .898\H,0,26.025,-0.345,47.453\H,0,24.627,-1.201,37.379\H,0,23.222,-1.0
 68,38.484\H,0,22.402,-3.17,37.786\H,0,25.518,-2.77,35.604\H,0,25.506,-
 4.458,35.292\H,0,26.268,-3.837,36.667\H,0,22.316,-5.135,36.907\H,0,23.
 682,-6.055,36.304\H,0,23.265,-4.426,34.268\H,0,21.683,-4.524,34.888\H,
 0,21.245,-6.685,34.098\H,0,22.564,-7.359,34.768\H,0,22.686,-5.778,32.2
 16\H,0,23.618,-8.456,31.784\H,0,22.181,-7.792,31.083\H,0,22.044,-8.625
 ,32.643\H,0,24.877,-7.776,33.385\H,0,24.911,-6.307,34.032\H,0,25.324,-
 6.927,31.018\H,0,26.455,-6.366,32.365\H,0,26.346,-4.492,31.253\H,0,24.
 951,-4.235,32.348\H,0,24.077,-5.512,29.721\H,0,23.122,-3.49,31.466\H,0
 ,22.388,-4.157,29.951\H,0,23.395,-2.725,29.929\H,0,26.299,-3.565,29.44
 6\H,0,24.853,-3.204,28.426\H,0,25.506,-6.009,28.109\H,0,27.005,-5.098,
 28.242\H,0,26.7,-4.522,26.126\H,0,25.438,-3.51,26.438\H,0,24.581,-6.47
 9,26.258\H,0,25.791,-4.924,24.062\H,0,24.341,-5.882,23.685\H,0,25.72,-
 6.721,24.342\H,0,22.854,-4.598,24.791\H,0,23.228,-3.86,26.303\H,0,22.5
 71,-5.381,26.414\\Version=ES64L-G16RevA.03\State=1-A\HF=-3007.8404574\
 RMSD=9.005e-09\PG=C01 [X(C55H74Mg1N4O6)]\\@


 ONLY A FOOL KNOWS EVERYTHING.

               -- THE CHEMIST ANALYST, SEPTEMBER 1946
 Job cpu time:       0 days 13 hours 18 minutes  2.3 seconds.
 Elapsed time:       0 days  0 hours 33 minutes 45.9 seconds.
 File lengths (MBytes):  RWF=   8929 Int=      0 D2E=      0 Chk=    390 Scr=      1
 Normal termination of Gaussian 16 at Thu May  5 04:40:53 2022.
