 Entering Gaussian System, Link 0=g16
 Initial command:
 /sw/apps/gaussian-16.0/g16/l1.exe "/tmp/Gau-175330.inp" -scrdir="/tmp/"
 Entering Link 1 = /sw/apps/gaussian-16.0/g16/l1.exe PID=    175331.
  
 Copyright (c) 1988,1990,1992,1993,1995,1998,2003,2009,2016,
            Gaussian, Inc.  All Rights Reserved.
  
 This is part of the Gaussian(R) 16 program.  It is based on
 the Gaussian(R) 09 system (copyright 2009, Gaussian, Inc.),
 the Gaussian(R) 03 system (copyright 2003, Gaussian, Inc.),
 the Gaussian(R) 98 system (copyright 1998, Gaussian, Inc.),
 the Gaussian(R) 94 system (copyright 1995, Gaussian, Inc.),
 the Gaussian 92(TM) system (copyright 1992, Gaussian, Inc.),
 the Gaussian 90(TM) system (copyright 1990, Gaussian, Inc.),
 the Gaussian 88(TM) system (copyright 1988, Gaussian, Inc.),
 the Gaussian 86(TM) system (copyright 1986, Carnegie Mellon
 University), and the Gaussian 82(TM) system (copyright 1983,
 Carnegie Mellon University). Gaussian is a federally registered
 trademark of Gaussian, Inc.
  
 This software contains proprietary and confidential information,
 including trade secrets, belonging to Gaussian, Inc.
  
 This software is provided under written license and may be
 used, copied, transmitted, or stored only in accord with that
 written license.
  
 The following legend is applicable only to US Government
 contracts under FAR:
  
                    RESTRICTED RIGHTS LEGEND
  
 Use, reproduction and disclosure by the US Government is
 subject to restrictions as set forth in subparagraphs (a)
 and (c) of the Commercial Computer Software - Restricted
 Rights clause in FAR 52.227-19.
  
 Gaussian, Inc.
 340 Quinnipiac St., Bldg. 40, Wallingford CT 06492
  
  
 ---------------------------------------------------------------
 Warning -- This program may not be used in any manner that
 competes with the business of Gaussian, Inc. or will provide
 assistance to any competitor of Gaussian, Inc.  The licensee
 of this program is prohibited from giving any competitor of
 Gaussian, Inc. access to this program.  By using this program,
 the user acknowledges that Gaussian, Inc. is engaged in the
 business of creating and licensing software in the field of
 computational chemistry and represents and warrants to the
 licensee that it is not a competitor of Gaussian, Inc. and that
 it will not use this program in any manner prohibited above.
 ---------------------------------------------------------------
  

 Cite this work as:
 Gaussian 16, Revision A.03,
 M. J. Frisch, G. W. Trucks, H. B. Schlegel, G. E. Scuseria, 
 M. A. Robb, J. R. Cheeseman, G. Scalmani, V. Barone, 
 G. A. Petersson, H. Nakatsuji, X. Li, M. Caricato, A. V. Marenich, 
 J. Bloino, B. G. Janesko, R. Gomperts, B. Mennucci, H. P. Hratchian, 
 J. V. Ortiz, A. F. Izmaylov, J. L. Sonnenberg, D. Williams-Young, 
 F. Ding, F. Lipparini, F. Egidi, J. Goings, B. Peng, A. Petrone, 
 T. Henderson, D. Ranasinghe, V. G. Zakrzewski, J. Gao, N. Rega, 
 G. Zheng, W. Liang, M. Hada, M. Ehara, K. Toyota, R. Fukuda, 
 J. Hasegawa, M. Ishida, T. Nakajima, Y. Honda, O. Kitao, H. Nakai, 
 T. Vreven, K. Throssell, J. A. Montgomery, Jr., J. E. Peralta, 
 F. Ogliaro, M. J. Bearpark, J. J. Heyd, E. N. Brothers, K. N. Kudin, 
 V. N. Staroverov, T. A. Keith, R. Kobayashi, J. Normand, 
 K. Raghavachari, A. P. Rendell, J. C. Burant, S. S. Iyengar, 
 J. Tomasi, M. Cossi, J. M. Millam, M. Klene, C. Adamo, R. Cammi, 
 J. W. Ochterski, R. L. Martin, K. Morokuma, O. Farkas, 
 J. B. Foresman, and D. J. Fox, Gaussian, Inc., Wallingford CT, 2016.
 
 ******************************************
 Gaussian 16:  ES64L-G16RevA.03 25-Dec-2016
                28-Apr-2022 
 ******************************************
 %nproc=24
 Will use up to   24 processors via shared memory.
 %mem=75GB
 ------------------------------
 #p blyp/Def2SVP td=(nstates=5)
 ------------------------------
 1/38=1,172=1/1;
 2/12=2,17=6,18=5,40=1/2;
 3/5=43,7=101,11=9,25=1,30=1,74=402/1,2,3,8;
 4//1;
 5/5=2,38=5/2;
 8/6=1,10=1,108=5/1;
 9/41=5,42=1,70=2/14;
 6/7=2,8=2,9=2,10=2/1;
 99/5=1,9=1/99;
 Leave Link    1 at Thu Apr 28 02:20:32 2022, MaxMem= 10066329600 cpu:               1.2 elap:               0.1
 (Enter /sw/apps/gaussian-16.0/g16/l101.exe)
 ---------------------------------------------------
 step_1401_chromophore_14 TDDFT with blyp functional
 ---------------------------------------------------
 Symbolic Z-matrix:
 Charge =  0 Multiplicity = 1
 Mg                    46.164    44.93     43.815 
 C                     42.736    44.708    43.175 
 C                     46.454    41.543    43.142 
 C                     49.517    45.292    43.521 
 C                     45.897    48.489    43.747 
 N                     44.763    43.389    43.087 
 C                     43.373    43.468    42.945 
 C                     42.796    42.114    42.757 
 C                     43.976    41.154    43.042 
 C                     45.136    42.073    43.194 
 C                     43.716    40.312    44.335 
 C                     41.955    41.888    41.376 
 C                     42.319    42.615    40.069 
 C                     42.488    41.802    38.847 
 O                     42.105    40.659    38.623 
 O                     43.157    42.577    37.895 
 N                     47.789    43.552    43.402 
 C                     47.691    42.199    43.103 
 C                     48.947    41.593    42.962 
 C                     49.88     42.628    43.152 
 C                     49.113    43.888    43.388 
 C                     49.184    40.126    42.657 
 C                     51.332    42.486    42.984 
 O                     51.84     41.462    42.63 
 C                     52.186    43.738    43.167 
 N                     47.552    46.601    43.931 
 C                     48.859    46.452    43.741 
 C                     49.668    47.769    43.703 
 C                     48.513    48.825    43.802 
 C                     47.231    47.946    43.733 
 C                     50.835    47.811    44.723 
 C                     48.432    50.007    42.73 
 C                     48.347    51.428    43.295 
 N                     44.673    46.298    43.756 
 C                     44.703    47.759    43.727 
 C                     43.284    48.209    43.85 
 C                     42.582    47.031    43.635 
 C                     43.434    45.924    43.55 
 C                     42.843    49.652    43.856 
 C                     41.163    46.596    43.433 
 O                     40.19     47.28     43.302 
 C                     41.225    45.038    43.18 
 C                     40.425    44.265    44.239 
 O                     39.45     43.587    44.063 
 O                     41.213    44.337    45.36 
 C                     40.959    43.278    46.348 
 C                     43.524    41.859    36.782 
 C                     44.36     42.747    35.96 
 C                     45.162    42.352    34.917 
 C                     45.38     40.909    34.516 
 C                     45.92     43.361    34.139 
 C                     45.804    43.234    32.634 
 C                     45.118    44.45     31.987 
 C                     45.415    44.473    30.42 
 C                     45.857    45.91     30.052 
 C                     44.147    44.049    29.54 
 C                     44.272    42.615    28.972 
 C                     43.645    42.29     27.6 
 C                     44.109    43.172    26.395 
 C                     43.047    44.194    25.819 
 C                     44.721    42.366    25.164 
 C                     46.057    42.906    24.589 
 C                     46.106    42.535    23.126 
 C                     46.477    43.716    22.199 
 C                     45.679    43.612    20.839 
 C                     48.005    43.844    22.052 
 H                     46.55     40.467    42.985 
 H                     50.565    45.52     43.313 
 H                     45.783    49.574    43.781 
 H                     42.134    42.164    43.622 
 H                     44.238    40.492    42.217 
 H                     44.139    39.317    44.47 
 H                     42.633    40.288    44.456 
 H                     44.145    40.853    45.179 
 H                     40.879    41.912    41.544 
 H                     41.914    40.811    41.214 
 H                     43.302    43.083    40.111 
 H                     41.597    43.406    39.865 
 H                     50.194    39.725    42.573 
 H                     48.51     39.582    41.996 
 H                     49.136    39.786    43.692 
 H                     52.069    44.176    44.158 
 H                     52.026    44.375    42.297 
 H                     53.209    43.373    43.078 
 H                     50.186    47.827    42.746 
 H                     48.561    49.273    44.794 
 H                     50.616    48.698    45.318 
 H                     51.721    47.79     44.088 
 H                     50.862    46.877    45.286 
 H                     47.583    49.796    42.08 
 H                     49.405    49.896    42.251 
 H                     49.187    52.007    42.909 
 H                     48.418    51.374    44.381 
 H                     47.398    51.898    43.035 
 H                     41.775    49.698    43.646 
 H                     43.39     50.317    43.187 
 H                     42.994    49.991    44.881 
 H                     40.795    44.764    42.217 
 H                     40.097    42.637    46.161 
 H                     40.81     43.675    47.352 
 H                     41.808    42.619    46.53 
 H                     42.557    41.778    36.285 
 H                     44.059    40.913    36.859 
 H                     44.31     43.807    36.209 
 H                     46.357    40.699    34.08 
 H                     44.759    40.607    33.672 
 H                     45.287    40.287    35.406 
 H                     46.98     43.285    34.379 
 H                     45.525    44.31     34.502 
 H                     45.228    42.338    32.402 
 H                     46.805    43.123    32.216 
 H                     45.373    45.396    32.463 
 H                     44.071    44.28     32.242 
 H                     46.206    43.779    30.136 
 H                     46.451    45.868    29.139 
 H                     46.304    46.41     30.912 
 H                     45.019    46.592    29.91 
 H                     44.089    44.71     28.675 
 H                     43.231    44.095    30.13 
 H                     43.736    42.005    29.699 
 H                     45.313    42.311    28.864 
 H                     42.586    42.445    27.809 
 H                     43.731    41.227    27.373 
 H                     44.999    43.659    26.793 
 H                     43.322    45.237    25.976 
 H                     42.179    44.029    26.456 
 H                     42.792    44.118    24.762 
 H                     43.894    42.198    24.474 
 H                     44.825    41.391    25.639 
 H                     46.937    42.443    25.035 
 H                     46.047    43.963    24.854 
 H                     45.167    42.119    22.76 
 H                     46.806    41.748    22.847 
 H                     46.111    44.603    22.716 
 H                     45.397    42.604    20.537 
 H                     46.299    43.823    19.968 
 H                     44.826    44.289    20.8 
 H                     48.536    43.228    22.777 
 H                     48.371    44.868    22.132 
 H                     48.191    43.392    21.078 
 
 ITRead=  0  0  0  0  0  0  0  0  0  0  0  0  0  0  0  0  0  0  0  0
 ITRead=  0  0  0  0  0  0  0  0  0  0  0  0  0  0  0  0  0  0  0  0
 ITRead=  0  0  0  0  0  0  0  0  0  0  0  0  0  0  0  0  0  0  0  0
 ITRead=  0  0  0  0  0  0  0  0  0  0  0  0  0  0  0  0  0  0  0  0
 ITRead=  0  0  0  0  0  0  0  0  0  0  0  0  0  0  0  0  0  0  0  0
 ITRead=  0  0  0  0  0  0  0  0  0  0  0  0  0  0  0  0  0  0  0  0
 ITRead=  0  0  0  0  0  0  0  0  0  0  0  0  0  0  0  0  0  0  0  0
 MicOpt= -1 -1 -1 -1 -1 -1 -1 -1 -1 -1 -1 -1 -1 -1 -1 -1 -1 -1 -1 -1
 MicOpt= -1 -1 -1 -1 -1 -1 -1 -1 -1 -1 -1 -1 -1 -1 -1 -1 -1 -1 -1 -1
 MicOpt= -1 -1 -1 -1 -1 -1 -1 -1 -1 -1 -1 -1 -1 -1 -1 -1 -1 -1 -1 -1
 MicOpt= -1 -1 -1 -1 -1 -1 -1 -1 -1 -1 -1 -1 -1 -1 -1 -1 -1 -1 -1 -1
 MicOpt= -1 -1 -1 -1 -1 -1 -1 -1 -1 -1 -1 -1 -1 -1 -1 -1 -1 -1 -1 -1
 MicOpt= -1 -1 -1 -1 -1 -1 -1 -1 -1 -1 -1 -1 -1 -1 -1 -1 -1 -1 -1 -1
 MicOpt= -1 -1 -1 -1 -1 -1 -1 -1 -1 -1 -1 -1 -1 -1 -1 -1 -1 -1 -1 -1
 NAtoms=    140 NQM=      140 NQMF=       0 NMMI=      0 NMMIF=      0
                NMic=       0 NMicF=      0.
                    Isotopes and Nuclear Properties:
 (Nuclear quadrupole moments (NQMom) in fm**2, nuclear magnetic moments (NMagM)
  in nuclear magnetons)

  Atom         1           2           3           4           5           6           7           8           9          10
 IAtWgt=          24          12          12          12          12          14          12          12          12          12
 AtmWgt=  23.9850450  12.0000000  12.0000000  12.0000000  12.0000000  14.0030740  12.0000000  12.0000000  12.0000000  12.0000000
 NucSpn=           0           0           0           0           0           2           0           0           0           0
 AtZEff=  -0.0000000  -0.0000000  -0.0000000  -0.0000000  -0.0000000  -0.0000000  -0.0000000  -0.0000000  -0.0000000  -0.0000000
 NQMom=    0.0000000   0.0000000   0.0000000   0.0000000   0.0000000   2.0440000   0.0000000   0.0000000   0.0000000   0.0000000
 NMagM=    0.0000000   0.0000000   0.0000000   0.0000000   0.0000000   0.4037610   0.0000000   0.0000000   0.0000000   0.0000000
 AtZNuc=  12.0000000   6.0000000   6.0000000   6.0000000   6.0000000   7.0000000   6.0000000   6.0000000   6.0000000   6.0000000

  Atom        11          12          13          14          15          16          17          18          19          20
 IAtWgt=          12          12          12          12          16          16          14          12          12          12
 AtmWgt=  12.0000000  12.0000000  12.0000000  12.0000000  15.9949146  15.9949146  14.0030740  12.0000000  12.0000000  12.0000000
 NucSpn=           0           0           0           0           0           0           2           0           0           0
 AtZEff=  -0.0000000  -0.0000000  -0.0000000  -0.0000000  -0.0000000  -0.0000000  -0.0000000  -0.0000000  -0.0000000  -0.0000000
 NQMom=    0.0000000   0.0000000   0.0000000   0.0000000   0.0000000   0.0000000   2.0440000   0.0000000   0.0000000   0.0000000
 NMagM=    0.0000000   0.0000000   0.0000000   0.0000000   0.0000000   0.0000000   0.4037610   0.0000000   0.0000000   0.0000000
 AtZNuc=   6.0000000   6.0000000   6.0000000   6.0000000   8.0000000   8.0000000   7.0000000   6.0000000   6.0000000   6.0000000

  Atom        21          22          23          24          25          26          27          28          29          30
 IAtWgt=          12          12          12          16          12          14          12          12          12          12
 AtmWgt=  12.0000000  12.0000000  12.0000000  15.9949146  12.0000000  14.0030740  12.0000000  12.0000000  12.0000000  12.0000000
 NucSpn=           0           0           0           0           0           2           0           0           0           0
 AtZEff=  -0.0000000  -0.0000000  -0.0000000  -0.0000000  -0.0000000  -0.0000000  -0.0000000  -0.0000000  -0.0000000  -0.0000000
 NQMom=    0.0000000   0.0000000   0.0000000   0.0000000   0.0000000   2.0440000   0.0000000   0.0000000   0.0000000   0.0000000
 NMagM=    0.0000000   0.0000000   0.0000000   0.0000000   0.0000000   0.4037610   0.0000000   0.0000000   0.0000000   0.0000000
 AtZNuc=   6.0000000   6.0000000   6.0000000   8.0000000   6.0000000   7.0000000   6.0000000   6.0000000   6.0000000   6.0000000

  Atom        31          32          33          34          35          36          37          38          39          40
 IAtWgt=          12          12          12          14          12          12          12          12          12          12
 AtmWgt=  12.0000000  12.0000000  12.0000000  14.0030740  12.0000000  12.0000000  12.0000000  12.0000000  12.0000000  12.0000000
 NucSpn=           0           0           0           2           0           0           0           0           0           0
 AtZEff=  -0.0000000  -0.0000000  -0.0000000  -0.0000000  -0.0000000  -0.0000000  -0.0000000  -0.0000000  -0.0000000  -0.0000000
 NQMom=    0.0000000   0.0000000   0.0000000   2.0440000   0.0000000   0.0000000   0.0000000   0.0000000   0.0000000   0.0000000
 NMagM=    0.0000000   0.0000000   0.0000000   0.4037610   0.0000000   0.0000000   0.0000000   0.0000000   0.0000000   0.0000000
 AtZNuc=   6.0000000   6.0000000   6.0000000   7.0000000   6.0000000   6.0000000   6.0000000   6.0000000   6.0000000   6.0000000

  Atom        41          42          43          44          45          46          47          48          49          50
 IAtWgt=          16          12          12          16          16          12          12          12          12          12
 AtmWgt=  15.9949146  12.0000000  12.0000000  15.9949146  15.9949146  12.0000000  12.0000000  12.0000000  12.0000000  12.0000000
 NucSpn=           0           0           0           0           0           0           0           0           0           0
 AtZEff=  -0.0000000  -0.0000000  -0.0000000  -0.0000000  -0.0000000  -0.0000000  -0.0000000  -0.0000000  -0.0000000  -0.0000000
 NQMom=    0.0000000   0.0000000   0.0000000   0.0000000   0.0000000   0.0000000   0.0000000   0.0000000   0.0000000   0.0000000
 NMagM=    0.0000000   0.0000000   0.0000000   0.0000000   0.0000000   0.0000000   0.0000000   0.0000000   0.0000000   0.0000000
 AtZNuc=   8.0000000   6.0000000   6.0000000   8.0000000   8.0000000   6.0000000   6.0000000   6.0000000   6.0000000   6.0000000

  Atom        51          52          53          54          55          56          57          58          59          60
 IAtWgt=          12          12          12          12          12          12          12          12          12          12
 AtmWgt=  12.0000000  12.0000000  12.0000000  12.0000000  12.0000000  12.0000000  12.0000000  12.0000000  12.0000000  12.0000000
 NucSpn=           0           0           0           0           0           0           0           0           0           0
 AtZEff=  -0.0000000  -0.0000000  -0.0000000  -0.0000000  -0.0000000  -0.0000000  -0.0000000  -0.0000000  -0.0000000  -0.0000000
 NQMom=    0.0000000   0.0000000   0.0000000   0.0000000   0.0000000   0.0000000   0.0000000   0.0000000   0.0000000   0.0000000
 NMagM=    0.0000000   0.0000000   0.0000000   0.0000000   0.0000000   0.0000000   0.0000000   0.0000000   0.0000000   0.0000000
 AtZNuc=   6.0000000   6.0000000   6.0000000   6.0000000   6.0000000   6.0000000   6.0000000   6.0000000   6.0000000   6.0000000

  Atom        61          62          63          64          65          66          67          68          69          70
 IAtWgt=          12          12          12          12          12          12           1           1           1           1
 AtmWgt=  12.0000000  12.0000000  12.0000000  12.0000000  12.0000000  12.0000000   1.0078250   1.0078250   1.0078250   1.0078250
 NucSpn=           0           0           0           0           0           0           1           1           1           1
 AtZEff=  -0.0000000  -0.0000000  -0.0000000  -0.0000000  -0.0000000  -0.0000000  -0.0000000  -0.0000000  -0.0000000  -0.0000000
 NQMom=    0.0000000   0.0000000   0.0000000   0.0000000   0.0000000   0.0000000   0.0000000   0.0000000   0.0000000   0.0000000
 NMagM=    0.0000000   0.0000000   0.0000000   0.0000000   0.0000000   0.0000000   2.7928460   2.7928460   2.7928460   2.7928460
 AtZNuc=   6.0000000   6.0000000   6.0000000   6.0000000   6.0000000   6.0000000   1.0000000   1.0000000   1.0000000   1.0000000

  Atom        71          72          73          74          75          76          77          78          79          80
 IAtWgt=           1           1           1           1           1           1           1           1           1           1
 AtmWgt=   1.0078250   1.0078250   1.0078250   1.0078250   1.0078250   1.0078250   1.0078250   1.0078250   1.0078250   1.0078250
 NucSpn=           1           1           1           1           1           1           1           1           1           1
 AtZEff=  -0.0000000  -0.0000000  -0.0000000  -0.0000000  -0.0000000  -0.0000000  -0.0000000  -0.0000000  -0.0000000  -0.0000000
 NQMom=    0.0000000   0.0000000   0.0000000   0.0000000   0.0000000   0.0000000   0.0000000   0.0000000   0.0000000   0.0000000
 NMagM=    2.7928460   2.7928460   2.7928460   2.7928460   2.7928460   2.7928460   2.7928460   2.7928460   2.7928460   2.7928460
 AtZNuc=   1.0000000   1.0000000   1.0000000   1.0000000   1.0000000   1.0000000   1.0000000   1.0000000   1.0000000   1.0000000

  Atom        81          82          83          84          85          86          87          88          89          90
 IAtWgt=           1           1           1           1           1           1           1           1           1           1
 AtmWgt=   1.0078250   1.0078250   1.0078250   1.0078250   1.0078250   1.0078250   1.0078250   1.0078250   1.0078250   1.0078250
 NucSpn=           1           1           1           1           1           1           1           1           1           1
 AtZEff=  -0.0000000  -0.0000000  -0.0000000  -0.0000000  -0.0000000  -0.0000000  -0.0000000  -0.0000000  -0.0000000  -0.0000000
 NQMom=    0.0000000   0.0000000   0.0000000   0.0000000   0.0000000   0.0000000   0.0000000   0.0000000   0.0000000   0.0000000
 NMagM=    2.7928460   2.7928460   2.7928460   2.7928460   2.7928460   2.7928460   2.7928460   2.7928460   2.7928460   2.7928460
 AtZNuc=   1.0000000   1.0000000   1.0000000   1.0000000   1.0000000   1.0000000   1.0000000   1.0000000   1.0000000   1.0000000

  Atom        91          92          93          94          95          96          97          98          99         100
 IAtWgt=           1           1           1           1           1           1           1           1           1           1
 AtmWgt=   1.0078250   1.0078250   1.0078250   1.0078250   1.0078250   1.0078250   1.0078250   1.0078250   1.0078250   1.0078250
 NucSpn=           1           1           1           1           1           1           1           1           1           1
 AtZEff=  -0.0000000  -0.0000000  -0.0000000  -0.0000000  -0.0000000  -0.0000000  -0.0000000  -0.0000000  -0.0000000  -0.0000000
 NQMom=    0.0000000   0.0000000   0.0000000   0.0000000   0.0000000   0.0000000   0.0000000   0.0000000   0.0000000   0.0000000
 NMagM=    2.7928460   2.7928460   2.7928460   2.7928460   2.7928460   2.7928460   2.7928460   2.7928460   2.7928460   2.7928460
 AtZNuc=   1.0000000   1.0000000   1.0000000   1.0000000   1.0000000   1.0000000   1.0000000   1.0000000   1.0000000   1.0000000

  Atom       101         102         103         104         105         106         107         108         109         110
 IAtWgt=           1           1           1           1           1           1           1           1           1           1
 AtmWgt=   1.0078250   1.0078250   1.0078250   1.0078250   1.0078250   1.0078250   1.0078250   1.0078250   1.0078250   1.0078250
 NucSpn=           1           1           1           1           1           1           1           1           1           1
 AtZEff=  -0.0000000  -0.0000000  -0.0000000  -0.0000000  -0.0000000  -0.0000000  -0.0000000  -0.0000000  -0.0000000  -0.0000000
 NQMom=    0.0000000   0.0000000   0.0000000   0.0000000   0.0000000   0.0000000   0.0000000   0.0000000   0.0000000   0.0000000
 NMagM=    2.7928460   2.7928460   2.7928460   2.7928460   2.7928460   2.7928460   2.7928460   2.7928460   2.7928460   2.7928460
 AtZNuc=   1.0000000   1.0000000   1.0000000   1.0000000   1.0000000   1.0000000   1.0000000   1.0000000   1.0000000   1.0000000

  Atom       111         112         113         114         115         116         117         118         119         120
 IAtWgt=           1           1           1           1           1           1           1           1           1           1
 AtmWgt=   1.0078250   1.0078250   1.0078250   1.0078250   1.0078250   1.0078250   1.0078250   1.0078250   1.0078250   1.0078250
 NucSpn=           1           1           1           1           1           1           1           1           1           1
 AtZEff=  -0.0000000  -0.0000000  -0.0000000  -0.0000000  -0.0000000  -0.0000000  -0.0000000  -0.0000000  -0.0000000  -0.0000000
 NQMom=    0.0000000   0.0000000   0.0000000   0.0000000   0.0000000   0.0000000   0.0000000   0.0000000   0.0000000   0.0000000
 NMagM=    2.7928460   2.7928460   2.7928460   2.7928460   2.7928460   2.7928460   2.7928460   2.7928460   2.7928460   2.7928460
 AtZNuc=   1.0000000   1.0000000   1.0000000   1.0000000   1.0000000   1.0000000   1.0000000   1.0000000   1.0000000   1.0000000

  Atom       121         122         123         124         125         126         127         128         129         130
 IAtWgt=           1           1           1           1           1           1           1           1           1           1
 AtmWgt=   1.0078250   1.0078250   1.0078250   1.0078250   1.0078250   1.0078250   1.0078250   1.0078250   1.0078250   1.0078250
 NucSpn=           1           1           1           1           1           1           1           1           1           1
 AtZEff=  -0.0000000  -0.0000000  -0.0000000  -0.0000000  -0.0000000  -0.0000000  -0.0000000  -0.0000000  -0.0000000  -0.0000000
 NQMom=    0.0000000   0.0000000   0.0000000   0.0000000   0.0000000   0.0000000   0.0000000   0.0000000   0.0000000   0.0000000
 NMagM=    2.7928460   2.7928460   2.7928460   2.7928460   2.7928460   2.7928460   2.7928460   2.7928460   2.7928460   2.7928460
 AtZNuc=   1.0000000   1.0000000   1.0000000   1.0000000   1.0000000   1.0000000   1.0000000   1.0000000   1.0000000   1.0000000

  Atom       131         132         133         134         135         136         137         138         139         140
 IAtWgt=           1           1           1           1           1           1           1           1           1           1
 AtmWgt=   1.0078250   1.0078250   1.0078250   1.0078250   1.0078250   1.0078250   1.0078250   1.0078250   1.0078250   1.0078250
 NucSpn=           1           1           1           1           1           1           1           1           1           1
 AtZEff=  -0.0000000  -0.0000000  -0.0000000  -0.0000000  -0.0000000  -0.0000000  -0.0000000  -0.0000000  -0.0000000  -0.0000000
 NQMom=    0.0000000   0.0000000   0.0000000   0.0000000   0.0000000   0.0000000   0.0000000   0.0000000   0.0000000   0.0000000
 NMagM=    2.7928460   2.7928460   2.7928460   2.7928460   2.7928460   2.7928460   2.7928460   2.7928460   2.7928460   2.7928460
 AtZNuc=   1.0000000   1.0000000   1.0000000   1.0000000   1.0000000   1.0000000   1.0000000   1.0000000   1.0000000   1.0000000
 Leave Link  101 at Thu Apr 28 02:20:32 2022, MaxMem= 10066329600 cpu:               3.2 elap:               0.2
 (Enter /sw/apps/gaussian-16.0/g16/l202.exe)
 Stoichiometry    C55H74MgN4O6
 Framework group  C1[X(C55H74MgN4O6)]
 Deg. of freedom   414
 Full point group                 C1      NOp   1
 Largest Abelian subgroup         C1      NOp   1
 Largest concise Abelian subgroup C1      NOp   1
                         Standard orientation:                         
 ---------------------------------------------------------------------
 Center     Atomic      Atomic             Coordinates (Angstroms)
 Number     Number       Type             X           Y           Z
 ---------------------------------------------------------------------
      1         12           0        5.399492    0.732516   -0.037498
      2          6           0        4.684037   -2.610978    0.683087
      3          6           0        4.376371    0.191110   -3.303827
      4          6           0        5.199932    4.078358   -0.512473
      5          6           0        5.704466    1.370866    3.461343
      6          7           0        4.489748   -0.978269   -1.092510
      7          6           0        4.334376   -2.296560   -0.649260
      8          6           0        3.994699   -3.186525   -1.786876
      9          6           0        4.195538   -2.298607   -3.038472
     10          6           0        4.462814   -0.952562   -2.464023
     11          6           0        5.387704   -2.816449   -3.909674
     12          6           0        2.584067   -3.997810   -1.654772
     13          6           0        1.367490   -3.407678   -0.919273
     14          6           0        0.069166   -3.396421   -1.624284
     15          8           0       -0.280810   -4.044270   -2.604653
     16          8           0       -0.784422   -2.514392   -0.955029
     17          7           0        4.869301    1.975488   -1.735732
     18          6           0        4.427142    1.553701   -2.983211
     19          6           0        4.243157    2.622119   -3.871629
     20          6           0        4.556815    3.776160   -3.131615
     21          6           0        4.912451    3.340796   -1.747575
     22          6           0        3.788396    2.495916   -5.313346
     23          6           0        4.398306    5.151773   -3.620753
     24          8           0        3.946140    5.400954   -4.700295
     25          6           0        4.726704    6.284204   -2.651185
     26          7           0        5.714315    2.489399    1.206080
     27          6           0        5.530838    3.723971    0.749222
     28          6           0        5.645661    4.838607    1.814500
     29          6           0        5.837185    3.982639    3.114346
     30          6           0        5.654688    2.525130    2.601228
     31          6           0        6.683175    5.934293    1.458005
     32          6           0        4.895221    4.246698    4.377613
     33          6           0        5.606080    4.497280    5.710872
     34          7           0        5.461514   -0.363312    1.663472
     35          6           0        5.587895    0.033785    3.064402
     36          6           0        5.734818   -1.230664    3.845921
     37          6           0        5.384908   -2.196165    2.912068
     38          6           0        5.196986   -1.646608    1.638785
     39          6           0        5.886448   -1.295045    5.345798
     40          6           0        5.114975   -3.669013    2.874044
     41          8           0        5.041379   -4.432609    3.792331
     42          6           0        4.699438   -3.989507    1.384135
     43          6           0        5.657495   -5.002265    0.739576
     44          8           0        5.394883   -6.107875    0.352347
     45          8           0        6.792455   -4.269844    0.498339
     46          6           0        7.658493   -4.823400   -0.553182
     47          6           0       -1.961100   -2.292445   -1.629678
     48          6           0       -2.670759   -1.226077   -0.906928
     49          6           0       -3.736573   -0.505346   -1.388244
     50          6           0       -4.284548   -0.639813   -2.792600
     51          6           0       -4.390936    0.514105   -0.533576
     52          6           0       -5.902606    0.434048   -0.478288
     53          6           0       -6.428233    0.103518    0.929663
     54          6           0       -7.978957    0.463144    1.030405
     55          6           0       -8.185481    1.267047    2.336867
     56          6           0       -8.919372   -0.832086    1.031260
     57          6           0       -9.633942   -1.047124   -0.324377
     58          6           0      -11.042638   -1.676706   -0.342800
     59          6           0      -12.139764   -0.955290    0.506386
     60          6           0      -12.621447   -1.701154    1.816261
     61          6           0      -13.439107   -0.513499   -0.303596
     62          6           0      -13.931928    0.938496   -0.067042
     63          6           0      -15.425003    0.954944   -0.292585
     64          6           0      -16.215573    1.649681    0.840583
     65          6           0      -17.591708    0.909720    1.077076
     66          6           0      -16.323375    3.165691    0.589844
     67          1           0        4.107879    0.020441   -4.348061
     68          1           0        5.034282    5.157899   -0.539003
     69          1           0        5.851328    1.531619    4.530907
     70          1           0        4.849273   -3.850930   -1.655580
     71          1           0        3.309429   -2.176385   -3.660875
     72          1           0        5.423416   -2.662979   -4.987797
     73          1           0        5.487892   -3.874911   -3.669413
     74          1           0        6.291102   -2.301645   -3.581181
     75          1           0        2.736181   -5.039449   -1.374729
     76          1           0        2.308274   -4.300999   -2.664657
     77          1           0        1.474763   -2.341363   -0.722951
     78          1           0        1.236719   -3.898578    0.045350
     79          1           0        3.678801    3.375496   -5.947606
     80          1           0        3.062651    1.735655   -5.600453
     81          1           0        4.780651    2.320108   -5.730058
     82          1           0        5.756487    6.238896   -2.297481
     83          1           0        3.926577    6.326430   -1.912076
     84          1           0        4.616161    7.185608   -3.253620
     85          1           0        4.708718    5.394791    1.832762
     86          1           0        6.871699    4.099358    3.435638
     87          1           0        7.365134    5.919932    2.308582
     88          1           0        6.063984    6.812813    1.275063
     89          1           0        7.144457    5.701934    0.497129
     90          1           0        4.212839    3.400354    4.454298
     91          1           0        4.423011    5.180115    4.070625
     92          1           0        5.297252    5.471385    6.092425
     93          1           0        6.681262    4.506193    5.534075
     94          1           0        5.381952    3.708645    6.429845
     95          1           0        5.665198   -2.307348    5.682146
     96          1           0        5.300602   -0.570649    5.912393
     97          1           0        6.943900   -1.107494    5.532793
     98          1           0        3.705985   -4.433173    1.324492
     99          1           0        7.390696   -5.809978   -0.932449
    100          1           0        8.696340   -4.910501   -0.232070
    101          1           0        7.783431   -4.175608   -1.420915
    102          1           0       -2.479509   -3.226762   -1.412969
    103          1           0       -1.976048   -2.015898   -2.683418
    104          1           0       -2.311744   -1.018855    0.101173
    105          1           0       -4.724425    0.270785   -3.200086
    106          1           0       -5.165751   -1.280273   -2.842341
    107          1           0       -3.467053   -0.923780   -3.454942
    108          1           0       -4.143166    1.509864   -0.899706
    109          1           0       -3.935932    0.354983    0.444200
    110          1           0       -6.237508   -0.338076   -1.171167
    111          1           0       -6.313711    1.391947   -0.798391
    112          1           0       -5.850648    0.567404    1.728239
    113          1           0       -6.209694   -0.962491    1.007123
    114          1           0       -8.321985    1.065879    0.189563
    115          1           0       -9.088035    1.869745    2.235271
    116          1           0       -7.270225    1.788282    2.619764
    117          1           0       -8.268035    0.633966    3.220001
    118          1           0       -9.710331   -0.685410    1.767046
    119          1           0       -8.342761   -1.731424    1.250306
    120          1           0       -8.984427   -1.749539   -0.846554
    121          1           0       -9.756623   -0.112189   -0.870827
    122          1           0      -10.835611   -2.670756    0.054931
    123          1           0      -11.379513   -1.850804   -1.365101
    124          1           0      -11.678037    0.010722    0.709616
    125          1           0      -12.350429   -1.180004    2.734452
    126          1           0      -12.019673   -2.609056    1.815472
    127          1           0      -13.684550   -1.921876    1.911891
    128          1           0      -14.156347   -1.326070   -0.187197
    129          1           0      -13.068411   -0.677950   -1.314836
    130          1           0      -13.523250    1.654254   -0.780034
    131          1           0      -13.556674    1.182965    0.926433
    132          1           0      -15.848190   -0.041985   -0.418195
    133          1           0      -15.774385    1.446115   -1.200270
    134          1           0      -15.613550    1.496485    1.736191
    135          1           0      -18.003298    0.396756    0.208598
    136          1           0      -18.425287    1.599301    1.208166
    137          1           0      -17.572627    0.256497    1.949083
    138          1           0      -15.659169    3.493673   -0.209093
    139          1           0      -16.129450    3.773344    1.474199
    140          1           0      -17.336620    3.273486    0.203461
 ---------------------------------------------------------------------
 Rotational constants (GHZ):           0.0365814           0.0094044           0.0088925
 Leave Link  202 at Thu Apr 28 02:20:32 2022, MaxMem= 10066329600 cpu:               0.3 elap:               0.0
 (Enter /sw/apps/gaussian-16.0/g16/l301.exe)
 Standard basis: def2SVP (5D, 7F)
 Ernie: Thresh=  0.10000D-02 Tol=  0.10000D-05 Strict=F.
 There are  1364 symmetry adapted cartesian basis functions of A   symmetry.
 There are  1298 symmetry adapted basis functions of A   symmetry.
  1298 basis functions,  2180 primitive gaussians,  1364 cartesian basis functions
   246 alpha electrons      246 beta electrons
       nuclear repulsion energy      9490.0971694670 Hartrees.
 IExCor=  402 DFT=T Ex=B Corr=LYP ExCW=0 ScaHFX=  0.000000
 ScaDFX=  1.000000  1.000000  1.000000  1.000000 ScalE2=  1.000000  1.000000
 IRadAn=      5 IRanWt=     -1 IRanGd=            0 ICorTp=0 IEmpDi=  4
 NAtoms=  140 NActive=  140 NUniq=  140 SFac= 1.00D+00 NAtFMM=   60 NAOKFM=T Big=T
 Integral buffers will be    131072 words long.
 Regular integral format.
 Two-electron integral symmetry is turned on.
 Leave Link  301 at Thu Apr 28 02:20:32 2022, MaxMem= 10066329600 cpu:               1.3 elap:               0.1
 (Enter /sw/apps/gaussian-16.0/g16/l302.exe)
 NPDir=0 NMtPBC=     1 NCelOv=     1 NCel=       1 NClECP=     1 NCelD=      1
         NCelK=      1 NCelE2=     1 NClLst=     1 CellRange=     0.0.
 One-electron integrals computed using PRISM.
 One-electron integral symmetry used in STVInt
   1 Symmetry operations used in ECPInt.
 ECPInt:  NShTT=  192510 NPrTT=  683786 LenC2=   93742 LenP2D=  205509.
 LDataN:  DoStor=T MaxTD1= 4 Len=   56
 NBasis=  1298 RedAO= T EigKep=  2.80D-04  NBF=  1298
 NBsUse=  1298 1.00D-06 EigRej= -1.00D+00 NBFU=  1298
 Precomputing XC quadrature grid using
 IXCGrd= 4 IRadAn=           5 IRanWt=          -1 IRanGd=           0 AccXCQ= 0.00D+00.
 Generated NRdTot=       0 NPtTot=           0 NUsed=           0 NTot=          32
 NSgBfM=  1038  1021  1027  1033  1038 MxSgAt=   140 MxSgA2=   140.
 Leave Link  302 at Thu Apr 28 02:20:36 2022, MaxMem= 10066329600 cpu:              95.6 elap:               4.0
 (Enter /sw/apps/gaussian-16.0/g16/l303.exe)
 DipDrv:  MaxL=1.
 Leave Link  303 at Thu Apr 28 02:20:36 2022, MaxMem= 10066329600 cpu:               7.2 elap:               0.3
 (Enter /sw/apps/gaussian-16.0/g16/l308.exe)
 Leave Link  308 at Thu Apr 28 02:20:37 2022, MaxMem= 10066329600 cpu:              10.2 elap:               0.5
 (Enter /sw/apps/gaussian-16.0/g16/l401.exe)
 ExpMin= 3.36D-02 ExpMax= 4.95D+03 ExpMxC= 7.45D+02 IAcc=3 IRadAn=         5 AccDes= 0.00D+00
 Harris functional with IExCor=  402 and IRadAn=       5 diagonalized for initial guess.
 HarFok:  IExCor=  402 AccDes= 0.00D+00 IRadAn=         5 IDoV= 1 UseB2=F ITyADJ=14
 ICtDFT=  3500011 ScaDFX=  1.000000  1.000000  1.000000  1.000000
 FoFCou: FMM=F IPFlag=           0 FMFlag=      100000 FMFlg1=        2001
         NFxFlg=           0 DoJE=T BraDBF=F KetDBF=T FulRan=T
         wScrn=  0.000000 ICntrl=       500 IOpCl=  0 I1Cent=   200000004 NGrid=           0
         NMat0=    1 NMatS0=      1 NMatT0=    0 NMatD0=    1 NMtDS0=    0 NMtDT0=    0
 Petite list used in FoFCou.
 Harris En= -3008.72988426621    
 JPrj=0 DoOrth=F DoCkMO=F.
 Leave Link  401 at Thu Apr 28 02:20:44 2022, MaxMem= 10066329600 cpu:             166.3 elap:               7.0
 (Enter /sw/apps/gaussian-16.0/g16/l502.exe)
 Integral symmetry usage will be decided dynamically.
 Closed shell SCF:
 Using DIIS extrapolation, IDIIS=  1040.
 NGot= 10066329600 LenX= 10062561258 LenY= 10060699398
 Requested convergence on RMS density matrix=1.00D-08 within 128 cycles.
 Requested convergence on MAX density matrix=1.00D-06.
 Requested convergence on             energy=1.00D-06.
 No special actions if energy rises.
 Fock matrices will be formed incrementally for  20 cycles.

 Cycle   1  Pass 1  IDiag  1:
 FoFJK:  IHMeth= 1 ICntrl=     500 DoSepK=F KAlg= 0 I1Cent=           0 FoldK=F
 IRaf= 510000000 NMat=       1 IRICut=       1 DoRegI=T DoRafI=F ISym2E= 0 IDoP0=0 IntGTp=1.
 FoFCou: FMM=T IPFlag=           0 FMFlag=      100000 FMFlg1=        2001
         NFxFlg=           0 DoJE=T BraDBF=F KetDBF=F FulRan=T
         wScrn=  0.000000 ICntrl=       500 IOpCl=  0 I1Cent=           0 NGrid=           0
         NMat0=    1 NMatS0=      1 NMatT0=    0 NMatD0=    1 NMtDS0=    0 NMtDT0=    0
 Symmetry not used in FoFCou.
 FMM levels:  10  Number of levels for PrismC:   9
 E= -3005.65060733274    
 DIIS: error= 1.96D-02 at cycle   1 NSaved=   1.
 NSaved= 1 IEnMin= 1 EnMin= -3005.65060733274     IErMin= 1 ErrMin= 1.96D-02
 ErrMax= 1.96D-02  0.00D+00 EMaxC= 1.00D-01 BMatC= 1.53D+00 BMatP= 1.53D+00
 IDIUse=3 WtCom= 8.04D-01 WtEn= 1.96D-01
 Coeff-Com:  0.100D+01
 Coeff-En:   0.100D+01
 Coeff:      0.100D+01
 Gap=     0.051 Goal=   None    Shift=    0.000
 GapD=    0.051 DampG=0.500 DampE=0.500 DampFc=0.2500 IDamp=-1.
 Damping current iteration by 2.50D-01
 RMSDP=3.79D-03 MaxDP=9.38D-01              OVMax= 9.29D-01

 Cycle   2  Pass 1  IDiag  1:
 RMSU=  9.42D-04    CP:  9.89D-01
 E= -3006.14690158088     Delta-E=       -0.496294248136 Rises=F Damp=T
 DIIS: error= 6.48D-03 at cycle   2 NSaved=   2.
 NSaved= 2 IEnMin= 2 EnMin= -3006.14690158088     IErMin= 2 ErrMin= 6.48D-03
 ErrMax= 6.48D-03  0.00D+00 EMaxC= 1.00D-01 BMatC= 2.58D-01 BMatP= 1.53D+00
 IDIUse=3 WtCom= 9.35D-01 WtEn= 6.48D-02
 Coeff-Com: -0.292D+00 0.129D+01
 Coeff-En:   0.847D-01 0.915D+00
 Coeff:     -0.267D+00 0.127D+01
 Gap=     0.057 Goal=   None    Shift=    0.000
 RMSDP=1.70D-03 MaxDP=2.64D-01 DE=-4.96D-01 OVMax= 5.45D-01

 Cycle   3  Pass 1  IDiag  1:
 RMSU=  1.68D-03    CP:  9.65D-01  1.21D+00
 E= -3004.53911775448     Delta-E=        1.607783826394 Rises=F Damp=F
 DIIS: error= 6.74D-02 at cycle   3 NSaved=   3.
 NSaved= 3 IEnMin= 2 EnMin= -3006.14690158088     IErMin= 2 ErrMin= 6.48D-03
 ErrMax= 6.74D-02  0.00D+00 EMaxC= 1.00D-01 BMatC= 1.91D+00 BMatP= 2.58D-01
 IDIUse=2 WtCom= 0.00D+00 WtEn= 1.00D+00
 Coeff-En:   0.000D+00 0.744D+00 0.256D+00
 Coeff:      0.000D+00 0.744D+00 0.256D+00
 Gap=    -0.056 Goal=   None    Shift=    0.000
 RMSDP=2.19D-03 MaxDP=4.37D-01 DE= 1.61D+00 OVMax= 7.51D-01

 Cycle   4  Pass 1  IDiag  1:
 RMSU=  1.05D-03    CP:  9.68D-01  2.04D+00 -5.04D-02
 E= -3004.83510980713     Delta-E=       -0.295992052652 Rises=F Damp=F
 DIIS: error= 4.50D-02 at cycle   4 NSaved=   4.
 NSaved= 4 IEnMin= 2 EnMin= -3006.14690158088     IErMin= 2 ErrMin= 6.48D-03
 ErrMax= 4.50D-02  0.00D+00 EMaxC= 1.00D-01 BMatC= 1.47D+00 BMatP= 2.58D-01
 IDIUse=2 WtCom= 0.00D+00 WtEn= 1.00D+00
 EnCoef did     2 forward-backward iterations
 Coeff-En:   0.140D+00 0.000D+00 0.404D+00 0.456D+00
 Coeff:      0.140D+00 0.000D+00 0.404D+00 0.456D+00
 Gap=     0.056 Goal=   None    Shift=    0.000
 RMSDP=1.54D-03 MaxDP=3.28D-01 DE=-2.96D-01 OVMax= 9.42D-01

 Cycle   5  Pass 1  IDiag  1:
 RMSU=  7.61D-04    CP:  9.79D-01  1.21D+00  1.29D-01  9.68D-03
 E= -3007.03449450920     Delta-E=       -2.199384702064 Rises=F Damp=F
 DIIS: error= 1.55D-02 at cycle   5 NSaved=   5.
 NSaved= 5 IEnMin= 5 EnMin= -3007.03449450920     IErMin= 2 ErrMin= 6.48D-03
 ErrMax= 1.55D-02  0.00D+00 EMaxC= 1.00D-01 BMatC= 2.61D-01 BMatP= 2.58D-01
 IDIUse=3 WtCom= 8.45D-01 WtEn= 1.55D-01
 EnCoef did     9 forward-backward iterations
 Coeff-Com: -0.116D+00 0.581D+00 0.204D+00 0.129D+00 0.202D+00
 Coeff-En:   0.000D+00 0.000D+00 0.689D-01 0.158D+00 0.773D+00
 Coeff:     -0.976D-01 0.491D+00 0.183D+00 0.134D+00 0.290D+00
 Gap=     0.118 Goal=   None    Shift=    0.000
 RMSDP=1.04D-03 MaxDP=1.43D-01 DE=-2.20D+00 OVMax= 5.19D-01

 Cycle   6  Pass 1  IDiag  1:
 RMSU=  7.76D-04    CP:  9.74D-01  1.12D+00  2.32D-01  2.81D-01  2.08D-01
 E= -3007.03812927700     Delta-E=       -0.003634767798 Rises=F Damp=F
 DIIS: error= 1.43D-02 at cycle   6 NSaved=   6.
 NSaved= 6 IEnMin= 6 EnMin= -3007.03812927700     IErMin= 2 ErrMin= 6.48D-03
 ErrMax= 1.43D-02  0.00D+00 EMaxC= 1.00D-01 BMatC= 2.48D-01 BMatP= 2.58D-01
 IDIUse=3 WtCom= 8.57D-01 WtEn= 1.43D-01
 Coeff-Com: -0.198D+00 0.498D+00 0.574D-01-0.819D-02 0.274D+00 0.377D+00
 Coeff-En:   0.000D+00 0.000D+00 0.000D+00 0.000D+00 0.498D+00 0.502D+00
 Coeff:     -0.170D+00 0.427D+00 0.492D-01-0.702D-02 0.306D+00 0.395D+00
 Gap=     0.040 Goal=   None    Shift=    0.000
 RMSDP=8.27D-04 MaxDP=7.35D-02 DE=-3.63D-03 OVMax= 6.02D-01

 Cycle   7  Pass 1  IDiag  1:
 RMSU=  4.86D-04    CP:  9.76D-01  1.14D+00  2.17D-01  4.39D-02  7.61D-01
                    CP:  4.13D-01
 E= -3007.22660622504     Delta-E=       -0.188476948046 Rises=F Damp=F
 DIIS: error= 6.98D-03 at cycle   7 NSaved=   7.
 NSaved= 7 IEnMin= 7 EnMin= -3007.22660622504     IErMin= 2 ErrMin= 6.48D-03
 ErrMax= 6.98D-03  0.00D+00 EMaxC= 1.00D-01 BMatC= 7.91D-02 BMatP= 2.48D-01
 IDIUse=3 WtCom= 9.30D-01 WtEn= 6.98D-02
 EnCoef did     8 forward-backward iterations
 Coeff-Com: -0.136D+00 0.297D+00 0.116D-01-0.769D-02 0.230D+00 0.331D+00
 Coeff-Com:  0.274D+00
 Coeff-En:   0.000D+00 0.000D+00 0.000D+00 0.000D+00 0.172D+00 0.328D+00
 Coeff-En:   0.500D+00
 Coeff:     -0.126D+00 0.276D+00 0.108D-01-0.715D-02 0.226D+00 0.331D+00
 Coeff:      0.290D+00
 Gap=     0.033 Goal=   None    Shift=    0.000
 RMSDP=4.98D-04 MaxDP=3.83D-02 DE=-1.88D-01 OVMax= 4.13D-01

 Cycle   8  Pass 1  IDiag  1:
 RMSU=  2.34D-04    CP:  9.77D-01  1.19D+00  1.66D-01  1.03D-01  5.92D-01
                    CP:  6.45D-01  2.57D-01
 E= -3007.31546824246     Delta-E=       -0.088862017416 Rises=F Damp=F
 DIIS: error= 3.08D-03 at cycle   8 NSaved=   8.
 NSaved= 8 IEnMin= 8 EnMin= -3007.31546824246     IErMin= 8 ErrMin= 3.08D-03
 ErrMax= 3.08D-03  0.00D+00 EMaxC= 1.00D-01 BMatC= 1.58D-02 BMatP= 7.91D-02
 IDIUse=3 WtCom= 9.69D-01 WtEn= 3.08D-02
 Coeff-Com: -0.611D-01 0.129D+00-0.701D-04 0.444D-02 0.131D+00 0.176D+00
 Coeff-Com:  0.265D+00 0.355D+00
 Coeff-En:   0.000D+00 0.000D+00 0.000D+00 0.000D+00 0.000D+00 0.000D+00
 Coeff-En:   0.256D+00 0.744D+00
 Coeff:     -0.593D-01 0.125D+00-0.679D-04 0.430D-02 0.127D+00 0.171D+00
 Coeff:      0.265D+00 0.367D+00
 Gap=     0.037 Goal=   None    Shift=    0.000
 RMSDP=2.34D-04 MaxDP=2.78D-02 DE=-8.89D-02 OVMax= 1.75D-01

 Cycle   9  Pass 1  IDiag  1:
 RMSU=  1.36D-04    CP:  9.77D-01  1.18D+00  1.70D-01  9.16D-02  6.38D-01
                    CP:  5.70D-01  4.92D-01  4.20D-01
 E= -3007.33139002828     Delta-E=       -0.015921785827 Rises=F Damp=F
 DIIS: error= 2.62D-03 at cycle   9 NSaved=   9.
 NSaved= 9 IEnMin= 9 EnMin= -3007.33139002828     IErMin= 9 ErrMin= 2.62D-03
 ErrMax= 2.62D-03  0.00D+00 EMaxC= 1.00D-01 BMatC= 5.74D-03 BMatP= 1.58D-02
 IDIUse=3 WtCom= 9.74D-01 WtEn= 2.62D-02
 EnCoef did     5 forward-backward iterations
 Coeff-Com: -0.213D-01 0.478D-01-0.476D-02 0.522D-02 0.372D-01 0.497D-01
 Coeff-Com:  0.169D+00 0.358D+00 0.359D+00
 Coeff-En:   0.000D+00 0.000D+00 0.000D+00 0.000D+00 0.000D+00 0.000D+00
 Coeff-En:   0.768D-02 0.306D+00 0.687D+00
 Coeff:     -0.207D-01 0.465D-01-0.464D-02 0.508D-02 0.362D-01 0.484D-01
 Coeff:      0.165D+00 0.357D+00 0.367D+00
 Gap=     0.039 Goal=   None    Shift=    0.000
 RMSDP=1.33D-04 MaxDP=1.31D-02 DE=-1.59D-02 OVMax= 9.01D-02

 Cycle  10  Pass 1  IDiag  1:
 RMSU=  5.82D-05    CP:  9.77D-01  1.18D+00  1.68D-01  8.54D-02  6.47D-01
                    CP:  5.88D-01  4.92D-01  7.28D-01  3.11D-01
 E= -3007.33754294030     Delta-E=       -0.006152912018 Rises=F Damp=F
 DIIS: error= 9.17D-04 at cycle  10 NSaved=  10.
 NSaved=10 IEnMin=10 EnMin= -3007.33754294030     IErMin=10 ErrMin= 9.17D-04
 ErrMax= 9.17D-04  0.00D+00 EMaxC= 1.00D-01 BMatC= 1.42D-03 BMatP= 5.74D-03
 IDIUse=3 WtCom= 9.91D-01 WtEn= 9.17D-03
 Coeff-Com: -0.795D-02 0.212D-01-0.453D-02 0.320D-02-0.514D-02-0.443D-02
 Coeff-Com:  0.710D-01 0.195D+00 0.327D+00 0.404D+00
 Coeff-En:   0.000D+00 0.000D+00 0.000D+00 0.000D+00 0.000D+00 0.000D+00
 Coeff-En:   0.000D+00 0.000D+00 0.253D+00 0.747D+00
 Coeff:     -0.788D-02 0.210D-01-0.449D-02 0.317D-02-0.509D-02-0.439D-02
 Coeff:      0.703D-01 0.193D+00 0.327D+00 0.407D+00
 Gap=     0.040 Goal=   None    Shift=    0.000
 RMSDP=5.40D-05 MaxDP=6.26D-03 DE=-6.15D-03 OVMax= 3.45D-02

 Cycle  11  Pass 1  IDiag  1:
 RMSU=  2.23D-05    CP:  9.77D-01  1.18D+00  1.65D-01  8.93D-02  6.44D-01
                    CP:  5.97D-01  4.93D-01  6.76D-01  5.42D-01  4.11D-01
 E= -3007.33922193777     Delta-E=       -0.001678997463 Rises=F Damp=F
 DIIS: error= 2.73D-04 at cycle  11 NSaved=  11.
 NSaved=11 IEnMin=11 EnMin= -3007.33922193777     IErMin=11 ErrMin= 2.73D-04
 ErrMax= 2.73D-04  0.00D+00 EMaxC= 1.00D-01 BMatC= 1.89D-04 BMatP= 1.42D-03
 IDIUse=3 WtCom= 9.97D-01 WtEn= 2.73D-03
 Coeff-Com: -0.579D-02 0.152D-01-0.230D-02 0.126D-02-0.787D-02-0.780D-02
 Coeff-Com:  0.281D-01 0.680D-01 0.157D+00 0.300D+00 0.454D+00
 Coeff-En:   0.000D+00 0.000D+00 0.000D+00 0.000D+00 0.000D+00 0.000D+00
 Coeff-En:   0.000D+00 0.000D+00 0.000D+00 0.115D+00 0.885D+00
 Coeff:     -0.578D-02 0.152D-01-0.230D-02 0.126D-02-0.784D-02-0.778D-02
 Coeff:      0.281D-01 0.678D-01 0.157D+00 0.299D+00 0.455D+00
 Gap=     0.040 Goal=   None    Shift=    0.000
 RMSDP=1.84D-05 MaxDP=2.34D-03 DE=-1.68D-03 OVMax= 7.85D-03

 Cycle  12  Pass 1  IDiag  1:
 RMSU=  1.13D-05    CP:  9.77D-01  1.18D+00  1.64D-01  8.91D-02  6.46D-01
                    CP:  5.93D-01  4.98D-01  6.84D-01  5.15D-01  5.27D-01
                    CP:  4.87D-01
 E= -3007.33937472117     Delta-E=       -0.000152783408 Rises=F Damp=F
 DIIS: error= 2.98D-04 at cycle  12 NSaved=  12.
 NSaved=12 IEnMin=12 EnMin= -3007.33937472117     IErMin=11 ErrMin= 2.73D-04
 ErrMax= 2.98D-04  0.00D+00 EMaxC= 1.00D-01 BMatC= 5.85D-05 BMatP= 1.89D-04
 IDIUse=3 WtCom= 9.97D-01 WtEn= 2.73D-03
 Coeff-Com: -0.444D-02 0.102D-01-0.620D-03-0.738D-04-0.339D-02-0.314D-02
 Coeff-Com:  0.368D-02-0.137D-01 0.142D-01 0.122D+00 0.385D+00 0.490D+00
 Coeff-En:   0.000D+00 0.000D+00 0.000D+00 0.000D+00 0.000D+00 0.000D+00
 Coeff-En:   0.000D+00 0.000D+00 0.000D+00 0.000D+00 0.208D+00 0.792D+00
 Coeff:     -0.443D-02 0.101D-01-0.619D-03-0.736D-04-0.338D-02-0.313D-02
 Coeff:      0.367D-02-0.136D-01 0.142D-01 0.122D+00 0.384D+00 0.491D+00
 Gap=     0.040 Goal=   None    Shift=    0.000
 RMSDP=1.03D-05 MaxDP=1.26D-03 DE=-1.53D-04 OVMax= 3.33D-03

 Cycle  13  Pass 1  IDiag  1:
 RMSU=  5.33D-06    CP:  9.77D-01  1.18D+00  1.64D-01  8.84D-02  6.46D-01
                    CP:  5.95D-01  5.03D-01  6.86D-01  5.16D-01  5.42D-01
                    CP:  7.23D-01  4.38D-01
 E= -3007.33942417325     Delta-E=       -0.000049452077 Rises=F Damp=F
 DIIS: error= 1.37D-04 at cycle  13 NSaved=  13.
 NSaved=13 IEnMin=13 EnMin= -3007.33942417325     IErMin=13 ErrMin= 1.37D-04
 ErrMax= 1.37D-04  0.00D+00 EMaxC= 1.00D-01 BMatC= 1.45D-05 BMatP= 5.85D-05
 IDIUse=3 WtCom= 9.99D-01 WtEn= 1.37D-03
 Coeff-Com: -0.263D-02 0.536D-02-0.195D-03-0.134D-03-0.883D-03-0.104D-02
 Coeff-Com: -0.129D-02-0.266D-01-0.233D-01 0.396D-01 0.226D+00 0.397D+00
 Coeff-Com:  0.388D+00
 Coeff-En:   0.000D+00 0.000D+00 0.000D+00 0.000D+00 0.000D+00 0.000D+00
 Coeff-En:   0.000D+00 0.000D+00 0.000D+00 0.000D+00 0.000D+00 0.149D+00
 Coeff-En:   0.851D+00
 Coeff:     -0.262D-02 0.535D-02-0.195D-03-0.134D-03-0.881D-03-0.104D-02
 Coeff:     -0.129D-02-0.266D-01-0.233D-01 0.395D-01 0.226D+00 0.397D+00
 Coeff:      0.389D+00
 Gap=     0.040 Goal=   None    Shift=    0.000
 RMSDP=4.19D-06 MaxDP=5.16D-04 DE=-4.95D-05 OVMax= 1.34D-03

 Cycle  14  Pass 1  IDiag  1:
 RMSU=  2.05D-06    CP:  9.77D-01  1.18D+00  1.64D-01  8.84D-02  6.47D-01
                    CP:  5.95D-01  5.06D-01  6.87D-01  5.15D-01  5.53D-01
                    CP:  7.18D-01  6.25D-01  5.55D-01
 E= -3007.33943909790     Delta-E=       -0.000014924648 Rises=F Damp=F
 DIIS: error= 6.79D-05 at cycle  14 NSaved=  14.
 NSaved=14 IEnMin=14 EnMin= -3007.33943909790     IErMin=14 ErrMin= 6.79D-05
 ErrMax= 6.79D-05  0.00D+00 EMaxC= 1.00D-01 BMatC= 1.63D-06 BMatP= 1.45D-05
 IDIUse=1 WtCom= 1.00D+00 WtEn= 0.00D+00
 Coeff-Com: -0.116D-02 0.209D-02-0.107D-03-0.210D-04 0.117D-03-0.229D-03
 Coeff-Com: -0.133D-02-0.174D-01-0.212D-01 0.266D-02 0.819D-01 0.176D+00
 Coeff-Com:  0.237D+00 0.541D+00
 Coeff:     -0.116D-02 0.209D-02-0.107D-03-0.210D-04 0.117D-03-0.229D-03
 Coeff:     -0.133D-02-0.174D-01-0.212D-01 0.266D-02 0.819D-01 0.176D+00
 Coeff:      0.237D+00 0.541D+00
 Gap=     0.040 Goal=   None    Shift=    0.000
 RMSDP=1.44D-06 MaxDP=1.77D-04 DE=-1.49D-05 OVMax= 4.52D-04

 Cycle  15  Pass 1  IDiag  1:
 RMSU=  8.57D-07    CP:  9.77D-01  1.18D+00  1.64D-01  8.84D-02  6.47D-01
                    CP:  5.94D-01  5.07D-01  6.87D-01  5.15D-01  5.59D-01
                    CP:  7.34D-01  6.42D-01  6.04D-01  7.12D-01
 E= -3007.33944040680     Delta-E=       -0.000001308897 Rises=F Damp=F
 DIIS: error= 3.14D-05 at cycle  15 NSaved=  15.
 NSaved=15 IEnMin=15 EnMin= -3007.33944040680     IErMin=15 ErrMin= 3.14D-05
 ErrMax= 3.14D-05  0.00D+00 EMaxC= 1.00D-01 BMatC= 4.10D-07 BMatP= 1.63D-06
 IDIUse=1 WtCom= 1.00D+00 WtEn= 0.00D+00
 Coeff-Com: -0.393D-03 0.601D-03-0.569D-04 0.630D-05 0.205D-03-0.250D-04
 Coeff-Com: -0.901D-03-0.864D-02-0.131D-01-0.850D-02 0.124D-01 0.484D-01
 Coeff-Com:  0.980D-01 0.416D+00 0.456D+00
 Coeff:     -0.393D-03 0.601D-03-0.569D-04 0.630D-05 0.205D-03-0.250D-04
 Coeff:     -0.901D-03-0.864D-02-0.131D-01-0.850D-02 0.124D-01 0.484D-01
 Coeff:      0.980D-01 0.416D+00 0.456D+00
 Gap=     0.040 Goal=   None    Shift=    0.000
 RMSDP=7.23D-07 MaxDP=9.75D-05 DE=-1.31D-06 OVMax= 1.69D-04

 Cycle  16  Pass 1  IDiag  1:
 RMSU=  4.56D-07    CP:  9.77D-01  1.18D+00  1.63D-01  8.84D-02  6.48D-01
                    CP:  5.95D-01  5.08D-01  6.87D-01  5.16D-01  5.60D-01
                    CP:  7.42D-01  6.55D-01  6.16D-01  8.08D-01  6.44D-01
 E= -3007.33944075219     Delta-E=       -0.000000345392 Rises=F Damp=F
 DIIS: error= 9.00D-06 at cycle  16 NSaved=  16.
 NSaved=16 IEnMin=16 EnMin= -3007.33944075219     IErMin=16 ErrMin= 9.00D-06
 ErrMax= 9.00D-06  0.00D+00 EMaxC= 1.00D-01 BMatC= 7.42D-08 BMatP= 4.10D-07
 IDIUse=1 WtCom= 1.00D+00 WtEn= 0.00D+00
 Coeff-Com: -0.550D-04 0.372D-04-0.218D-04 0.937D-05 0.102D-03 0.453D-04
 Coeff-Com: -0.394D-03-0.259D-02-0.534D-02-0.766D-02-0.115D-01-0.808D-02
 Coeff-Com:  0.152D-01 0.182D+00 0.352D+00 0.487D+00
 Coeff:     -0.550D-04 0.372D-04-0.218D-04 0.937D-05 0.102D-03 0.453D-04
 Coeff:     -0.394D-03-0.259D-02-0.534D-02-0.766D-02-0.115D-01-0.808D-02
 Coeff:      0.152D-01 0.182D+00 0.352D+00 0.487D+00
 Gap=     0.040 Goal=   None    Shift=    0.000
 RMSDP=3.62D-07 MaxDP=3.90D-05 DE=-3.45D-07 OVMax= 9.97D-05

 Cycle  17  Pass 1  IDiag  1:
 RMSU=  1.82D-07    CP:  9.77D-01  1.18D+00  1.63D-01  8.84D-02  6.48D-01
                    CP:  5.95D-01  5.08D-01  6.88D-01  5.16D-01  5.61D-01
                    CP:  7.46D-01  6.61D-01  6.29D-01  8.39D-01  7.07D-01
                    CP:  5.49D-01
 E= -3007.33944082109     Delta-E=       -0.000000068901 Rises=F Damp=F
 DIIS: error= 3.39D-06 at cycle  17 NSaved=  17.
 NSaved=17 IEnMin=17 EnMin= -3007.33944082109     IErMin=17 ErrMin= 3.39D-06
 ErrMax= 3.39D-06  0.00D+00 EMaxC= 1.00D-01 BMatC= 1.13D-08 BMatP= 7.42D-08
 IDIUse=1 WtCom= 1.00D+00 WtEn= 0.00D+00
 Coeff-Com:  0.587D-05-0.337D-04-0.875D-05 0.646D-05 0.367D-04 0.436D-04
 Coeff-Com: -0.156D-03-0.701D-03-0.212D-02-0.418D-02-0.962D-02-0.121D-01
 Coeff-Com: -0.237D-02 0.696D-01 0.183D+00 0.350D+00 0.428D+00
 Coeff:      0.587D-05-0.337D-04-0.875D-05 0.646D-05 0.367D-04 0.436D-04
 Coeff:     -0.156D-03-0.701D-03-0.212D-02-0.418D-02-0.962D-02-0.121D-01
 Coeff:     -0.237D-02 0.696D-01 0.183D+00 0.350D+00 0.428D+00
 Gap=     0.040 Goal=   None    Shift=    0.000
 RMSDP=1.33D-07 MaxDP=2.26D-05 DE=-6.89D-08 OVMax= 4.66D-05

 Cycle  18  Pass 1  IDiag  1:
 RMSU=  7.14D-08    CP:  9.77D-01  1.18D+00  1.63D-01  8.84D-02  6.48D-01
                    CP:  5.95D-01  5.08D-01  6.88D-01  5.15D-01  5.61D-01
                    CP:  7.47D-01  6.61D-01  6.34D-01  8.47D-01  7.05D-01
                    CP:  6.00D-01  5.24D-01
 E= -3007.33944083128     Delta-E=       -0.000000010194 Rises=F Damp=F
 DIIS: error= 1.19D-06 at cycle  18 NSaved=  18.
 NSaved=18 IEnMin=18 EnMin= -3007.33944083128     IErMin=18 ErrMin= 1.19D-06
 ErrMax= 1.19D-06  0.00D+00 EMaxC= 1.00D-01 BMatC= 1.62D-09 BMatP= 1.13D-08
 IDIUse=1 WtCom= 1.00D+00 WtEn= 0.00D+00
 Coeff-Com:  0.150D-04-0.316D-04-0.188D-05 0.269D-05 0.154D-05 0.188D-04
 Coeff-Com: -0.473D-04-0.568D-04-0.585D-03-0.156D-02-0.474D-02-0.704D-02
 Coeff-Com: -0.421D-02 0.171D-01 0.669D-01 0.160D+00 0.307D+00 0.467D+00
 Coeff:      0.150D-04-0.316D-04-0.188D-05 0.269D-05 0.154D-05 0.188D-04
 Coeff:     -0.473D-04-0.568D-04-0.585D-03-0.156D-02-0.474D-02-0.704D-02
 Coeff:     -0.421D-02 0.171D-01 0.669D-01 0.160D+00 0.307D+00 0.467D+00
 Gap=     0.040 Goal=   None    Shift=    0.000
 RMSDP=4.92D-08 MaxDP=8.13D-06 DE=-1.02D-08 OVMax= 1.23D-05

 Cycle  19  Pass 1  IDiag  1:
 RMSU=  2.29D-08    CP:  9.77D-01  1.18D+00  1.63D-01  8.84D-02  6.48D-01
                    CP:  5.95D-01  5.08D-01  6.88D-01  5.15D-01  5.61D-01
                    CP:  7.47D-01  6.62D-01  6.34D-01  8.49D-01  7.16D-01
                    CP:  6.04D-01  5.68D-01  4.91D-01
 E= -3007.33944083289     Delta-E=       -0.000000001612 Rises=F Damp=F
 DIIS: error= 2.40D-07 at cycle  19 NSaved=  19.
 NSaved=19 IEnMin=19 EnMin= -3007.33944083289     IErMin=19 ErrMin= 2.40D-07
 ErrMax= 2.40D-07  0.00D+00 EMaxC= 1.00D-01 BMatC= 1.70D-10 BMatP= 1.62D-09
 IDIUse=1 WtCom= 1.00D+00 WtEn= 0.00D+00
 Coeff-Com:  0.748D-05-0.139D-04-0.422D-06 0.978D-06-0.311D-05 0.695D-05
 Coeff-Com: -0.140D-04 0.170D-04-0.200D-03-0.616D-03-0.215D-02-0.336D-02
 Coeff-Com: -0.226D-02 0.614D-02 0.289D-01 0.748D-01 0.161D+00 0.305D+00
 Coeff-Com:  0.433D+00
 Coeff:      0.748D-05-0.139D-04-0.422D-06 0.978D-06-0.311D-05 0.695D-05
 Coeff:     -0.140D-04 0.170D-04-0.200D-03-0.616D-03-0.215D-02-0.336D-02
 Coeff:     -0.226D-02 0.614D-02 0.289D-01 0.748D-01 0.161D+00 0.305D+00
 Coeff:      0.433D+00
 Gap=     0.040 Goal=   None    Shift=    0.000
 RMSDP=1.58D-08 MaxDP=1.79D-06 DE=-1.61D-09 OVMax= 5.16D-06

 Cycle  20  Pass 1  IDiag  1:
 RMSU=  1.01D-08    CP:  9.77D-01  1.18D+00  1.63D-01  8.84D-02  6.48D-01
                    CP:  5.95D-01  5.08D-01  6.88D-01  5.15D-01  5.61D-01
                    CP:  7.47D-01  6.62D-01  6.34D-01  8.48D-01  7.15D-01
                    CP:  6.09D-01  5.61D-01  5.28D-01  5.54D-01
 E= -3007.33944083291     Delta-E=       -0.000000000016 Rises=F Damp=F
 DIIS: error= 1.45D-07 at cycle  20 NSaved=  20.
 NSaved=20 IEnMin=20 EnMin= -3007.33944083291     IErMin=20 ErrMin= 1.45D-07
 ErrMax= 1.45D-07  0.00D+00 EMaxC= 1.00D-01 BMatC= 3.14D-11 BMatP= 1.70D-10
 IDIUse=1 WtCom= 1.00D+00 WtEn= 0.00D+00
 Coeff-Com:  0.226D-05-0.355D-05-0.144D-06 0.330D-06-0.239D-05 0.237D-05
 Coeff-Com: -0.403D-05 0.104D-04-0.803D-04-0.237D-03-0.883D-03-0.142D-02
 Coeff-Com: -0.900D-03 0.290D-02 0.132D-01 0.348D-01 0.778D-01 0.163D+00
 Coeff-Com:  0.313D+00 0.399D+00
 Coeff:      0.226D-05-0.355D-05-0.144D-06 0.330D-06-0.239D-05 0.237D-05
 Coeff:     -0.403D-05 0.104D-04-0.803D-04-0.237D-03-0.883D-03-0.142D-02
 Coeff:     -0.900D-03 0.290D-02 0.132D-01 0.348D-01 0.778D-01 0.163D+00
 Coeff:      0.313D+00 0.399D+00
 Gap=     0.040 Goal=   None    Shift=    0.000
 RMSDP=7.87D-09 MaxDP=1.09D-06 DE=-1.64D-11 OVMax= 1.83D-06

 Cycle  21  Pass 1  IDiag  1:
 Restarting incremental Fock formation.
 E= -3007.33944083297     Delta-E=       -0.000000000062 Rises=F Damp=F
 DIIS: error= 5.36D-08 at cycle  21 NSaved=  20.
 NSaved=20 IEnMin=20 EnMin= -3007.33944083297     IErMin=20 ErrMin= 5.36D-08
 ErrMax= 5.36D-08  0.00D+00 EMaxC= 1.00D-01 BMatC= 4.36D-12 BMatP= 3.14D-11
 IDIUse=1 WtCom= 1.00D+00 WtEn= 0.00D+00
 Coeff-Com:  0.404D-06-0.278D-06-0.261D-07-0.138D-05 0.628D-06-0.108D-05
 Coeff-Com:  0.487D-05-0.312D-04-0.868D-04-0.335D-03-0.556D-03-0.310D-03
 Coeff-Com:  0.137D-02 0.568D-02 0.148D-01 0.332D-01 0.735D-01 0.166D+00
 Coeff-Com:  0.296D+00 0.410D+00
 Coeff:      0.404D-06-0.278D-06-0.261D-07-0.138D-05 0.628D-06-0.108D-05
 Coeff:      0.487D-05-0.312D-04-0.868D-04-0.335D-03-0.556D-03-0.310D-03
 Coeff:      0.137D-02 0.568D-02 0.148D-01 0.332D-01 0.735D-01 0.166D+00
 Coeff:      0.296D+00 0.410D+00
 Gap=     0.040 Goal=   None    Shift=    0.000
 RMSDP=2.56D-09 MaxDP=2.73D-07 DE=-6.18D-11 OVMax= 9.03D-07

 SCF Done:  E(RB-LYP) =  -3007.33944083     A.U. after   21 cycles
            NFock= 21  Conv=0.26D-08     -V/T= 2.0099
 KE= 2.977963988547D+03 PE=-2.597503247085D+04 EE= 1.049963187200D+04
 Leave Link  502 at Thu Apr 28 02:25:59 2022, MaxMem= 10066329600 cpu:            7550.7 elap:             315.5
 (Enter /sw/apps/gaussian-16.0/g16/l801.exe)
 DoSCS=F DFT=T ScalE2(SS,OS)=  1.000000  1.000000
 ExpMin= 3.36D-02 ExpMax= 4.95D+03 ExpMxC= 7.45D+02 IAcc=3 IRadAn=         5 AccDes= 0.00D+00
 HarFok:  IExCor=  205 AccDes= 0.00D+00 IRadAn=         5 IDoV=-2 UseB2=F ITyADJ=14
 ICtDFT= 12500011 ScaDFX=  1.000000  1.000000  1.000000  1.000000
 GSVD:  LWork=       -5460 too small for GESVD, short by       25550 words or       25550 for optimal perf.
 Largest valence mixing into a core orbital is  1.41D-04
 Largest core mixing into a valence orbital is  4.61D-05
 Range of M.O.s used for correlation:    71  1298
 NBasis=  1298 NAE=   246 NBE=   246 NFC=    70 NFV=     0
 NROrb=   1228 NOA=   176 NOB=   176 NVA=  1052 NVB=  1052

 **** Warning!!: The smallest alpha delta epsilon is  0.39725830D-01

 Leave Link  801 at Thu Apr 28 02:26:00 2022, MaxMem= 10066329600 cpu:               7.4 elap:               0.3
 (Enter /sw/apps/gaussian-16.0/g16/l914.exe)
 RHF ground state
 Two-electron integrals replicated using symmetry.
 MDV= 10066329600 DFT=T DoStab=F Mixed=F DoRPA=T DoScal=T NonHer=F
 Making orbital integer symmetry assigments:
 Orbital symmetries:
       Occupied  (A) (A) (A) (A) (A) (A) (A) (A) (A) (A) (A) (A)
                 (A) (A) (A) (A) (A) (A) (A) (A) (A) (A) (A) (A)
                 (A) (A) (A) (A) (A) (A) (A) (A) (A) (A) (A) (A)
                 (A) (A) (A) (A) (A) (A) (A) (A) (A) (A) (A) (A)
                 (A) (A) (A) (A) (A) (A) (A) (A) (A) (A) (A) (A)
                 (A) (A) (A) (A) (A) (A) (A) (A) (A) (A) (A) (A)
                 (A) (A) (A) (A) (A) (A) (A) (A) (A) (A) (A) (A)
                 (A) (A) (A) (A) (A) (A) (A) (A) (A) (A) (A) (A)
                 (A) (A) (A) (A) (A) (A) (A) (A) (A) (A) (A) (A)
                 (A) (A) (A) (A) (A) (A) (A) (A) (A) (A) (A) (A)
                 (A) (A) (A) (A) (A) (A) (A) (A) (A) (A) (A) (A)
                 (A) (A) (A) (A) (A) (A) (A) (A) (A) (A) (A) (A)
                 (A) (A) (A) (A) (A) (A) (A) (A) (A) (A) (A) (A)
                 (A) (A) (A) (A) (A) (A) (A) (A) (A) (A) (A) (A)
                 (A) (A) (A) (A) (A) (A) (A) (A) (A) (A) (A) (A)
                 (A) (A) (A) (A) (A) (A) (A) (A) (A) (A) (A) (A)
                 (A) (A) (A) (A) (A) (A) (A) (A) (A) (A) (A) (A)
                 (A) (A) (A) (A) (A) (A) (A) (A) (A) (A) (A) (A)
                 (A) (A) (A) (A) (A) (A) (A) (A) (A) (A) (A) (A)
                 (A) (A) (A) (A) (A) (A) (A) (A) (A) (A) (A) (A)
                 (A) (A) (A) (A) (A) (A)
       Virtual   (A) (A) (A) (A) (A) (A) (A) (A) (A) (A) (A) (A)
                 (A) (A) (A) (A) (A) (A) (A) (A) (A) (A) (A) (A)
                 (A) (A) (A) (A) (A) (A) (A) (A) (A) (A) (A) (A)
                 (A) (A) (A) (A) (A) (A) (A) (A) (A) (A) (A) (A)
                 (A) (A) (A) (A) (A) (A) (A) (A) (A) (A) (A) (A)
                 (A) (A) (A) (A) (A) (A) (A) (A) (A) (A) (A) (A)
                 (A) (A) (A) (A) (A) (A) (A) (A) (A) (A) (A) (A)
                 (A) (A) (A) (A) (A) (A) (A) (A) (A) (A) (A) (A)
                 (A) (A) (A) (A) (A) (A) (A) (A) (A) (A) (A) (A)
                 (A) (A) (A) (A) (A) (A) (A) (A) (A) (A) (A) (A)
                 (A) (A) (A) (A) (A) (A) (A) (A) (A) (A) (A) (A)
                 (A) (A) (A) (A) (A) (A) (A) (A) (A) (A) (A) (A)
                 (A) (A) (A) (A) (A) (A) (A) (A) (A) (A) (A) (A)
                 (A) (A) (A) (A) (A) (A) (A) (A) (A) (A) (A) (A)
                 (A) (A) (A) (A) (A) (A) (A) (A) (A) (A) (A) (A)
                 (A) (A) (A) (A) (A) (A) (A) (A) (A) (A) (A) (A)
                 (A) (A) (A) (A) (A) (A) (A) (A) (A) (A) (A) (A)
                 (A) (A) (A) (A) (A) (A) (A) (A) (A) (A) (A) (A)
                 (A) (A) (A) (A) (A) (A) (A) (A) (A) (A) (A) (A)
                 (A) (A) (A) (A) (A) (A) (A) (A) (A) (A) (A) (A)
                 (A) (A) (A) (A) (A) (A) (A) (A) (A) (A) (A) (A)
                 (A) (A) (A) (A) (A) (A) (A) (A) (A) (A) (A) (A)
                 (A) (A) (A) (A) (A) (A) (A) (A) (A) (A) (A) (A)
                 (A) (A) (A) (A) (A) (A) (A) (A) (A) (A) (A) (A)
                 (A) (A) (A) (A) (A) (A) (A) (A) (A) (A) (A) (A)
                 (A) (A) (A) (A) (A) (A) (A) (A) (A) (A) (A) (A)
                 (A) (A) (A) (A) (A) (A) (A) (A) (A) (A) (A) (A)
                 (A) (A) (A) (A) (A) (A) (A) (A) (A) (A) (A) (A)
                 (A) (A) (A) (A) (A) (A) (A) (A) (A) (A) (A) (A)
                 (A) (A) (A) (A) (A) (A) (A) (A) (A) (A) (A) (A)
                 (A) (A) (A) (A) (A) (A) (A) (A) (A) (A) (A) (A)
                 (A) (A) (A) (A) (A) (A) (A) (A) (A) (A) (A) (A)
                 (A) (A) (A) (A) (A) (A) (A) (A) (A) (A) (A) (A)
                 (A) (A) (A) (A) (A) (A) (A) (A) (A) (A) (A) (A)
                 (A) (A) (A) (A) (A) (A) (A) (A) (A) (A) (A) (A)
                 (A) (A) (A) (A) (A) (A) (A) (A) (A) (A) (A) (A)
                 (A) (A) (A) (A) (A) (A) (A) (A) (A) (A) (A) (A)
                 (A) (A) (A) (A) (A) (A) (A) (A) (A) (A) (A) (A)
                 (A) (A) (A) (A) (A) (A) (A) (A) (A) (A) (A) (A)
                 (A) (A) (A) (A) (A) (A) (A) (A) (A) (A) (A) (A)
                 (A) (A) (A) (A) (A) (A) (A) (A) (A) (A) (A) (A)
                 (A) (A) (A) (A) (A) (A) (A) (A) (A) (A) (A) (A)
                 (A) (A) (A) (A) (A) (A) (A) (A) (A) (A) (A) (A)
                 (A) (A) (A) (A) (A) (A) (A) (A) (A) (A) (A) (A)
                 (A) (A) (A) (A) (A) (A) (A) (A) (A) (A) (A) (A)
                 (A) (A) (A) (A) (A) (A) (A) (A) (A) (A) (A) (A)
                 (A) (A) (A) (A) (A) (A) (A) (A) (A) (A) (A) (A)
                 (A) (A) (A) (A) (A) (A) (A) (A) (A) (A) (A) (A)
                 (A) (A) (A) (A) (A) (A) (A) (A) (A) (A) (A) (A)
                 (A) (A) (A) (A) (A) (A) (A) (A) (A) (A) (A) (A)
                 (A) (A) (A) (A) (A) (A) (A) (A) (A) (A) (A) (A)
                 (A) (A) (A) (A) (A) (A) (A) (A) (A) (A) (A) (A)
                 (A) (A) (A) (A) (A) (A) (A) (A) (A) (A) (A) (A)
                 (A) (A) (A) (A) (A) (A) (A) (A) (A) (A) (A) (A)
                 (A) (A) (A) (A) (A) (A) (A) (A) (A) (A) (A) (A)
                 (A) (A) (A) (A) (A) (A) (A) (A) (A) (A) (A) (A)
                 (A) (A) (A) (A) (A) (A) (A) (A) (A) (A) (A) (A)
                 (A) (A) (A) (A) (A) (A) (A) (A) (A) (A) (A) (A)
                 (A) (A) (A) (A) (A) (A) (A) (A) (A) (A) (A) (A)
                 (A) (A) (A) (A) (A) (A) (A) (A) (A) (A) (A) (A)
                 (A) (A) (A) (A) (A) (A) (A) (A) (A) (A) (A) (A)
                 (A) (A) (A) (A) (A) (A) (A) (A) (A) (A) (A) (A)
                 (A) (A) (A) (A) (A) (A) (A) (A) (A) (A) (A) (A)
                 (A) (A) (A) (A) (A) (A) (A) (A) (A) (A) (A) (A)
                 (A) (A) (A) (A) (A) (A) (A) (A) (A) (A) (A) (A)
                 (A) (A) (A) (A) (A) (A) (A) (A) (A) (A) (A) (A)
                 (A) (A) (A) (A) (A) (A) (A) (A) (A) (A) (A) (A)
                 (A) (A) (A) (A) (A) (A) (A) (A) (A) (A) (A) (A)
                 (A) (A) (A) (A) (A) (A) (A) (A) (A) (A) (A) (A)
                 (A) (A) (A) (A) (A) (A) (A) (A) (A) (A) (A) (A)
                 (A) (A) (A) (A) (A) (A) (A) (A) (A) (A) (A) (A)
                 (A) (A) (A) (A) (A) (A) (A) (A) (A) (A) (A) (A)
                 (A) (A) (A) (A) (A) (A) (A) (A) (A) (A) (A) (A)
                 (A) (A) (A) (A) (A) (A) (A) (A) (A) (A) (A) (A)
                 (A) (A) (A) (A) (A) (A) (A) (A) (A) (A) (A) (A)
                 (A) (A) (A) (A) (A) (A) (A) (A) (A) (A) (A) (A)
                 (A) (A) (A) (A) (A) (A) (A) (A) (A) (A) (A) (A)
                 (A) (A) (A) (A) (A) (A) (A) (A) (A) (A) (A) (A)
                 (A) (A) (A) (A) (A) (A) (A) (A) (A) (A) (A) (A)
                 (A) (A) (A) (A) (A) (A) (A) (A) (A) (A) (A) (A)
                 (A) (A) (A) (A) (A) (A) (A) (A) (A) (A) (A) (A)
                 (A) (A) (A) (A) (A) (A) (A) (A) (A) (A) (A) (A)
                 (A) (A) (A) (A) (A) (A) (A) (A) (A) (A) (A) (A)
                 (A) (A) (A) (A) (A) (A) (A) (A) (A) (A) (A) (A)
                 (A) (A) (A) (A) (A) (A) (A) (A) (A) (A) (A) (A)
                 (A) (A) (A) (A) (A) (A) (A) (A) (A) (A) (A) (A)
                 (A) (A) (A) (A) (A) (A) (A) (A) (A) (A) (A) (A)
                 (A) (A) (A) (A) (A) (A) (A) (A)
    20 initial guesses have been made.
 Convergence on wavefunction:    0.001000000000000
 Davidson Disk Diagonalization:  ConvIn= 1.00D-03 SkipCon=T Conv= 1.00D-03.
 Max sub-space:  2000 roots to seek:    20 dimension of matrix:       370304
 Iteration     1 Dimension    20 NMult     0 NNew     20
 CISAX will form    20 AO SS matrices at one time.
 NMat=    20 NSing=    20 JSym2X= 0.
 FoFJK:  IHMeth= 1 ICntrl=     500 DoSepK=F KAlg= 0 I1Cent=           0 FoldK=F
 IRaf= 510000000 NMat=      20 IRICut=       1 DoRegI=T DoRafI=F ISym2E= 0 IDoP0=0 IntGTp=1.
 FoFCou: FMM=T IPFlag=           0 FMFlag=      100000 FMFlg1=        2001
         NFxFlg=           0 DoJE=F BraDBF=F KetDBF=F FulRan=T
         wScrn=  0.000000 ICntrl=       500 IOpCl=  0 I1Cent=           0 NGrid=           0
         NMat0=   20 NMatS0=     20 NMatT0=    0 NMatD0=   20 NMtDS0=    0 NMtDT0=    0
 Symmetry not used in FoFCou.
 FMM levels:  10  Number of levels for PrismC:   9
 New state      1 was old state      3
 New state      2 was old state      1
 New state      3 was old state      4
 New state      4 was old state      5
 New state      5 was old state      2
 Excitation Energies [eV] at current iteration:
 Root      1 :     1.817913023975254
 Root      2 :     1.995920049245039
 Root      3 :     2.008137218981465
 Root      4 :     2.107806236116745
 Root      5 :     2.339569770417486
 Root      6 :     2.754393728556158
 Root      7 :     2.923903648777749
 Root      8 :     2.960544493989327
 Root      9 :     3.028870273433519
 Root     10 :     3.035703144849993
 Root     11 :     3.231920061574236
 Root     12 :     3.233352815973349
 Root     13 :     3.251236286882421
 Root     14 :     3.315372144851335
 Root     15 :     3.380139775590563
 Root     16 :     3.484302036116128
 Root     17 :     3.823125423139223
 Root     18 :     3.998872031961669
 Root     19 :     4.158260921860118
 Root     20 :     4.307816785116999
 Iteration     2 Dimension    40 NMult    20 NNew     20
 CISAX will form    20 AO SS matrices at one time.
 NMat=    20 NSing=    20 JSym2X= 0.
 Root      1 not converged, maximum delta is    0.458854628970704
 Root      2 not converged, maximum delta is    0.512488092591184
 Root      3 not converged, maximum delta is    0.059283921984465
 Root      4 not converged, maximum delta is    0.320885794832539
 Root      5 not converged, maximum delta is    0.261283080341364
 Excitation Energies [eV] at current iteration:
 Root      1 :     1.783050299576482   Change is   -0.034862724398772
 Root      2 :     1.827838691792804   Change is   -0.168081357452236
 Root      3 :     2.008050685818937   Change is   -0.000086533162528
 Root      4 :     2.012571397034505   Change is   -0.095234839082240
 Root      5 :     2.145541155031606   Change is   -0.194028615385880
 Root      6 :     2.518205969716550   Change is   -0.236187758839608
 Root      7 :     2.665290236440319   Change is   -0.258613412337430
 Root      8 :     2.872037794692876   Change is   -0.163665350157116
 Root      9 :     2.958582498127044   Change is   -0.001961995862283
 Root     10 :     3.009603736619650   Change is   -0.019266536813870
 Root     11 :     3.040636833980402   Change is   -0.191283227593834
 Root     12 :     3.089602079819234   Change is   -0.290537695771329
 Root     13 :     3.221625063208122   Change is   -0.029611223674299
 Root     14 :     3.232959389705765   Change is   -0.000393426267584
 Root     15 :     3.257914491359818   Change is   -0.057457653491518
 Root     16 :     3.329711879511841   Change is   -0.154590156604287
 Root     17 :     3.378546495032975   Change is   -0.444578928106248
 Root     18 :     3.562286377691546   Change is   -0.436585654270123
 Root     19 :     3.657635584171557   Change is   -0.500625337688562
 Root     20 :     4.096081926488137   Change is   -0.211734858628862
 Iteration     3 Dimension    45 NMult    40 NNew      5
 CISAX will form     5 AO SS matrices at one time.
 NMat=     5 NSing=     5 JSym2X= 0.
 Root      1 not converged, maximum delta is    0.199057517084868
 Root      2 not converged, maximum delta is    0.180037399486764
 New state      3 was old state      4
 Root      3 not converged, maximum delta is    0.059684081533385
 New state      4 was old state      3
 Root      4 not converged, maximum delta is    0.039010294171524
 Root      5 not converged, maximum delta is    0.049790389299513
 Excitation Energies [eV] at current iteration:
 Root      1 :     1.741926514809486   Change is   -0.041123784766996
 Root      2 :     1.818099655030029   Change is   -0.009739036762774
 Root      3 :     1.992700738851078   Change is   -0.019870658183427
 Root      4 :     2.008069847874181   Change is    0.000019162055245
 Root      5 :     2.127953019313411   Change is   -0.017588135718195
 Iteration     4 Dimension    50 NMult    45 NNew      5
 CISAX will form     5 AO SS matrices at one time.
 NMat=     5 NSing=     5 JSym2X= 0.
 Root      1 not converged, maximum delta is    0.033027634762865
 Root      2 not converged, maximum delta is    0.029896637435453
 Root      3 not converged, maximum delta is    0.024464400517968
 Root      4 not converged, maximum delta is    0.003406686766429
 Root      5 not converged, maximum delta is    0.018878296769164
 Excitation Energies [eV] at current iteration:
 Root      1 :     1.726789408224831   Change is   -0.015137106584656
 Root      2 :     1.816262190151821   Change is   -0.001837464878208
 Root      3 :     1.984083634315779   Change is   -0.008617104535299
 Root      4 :     2.008066847743084   Change is   -0.000003000131098
 Root      5 :     2.121998157550710   Change is   -0.005954861762701
 Iteration     5 Dimension    55 NMult    50 NNew      5
 CISAX will form     5 AO SS matrices at one time.
 NMat=     5 NSing=     5 JSym2X= 0.
 Root      1 not converged, maximum delta is    0.008854491291545
 Root      2 not converged, maximum delta is    0.008242154960425
 Root      3 not converged, maximum delta is    0.008525082816082
 Root      4 has converged.
 Root      5 not converged, maximum delta is    0.006946365487719
 Excitation Energies [eV] at current iteration:
 Root      1 :     1.721666641057173   Change is   -0.005122767167658
 Root      2 :     1.815672931566716   Change is   -0.000589258585105
 Root      3 :     1.980865721078508   Change is   -0.003217913237271
 Root      4 :     2.008065549777344   Change is   -0.000001297965739
 Root      5 :     2.119968588734610   Change is   -0.002029568816100
 Iteration     6 Dimension    59 NMult    55 NNew      4
 CISAX will form     4 AO SS matrices at one time.
 NMat=     4 NSing=     4 JSym2X= 0.
 Root      1 not converged, maximum delta is    0.003818419588263
 Root      2 not converged, maximum delta is    0.003620811584357
 Root      3 not converged, maximum delta is    0.002532990252888
 Root      4 has converged.
 Root      5 not converged, maximum delta is    0.002511012195708
 Excitation Energies [eV] at current iteration:
 Root      1 :     1.719236810549488   Change is   -0.002429830507685
 Root      2 :     1.815399960250221   Change is   -0.000272971316494
 Root      3 :     1.979668458472904   Change is   -0.001197262605605
 Root      4 :     2.008065497712537   Change is   -0.000000052064808
 Root      5 :     2.119239838083091   Change is   -0.000728750651519
 Iteration     7 Dimension    63 NMult    59 NNew      4
 CISAX will form     4 AO SS matrices at one time.
 NMat=     4 NSing=     4 JSym2X= 0.
 Root      1 not converged, maximum delta is    0.001581601615743
 Root      2 not converged, maximum delta is    0.001489170601715
 Root      3 not converged, maximum delta is    0.001144660108232
 Root      4 has converged.
 Root      5 not converged, maximum delta is    0.001153815043013
 Excitation Energies [eV] at current iteration:
 Root      1 :     1.718201771769008   Change is   -0.001035038780480
 Root      2 :     1.815283353747641   Change is   -0.000116606502580
 Root      3 :     1.979146383436701   Change is   -0.000522075036203
 Root      4 :     2.008065470925305   Change is   -0.000000026787231
 Root      5 :     2.118943878295813   Change is   -0.000295959787278
 Iteration     8 Dimension    67 NMult    63 NNew      4
 CISAX will form     4 AO SS matrices at one time.
 NMat=     4 NSing=     4 JSym2X= 0.
 Root      1 not converged, maximum delta is    0.001004925411330
 Root      2 has converged.
 Root      3 has converged.
 Root      4 has converged.
 Root      5 has converged.
 Excitation Energies [eV] at current iteration:
 Root      1 :     1.717765045945315   Change is   -0.000436725823693
 Root      2 :     1.815240030772722   Change is   -0.000043322974919
 Root      3 :     1.978927764146220   Change is   -0.000218619290481
 Root      4 :     2.008065452918270   Change is   -0.000000018007035
 Root      5 :     2.118827941007106   Change is   -0.000115937288707
 Iteration     9 Dimension    68 NMult    67 NNew      1
 CISAX will form     1 AO SS matrices at one time.
 NMat=     1 NSing=     1 JSym2X= 0.
 Root      1 has converged.
 Root      2 has converged.
 Root      3 has converged.
 Root      4 has converged.
 Root      5 has converged.
 Excitation Energies [eV] at current iteration:
 Root      1 :     1.717576920594287   Change is   -0.000188125351028
[...]
 Alpha virt. eigenvalues --    1.12524   1.12764   1.12977   1.13772   1.14138
 Alpha virt. eigenvalues --    1.14479   1.14711   1.15089   1.15954   1.16152
 Alpha virt. eigenvalues --    1.16618   1.17767   1.18022   1.18168   1.19014
 Alpha virt. eigenvalues --    1.19572   1.19920   1.20174   1.20751   1.21046
 Alpha virt. eigenvalues --    1.21580   1.21927   1.21938   1.23590   1.23762
 Alpha virt. eigenvalues --    1.23964   1.24517   1.24779   1.25220   1.25823
 Alpha virt. eigenvalues --    1.25919   1.26265   1.26881   1.27264   1.28767
 Alpha virt. eigenvalues --    1.28937   1.29198   1.29744   1.30102   1.30350
 Alpha virt. eigenvalues --    1.30626   1.30747   1.31139   1.31554   1.31922
 Alpha virt. eigenvalues --    1.32044   1.32592   1.32757   1.33618   1.33988
 Alpha virt. eigenvalues --    1.34149   1.34300   1.34589   1.34776   1.35595
 Alpha virt. eigenvalues --    1.35673   1.35787   1.36073   1.36570   1.37544
 Alpha virt. eigenvalues --    1.38118   1.38427   1.38922   1.38937   1.39854
 Alpha virt. eigenvalues --    1.40159   1.40513   1.40918   1.41654   1.41705
 Alpha virt. eigenvalues --    1.42350   1.42629   1.43148   1.43506   1.44234
 Alpha virt. eigenvalues --    1.44342   1.45013   1.45141   1.45396   1.45538
 Alpha virt. eigenvalues --    1.45983   1.46201   1.46521   1.46809   1.47073
 Alpha virt. eigenvalues --    1.47130   1.47232   1.47470   1.48010   1.48185
 Alpha virt. eigenvalues --    1.48324   1.48703   1.48764   1.49208   1.49637
 Alpha virt. eigenvalues --    1.49687   1.49919   1.49986   1.50049   1.50393
 Alpha virt. eigenvalues --    1.50775   1.50827   1.51142   1.52003   1.52125
 Alpha virt. eigenvalues --    1.52381   1.52662   1.53180   1.53826   1.54240
 Alpha virt. eigenvalues --    1.54680   1.54998   1.55311   1.55975   1.56142
 Alpha virt. eigenvalues --    1.56378   1.56996   1.57630   1.58148   1.58201
 Alpha virt. eigenvalues --    1.58504   1.59606   1.60832   1.61164   1.61517
 Alpha virt. eigenvalues --    1.61714   1.61949   1.62561   1.62951   1.63054
 Alpha virt. eigenvalues --    1.63580   1.63672   1.64000   1.64748   1.64983
 Alpha virt. eigenvalues --    1.65095   1.65267   1.65753   1.66119   1.66161
 Alpha virt. eigenvalues --    1.66258   1.66694   1.66841   1.67044   1.67229
 Alpha virt. eigenvalues --    1.67397   1.67683   1.67859   1.67974   1.68154
 Alpha virt. eigenvalues --    1.68252   1.68373   1.68661   1.69093   1.69430
 Alpha virt. eigenvalues --    1.69577   1.69652   1.69802   1.69978   1.70109
 Alpha virt. eigenvalues --    1.70474   1.70549   1.70812   1.71058   1.71306
 Alpha virt. eigenvalues --    1.71443   1.71771   1.72018   1.72112   1.72157
 Alpha virt. eigenvalues --    1.72539   1.72646   1.72709   1.73091   1.73324
 Alpha virt. eigenvalues --    1.73388   1.73695   1.73891   1.74252   1.74394
 Alpha virt. eigenvalues --    1.74797   1.74971   1.75027   1.75257   1.75443
 Alpha virt. eigenvalues --    1.75469   1.75656   1.75778   1.75991   1.76139
 Alpha virt. eigenvalues --    1.76359   1.76736   1.76865   1.77058   1.77237
 Alpha virt. eigenvalues --    1.77587   1.78202   1.78353   1.78594   1.78868
 Alpha virt. eigenvalues --    1.78880   1.78940   1.79286   1.79452   1.79639
 Alpha virt. eigenvalues --    1.80018   1.80230   1.80526   1.80797   1.81085
 Alpha virt. eigenvalues --    1.81284   1.81434   1.81536   1.81746   1.81845
 Alpha virt. eigenvalues --    1.82269   1.82447   1.82647   1.83155   1.83164
 Alpha virt. eigenvalues --    1.83236   1.83476   1.84057   1.84436   1.84743
 Alpha virt. eigenvalues --    1.84897   1.85038   1.85216   1.85374   1.85483
 Alpha virt. eigenvalues --    1.85834   1.85918   1.86263   1.86473   1.86650
 Alpha virt. eigenvalues --    1.86825   1.86996   1.87358   1.87387   1.87620
 Alpha virt. eigenvalues --    1.87952   1.88246   1.88406   1.88557   1.89011
 Alpha virt. eigenvalues --    1.89285   1.89909   1.90185   1.90373   1.90853
 Alpha virt. eigenvalues --    1.91091   1.91371   1.91680   1.91695   1.92286
 Alpha virt. eigenvalues --    1.92513   1.92691   1.93002   1.93180   1.93393
 Alpha virt. eigenvalues --    1.93823   1.93998   1.94512   1.95027   1.95237
 Alpha virt. eigenvalues --    1.95743   1.95990   1.96540   1.96639   1.96732
 Alpha virt. eigenvalues --    1.97050   1.97278   1.97490   1.97858   1.98486
 Alpha virt. eigenvalues --    1.99076   1.99157   1.99590   1.99838   2.00300
 Alpha virt. eigenvalues --    2.00427   2.00599   2.00646   2.00997   2.01204
 Alpha virt. eigenvalues --    2.01860   2.02236   2.02459   2.02737   2.02926
 Alpha virt. eigenvalues --    2.03010   2.03226   2.03335   2.03880   2.04092
 Alpha virt. eigenvalues --    2.04557   2.05075   2.05301   2.05598   2.05661
 Alpha virt. eigenvalues --    2.05855   2.06491   2.06659   2.06792   2.07387
 Alpha virt. eigenvalues --    2.07554   2.07603   2.07710   2.08649   2.08704
 Alpha virt. eigenvalues --    2.08899   2.09128   2.09333   2.10119   2.11017
 Alpha virt. eigenvalues --    2.11833   2.12186   2.12605   2.13133   2.13420
 Alpha virt. eigenvalues --    2.13768   2.14607   2.15107   2.15197   2.15931
 Alpha virt. eigenvalues --    2.16288   2.16843   2.17208   2.17514   2.17910
 Alpha virt. eigenvalues --    2.17969   2.18348   2.18812   2.19198   2.19758
 Alpha virt. eigenvalues --    2.19963   2.20022   2.20162   2.20494   2.20533
 Alpha virt. eigenvalues --    2.21175   2.22207   2.22557   2.22824   2.23320
 Alpha virt. eigenvalues --    2.23682   2.23842   2.24560   2.25029   2.25070
 Alpha virt. eigenvalues --    2.25367   2.25476   2.26006   2.26197   2.26313
 Alpha virt. eigenvalues --    2.26633   2.26697   2.27099   2.27212   2.27850
 Alpha virt. eigenvalues --    2.27887   2.27897   2.28310   2.28771   2.29226
 Alpha virt. eigenvalues --    2.30131   2.30422   2.30607   2.31020   2.31718
 Alpha virt. eigenvalues --    2.32164   2.32852   2.33115   2.33549   2.33632
 Alpha virt. eigenvalues --    2.33662   2.33984   2.34316   2.34657   2.35096
 Alpha virt. eigenvalues --    2.35568   2.35927   2.36571   2.36920   2.37220
 Alpha virt. eigenvalues --    2.37662   2.38030   2.38141   2.38590   2.38870
 Alpha virt. eigenvalues --    2.39263   2.39562   2.39763   2.40235   2.40382
 Alpha virt. eigenvalues --    2.40707   2.41351   2.41958   2.42474   2.42935
 Alpha virt. eigenvalues --    2.43171   2.43351   2.43518   2.44647   2.45117
 Alpha virt. eigenvalues --    2.45423   2.45618   2.45772   2.46096   2.47566
 Alpha virt. eigenvalues --    2.47842   2.48027   2.48510   2.48993   2.49160
 Alpha virt. eigenvalues --    2.49414   2.49582   2.49655   2.50295   2.51249
 Alpha virt. eigenvalues --    2.51824   2.51995   2.52161   2.52410   2.52509
 Alpha virt. eigenvalues --    2.53818   2.53918   2.54101   2.54661   2.55216
 Alpha virt. eigenvalues --    2.55335   2.55544   2.55662   2.56157   2.56387
 Alpha virt. eigenvalues --    2.56649   2.57518   2.57797   2.57999   2.58271
 Alpha virt. eigenvalues --    2.59020   2.59278   2.59624   2.60809   2.61558
 Alpha virt. eigenvalues --    2.61601   2.62020   2.62446   2.62870   2.63135
 Alpha virt. eigenvalues --    2.63429   2.63631   2.64066   2.64202   2.64333
 Alpha virt. eigenvalues --    2.64469   2.65085   2.65262   2.65328   2.65674
 Alpha virt. eigenvalues --    2.65821   2.66952   2.67428   2.67673   2.67949
 Alpha virt. eigenvalues --    2.69281   2.69566   2.70254   2.70999   2.71314
 Alpha virt. eigenvalues --    2.71534   2.72219   2.72875   2.73887   2.73991
 Alpha virt. eigenvalues --    2.74111   2.75485   2.76203   2.76223   2.76755
 Alpha virt. eigenvalues --    2.76846   2.78067   2.78494   2.79205   2.79361
 Alpha virt. eigenvalues --    2.80022   2.80104   2.80385   2.80587   2.81076
 Alpha virt. eigenvalues --    2.81198   2.81504   2.81688   2.81895   2.82202
 Alpha virt. eigenvalues --    2.82428   2.82754   2.82991   2.83334   2.83345
 Alpha virt. eigenvalues --    2.83426   2.84318   2.84639   2.84951   2.85198
 Alpha virt. eigenvalues --    2.85793   2.86177   2.86428   2.86729   2.86912
 Alpha virt. eigenvalues --    2.87815   2.88060   2.88248   2.88323   2.88774
 Alpha virt. eigenvalues --    2.88962   2.89251   2.89813   2.90277   2.90706
 Alpha virt. eigenvalues --    2.91066   2.91633   2.91646   2.91938   2.92432
 Alpha virt. eigenvalues --    2.92580   2.92773   2.92845   2.93083   2.93497
 Alpha virt. eigenvalues --    2.93952   2.94125   2.94361   2.94657   2.94994
 Alpha virt. eigenvalues --    2.95771   2.96111   2.96656   2.97011   2.97412
 Alpha virt. eigenvalues --    2.97613   2.97768   2.98128   2.98254   2.99067
 Alpha virt. eigenvalues --    2.99573   3.01177   3.01471   3.02425   3.02991
 Alpha virt. eigenvalues --    3.03188   3.03632   3.04117   3.05008   3.06128
 Alpha virt. eigenvalues --    3.06278   3.07793   3.08965   3.09228   3.10544
 Alpha virt. eigenvalues --    3.11502   3.11865   3.12062   3.12687   3.14126
 Alpha virt. eigenvalues --    3.16501   3.17309   3.25943   3.28170   3.31141
 Alpha virt. eigenvalues --    3.34173   3.36051   3.36435   3.39967   3.41758
 Alpha virt. eigenvalues --    3.43667   3.50974   3.52872   3.55770   3.57306
 Alpha virt. eigenvalues --    3.58261   3.59211
          Condensed to atoms (all electrons):
 Mulliken charges:
               1
     1  Mg   0.685682
     2  C   -0.049184
     3  C   -0.075780
     4  C   -0.004955
     5  C   -0.060234
     6  N   -0.237935
     7  C   -0.113801
     8  C    0.112391
     9  C    0.000059
    10  C    0.045462
    11  C    0.108731
    12  C    0.117827
    13  C    0.127759
    14  C    0.066659
    15  O   -0.182267
    16  O   -0.267733
    17  N   -0.276021
    18  C    0.105814
    19  C   -0.103593
    20  C    0.053576
    21  C    0.102523
    22  C    0.186402
    23  C   -0.153882
    24  O   -0.129564
    25  C    0.141756
    26  N   -0.207025
    27  C   -0.032177
    28  C   -0.034665
    29  C    0.035975
    30  C    0.024912
    31  C    0.150161
    32  C    0.084417
    33  C    0.067792
    34  N   -0.312030
    35  C    0.095694
    36  C   -0.173618
    37  C    0.039209
    38  C    0.150828
    39  C    0.170120
    40  C   -0.013290
    41  O   -0.094847
    42  C    0.049091
    43  C    0.118838
    44  O   -0.130798
    45  O   -0.276362
    46  C    0.198485
    47  C    0.366228
    48  C   -0.148675
    49  C   -0.178423
    50  C    0.156055
    51  C    0.192672
    52  C    0.040205
    53  C    0.097190
    54  C   -0.056762
    55  C    0.101159
    56  C    0.111213
    57  C    0.020436
    58  C    0.120270
    59  C   -0.107474
    60  C    0.114689
    61  C    0.065767
    62  C    0.133846
    63  C    0.091549
    64  C   -0.108524
    65  C    0.099380
    66  C    0.123164
    67  H   -0.065859
    68  H   -0.092504
    69  H   -0.059936
    70  H   -0.024944
    71  H   -0.014157
    72  H    0.000399
    73  H   -0.002598
    74  H   -0.014270
    75  H   -0.019030
    76  H   -0.024094
    77  H    0.015895
    78  H    0.022993
    79  H   -0.008766
    80  H    0.014321
    81  H   -0.013245
    82  H    0.011542
    83  H    0.021289
    84  H   -0.027244
    85  H   -0.020637
    86  H   -0.021155
    87  H   -0.004832
    88  H   -0.004520
    89  H    0.000428
    90  H   -0.005765
    91  H   -0.024076
    92  H   -0.003415
    93  H   -0.014329
    94  H    0.000301
    95  H    0.007243
    96  H    0.007426
    97  H   -0.004194
    98  H   -0.008256
    99  H    0.026628
   100  H    0.008502
   101  H    0.006006
   102  H   -0.020526
   103  H   -0.003117
   104  H   -0.041800
   105  H   -0.025684
   106  H    0.007531
   107  H   -0.009528
   108  H   -0.024298
   109  H   -0.041532
   110  H   -0.028504
   111  H   -0.035227
   112  H   -0.030152
   113  H   -0.033823
   114  H   -0.028021
   115  H   -0.008146
   116  H   -0.023598
   117  H   -0.022749
   118  H   -0.031640
   119  H   -0.030369
   120  H   -0.028857
   121  H   -0.026007
   122  H   -0.047649
   123  H   -0.034557
   124  H   -0.034753
   125  H   -0.014713
   126  H   -0.024087
   127  H   -0.005804
   128  H   -0.028516
   129  H   -0.056855
   130  H   -0.025479
   131  H   -0.016251
   132  H   -0.036748
   133  H   -0.042991
   134  H   -0.039988
   135  H   -0.021111
   136  H   -0.036843
   137  H   -0.006376
   138  H   -0.021592
   139  H   -0.007770
   140  H   -0.021384
 Sum of Mulliken charges =  -0.00000
 Mulliken charges with hydrogens summed into heavy atoms:
               1
     1  Mg   0.685682
     2  C   -0.049184
     3  C   -0.141638
     4  C   -0.097458
     5  C   -0.120170
     6  N   -0.237935
     7  C   -0.113801
     8  C    0.087447
     9  C   -0.014098
    10  C    0.045462
    11  C    0.092262
    12  C    0.074703
    13  C    0.166647
    14  C    0.066659
    15  O   -0.182267
    16  O   -0.267733
    17  N   -0.276021
    18  C    0.105814
    19  C   -0.103593
    20  C    0.053576
    21  C    0.102523
    22  C    0.178712
    23  C   -0.153882
    24  O   -0.129564
    25  C    0.147342
    26  N   -0.207025
    27  C   -0.032177
    28  C   -0.055302
    29  C    0.014820
    30  C    0.024912
    31  C    0.141236
    32  C    0.054576
    33  C    0.050350
    34  N   -0.312030
    35  C    0.095694
    36  C   -0.173618
    37  C    0.039209
    38  C    0.150828
    39  C    0.180595
    40  C   -0.013290
    41  O   -0.094847
    42  C    0.040835
    43  C    0.118838
    44  O   -0.130798
    45  O   -0.276362
    46  C    0.239620
    47  C    0.342585
    48  C   -0.190475
    49  C   -0.178423
    50  C    0.128374
    51  C    0.126843
    52  C   -0.023525
    53  C    0.033215
    54  C   -0.084783
    55  C    0.046666
    56  C    0.049204
    57  C   -0.034429
    58  C    0.038064
    59  C   -0.142228
    60  C    0.070085
    61  C   -0.019604
    62  C    0.092115
    63  C    0.011810
    64  C   -0.148512
    65  C    0.035050
    66  C    0.072419
 Electronic spatial extent (au):  <R**2>=         125138.6632
 Charge=             -0.0000 electrons
 Dipole moment (field-independent basis, Debye):
    X=              2.2802    Y=              3.6137    Z=              0.5829  Tot=              4.3125
 Quadrupole moment (field-independent basis, Debye-Ang):
   XX=           -368.2864   YY=           -437.1700   ZZ=           -413.2117
   XY=             10.7687   XZ=             -2.2391   YZ=             37.7358
 Traceless Quadrupole moment (field-independent basis, Debye-Ang):
   XX=             37.9363   YY=            -30.9474   ZZ=             -6.9890
   XY=             10.7687   XZ=             -2.2391   YZ=             37.7358
 Octapole moment (field-independent basis, Debye-Ang**2):
  XXX=            433.5673  YYY=            141.6044  ZZZ=             43.8588  XYY=             -3.9393
  XXY=             10.5515  XXZ=            -93.1658  XZZ=             44.9336  YZZ=            -23.1171
  YYZ=             66.2781  XYZ=            222.9528
 Hexadecapole moment (field-independent basis, Debye-Ang**3):
 XXXX=        -134988.5957 YYYY=         -24033.5678 ZZZZ=         -15081.3041 XXXY=           -367.7413
 XXXZ=            165.6265 YYYX=            661.1049 YYYZ=            962.9891 ZZZX=            260.6965
 ZZZY=            657.9305 XXYY=         -26715.0523 XXZZ=         -25150.1687 YYZZ=          -7184.6355
 XXYZ=            911.2934 YYXZ=            -25.7861 ZZXY=           -111.1405
 N-N= 9.490097169467D+03 E-N=-2.597503246615D+04  KE= 2.977963988547D+03
 Leave Link  601 at Thu Apr 28 02:39:09 2022, MaxMem= 10066329600 cpu:              12.0 elap:               0.6
 (Enter /sw/apps/gaussian-16.0/g16/l9999.exe)
 1\1\GINC-BP1-COMPUTE137\SP\RBLYP TD-FC\def2SVP\C55H74Mg1N4O6\OF15641\2
 8-Apr-2022\0\\#p blyp/Def2SVP td=(nstates=5)\\step_1401_chromophore_14
  TDDFT with blyp functional\\0,1\Mg,0,46.164,44.93,43.815\C,0,42.736,4
 4.708,43.175\C,0,46.454,41.543,43.142\C,0,49.517,45.292,43.521\C,0,45.
 897,48.489,43.747\N,0,44.763,43.389,43.087\C,0,43.373,43.468,42.945\C,
 0,42.796,42.114,42.757\C,0,43.976,41.154,43.042\C,0,45.136,42.073,43.1
 94\C,0,43.716,40.312,44.335\C,0,41.955,41.888,41.376\C,0,42.319,42.615
 ,40.069\C,0,42.488,41.802,38.847\O,0,42.105,40.659,38.623\O,0,43.157,4
 2.577,37.895\N,0,47.789,43.552,43.402\C,0,47.691,42.199,43.103\C,0,48.
 947,41.593,42.962\C,0,49.88,42.628,43.152\C,0,49.113,43.888,43.388\C,0
 ,49.184,40.126,42.657\C,0,51.332,42.486,42.984\O,0,51.84,41.462,42.63\
 C,0,52.186,43.738,43.167\N,0,47.552,46.601,43.931\C,0,48.859,46.452,43
 .741\C,0,49.668,47.769,43.703\C,0,48.513,48.825,43.802\C,0,47.231,47.9
 46,43.733\C,0,50.835,47.811,44.723\C,0,48.432,50.007,42.73\C,0,48.347,
 51.428,43.295\N,0,44.673,46.298,43.756\C,0,44.703,47.759,43.727\C,0,43
 .284,48.209,43.85\C,0,42.582,47.031,43.635\C,0,43.434,45.924,43.55\C,0
 ,42.843,49.652,43.856\C,0,41.163,46.596,43.433\O,0,40.19,47.28,43.302\
 C,0,41.225,45.038,43.18\C,0,40.425,44.265,44.239\O,0,39.45,43.587,44.0
 63\O,0,41.213,44.337,45.36\C,0,40.959,43.278,46.348\C,0,43.524,41.859,
 36.782\C,0,44.36,42.747,35.96\C,0,45.162,42.352,34.917\C,0,45.38,40.90
 9,34.516\C,0,45.92,43.361,34.139\C,0,45.804,43.234,32.634\C,0,45.118,4
 4.45,31.987\C,0,45.415,44.473,30.42\C,0,45.857,45.91,30.052\C,0,44.147
 ,44.049,29.54\C,0,44.272,42.615,28.972\C,0,43.645,42.29,27.6\C,0,44.10
 9,43.172,26.395\C,0,43.047,44.194,25.819\C,0,44.721,42.366,25.164\C,0,
 46.057,42.906,24.589\C,0,46.106,42.535,23.126\C,0,46.477,43.716,22.199
 \C,0,45.679,43.612,20.839\C,0,48.005,43.844,22.052\H,0,46.55,40.467,42
 .985\H,0,50.565,45.52,43.313\H,0,45.783,49.574,43.781\H,0,42.134,42.16
 4,43.622\H,0,44.238,40.492,42.217\H,0,44.139,39.317,44.47\H,0,42.633,4
 0.288,44.456\H,0,44.145,40.853,45.179\H,0,40.879,41.912,41.544\H,0,41.
 914,40.811,41.214\H,0,43.302,43.083,40.111\H,0,41.597,43.406,39.865\H,
 0,50.194,39.725,42.573\H,0,48.51,39.582,41.996\H,0,49.136,39.786,43.69
 2\H,0,52.069,44.176,44.158\H,0,52.026,44.375,42.297\H,0,53.209,43.373,
 43.078\H,0,50.186,47.827,42.746\H,0,48.561,49.273,44.794\H,0,50.616,48
 .698,45.318\H,0,51.721,47.79,44.088\H,0,50.862,46.877,45.286\H,0,47.58
 3,49.796,42.08\H,0,49.405,49.896,42.251\H,0,49.187,52.007,42.909\H,0,4
 8.418,51.374,44.381\H,0,47.398,51.898,43.035\H,0,41.775,49.698,43.646\
 H,0,43.39,50.317,43.187\H,0,42.994,49.991,44.881\H,0,40.795,44.764,42.
 217\H,0,40.097,42.637,46.161\H,0,40.81,43.675,47.352\H,0,41.808,42.619
 ,46.53\H,0,42.557,41.778,36.285\H,0,44.059,40.913,36.859\H,0,44.31,43.
 807,36.209\H,0,46.357,40.699,34.08\H,0,44.759,40.607,33.672\H,0,45.287
 ,40.287,35.406\H,0,46.98,43.285,34.379\H,0,45.525,44.31,34.502\H,0,45.
 228,42.338,32.402\H,0,46.805,43.123,32.216\H,0,45.373,45.396,32.463\H,
 0,44.071,44.28,32.242\H,0,46.206,43.779,30.136\H,0,46.451,45.868,29.13
 9\H,0,46.304,46.41,30.912\H,0,45.019,46.592,29.91\H,0,44.089,44.71,28.
 675\H,0,43.231,44.095,30.13\H,0,43.736,42.005,29.699\H,0,45.313,42.311
 ,28.864\H,0,42.586,42.445,27.809\H,0,43.731,41.227,27.373\H,0,44.999,4
 3.659,26.793\H,0,43.322,45.237,25.976\H,0,42.179,44.029,26.456\H,0,42.
 792,44.118,24.762\H,0,43.894,42.198,24.474\H,0,44.825,41.391,25.639\H,
 0,46.937,42.443,25.035\H,0,46.047,43.963,24.854\H,0,45.167,42.119,22.7
 6\H,0,46.806,41.748,22.847\H,0,46.111,44.603,22.716\H,0,45.397,42.604,
 20.537\H,0,46.299,43.823,19.968\H,0,44.826,44.289,20.8\H,0,48.536,43.2
 28,22.777\H,0,48.371,44.868,22.132\H,0,48.191,43.392,21.078\\Version=E
 S64L-G16RevA.03\State=1-A\HF=-3007.3394408\RMSD=2.558e-09\PG=C01 [X(C5
 5H74Mg1N4O6)]\\@


 ABOVE ALL I AM AN OPTIMIST FOR NUMBER THEORY,
 AND I HOLD THE HOPE THAT WE MAY NOT BE FAR FROM
 A TIME WHEN IRREFUTABLE ARITHMETIC WILL CELEBRATE
 ITS TRIUMPHS IN PHYSICS AND CHEMISTRY.
   -- HERMANN MINKOWSKI, 1905
 Job cpu time:       0 days  7 hours 25 minutes 17.0 seconds.
 Elapsed time:       0 days  0 hours 18 minutes 36.7 seconds.
 File lengths (MBytes):  RWF=   8017 Int=      0 D2E=      0 Chk=    390 Scr=      1
 Normal termination of Gaussian 16 at Thu Apr 28 02:39:09 2022.
