 Entering Gaussian System, Link 0=g16
 Initial command:
 /sw/apps/gaussian-16.0/g16/l1.exe "/tmp/Gau-171531.inp" -scrdir="/tmp/"
 Entering Link 1 = /sw/apps/gaussian-16.0/g16/l1.exe PID=    171533.
  
 Copyright (c) 1988,1990,1992,1993,1995,1998,2003,2009,2016,
            Gaussian, Inc.  All Rights Reserved.
  
 This is part of the Gaussian(R) 16 program.  It is based on
 the Gaussian(R) 09 system (copyright 2009, Gaussian, Inc.),
 the Gaussian(R) 03 system (copyright 2003, Gaussian, Inc.),
 the Gaussian(R) 98 system (copyright 1998, Gaussian, Inc.),
 the Gaussian(R) 94 system (copyright 1995, Gaussian, Inc.),
 the Gaussian 92(TM) system (copyright 1992, Gaussian, Inc.),
 the Gaussian 90(TM) system (copyright 1990, Gaussian, Inc.),
 the Gaussian 88(TM) system (copyright 1988, Gaussian, Inc.),
 the Gaussian 86(TM) system (copyright 1986, Carnegie Mellon
 University), and the Gaussian 82(TM) system (copyright 1983,
 Carnegie Mellon University). Gaussian is a federally registered
 trademark of Gaussian, Inc.
  
 This software contains proprietary and confidential information,
 including trade secrets, belonging to Gaussian, Inc.
  
 This software is provided under written license and may be
 used, copied, transmitted, or stored only in accord with that
 written license.
  
 The following legend is applicable only to US Government
 contracts under FAR:
  
                    RESTRICTED RIGHTS LEGEND
  
 Use, reproduction and disclosure by the US Government is
 subject to restrictions as set forth in subparagraphs (a)
 and (c) of the Commercial Computer Software - Restricted
 Rights clause in FAR 52.227-19.
  
 Gaussian, Inc.
 340 Quinnipiac St., Bldg. 40, Wallingford CT 06492
  
  
 ---------------------------------------------------------------
 Warning -- This program may not be used in any manner that
 competes with the business of Gaussian, Inc. or will provide
 assistance to any competitor of Gaussian, Inc.  The licensee
 of this program is prohibited from giving any competitor of
 Gaussian, Inc. access to this program.  By using this program,
 the user acknowledges that Gaussian, Inc. is engaged in the
 business of creating and licensing software in the field of
 computational chemistry and represents and warrants to the
 licensee that it is not a competitor of Gaussian, Inc. and that
 it will not use this program in any manner prohibited above.
 ---------------------------------------------------------------
  

 Cite this work as:
 Gaussian 16, Revision A.03,
 M. J. Frisch, G. W. Trucks, H. B. Schlegel, G. E. Scuseria, 
 M. A. Robb, J. R. Cheeseman, G. Scalmani, V. Barone, 
 G. A. Petersson, H. Nakatsuji, X. Li, M. Caricato, A. V. Marenich, 
 J. Bloino, B. G. Janesko, R. Gomperts, B. Mennucci, H. P. Hratchian, 
 J. V. Ortiz, A. F. Izmaylov, J. L. Sonnenberg, D. Williams-Young, 
 F. Ding, F. Lipparini, F. Egidi, J. Goings, B. Peng, A. Petrone, 
 T. Henderson, D. Ranasinghe, V. G. Zakrzewski, J. Gao, N. Rega, 
 G. Zheng, W. Liang, M. Hada, M. Ehara, K. Toyota, R. Fukuda, 
 J. Hasegawa, M. Ishida, T. Nakajima, Y. Honda, O. Kitao, H. Nakai, 
 T. Vreven, K. Throssell, J. A. Montgomery, Jr., J. E. Peralta, 
 F. Ogliaro, M. J. Bearpark, J. J. Heyd, E. N. Brothers, K. N. Kudin, 
 V. N. Staroverov, T. A. Keith, R. Kobayashi, J. Normand, 
 K. Raghavachari, A. P. Rendell, J. C. Burant, S. S. Iyengar, 
 J. Tomasi, M. Cossi, J. M. Millam, M. Klene, C. Adamo, R. Cammi, 
 J. W. Ochterski, R. L. Martin, K. Morokuma, O. Farkas, 
 J. B. Foresman, and D. J. Fox, Gaussian, Inc., Wallingford CT, 2016.
 
 ******************************************
 Gaussian 16:  ES64L-G16RevA.03 25-Dec-2016
                28-Apr-2022 
 ******************************************
 %nproc=24
 Will use up to   24 processors via shared memory.
 %mem=75GB
 --------------------------------
 #p wB97XD/Def2SVP td=(nstates=5)
 --------------------------------
 1/38=1,172=1/1;
 2/12=2,17=6,18=5,40=1/2;
 3/5=43,7=101,11=9,25=1,30=1,74=-58/1,2,3,8;
 4//1;
 5/5=2,38=5/2;
 8/6=1,10=1,108=5/1;
 9/41=5,42=1,70=2/14;
 6/7=2,8=2,9=2,10=2/1;
 99/5=1,9=1/99;
 Leave Link    1 at Thu Apr 28 01:38:01 2022, MaxMem= 10066329600 cpu:               0.9 elap:               0.0
 (Enter /sw/apps/gaussian-16.0/g16/l101.exe)
 -----------------------------------------------------
 step_1401_chromophore_14 TDDFT with wB97XD functional
 -----------------------------------------------------
 Symbolic Z-matrix:
 Charge =  0 Multiplicity = 1
 Mg                    46.164    44.93     43.815 
 C                     42.736    44.708    43.175 
 C                     46.454    41.543    43.142 
 C                     49.517    45.292    43.521 
 C                     45.897    48.489    43.747 
 N                     44.763    43.389    43.087 
 C                     43.373    43.468    42.945 
 C                     42.796    42.114    42.757 
 C                     43.976    41.154    43.042 
 C                     45.136    42.073    43.194 
 C                     43.716    40.312    44.335 
 C                     41.955    41.888    41.376 
 C                     42.319    42.615    40.069 
 C                     42.488    41.802    38.847 
 O                     42.105    40.659    38.623 
 O                     43.157    42.577    37.895 
 N                     47.789    43.552    43.402 
 C                     47.691    42.199    43.103 
 C                     48.947    41.593    42.962 
 C                     49.88     42.628    43.152 
 C                     49.113    43.888    43.388 
 C                     49.184    40.126    42.657 
 C                     51.332    42.486    42.984 
 O                     51.84     41.462    42.63 
 C                     52.186    43.738    43.167 
 N                     47.552    46.601    43.931 
 C                     48.859    46.452    43.741 
 C                     49.668    47.769    43.703 
 C                     48.513    48.825    43.802 
 C                     47.231    47.946    43.733 
 C                     50.835    47.811    44.723 
 C                     48.432    50.007    42.73 
 C                     48.347    51.428    43.295 
 N                     44.673    46.298    43.756 
 C                     44.703    47.759    43.727 
 C                     43.284    48.209    43.85 
 C                     42.582    47.031    43.635 
 C                     43.434    45.924    43.55 
 C                     42.843    49.652    43.856 
 C                     41.163    46.596    43.433 
 O                     40.19     47.28     43.302 
 C                     41.225    45.038    43.18 
 C                     40.425    44.265    44.239 
 O                     39.45     43.587    44.063 
 O                     41.213    44.337    45.36 
 C                     40.959    43.278    46.348 
 C                     43.524    41.859    36.782 
 C                     44.36     42.747    35.96 
 C                     45.162    42.352    34.917 
 C                     45.38     40.909    34.516 
 C                     45.92     43.361    34.139 
 C                     45.804    43.234    32.634 
 C                     45.118    44.45     31.987 
 C                     45.415    44.473    30.42 
 C                     45.857    45.91     30.052 
 C                     44.147    44.049    29.54 
 C                     44.272    42.615    28.972 
 C                     43.645    42.29     27.6 
 C                     44.109    43.172    26.395 
 C                     43.047    44.194    25.819 
 C                     44.721    42.366    25.164 
 C                     46.057    42.906    24.589 
 C                     46.106    42.535    23.126 
 C                     46.477    43.716    22.199 
 C                     45.679    43.612    20.839 
 C                     48.005    43.844    22.052 
 H                     46.55     40.467    42.985 
 H                     50.565    45.52     43.313 
 H                     45.783    49.574    43.781 
 H                     42.134    42.164    43.622 
 H                     44.238    40.492    42.217 
 H                     44.139    39.317    44.47 
 H                     42.633    40.288    44.456 
 H                     44.145    40.853    45.179 
 H                     40.879    41.912    41.544 
 H                     41.914    40.811    41.214 
 H                     43.302    43.083    40.111 
 H                     41.597    43.406    39.865 
 H                     50.194    39.725    42.573 
 H                     48.51     39.582    41.996 
 H                     49.136    39.786    43.692 
 H                     52.069    44.176    44.158 
 H                     52.026    44.375    42.297 
 H                     53.209    43.373    43.078 
 H                     50.186    47.827    42.746 
 H                     48.561    49.273    44.794 
 H                     50.616    48.698    45.318 
 H                     51.721    47.79     44.088 
 H                     50.862    46.877    45.286 
 H                     47.583    49.796    42.08 
 H                     49.405    49.896    42.251 
 H                     49.187    52.007    42.909 
 H                     48.418    51.374    44.381 
 H                     47.398    51.898    43.035 
 H                     41.775    49.698    43.646 
 H                     43.39     50.317    43.187 
 H                     42.994    49.991    44.881 
 H                     40.795    44.764    42.217 
 H                     40.097    42.637    46.161 
 H                     40.81     43.675    47.352 
 H                     41.808    42.619    46.53 
 H                     42.557    41.778    36.285 
 H                     44.059    40.913    36.859 
 H                     44.31     43.807    36.209 
 H                     46.357    40.699    34.08 
 H                     44.759    40.607    33.672 
 H                     45.287    40.287    35.406 
 H                     46.98     43.285    34.379 
 H                     45.525    44.31     34.502 
 H                     45.228    42.338    32.402 
 H                     46.805    43.123    32.216 
 H                     45.373    45.396    32.463 
 H                     44.071    44.28     32.242 
 H                     46.206    43.779    30.136 
 H                     46.451    45.868    29.139 
 H                     46.304    46.41     30.912 
 H                     45.019    46.592    29.91 
 H                     44.089    44.71     28.675 
 H                     43.231    44.095    30.13 
 H                     43.736    42.005    29.699 
 H                     45.313    42.311    28.864 
 H                     42.586    42.445    27.809 
 H                     43.731    41.227    27.373 
 H                     44.999    43.659    26.793 
 H                     43.322    45.237    25.976 
 H                     42.179    44.029    26.456 
 H                     42.792    44.118    24.762 
 H                     43.894    42.198    24.474 
 H                     44.825    41.391    25.639 
 H                     46.937    42.443    25.035 
 H                     46.047    43.963    24.854 
 H                     45.167    42.119    22.76 
 H                     46.806    41.748    22.847 
 H                     46.111    44.603    22.716 
 H                     45.397    42.604    20.537 
 H                     46.299    43.823    19.968 
 H                     44.826    44.289    20.8 
 H                     48.536    43.228    22.777 
 H                     48.371    44.868    22.132 
 H                     48.191    43.392    21.078 
 
 ITRead=  0  0  0  0  0  0  0  0  0  0  0  0  0  0  0  0  0  0  0  0
 ITRead=  0  0  0  0  0  0  0  0  0  0  0  0  0  0  0  0  0  0  0  0
 ITRead=  0  0  0  0  0  0  0  0  0  0  0  0  0  0  0  0  0  0  0  0
 ITRead=  0  0  0  0  0  0  0  0  0  0  0  0  0  0  0  0  0  0  0  0
 ITRead=  0  0  0  0  0  0  0  0  0  0  0  0  0  0  0  0  0  0  0  0
 ITRead=  0  0  0  0  0  0  0  0  0  0  0  0  0  0  0  0  0  0  0  0
 ITRead=  0  0  0  0  0  0  0  0  0  0  0  0  0  0  0  0  0  0  0  0
 MicOpt= -1 -1 -1 -1 -1 -1 -1 -1 -1 -1 -1 -1 -1 -1 -1 -1 -1 -1 -1 -1
 MicOpt= -1 -1 -1 -1 -1 -1 -1 -1 -1 -1 -1 -1 -1 -1 -1 -1 -1 -1 -1 -1
 MicOpt= -1 -1 -1 -1 -1 -1 -1 -1 -1 -1 -1 -1 -1 -1 -1 -1 -1 -1 -1 -1
 MicOpt= -1 -1 -1 -1 -1 -1 -1 -1 -1 -1 -1 -1 -1 -1 -1 -1 -1 -1 -1 -1
 MicOpt= -1 -1 -1 -1 -1 -1 -1 -1 -1 -1 -1 -1 -1 -1 -1 -1 -1 -1 -1 -1
 MicOpt= -1 -1 -1 -1 -1 -1 -1 -1 -1 -1 -1 -1 -1 -1 -1 -1 -1 -1 -1 -1
 MicOpt= -1 -1 -1 -1 -1 -1 -1 -1 -1 -1 -1 -1 -1 -1 -1 -1 -1 -1 -1 -1
 NAtoms=    140 NQM=      140 NQMF=       0 NMMI=      0 NMMIF=      0
                NMic=       0 NMicF=      0.
                    Isotopes and Nuclear Properties:
 (Nuclear quadrupole moments (NQMom) in fm**2, nuclear magnetic moments (NMagM)
  in nuclear magnetons)

  Atom         1           2           3           4           5           6           7           8           9          10
 IAtWgt=          24          12          12          12          12          14          12          12          12          12
 AtmWgt=  23.9850450  12.0000000  12.0000000  12.0000000  12.0000000  14.0030740  12.0000000  12.0000000  12.0000000  12.0000000
 NucSpn=           0           0           0           0           0           2           0           0           0           0
 AtZEff=  -0.0000000  -0.0000000  -0.0000000  -0.0000000  -0.0000000  -0.0000000  -0.0000000  -0.0000000  -0.0000000  -0.0000000
 NQMom=    0.0000000   0.0000000   0.0000000   0.0000000   0.0000000   2.0440000   0.0000000   0.0000000   0.0000000   0.0000000
 NMagM=    0.0000000   0.0000000   0.0000000   0.0000000   0.0000000   0.4037610   0.0000000   0.0000000   0.0000000   0.0000000
 AtZNuc=  12.0000000   6.0000000   6.0000000   6.0000000   6.0000000   7.0000000   6.0000000   6.0000000   6.0000000   6.0000000

  Atom        11          12          13          14          15          16          17          18          19          20
 IAtWgt=          12          12          12          12          16          16          14          12          12          12
 AtmWgt=  12.0000000  12.0000000  12.0000000  12.0000000  15.9949146  15.9949146  14.0030740  12.0000000  12.0000000  12.0000000
 NucSpn=           0           0           0           0           0           0           2           0           0           0
 AtZEff=  -0.0000000  -0.0000000  -0.0000000  -0.0000000  -0.0000000  -0.0000000  -0.0000000  -0.0000000  -0.0000000  -0.0000000
 NQMom=    0.0000000   0.0000000   0.0000000   0.0000000   0.0000000   0.0000000   2.0440000   0.0000000   0.0000000   0.0000000
 NMagM=    0.0000000   0.0000000   0.0000000   0.0000000   0.0000000   0.0000000   0.4037610   0.0000000   0.0000000   0.0000000
 AtZNuc=   6.0000000   6.0000000   6.0000000   6.0000000   8.0000000   8.0000000   7.0000000   6.0000000   6.0000000   6.0000000

  Atom        21          22          23          24          25          26          27          28          29          30
 IAtWgt=          12          12          12          16          12          14          12          12          12          12
 AtmWgt=  12.0000000  12.0000000  12.0000000  15.9949146  12.0000000  14.0030740  12.0000000  12.0000000  12.0000000  12.0000000
 NucSpn=           0           0           0           0           0           2           0           0           0           0
 AtZEff=  -0.0000000  -0.0000000  -0.0000000  -0.0000000  -0.0000000  -0.0000000  -0.0000000  -0.0000000  -0.0000000  -0.0000000
 NQMom=    0.0000000   0.0000000   0.0000000   0.0000000   0.0000000   2.0440000   0.0000000   0.0000000   0.0000000   0.0000000
 NMagM=    0.0000000   0.0000000   0.0000000   0.0000000   0.0000000   0.4037610   0.0000000   0.0000000   0.0000000   0.0000000
 AtZNuc=   6.0000000   6.0000000   6.0000000   8.0000000   6.0000000   7.0000000   6.0000000   6.0000000   6.0000000   6.0000000

  Atom        31          32          33          34          35          36          37          38          39          40
 IAtWgt=          12          12          12          14          12          12          12          12          12          12
 AtmWgt=  12.0000000  12.0000000  12.0000000  14.0030740  12.0000000  12.0000000  12.0000000  12.0000000  12.0000000  12.0000000
 NucSpn=           0           0           0           2           0           0           0           0           0           0
 AtZEff=  -0.0000000  -0.0000000  -0.0000000  -0.0000000  -0.0000000  -0.0000000  -0.0000000  -0.0000000  -0.0000000  -0.0000000
 NQMom=    0.0000000   0.0000000   0.0000000   2.0440000   0.0000000   0.0000000   0.0000000   0.0000000   0.0000000   0.0000000
 NMagM=    0.0000000   0.0000000   0.0000000   0.4037610   0.0000000   0.0000000   0.0000000   0.0000000   0.0000000   0.0000000
 AtZNuc=   6.0000000   6.0000000   6.0000000   7.0000000   6.0000000   6.0000000   6.0000000   6.0000000   6.0000000   6.0000000

  Atom        41          42          43          44          45          46          47          48          49          50
 IAtWgt=          16          12          12          16          16          12          12          12          12          12
 AtmWgt=  15.9949146  12.0000000  12.0000000  15.9949146  15.9949146  12.0000000  12.0000000  12.0000000  12.0000000  12.0000000
 NucSpn=           0           0           0           0           0           0           0           0           0           0
 AtZEff=  -0.0000000  -0.0000000  -0.0000000  -0.0000000  -0.0000000  -0.0000000  -0.0000000  -0.0000000  -0.0000000  -0.0000000
 NQMom=    0.0000000   0.0000000   0.0000000   0.0000000   0.0000000   0.0000000   0.0000000   0.0000000   0.0000000   0.0000000
 NMagM=    0.0000000   0.0000000   0.0000000   0.0000000   0.0000000   0.0000000   0.0000000   0.0000000   0.0000000   0.0000000
 AtZNuc=   8.0000000   6.0000000   6.0000000   8.0000000   8.0000000   6.0000000   6.0000000   6.0000000   6.0000000   6.0000000

  Atom        51          52          53          54          55          56          57          58          59          60
 IAtWgt=          12          12          12          12          12          12          12          12          12          12
 AtmWgt=  12.0000000  12.0000000  12.0000000  12.0000000  12.0000000  12.0000000  12.0000000  12.0000000  12.0000000  12.0000000
 NucSpn=           0           0           0           0           0           0           0           0           0           0
 AtZEff=  -0.0000000  -0.0000000  -0.0000000  -0.0000000  -0.0000000  -0.0000000  -0.0000000  -0.0000000  -0.0000000  -0.0000000
 NQMom=    0.0000000   0.0000000   0.0000000   0.0000000   0.0000000   0.0000000   0.0000000   0.0000000   0.0000000   0.0000000
 NMagM=    0.0000000   0.0000000   0.0000000   0.0000000   0.0000000   0.0000000   0.0000000   0.0000000   0.0000000   0.0000000
 AtZNuc=   6.0000000   6.0000000   6.0000000   6.0000000   6.0000000   6.0000000   6.0000000   6.0000000   6.0000000   6.0000000

  Atom        61          62          63          64          65          66          67          68          69          70
 IAtWgt=          12          12          12          12          12          12           1           1           1           1
 AtmWgt=  12.0000000  12.0000000  12.0000000  12.0000000  12.0000000  12.0000000   1.0078250   1.0078250   1.0078250   1.0078250
 NucSpn=           0           0           0           0           0           0           1           1           1           1
 AtZEff=  -0.0000000  -0.0000000  -0.0000000  -0.0000000  -0.0000000  -0.0000000  -0.0000000  -0.0000000  -0.0000000  -0.0000000
 NQMom=    0.0000000   0.0000000   0.0000000   0.0000000   0.0000000   0.0000000   0.0000000   0.0000000   0.0000000   0.0000000
 NMagM=    0.0000000   0.0000000   0.0000000   0.0000000   0.0000000   0.0000000   2.7928460   2.7928460   2.7928460   2.7928460
 AtZNuc=   6.0000000   6.0000000   6.0000000   6.0000000   6.0000000   6.0000000   1.0000000   1.0000000   1.0000000   1.0000000

  Atom        71          72          73          74          75          76          77          78          79          80
 IAtWgt=           1           1           1           1           1           1           1           1           1           1
 AtmWgt=   1.0078250   1.0078250   1.0078250   1.0078250   1.0078250   1.0078250   1.0078250   1.0078250   1.0078250   1.0078250
 NucSpn=           1           1           1           1           1           1           1           1           1           1
 AtZEff=  -0.0000000  -0.0000000  -0.0000000  -0.0000000  -0.0000000  -0.0000000  -0.0000000  -0.0000000  -0.0000000  -0.0000000
 NQMom=    0.0000000   0.0000000   0.0000000   0.0000000   0.0000000   0.0000000   0.0000000   0.0000000   0.0000000   0.0000000
 NMagM=    2.7928460   2.7928460   2.7928460   2.7928460   2.7928460   2.7928460   2.7928460   2.7928460   2.7928460   2.7928460
 AtZNuc=   1.0000000   1.0000000   1.0000000   1.0000000   1.0000000   1.0000000   1.0000000   1.0000000   1.0000000   1.0000000

  Atom        81          82          83          84          85          86          87          88          89          90
 IAtWgt=           1           1           1           1           1           1           1           1           1           1
 AtmWgt=   1.0078250   1.0078250   1.0078250   1.0078250   1.0078250   1.0078250   1.0078250   1.0078250   1.0078250   1.0078250
 NucSpn=           1           1           1           1           1           1           1           1           1           1
 AtZEff=  -0.0000000  -0.0000000  -0.0000000  -0.0000000  -0.0000000  -0.0000000  -0.0000000  -0.0000000  -0.0000000  -0.0000000
 NQMom=    0.0000000   0.0000000   0.0000000   0.0000000   0.0000000   0.0000000   0.0000000   0.0000000   0.0000000   0.0000000
 NMagM=    2.7928460   2.7928460   2.7928460   2.7928460   2.7928460   2.7928460   2.7928460   2.7928460   2.7928460   2.7928460
 AtZNuc=   1.0000000   1.0000000   1.0000000   1.0000000   1.0000000   1.0000000   1.0000000   1.0000000   1.0000000   1.0000000

  Atom        91          92          93          94          95          96          97          98          99         100
 IAtWgt=           1           1           1           1           1           1           1           1           1           1
 AtmWgt=   1.0078250   1.0078250   1.0078250   1.0078250   1.0078250   1.0078250   1.0078250   1.0078250   1.0078250   1.0078250
 NucSpn=           1           1           1           1           1           1           1           1           1           1
 AtZEff=  -0.0000000  -0.0000000  -0.0000000  -0.0000000  -0.0000000  -0.0000000  -0.0000000  -0.0000000  -0.0000000  -0.0000000
 NQMom=    0.0000000   0.0000000   0.0000000   0.0000000   0.0000000   0.0000000   0.0000000   0.0000000   0.0000000   0.0000000
 NMagM=    2.7928460   2.7928460   2.7928460   2.7928460   2.7928460   2.7928460   2.7928460   2.7928460   2.7928460   2.7928460
 AtZNuc=   1.0000000   1.0000000   1.0000000   1.0000000   1.0000000   1.0000000   1.0000000   1.0000000   1.0000000   1.0000000

  Atom       101         102         103         104         105         106         107         108         109         110
 IAtWgt=           1           1           1           1           1           1           1           1           1           1
 AtmWgt=   1.0078250   1.0078250   1.0078250   1.0078250   1.0078250   1.0078250   1.0078250   1.0078250   1.0078250   1.0078250
 NucSpn=           1           1           1           1           1           1           1           1           1           1
 AtZEff=  -0.0000000  -0.0000000  -0.0000000  -0.0000000  -0.0000000  -0.0000000  -0.0000000  -0.0000000  -0.0000000  -0.0000000
 NQMom=    0.0000000   0.0000000   0.0000000   0.0000000   0.0000000   0.0000000   0.0000000   0.0000000   0.0000000   0.0000000
 NMagM=    2.7928460   2.7928460   2.7928460   2.7928460   2.7928460   2.7928460   2.7928460   2.7928460   2.7928460   2.7928460
 AtZNuc=   1.0000000   1.0000000   1.0000000   1.0000000   1.0000000   1.0000000   1.0000000   1.0000000   1.0000000   1.0000000

  Atom       111         112         113         114         115         116         117         118         119         120
 IAtWgt=           1           1           1           1           1           1           1           1           1           1
 AtmWgt=   1.0078250   1.0078250   1.0078250   1.0078250   1.0078250   1.0078250   1.0078250   1.0078250   1.0078250   1.0078250
 NucSpn=           1           1           1           1           1           1           1           1           1           1
 AtZEff=  -0.0000000  -0.0000000  -0.0000000  -0.0000000  -0.0000000  -0.0000000  -0.0000000  -0.0000000  -0.0000000  -0.0000000
 NQMom=    0.0000000   0.0000000   0.0000000   0.0000000   0.0000000   0.0000000   0.0000000   0.0000000   0.0000000   0.0000000
 NMagM=    2.7928460   2.7928460   2.7928460   2.7928460   2.7928460   2.7928460   2.7928460   2.7928460   2.7928460   2.7928460
 AtZNuc=   1.0000000   1.0000000   1.0000000   1.0000000   1.0000000   1.0000000   1.0000000   1.0000000   1.0000000   1.0000000

  Atom       121         122         123         124         125         126         127         128         129         130
 IAtWgt=           1           1           1           1           1           1           1           1           1           1
 AtmWgt=   1.0078250   1.0078250   1.0078250   1.0078250   1.0078250   1.0078250   1.0078250   1.0078250   1.0078250   1.0078250
 NucSpn=           1           1           1           1           1           1           1           1           1           1
 AtZEff=  -0.0000000  -0.0000000  -0.0000000  -0.0000000  -0.0000000  -0.0000000  -0.0000000  -0.0000000  -0.0000000  -0.0000000
 NQMom=    0.0000000   0.0000000   0.0000000   0.0000000   0.0000000   0.0000000   0.0000000   0.0000000   0.0000000   0.0000000
 NMagM=    2.7928460   2.7928460   2.7928460   2.7928460   2.7928460   2.7928460   2.7928460   2.7928460   2.7928460   2.7928460
 AtZNuc=   1.0000000   1.0000000   1.0000000   1.0000000   1.0000000   1.0000000   1.0000000   1.0000000   1.0000000   1.0000000

  Atom       131         132         133         134         135         136         137         138         139         140
 IAtWgt=           1           1           1           1           1           1           1           1           1           1
 AtmWgt=   1.0078250   1.0078250   1.0078250   1.0078250   1.0078250   1.0078250   1.0078250   1.0078250   1.0078250   1.0078250
 NucSpn=           1           1           1           1           1           1           1           1           1           1
 AtZEff=  -0.0000000  -0.0000000  -0.0000000  -0.0000000  -0.0000000  -0.0000000  -0.0000000  -0.0000000  -0.0000000  -0.0000000
 NQMom=    0.0000000   0.0000000   0.0000000   0.0000000   0.0000000   0.0000000   0.0000000   0.0000000   0.0000000   0.0000000
 NMagM=    2.7928460   2.7928460   2.7928460   2.7928460   2.7928460   2.7928460   2.7928460   2.7928460   2.7928460   2.7928460
 AtZNuc=   1.0000000   1.0000000   1.0000000   1.0000000   1.0000000   1.0000000   1.0000000   1.0000000   1.0000000   1.0000000
 Leave Link  101 at Thu Apr 28 01:38:01 2022, MaxMem= 10066329600 cpu:               2.7 elap:               0.1
 (Enter /sw/apps/gaussian-16.0/g16/l202.exe)
 Stoichiometry    C55H74MgN4O6
 Framework group  C1[X(C55H74MgN4O6)]
 Deg. of freedom   414
 Full point group                 C1      NOp   1
 Largest Abelian subgroup         C1      NOp   1
 Largest concise Abelian subgroup C1      NOp   1
                         Standard orientation:                         
 ---------------------------------------------------------------------
 Center     Atomic      Atomic             Coordinates (Angstroms)
 Number     Number       Type             X           Y           Z
 ---------------------------------------------------------------------
      1         12           0        5.399492    0.732516   -0.037498
      2          6           0        4.684037   -2.610978    0.683087
      3          6           0        4.376371    0.191110   -3.303827
      4          6           0        5.199932    4.078358   -0.512473
      5          6           0        5.704466    1.370866    3.461343
      6          7           0        4.489748   -0.978269   -1.092510
      7          6           0        4.334376   -2.296560   -0.649260
      8          6           0        3.994699   -3.186525   -1.786876
      9          6           0        4.195538   -2.298607   -3.038472
     10          6           0        4.462814   -0.952562   -2.464023
     11          6           0        5.387704   -2.816449   -3.909674
     12          6           0        2.584067   -3.997810   -1.654772
     13          6           0        1.367490   -3.407678   -0.919273
     14          6           0        0.069166   -3.396421   -1.624284
     15          8           0       -0.280810   -4.044270   -2.604653
     16          8           0       -0.784422   -2.514392   -0.955029
     17          7           0        4.869301    1.975488   -1.735732
     18          6           0        4.427142    1.553701   -2.983211
     19          6           0        4.243157    2.622119   -3.871629
     20          6           0        4.556815    3.776160   -3.131615
     21          6           0        4.912451    3.340796   -1.747575
     22          6           0        3.788396    2.495916   -5.313346
     23          6           0        4.398306    5.151773   -3.620753
     24          8           0        3.946140    5.400954   -4.700295
     25          6           0        4.726704    6.284204   -2.651185
     26          7           0        5.714315    2.489399    1.206080
     27          6           0        5.530838    3.723971    0.749222
     28          6           0        5.645661    4.838607    1.814500
     29          6           0        5.837185    3.982639    3.114346
     30          6           0        5.654688    2.525130    2.601228
     31          6           0        6.683175    5.934293    1.458005
     32          6           0        4.895221    4.246698    4.377613
     33          6           0        5.606080    4.497280    5.710872
     34          7           0        5.461514   -0.363312    1.663472
     35          6           0        5.587895    0.033785    3.064402
     36          6           0        5.734818   -1.230664    3.845921
     37          6           0        5.384908   -2.196165    2.912068
     38          6           0        5.196986   -1.646608    1.638785
     39          6           0        5.886448   -1.295045    5.345798
     40          6           0        5.114975   -3.669013    2.874044
     41          8           0        5.041379   -4.432609    3.792331
     42          6           0        4.699438   -3.989507    1.384135
     43          6           0        5.657495   -5.002265    0.739576
     44          8           0        5.394883   -6.107875    0.352347
     45          8           0        6.792455   -4.269844    0.498339
     46          6           0        7.658493   -4.823400   -0.553182
     47          6           0       -1.961100   -2.292445   -1.629678
     48          6           0       -2.670759   -1.226077   -0.906928
     49          6           0       -3.736573   -0.505346   -1.388244
     50          6           0       -4.284548   -0.639813   -2.792600
     51          6           0       -4.390936    0.514105   -0.533576
     52          6           0       -5.902606    0.434048   -0.478288
     53          6           0       -6.428233    0.103518    0.929663
     54          6           0       -7.978957    0.463144    1.030405
     55          6           0       -8.185481    1.267047    2.336867
     56          6           0       -8.919372   -0.832086    1.031260
     57          6           0       -9.633942   -1.047124   -0.324377
     58          6           0      -11.042638   -1.676706   -0.342800
     59          6           0      -12.139764   -0.955290    0.506386
     60          6           0      -12.621447   -1.701154    1.816261
     61          6           0      -13.439107   -0.513499   -0.303596
     62          6           0      -13.931928    0.938496   -0.067042
     63          6           0      -15.425003    0.954944   -0.292585
     64          6           0      -16.215573    1.649681    0.840583
     65          6           0      -17.591708    0.909720    1.077076
     66          6           0      -16.323375    3.165691    0.589844
     67          1           0        4.107879    0.020441   -4.348061
     68          1           0        5.034282    5.157899   -0.539003
     69          1           0        5.851328    1.531619    4.530907
     70          1           0        4.849273   -3.850930   -1.655580
     71          1           0        3.309429   -2.176385   -3.660875
     72          1           0        5.423416   -2.662979   -4.987797
     73          1           0        5.487892   -3.874911   -3.669413
     74          1           0        6.291102   -2.301645   -3.581181
     75          1           0        2.736181   -5.039449   -1.374729
     76          1           0        2.308274   -4.300999   -2.664657
     77          1           0        1.474763   -2.341363   -0.722951
     78          1           0        1.236719   -3.898578    0.045350
     79          1           0        3.678801    3.375496   -5.947606
     80          1           0        3.062651    1.735655   -5.600453
     81          1           0        4.780651    2.320108   -5.730058
     82          1           0        5.756487    6.238896   -2.297481
     83          1           0        3.926577    6.326430   -1.912076
     84          1           0        4.616161    7.185608   -3.253620
     85          1           0        4.708718    5.394791    1.832762
     86          1           0        6.871699    4.099358    3.435638
     87          1           0        7.365134    5.919932    2.308582
     88          1           0        6.063984    6.812813    1.275063
     89          1           0        7.144457    5.701934    0.497129
     90          1           0        4.212839    3.400354    4.454298
     91          1           0        4.423011    5.180115    4.070625
     92          1           0        5.297252    5.471385    6.092425
     93          1           0        6.681262    4.506193    5.534075
     94          1           0        5.381952    3.708645    6.429845
     95          1           0        5.665198   -2.307348    5.682146
     96          1           0        5.300602   -0.570649    5.912393
     97          1           0        6.943900   -1.107494    5.532793
     98          1           0        3.705985   -4.433173    1.324492
     99          1           0        7.390696   -5.809978   -0.932449
    100          1           0        8.696340   -4.910501   -0.232070
    101          1           0        7.783431   -4.175608   -1.420915
    102          1           0       -2.479509   -3.226762   -1.412969
    103          1           0       -1.976048   -2.015898   -2.683418
    104          1           0       -2.311744   -1.018855    0.101173
    105          1           0       -4.724425    0.270785   -3.200086
    106          1           0       -5.165751   -1.280273   -2.842341
    107          1           0       -3.467053   -0.923780   -3.454942
    108          1           0       -4.143166    1.509864   -0.899706
    109          1           0       -3.935932    0.354983    0.444200
    110          1           0       -6.237508   -0.338076   -1.171167
    111          1           0       -6.313711    1.391947   -0.798391
    112          1           0       -5.850648    0.567404    1.728239
    113          1           0       -6.209694   -0.962491    1.007123
    114          1           0       -8.321985    1.065879    0.189563
    115          1           0       -9.088035    1.869745    2.235271
    116          1           0       -7.270225    1.788282    2.619764
    117          1           0       -8.268035    0.633966    3.220001
    118          1           0       -9.710331   -0.685410    1.767046
    119          1           0       -8.342761   -1.731424    1.250306
    120          1           0       -8.984427   -1.749539   -0.846554
    121          1           0       -9.756623   -0.112189   -0.870827
    122          1           0      -10.835611   -2.670756    0.054931
    123          1           0      -11.379513   -1.850804   -1.365101
    124          1           0      -11.678037    0.010722    0.709616
    125          1           0      -12.350429   -1.180004    2.734452
    126          1           0      -12.019673   -2.609056    1.815472
    127          1           0      -13.684550   -1.921876    1.911891
    128          1           0      -14.156347   -1.326070   -0.187197
    129          1           0      -13.068411   -0.677950   -1.314836
    130          1           0      -13.523250    1.654254   -0.780034
    131          1           0      -13.556674    1.182965    0.926433
    132          1           0      -15.848190   -0.041985   -0.418195
    133          1           0      -15.774385    1.446115   -1.200270
    134          1           0      -15.613550    1.496485    1.736191
    135          1           0      -18.003298    0.396756    0.208598
    136          1           0      -18.425287    1.599301    1.208166
    137          1           0      -17.572627    0.256497    1.949083
    138          1           0      -15.659169    3.493673   -0.209093
    139          1           0      -16.129450    3.773344    1.474199
    140          1           0      -17.336620    3.273486    0.203461
 ---------------------------------------------------------------------
 Rotational constants (GHZ):           0.0365814           0.0094044           0.0088925
 Leave Link  202 at Thu Apr 28 01:38:01 2022, MaxMem= 10066329600 cpu:               0.2 elap:               0.0
 (Enter /sw/apps/gaussian-16.0/g16/l301.exe)
 Standard basis: def2SVP (5D, 7F)
 Ernie: Thresh=  0.10000D-02 Tol=  0.10000D-05 Strict=F.
 There are  1364 symmetry adapted cartesian basis functions of A   symmetry.
 There are  1298 symmetry adapted basis functions of A   symmetry.
  1298 basis functions,  2180 primitive gaussians,  1364 cartesian basis functions
   246 alpha electrons      246 beta electrons
       nuclear repulsion energy      9490.0971694670 Hartrees.
 IExCor= 4639 DFT=T Ex+Corr=wB97XD ExCW=0 ScaHFX=  1.000000
 ScaDFX=  1.000000  1.000000  1.000000  1.000000 ScalE2=  1.000000  1.000000
 IRadAn=      5 IRanWt=     -1 IRanGd=            0 ICorTp=0 IEmpDi=121
 HFx  wShort=  0.000000 wLong=  0.200000 cFull=  0.222036 cShort=  0.000000 cLong=  0.777964
 DFx  wShort=  0.000000 wLong=  0.200000 cFull=  0.000000 cShort=  0.000000 cLong=  1.000000
 NAtoms=  140 NActive=  140 NUniq=  140 SFac= 1.00D+00 NAtFMM=   60 NAOKFM=T Big=T
 Integral buffers will be    131072 words long.
 Raffenetti 1 integral format.
 Two-electron integral symmetry is turned on.
 R6Disp:  Grimme-D2 Dispersion energy=       -0.1315288536 Hartrees.
 Nuclear repulsion after empirical dispersion term =     9489.9656406133 Hartrees.
 Leave Link  301 at Thu Apr 28 01:38:01 2022, MaxMem= 10066329600 cpu:               1.5 elap:               0.1
 (Enter /sw/apps/gaussian-16.0/g16/l302.exe)
 NPDir=0 NMtPBC=     1 NCelOv=     1 NCel=       1 NClECP=     1 NCelD=      1
         NCelK=      1 NCelE2=     1 NClLst=     1 CellRange=     0.0.
 One-electron integrals computed using PRISM.
 One-electron integral symmetry used in STVInt
   1 Symmetry operations used in ECPInt.
 ECPInt:  NShTT=  192510 NPrTT=  683786 LenC2=   93742 LenP2D=  205509.
 LDataN:  DoStor=T MaxTD1= 4 Len=   56
 NBasis=  1298 RedAO= T EigKep=  2.80D-04  NBF=  1298
 NBsUse=  1298 1.00D-06 EigRej= -1.00D+00 NBFU=  1298
 Precomputing XC quadrature grid using
 IXCGrd= 4 IRadAn=           5 IRanWt=          -1 IRanGd=           0 AccXCQ= 0.00D+00.
 Generated NRdTot=       0 NPtTot=           0 NUsed=           0 NTot=          32
 NSgBfM=  1038  1021  1027  1033  1038 MxSgAt=   140 MxSgA2=   140.
 Leave Link  302 at Thu Apr 28 01:38:05 2022, MaxMem= 10066329600 cpu:              95.5 elap:               4.0
 (Enter /sw/apps/gaussian-16.0/g16/l303.exe)
 DipDrv:  MaxL=1.
 Leave Link  303 at Thu Apr 28 01:38:05 2022, MaxMem= 10066329600 cpu:               7.0 elap:               0.3
 (Enter /sw/apps/gaussian-16.0/g16/l308.exe)
 Leave Link  308 at Thu Apr 28 01:38:06 2022, MaxMem= 10066329600 cpu:              10.8 elap:               0.5
 (Enter /sw/apps/gaussian-16.0/g16/l401.exe)
 ExpMin= 3.36D-02 ExpMax= 4.95D+03 ExpMxC= 7.45D+02 IAcc=3 IRadAn=         5 AccDes= 0.00D+00
 Harris functional with IExCor= 4639 and IRadAn=       5 diagonalized for initial guess.
 HarFok:  IExCor= 4639 AccDes= 0.00D+00 IRadAn=         5 IDoV= 1 UseB2=F ITyADJ=14
 ICtDFT=  3500011 ScaDFX=  1.000000  1.000000  1.000000  1.000000
 FoFCou: FMM=F IPFlag=           0 FMFlag=      100000 FMFlg1=        2001
         NFxFlg=           0 DoJE=T BraDBF=F KetDBF=T FulRan=T
         wScrn=  0.000000 ICntrl=       500 IOpCl=  0 I1Cent=   200000004 NGrid=           0
         NMat0=    1 NMatS0=      1 NMatT0=    0 NMatD0=    1 NMtDS0=    0 NMtDT0=    0
 Petite list used in FoFCou.
 Harris En= -2877.96323962872    
 JPrj=0 DoOrth=F DoCkMO=F.
 Leave Link  401 at Thu Apr 28 01:38:13 2022, MaxMem= 10066329600 cpu:             169.1 elap:               7.1
 (Enter /sw/apps/gaussian-16.0/g16/l502.exe)
 Integral symmetry usage will be decided dynamically.
 Closed shell SCF:
 Using DIIS extrapolation, IDIIS=  1040.
 NGot= 10066329600 LenX= 10062561258 LenY= 10060699398
 Requested convergence on RMS density matrix=1.00D-08 within 128 cycles.
 Requested convergence on MAX density matrix=1.00D-06.
 Requested convergence on             energy=1.00D-06.
 No special actions if energy rises.
 Fock matrices will be formed incrementally for  20 cycles.

 Cycle   1  Pass 1  IDiag  1:
 FoFJK:  IHMeth= 1 ICntrl=       0 DoSepK=T KAlg= 0 I1Cent=           0 FoldK=F
 IRaf=         1 NMat=       1 IRICut=       1 DoRegI=T DoRafI=F ISym2E= 0 IDoP0=0 IntGTp=1.
 FoFCou: FMM=T IPFlag=           0 FMFlag=      100000 FMFlg1=        2001
         NFxFlg=           0 DoJE=T BraDBF=F KetDBF=F FulRan=T
         wScrn=  0.000000 ICntrl=       500 IOpCl=  0 I1Cent=           0 NGrid=           0
         NMat0=    1 NMatS0=      1 NMatT0=    0 NMatD0=    1 NMtDS0=    0 NMtDT0=    0
 Symmetry not used in FoFCou.
 FMM levels:  10  Number of levels for PrismC:   9
 E= -3007.16353178848    
 DIIS: error= 2.29D-02 at cycle   1 NSaved=   1.
 NSaved= 1 IEnMin= 1 EnMin= -3007.16353178848     IErMin= 1 ErrMin= 2.29D-02
 ErrMax= 2.29D-02  0.00D+00 EMaxC= 1.00D-01 BMatC= 1.48D+00 BMatP= 1.48D+00
 IDIUse=3 WtCom= 7.71D-01 WtEn= 2.29D-01
 Coeff-Com:  0.100D+01
 Coeff-En:   0.100D+01
 Coeff:      0.100D+01
 Gap=     0.150 Goal=   None    Shift=    0.000
 GapD=    0.150 DampG=1.000 DampE=0.500 DampFc=0.5000 IDamp=-1.
 Damping current iteration by 5.00D-01
 RMSDP=1.53D-03 MaxDP=1.46D-01              OVMax= 1.88D-01

 Cycle   2  Pass 1  IDiag  1:
 RMSU=  7.54D-04    CP:  9.88D-01
 E= -3007.47994602133     Delta-E=       -0.316414232855 Rises=F Damp=T
 DIIS: error= 1.27D-02 at cycle   2 NSaved=   2.
 NSaved= 2 IEnMin= 2 EnMin= -3007.47994602133     IErMin= 2 ErrMin= 1.27D-02
 ErrMax= 1.27D-02  0.00D+00 EMaxC= 1.00D-01 BMatC= 2.88D-01 BMatP= 1.48D+00
 IDIUse=3 WtCom= 8.73D-01 WtEn= 1.27D-01
 Coeff-Com: -0.358D+00 0.136D+01
 Coeff-En:   0.000D+00 0.100D+01
 Coeff:     -0.313D+00 0.131D+01
 Gap=     0.169 Goal=   None    Shift=    0.000
 RMSDP=7.21D-04 MaxDP=1.23D-01 DE=-3.16D-01 OVMax= 1.48D-01

 Cycle   3  Pass 1  IDiag  1:
 RMSU=  6.85D-04    CP:  9.79D-01  1.28D+00
 E= -3007.70700628784     Delta-E=       -0.227060266503 Rises=F Damp=F
 DIIS: error= 1.17D-02 at cycle   3 NSaved=   3.
 NSaved= 3 IEnMin= 3 EnMin= -3007.70700628784     IErMin= 3 ErrMin= 1.17D-02
 ErrMax= 1.17D-02  0.00D+00 EMaxC= 1.00D-01 BMatC= 1.39D-01 BMatP= 2.88D-01
 IDIUse=3 WtCom= 8.83D-01 WtEn= 1.17D-01
 Coeff-Com: -0.314D+00 0.695D+00 0.619D+00
 Coeff-En:   0.000D+00 0.000D+00 0.100D+01
 Coeff:     -0.277D+00 0.613D+00 0.664D+00
 Gap=     0.156 Goal=   None    Shift=    0.000
 RMSDP=4.36D-04 MaxDP=4.80D-02 DE=-2.27D-01 OVMax= 9.57D-02

 Cycle   4  Pass 1  IDiag  1:
 RMSU=  2.13D-04    CP:  9.76D-01  1.60D+00  5.70D-01
 E= -3007.81203420582     Delta-E=       -0.105027917980 Rises=F Damp=F
 DIIS: error= 4.35D-03 at cycle   4 NSaved=   4.
 NSaved= 4 IEnMin= 4 EnMin= -3007.81203420582     IErMin= 4 ErrMin= 4.35D-03
 ErrMax= 4.35D-03  0.00D+00 EMaxC= 1.00D-01 BMatC= 1.93D-02 BMatP= 1.39D-01
 IDIUse=3 WtCom= 9.57D-01 WtEn= 4.35D-02
 Coeff-Com: -0.121D+00 0.243D+00 0.365D+00 0.513D+00
 Coeff-En:   0.000D+00 0.000D+00 0.845D-01 0.916D+00
 Coeff:     -0.116D+00 0.232D+00 0.353D+00 0.530D+00
 Gap=     0.154 Goal=   None    Shift=    0.000
 RMSDP=1.33D-04 MaxDP=2.14D-02 DE=-1.05D-01 OVMax= 2.86D-02

 Cycle   5  Pass 1  IDiag  1:
 RMSU=  6.48D-05    CP:  9.76D-01  1.56D+00  6.98D-01  6.74D-01
 E= -3007.82820264909     Delta-E=       -0.016168443277 Rises=F Damp=F
 DIIS: error= 9.50D-04 at cycle   5 NSaved=   5.
 NSaved= 5 IEnMin= 5 EnMin= -3007.82820264909     IErMin= 5 ErrMin= 9.50D-04
 ErrMax= 9.50D-04  0.00D+00 EMaxC= 1.00D-01 BMatC= 4.90D-04 BMatP= 1.93D-02
 IDIUse=3 WtCom= 9.91D-01 WtEn= 9.50D-03
 Coeff-Com: -0.333D-01 0.638D-01 0.125D+00 0.238D+00 0.607D+00
 Coeff-En:   0.000D+00 0.000D+00 0.000D+00 0.000D+00 0.100D+01
 Coeff:     -0.330D-01 0.632D-01 0.123D+00 0.235D+00 0.611D+00
 Gap=     0.154 Goal=   None    Shift=    0.000
 RMSDP=2.87D-05 MaxDP=4.00D-03 DE=-1.62D-02 OVMax= 8.49D-03

 Cycle   6  Pass 1  IDiag  1:
 RMSU=  2.39D-05    CP:  9.76D-01  1.56D+00  6.98D-01  7.26D-01  8.33D-01
 E= -3007.82861514560     Delta-E=       -0.000412496513 Rises=F Damp=F
 DIIS: error= 4.07D-04 at cycle   6 NSaved=   6.
 NSaved= 6 IEnMin= 6 EnMin= -3007.82861514560     IErMin= 6 ErrMin= 4.07D-04
 ErrMax= 4.07D-04  0.00D+00 EMaxC= 1.00D-01 BMatC= 9.06D-05 BMatP= 4.90D-04
 IDIUse=3 WtCom= 9.96D-01 WtEn= 4.07D-03
 Coeff-Com:  0.908D-02-0.198D-01-0.122D-01 0.658D-02 0.310D+00 0.707D+00
 Coeff-En:   0.000D+00 0.000D+00 0.000D+00 0.000D+00 0.485D-01 0.952D+00
 Coeff:      0.905D-02-0.197D-01-0.121D-01 0.655D-02 0.309D+00 0.708D+00
 Gap=     0.154 Goal=   None    Shift=    0.000
 RMSDP=1.54D-05 MaxDP=3.84D-03 DE=-4.12D-04 OVMax= 4.61D-03

 Cycle   7  Pass 1  IDiag  1:
 RMSU=  9.86D-06    CP:  9.76D-01  1.57D+00  7.05D-01  7.40D-01  9.76D-01
                    CP:  8.32D-01
 E= -3007.82871832290     Delta-E=       -0.000103177292 Rises=F Damp=F
 DIIS: error= 6.78D-05 at cycle   7 NSaved=   7.
 NSaved= 7 IEnMin= 7 EnMin= -3007.82871832290     IErMin= 7 ErrMin= 6.78D-05
 ErrMax= 6.78D-05  0.00D+00 EMaxC= 1.00D-01 BMatC= 9.99D-06 BMatP= 9.06D-05
 IDIUse=1 WtCom= 1.00D+00 WtEn= 0.00D+00
 Coeff-Com:  0.757D-02-0.155D-01-0.175D-01-0.224D-01 0.782D-01 0.316D+00
 Coeff-Com:  0.653D+00
 Coeff:      0.757D-02-0.155D-01-0.175D-01-0.224D-01 0.782D-01 0.316D+00
 Coeff:      0.653D+00
 Gap=     0.154 Goal=   None    Shift=    0.000
 RMSDP=4.97D-06 MaxDP=5.76D-04 DE=-1.03D-04 OVMax= 1.77D-03

 Cycle   8  Pass 1  IDiag  1:
 RMSU=  3.50D-06    CP:  9.76D-01  1.57D+00  7.07D-01  7.44D-01  9.94D-01
                    CP:  9.54D-01  9.74D-01
 E= -3007.82873318122     Delta-E=       -0.000014858320 Rises=F Damp=F
 DIIS: error= 3.49D-05 at cycle   8 NSaved=   8.
 NSaved= 8 IEnMin= 8 EnMin= -3007.82873318122     IErMin= 8 ErrMin= 3.49D-05
 ErrMax= 3.49D-05  0.00D+00 EMaxC= 1.00D-01 BMatC= 1.96D-06 BMatP= 9.99D-06
 IDIUse=1 WtCom= 1.00D+00 WtEn= 0.00D+00
 Coeff-Com:  0.166D-02-0.311D-02-0.536D-02-0.125D-01-0.278D-01-0.112D-01
 Coeff-Com:  0.299D+00 0.759D+00
 Coeff:      0.166D-02-0.311D-02-0.536D-02-0.125D-01-0.278D-01-0.112D-01
 Coeff:      0.299D+00 0.759D+00
 Gap=     0.154 Goal=   None    Shift=    0.000
 RMSDP=3.05D-06 MaxDP=4.81D-04 DE=-1.49D-05 OVMax= 1.39D-03

 Cycle   9  Pass 1  IDiag  1:
 RMSU=  1.70D-06    CP:  9.76D-01  1.57D+00  7.07D-01  7.46D-01  1.01D+00
                    CP:  9.81D-01  1.17D+00  1.17D+00
 E= -3007.82873809710     Delta-E=       -0.000004915883 Rises=F Damp=F
 DIIS: error= 1.70D-05 at cycle   9 NSaved=   9.
 NSaved= 9 IEnMin= 9 EnMin= -3007.82873809710     IErMin= 9 ErrMin= 1.70D-05
 ErrMax= 1.70D-05  0.00D+00 EMaxC= 1.00D-01 BMatC= 3.07D-07 BMatP= 1.96D-06
 IDIUse=1 WtCom= 1.00D+00 WtEn= 0.00D+00
 Coeff-Com: -0.635D-03 0.137D-02 0.119D-02-0.578D-03-0.185D-01-0.574D-01
 Coeff-Com:  0.709D-02 0.225D+00 0.843D+00
 Coeff:     -0.635D-03 0.137D-02 0.119D-02-0.578D-03-0.185D-01-0.574D-01
 Coeff:      0.709D-02 0.225D+00 0.843D+00
 Gap=     0.154 Goal=   None    Shift=    0.000
 RMSDP=1.71D-06 MaxDP=1.29D-04 DE=-4.92D-06 OVMax= 9.80D-04

 Cycle  10  Pass 1  IDiag  1:
 RMSU=  8.13D-07    CP:  9.76D-01  1.57D+00  7.08D-01  7.46D-01  1.02D+00
                    CP:  9.94D-01  1.25D+00  1.43D+00  1.41D+00
 E= -3007.82873975557     Delta-E=       -0.000001658473 Rises=F Damp=F
 DIIS: error= 9.39D-06 at cycle  10 NSaved=  10.
 NSaved=10 IEnMin=10 EnMin= -3007.82873975557     IErMin=10 ErrMin= 9.39D-06
 ErrMax= 9.39D-06  0.00D+00 EMaxC= 1.00D-01 BMatC= 1.17D-07 BMatP= 3.07D-07
 IDIUse=1 WtCom= 1.00D+00 WtEn= 0.00D+00
 Coeff-Com: -0.832D-03 0.163D-02 0.239D-02 0.382D-02 0.215D-02-0.259D-01
 Coeff-Com: -0.893D-01-0.160D+00 0.343D+00 0.923D+00
 Coeff:     -0.832D-03 0.163D-02 0.239D-02 0.382D-02 0.215D-02-0.259D-01
 Coeff:     -0.893D-01-0.160D+00 0.343D+00 0.923D+00
 Gap=     0.154 Goal=   None    Shift=    0.000
 RMSDP=1.53D-06 MaxDP=1.21D-04 DE=-1.66D-06 OVMax= 9.37D-04

 Cycle  11  Pass 1  IDiag  1:
 RMSU=  5.08D-07    CP:  9.76D-01  1.57D+00  7.08D-01  7.46D-01  1.02D+00
                    CP:  1.00D+00  1.32D+00  1.65D+00  1.94D+00  1.51D+00
 E= -3007.82874069872     Delta-E=       -0.000000943150 Rises=F Damp=F
 DIIS: error= 6.25D-06 at cycle  11 NSaved=  11.
 NSaved=11 IEnMin=11 EnMin= -3007.82874069872     IErMin=11 ErrMin= 6.25D-06
 ErrMax= 6.25D-06  0.00D+00 EMaxC= 1.00D-01 BMatC= 4.15D-08 BMatP= 1.17D-07
 IDIUse=1 WtCom= 1.00D+00 WtEn= 0.00D+00
 Coeff-Com: -0.128D-03 0.224D-03 0.600D-03 0.163D-02 0.671D-02 0.487D-02
 Coeff-Com: -0.313D-01-0.125D+00-0.120D+00 0.381D+00 0.882D+00
 Coeff:     -0.128D-03 0.224D-03 0.600D-03 0.163D-02 0.671D-02 0.487D-02
 Coeff:     -0.313D-01-0.125D+00-0.120D+00 0.381D+00 0.882D+00
 Gap=     0.154 Goal=   None    Shift=    0.000
 RMSDP=9.54D-07 MaxDP=7.70D-05 DE=-9.43D-07 OVMax= 6.04D-04

 Cycle  12  Pass 1  IDiag  1:
 RMSU=  2.73D-07    CP:  9.76D-01  1.57D+00  7.08D-01  7.46D-01  1.03D+00
                    CP:  1.00D+00  1.35D+00  1.77D+00  2.24D+00  2.09D+00
                    CP:  1.47D+00
 E= -3007.82874107033     Delta-E=       -0.000000371605 Rises=F Damp=F
 DIIS: error= 3.58D-06 at cycle  12 NSaved=  12.
 NSaved=12 IEnMin=12 EnMin= -3007.82874107033     IErMin=12 ErrMin= 3.58D-06
 ErrMax= 3.58D-06  0.00D+00 EMaxC= 1.00D-01 BMatC= 1.32D-08 BMatP= 4.15D-08
 IDIUse=1 WtCom= 1.00D+00 WtEn= 0.00D+00
 Coeff-Com:  0.329D-03-0.655D-03-0.849D-03-0.115D-02 0.108D-02 0.120D-01
 Coeff-Com:  0.325D-01 0.383D-01-0.198D+00-0.325D+00 0.222D+00 0.122D+01
 Coeff:      0.329D-03-0.655D-03-0.849D-03-0.115D-02 0.108D-02 0.120D-01
 Coeff:      0.325D-01 0.383D-01-0.198D+00-0.325D+00 0.222D+00 0.122D+01
 Gap=     0.154 Goal=   None    Shift=    0.000
 RMSDP=9.30D-07 MaxDP=6.85D-05 DE=-3.72D-07 OVMax= 5.87D-04

 Cycle  13  Pass 1  IDiag  1:
 RMSU=  1.63D-07    CP:  9.76D-01  1.57D+00  7.08D-01  7.46D-01  1.03D+00
                    CP:  1.00D+00  1.37D+00  1.87D+00  2.53D+00  2.67D+00
                    CP:  2.25D+00  1.79D+00
 E= -3007.82874126073     Delta-E=       -0.000000190406 Rises=F Damp=F
 DIIS: error= 1.60D-06 at cycle  13 NSaved=  13.
 NSaved=13 IEnMin=13 EnMin= -3007.82874126073     IErMin=13 ErrMin= 1.60D-06
 ErrMax= 1.60D-06  0.00D+00 EMaxC= 1.00D-01 BMatC= 3.96D-09 BMatP= 1.32D-08
 IDIUse=1 WtCom= 1.00D+00 WtEn= 0.00D+00
 Coeff-Com:  0.195D-03-0.382D-03-0.578D-03-0.102D-02-0.146D-02 0.374D-02
 Coeff-Com:  0.242D-01 0.567D-01-0.479D-01-0.257D+00-0.170D+00 0.559D+00
 Coeff-Com:  0.834D+00
 Coeff:      0.195D-03-0.382D-03-0.578D-03-0.102D-02-0.146D-02 0.374D-02
 Coeff:      0.242D-01 0.567D-01-0.479D-01-0.257D+00-0.170D+00 0.559D+00
 Coeff:      0.834D+00
 Gap=     0.154 Goal=   None    Shift=    0.000
 RMSDP=3.77D-07 MaxDP=2.74D-05 DE=-1.90D-07 OVMax= 2.47D-04

 Cycle  14  Pass 1  IDiag  1:
 RMSU=  8.49D-08    CP:  9.76D-01  1.57D+00  7.08D-01  7.46D-01  1.03D+00
                    CP:  1.00D+00  1.37D+00  1.90D+00  2.63D+00  2.90D+00
                    CP:  2.61D+00  2.29D+00  1.27D+00
 E= -3007.82874129254     Delta-E=       -0.000000031803 Rises=F Damp=F
 DIIS: error= 5.71D-07 at cycle  14 NSaved=  14.
 NSaved=14 IEnMin=14 EnMin= -3007.82874129254     IErMin=14 ErrMin= 5.71D-07
 ErrMax= 5.71D-07  0.00D+00 EMaxC= 1.00D-01 BMatC= 7.54D-10 BMatP= 3.96D-09
 IDIUse=1 WtCom= 1.00D+00 WtEn= 0.00D+00
 Coeff-Com: -0.404D-05 0.111D-04-0.102D-04-0.927D-04-0.660D-03-0.141D-02
 Coeff-Com:  0.829D-03 0.108D-01 0.273D-01-0.220D-01-0.104D+00-0.590D-01
 Coeff-Com:  0.280D+00 0.869D+00
 Coeff:     -0.404D-05 0.111D-04-0.102D-04-0.927D-04-0.660D-03-0.141D-02
 Coeff:      0.829D-03 0.108D-01 0.273D-01-0.220D-01-0.104D+00-0.590D-01
 Coeff:      0.280D+00 0.869D+00
 Gap=     0.154 Goal=   None    Shift=    0.000
 RMSDP=1.37D-07 MaxDP=9.53D-06 DE=-3.18D-08 OVMax= 8.87D-05

 Cycle  15  Pass 1  IDiag  1:
 RMSU=  4.40D-08    CP:  9.76D-01  1.57D+00  7.08D-01  7.46D-01  1.03D+00
                    CP:  1.01D+00  1.38D+00  1.91D+00  2.65D+00  2.98D+00
                    CP:  2.73D+00  2.50D+00  1.58D+00  1.32D+00
 E= -3007.82874129800     Delta-E=       -0.000000005464 Rises=F Damp=F
 DIIS: error= 3.94D-07 at cycle  15 NSaved=  15.
 NSaved=15 IEnMin=15 EnMin= -3007.82874129800     IErMin=15 ErrMin= 3.94D-07
 ErrMax= 3.94D-07  0.00D+00 EMaxC= 1.00D-01 BMatC= 2.55D-10 BMatP= 7.54D-10
 IDIUse=1 WtCom= 1.00D+00 WtEn= 0.00D+00
 Coeff-Com: -0.530D-04 0.105D-03 0.148D-03 0.217D-03 0.103D-03-0.166D-02
 Coeff-Com: -0.605D-02-0.102D-01 0.253D-01 0.527D-01-0.200D-03-0.166D+00
 Coeff-Com: -0.105D+00 0.373D+00 0.838D+00
 Coeff:     -0.530D-04 0.105D-03 0.148D-03 0.217D-03 0.103D-03-0.166D-02
 Coeff:     -0.605D-02-0.102D-01 0.253D-01 0.527D-01-0.200D-03-0.166D+00
 Coeff:     -0.105D+00 0.373D+00 0.838D+00
 Gap=     0.154 Goal=   None    Shift=    0.000
 RMSDP=7.59D-08 MaxDP=5.65D-06 DE=-5.46D-09 OVMax= 5.42D-05

 Cycle  16  Pass 1  IDiag  1:
 RMSU=  2.73D-08    CP:  9.76D-01  1.57D+00  7.08D-01  7.46D-01  1.03D+00
                    CP:  1.01D+00  1.38D+00  1.92D+00  2.66D+00  3.00D+00
                    CP:  2.78D+00  2.60D+00  1.76D+00  1.69D+00  1.36D+00
 E= -3007.82874129981     Delta-E=       -0.000000001814 Rises=F Damp=F
 DIIS: error= 2.65D-07 at cycle  16 NSaved=  16.
 NSaved=16 IEnMin=16 EnMin= -3007.82874129981     IErMin=16 ErrMin= 2.65D-07
 ErrMax= 2.65D-07  0.00D+00 EMaxC= 1.00D-01 BMatC= 8.47D-11 BMatP= 2.55D-10
 IDIUse=1 WtCom= 1.00D+00 WtEn= 0.00D+00
 Coeff-Com: -0.137D-04 0.261D-04 0.452D-04 0.786D-04 0.237D-03-0.120D-03
 Coeff-Com: -0.188D-02-0.564D-02 0.208D-02 0.180D-01 0.269D-01-0.285D-01
 Coeff-Com: -0.106D+00-0.141D+00 0.274D+00 0.962D+00
 Coeff:     -0.137D-04 0.261D-04 0.452D-04 0.786D-04 0.237D-03-0.120D-03
 Coeff:     -0.188D-02-0.564D-02 0.208D-02 0.180D-01 0.269D-01-0.285D-01
 Coeff:     -0.106D+00-0.141D+00 0.274D+00 0.962D+00
 Gap=     0.154 Goal=   None    Shift=    0.000
 RMSDP=4.62D-08 MaxDP=3.84D-06 DE=-1.81D-09 OVMax= 3.10D-05

 Cycle  17  Pass 1  IDiag  1:
 RMSU=  1.29D-08    CP:  9.76D-01  1.57D+00  7.08D-01  7.46D-01  1.03D+00
                    CP:  1.01D+00  1.38D+00  1.92D+00  2.67D+00  3.00D+00
                    CP:  2.81D+00  2.65D+00  1.87D+00  1.95D+00  1.89D+00
                    CP:  1.66D+00
 E= -3007.82874130057     Delta-E=       -0.000000000755 Rises=F Damp=F
 DIIS: error= 1.67D-07 at cycle  17 NSaved=  17.
 NSaved=17 IEnMin=17 EnMin= -3007.82874130057     IErMin=17 ErrMin= 1.67D-07
 ErrMax= 1.67D-07  0.00D+00 EMaxC= 1.00D-01 BMatC= 2.69D-11 BMatP= 8.47D-11
 IDIUse=1 WtCom= 1.00D+00 WtEn= 0.00D+00
 Coeff-Com:  0.176D-04-0.352D-04-0.482D-04-0.721D-04 0.487D-04 0.617D-03
 Coeff-Com:  0.196D-02 0.273D-02-0.932D-02-0.196D-01 0.754D-02 0.678D-01
 Coeff-Com:  0.178D-01-0.201D+00-0.221D+00 0.991D-01 0.125D+01
 Coeff:      0.176D-04-0.352D-04-0.482D-04-0.721D-04 0.487D-04 0.617D-03
 Coeff:      0.196D-02 0.273D-02-0.932D-02-0.196D-01 0.754D-02 0.678D-01
 Coeff:      0.178D-01-0.201D+00-0.221D+00 0.991D-01 0.125D+01
 Gap=     0.154 Goal=   None    Shift=    0.000
 RMSDP=4.09D-08 MaxDP=3.22D-06 DE=-7.55D-10 OVMax= 3.02D-05

 Cycle  18  Pass 1  IDiag  1:
 RMSU=  9.61D-09    CP:  9.76D-01  1.57D+00  7.08D-01  7.46D-01  1.03D+00
                    CP:  1.01D+00  1.38D+00  1.92D+00  2.67D+00  3.00D+00
                    CP:  2.81D+00  2.67D+00  1.95D+00  2.16D+00  2.40D+00
                    CP:  2.47D+00  1.63D+00
 E= -3007.82874130092     Delta-E=       -0.000000000349 Rises=F Damp=F
 DIIS: error= 9.99D-08 at cycle  18 NSaved=  18.
 NSaved=18 IEnMin=18 EnMin= -3007.82874130092     IErMin=18 ErrMin= 9.99D-08
 ErrMax= 9.99D-08  0.00D+00 EMaxC= 1.00D-01 BMatC= 1.50D-11 BMatP= 2.69D-11
 IDIUse=1 WtCom= 1.00D+00 WtEn= 0.00D+00
 Coeff-Com:  0.131D-04-0.256D-04-0.399D-04-0.649D-04-0.604D-04 0.308D-03
 Coeff-Com:  0.162D-02 0.356D-02-0.473D-02-0.171D-01-0.781D-02 0.428D-01
 Coeff-Com:  0.486D-01-0.506D-01-0.193D+00-0.405D+00 0.682D+00 0.900D+00
 Coeff:      0.131D-04-0.256D-04-0.399D-04-0.649D-04-0.604D-04 0.308D-03
 Coeff:      0.162D-02 0.356D-02-0.473D-02-0.171D-01-0.781D-02 0.428D-01
 Coeff:      0.486D-01-0.506D-01-0.193D+00-0.405D+00 0.682D+00 0.900D+00
 Gap=     0.154 Goal=   None    Shift=    0.000
 RMSDP=2.83D-08 MaxDP=2.13D-06 DE=-3.49D-10 OVMax= 1.91D-05

 Cycle  19  Pass 1  IDiag  1:
 RMSU=  5.01D-09    CP:  9.76D-01  1.57D+00  7.08D-01  7.46D-01  1.03D+00
                    CP:  1.01D+00  1.38D+00  1.92D+00  2.67D+00  3.00D+00
                    CP:  2.82D+00  2.69D+00  2.00D+00  2.30D+00  2.73D+00
                    CP:  3.00D+00  2.33D+00  1.36D+00
 E= -3007.82874130113     Delta-E=       -0.000000000216 Rises=F Damp=F
 DIIS: error= 3.71D-08 at cycle  19 NSaved=  19.
 NSaved=19 IEnMin=19 EnMin= -3007.82874130113     IErMin=19 ErrMin= 3.71D-08
 ErrMax= 3.71D-08  0.00D+00 EMaxC= 1.00D-01 BMatC= 2.43D-12 BMatP= 1.50D-11
 IDIUse=1 WtCom= 1.00D+00 WtEn= 0.00D+00
 Coeff-Com: -0.707D-06 0.162D-05-0.858D-07-0.175D-05-0.354D-04-0.938D-04
 Coeff-Com: -0.355D-04 0.529D-03 0.130D-02-0.714D-03-0.502D-02-0.392D-02
 Coeff-Com:  0.134D-01 0.449D-01 0.138D-01-0.213D+00-0.867D-01 0.330D+00
 Coeff-Com:  0.906D+00
 Coeff:     -0.707D-06 0.162D-05-0.858D-07-0.175D-05-0.354D-04-0.938D-04
 Coeff:     -0.355D-04 0.529D-03 0.130D-02-0.714D-03-0.502D-02-0.392D-02
 Coeff:      0.134D-01 0.449D-01 0.138D-01-0.213D+00-0.867D-01 0.330D+00
 Coeff:      0.906D+00
 Gap=     0.154 Goal=   None    Shift=    0.000
 RMSDP=9.56D-09 MaxDP=8.06D-07 DE=-2.16D-10 OVMax= 7.05D-06

 SCF Done:  E(RwB97XD) =  -3007.82874130     A.U. after   19 cycles
            NFock= 19  Conv=0.96D-08     -V/T= 2.0108
 KE= 2.975760647329D+03 PE=-2.597187174783D+04 EE= 1.049831671859D+04
 Leave Link  502 at Thu Apr 28 01:47:38 2022, MaxMem= 10066329600 cpu:           13160.5 elap:             565.0
 (Enter /sw/apps/gaussian-16.0/g16/l801.exe)
 DoSCS=F DFT=T ScalE2(SS,OS)=  1.000000  1.000000
 ExpMin= 3.36D-02 ExpMax= 4.95D+03 ExpMxC= 7.45D+02 IAcc=3 IRadAn=         5 AccDes= 0.00D+00
 HarFok:  IExCor=  205 AccDes= 0.00D+00 IRadAn=         5 IDoV=-2 UseB2=F ITyADJ=14
 ICtDFT= 12500011 ScaDFX=  1.000000  1.000000  1.000000  1.000000
 GSVD:  LWork=       -5460 too small for GESVD, short by       25550 words or       25550 for optimal perf.
 Largest valence mixing into a core orbital is  1.45D-04
 Largest core mixing into a valence orbital is  5.48D-05
 Range of M.O.s used for correlation:    71  1298
 NBasis=  1298 NAE=   246 NBE=   246 NFC=    70 NFV=     0
 NROrb=   1228 NOA=   176 NOB=   176 NVA=  1052 NVB=  1052
 Leave Link  801 at Thu Apr 28 01:47:38 2022, MaxMem= 10066329600 cpu:               7.7 elap:               0.3
 (Enter /sw/apps/gaussian-16.0/g16/l914.exe)
 RHF ground state
 Two-electron integrals replicated using symmetry.
 MDV= 10066329600 DFT=T DoStab=F Mixed=T DoRPA=T DoScal=F NonHer=T
 Making orbital integer symmetry assigments:
 Orbital symmetries:
       Occupied  (A) (A) (A) (A) (A) (A) (A) (A) (A) (A) (A) (A)
                 (A) (A) (A) (A) (A) (A) (A) (A) (A) (A) (A) (A)
                 (A) (A) (A) (A) (A) (A) (A) (A) (A) (A) (A) (A)
                 (A) (A) (A) (A) (A) (A) (A) (A) (A) (A) (A) (A)
                 (A) (A) (A) (A) (A) (A) (A) (A) (A) (A) (A) (A)
                 (A) (A) (A) (A) (A) (A) (A) (A) (A) (A) (A) (A)
                 (A) (A) (A) (A) (A) (A) (A) (A) (A) (A) (A) (A)
                 (A) (A) (A) (A) (A) (A) (A) (A) (A) (A) (A) (A)
                 (A) (A) (A) (A) (A) (A) (A) (A) (A) (A) (A) (A)
                 (A) (A) (A) (A) (A) (A) (A) (A) (A) (A) (A) (A)
                 (A) (A) (A) (A) (A) (A) (A) (A) (A) (A) (A) (A)
                 (A) (A) (A) (A) (A) (A) (A) (A) (A) (A) (A) (A)
                 (A) (A) (A) (A) (A) (A) (A) (A) (A) (A) (A) (A)
                 (A) (A) (A) (A) (A) (A) (A) (A) (A) (A) (A) (A)
                 (A) (A) (A) (A) (A) (A) (A) (A) (A) (A) (A) (A)
                 (A) (A) (A) (A) (A) (A) (A) (A) (A) (A) (A) (A)
                 (A) (A) (A) (A) (A) (A) (A) (A) (A) (A) (A) (A)
                 (A) (A) (A) (A) (A) (A) (A) (A) (A) (A) (A) (A)
                 (A) (A) (A) (A) (A) (A) (A) (A) (A) (A) (A) (A)
                 (A) (A) (A) (A) (A) (A) (A) (A) (A) (A) (A) (A)
                 (A) (A) (A) (A) (A) (A)
       Virtual   (A) (A) (A) (A) (A) (A) (A) (A) (A) (A) (A) (A)
                 (A) (A) (A) (A) (A) (A) (A) (A) (A) (A) (A) (A)
                 (A) (A) (A) (A) (A) (A) (A) (A) (A) (A) (A) (A)
                 (A) (A) (A) (A) (A) (A) (A) (A) (A) (A) (A) (A)
                 (A) (A) (A) (A) (A) (A) (A) (A) (A) (A) (A) (A)
                 (A) (A) (A) (A) (A) (A) (A) (A) (A) (A) (A) (A)
                 (A) (A) (A) (A) (A) (A) (A) (A) (A) (A) (A) (A)
                 (A) (A) (A) (A) (A) (A) (A) (A) (A) (A) (A) (A)
                 (A) (A) (A) (A) (A) (A) (A) (A) (A) (A) (A) (A)
                 (A) (A) (A) (A) (A) (A) (A) (A) (A) (A) (A) (A)
                 (A) (A) (A) (A) (A) (A) (A) (A) (A) (A) (A) (A)
                 (A) (A) (A) (A) (A) (A) (A) (A) (A) (A) (A) (A)
                 (A) (A) (A) (A) (A) (A) (A) (A) (A) (A) (A) (A)
                 (A) (A) (A) (A) (A) (A) (A) (A) (A) (A) (A) (A)
                 (A) (A) (A) (A) (A) (A) (A) (A) (A) (A) (A) (A)
                 (A) (A) (A) (A) (A) (A) (A) (A) (A) (A) (A) (A)
                 (A) (A) (A) (A) (A) (A) (A) (A) (A) (A) (A) (A)
                 (A) (A) (A) (A) (A) (A) (A) (A) (A) (A) (A) (A)
                 (A) (A) (A) (A) (A) (A) (A) (A) (A) (A) (A) (A)
                 (A) (A) (A) (A) (A) (A) (A) (A) (A) (A) (A) (A)
                 (A) (A) (A) (A) (A) (A) (A) (A) (A) (A) (A) (A)
                 (A) (A) (A) (A) (A) (A) (A) (A) (A) (A) (A) (A)
                 (A) (A) (A) (A) (A) (A) (A) (A) (A) (A) (A) (A)
                 (A) (A) (A) (A) (A) (A) (A) (A) (A) (A) (A) (A)
                 (A) (A) (A) (A) (A) (A) (A) (A) (A) (A) (A) (A)
                 (A) (A) (A) (A) (A) (A) (A) (A) (A) (A) (A) (A)
                 (A) (A) (A) (A) (A) (A) (A) (A) (A) (A) (A) (A)
                 (A) (A) (A) (A) (A) (A) (A) (A) (A) (A) (A) (A)
                 (A) (A) (A) (A) (A) (A) (A) (A) (A) (A) (A) (A)
                 (A) (A) (A) (A) (A) (A) (A) (A) (A) (A) (A) (A)
                 (A) (A) (A) (A) (A) (A) (A) (A) (A) (A) (A) (A)
                 (A) (A) (A) (A) (A) (A) (A) (A) (A) (A) (A) (A)
                 (A) (A) (A) (A) (A) (A) (A) (A) (A) (A) (A) (A)
                 (A) (A) (A) (A) (A) (A) (A) (A) (A) (A) (A) (A)
                 (A) (A) (A) (A) (A) (A) (A) (A) (A) (A) (A) (A)
                 (A) (A) (A) (A) (A) (A) (A) (A) (A) (A) (A) (A)
                 (A) (A) (A) (A) (A) (A) (A) (A) (A) (A) (A) (A)
                 (A) (A) (A) (A) (A) (A) (A) (A) (A) (A) (A) (A)
                 (A) (A) (A) (A) (A) (A) (A) (A) (A) (A) (A) (A)
                 (A) (A) (A) (A) (A) (A) (A) (A) (A) (A) (A) (A)
                 (A) (A) (A) (A) (A) (A) (A) (A) (A) (A) (A) (A)
                 (A) (A) (A) (A) (A) (A) (A) (A) (A) (A) (A) (A)
                 (A) (A) (A) (A) (A) (A) (A) (A) (A) (A) (A) (A)
                 (A) (A) (A) (A) (A) (A) (A) (A) (A) (A) (A) (A)
                 (A) (A) (A) (A) (A) (A) (A) (A) (A) (A) (A) (A)
                 (A) (A) (A) (A) (A) (A) (A) (A) (A) (A) (A) (A)
                 (A) (A) (A) (A) (A) (A) (A) (A) (A) (A) (A) (A)
                 (A) (A) (A) (A) (A) (A) (A) (A) (A) (A) (A) (A)
                 (A) (A) (A) (A) (A) (A) (A) (A) (A) (A) (A) (A)
                 (A) (A) (A) (A) (A) (A) (A) (A) (A) (A) (A) (A)
                 (A) (A) (A) (A) (A) (A) (A) (A) (A) (A) (A) (A)
                 (A) (A) (A) (A) (A) (A) (A) (A) (A) (A) (A) (A)
                 (A) (A) (A) (A) (A) (A) (A) (A) (A) (A) (A) (A)
                 (A) (A) (A) (A) (A) (A) (A) (A) (A) (A) (A) (A)
                 (A) (A) (A) (A) (A) (A) (A) (A) (A) (A) (A) (A)
                 (A) (A) (A) (A) (A) (A) (A) (A) (A) (A) (A) (A)
                 (A) (A) (A) (A) (A) (A) (A) (A) (A) (A) (A) (A)
                 (A) (A) (A) (A) (A) (A) (A) (A) (A) (A) (A) (A)
                 (A) (A) (A) (A) (A) (A) (A) (A) (A) (A) (A) (A)
                 (A) (A) (A) (A) (A) (A) (A) (A) (A) (A) (A) (A)
                 (A) (A) (A) (A) (A) (A) (A) (A) (A) (A) (A) (A)
                 (A) (A) (A) (A) (A) (A) (A) (A) (A) (A) (A) (A)
                 (A) (A) (A) (A) (A) (A) (A) (A) (A) (A) (A) (A)
                 (A) (A) (A) (A) (A) (A) (A) (A) (A) (A) (A) (A)
                 (A) (A) (A) (A) (A) (A) (A) (A) (A) (A) (A) (A)
                 (A) (A) (A) (A) (A) (A) (A) (A) (A) (A) (A) (A)
                 (A) (A) (A) (A) (A) (A) (A) (A) (A) (A) (A) (A)
                 (A) (A) (A) (A) (A) (A) (A) (A) (A) (A) (A) (A)
                 (A) (A) (A) (A) (A) (A) (A) (A) (A) (A) (A) (A)
                 (A) (A) (A) (A) (A) (A) (A) (A) (A) (A) (A) (A)
                 (A) (A) (A) (A) (A) (A) (A) (A) (A) (A) (A) (A)
                 (A) (A) (A) (A) (A) (A) (A) (A) (A) (A) (A) (A)
                 (A) (A) (A) (A) (A) (A) (A) (A) (A) (A) (A) (A)
                 (A) (A) (A) (A) (A) (A) (A) (A) (A) (A) (A) (A)
                 (A) (A) (A) (A) (A) (A) (A) (A) (A) (A) (A) (A)
                 (A) (A) (A) (A) (A) (A) (A) (A) (A) (A) (A) (A)
                 (A) (A) (A) (A) (A) (A) (A) (A) (A) (A) (A) (A)
                 (A) (A) (A) (A) (A) (A) (A) (A) (A) (A) (A) (A)
                 (A) (A) (A) (A) (A) (A) (A) (A) (A) (A) (A) (A)
                 (A) (A) (A) (A) (A) (A) (A) (A) (A) (A) (A) (A)
                 (A) (A) (A) (A) (A) (A) (A) (A) (A) (A) (A) (A)
                 (A) (A) (A) (A) (A) (A) (A) (A) (A) (A) (A) (A)
                 (A) (A) (A) (A) (A) (A) (A) (A) (A) (A) (A) (A)
                 (A) (A) (A) (A) (A) (A) (A) (A) (A) (A) (A) (A)
                 (A) (A) (A) (A) (A) (A) (A) (A) (A) (A) (A) (A)
                 (A) (A) (A) (A) (A) (A) (A) (A) (A) (A) (A) (A)
                 (A) (A) (A) (A) (A) (A) (A) (A) (A) (A) (A) (A)
                 (A) (A) (A) (A) (A) (A) (A) (A)
    20 initial guesses have been made.
 Convergence on wavefunction:    0.001000000000000
 Davidson Disk Diagonalization:  ConvIn= 1.00D-03 SkipCon=T Conv= 1.00D-03.
 Max sub-space:  2000 roots to seek:    20 dimension of matrix:       370304
 Iteration     1 Dimension    20 NMult     0 NNew     20
 CISAX will form    20 AO SS matrices at one time.
 NMat=    20 NSing=    20 JSym2X= 0.
 FoFJK:  IHMeth= 1 ICntrl=       0 DoSepK=T KAlg= 0 I1Cent=           0 FoldK=F
 IRaf=         1 NMat=      40 IRICut=       1 DoRegI=T DoRafI=F ISym2E= 0 IDoP0=3 IntGTp=3.
 FoFCou: FMM=T IPFlag=           0 FMFlag=      100000 FMFlg1=        2001
         NFxFlg=           0 DoJE=F BraDBF=F KetDBF=F FulRan=T
         wScrn=  0.000000 ICntrl=       500 IOpCl=  0 I1Cent=           0 NGrid=           0
         NMat0=   20 NMatS0=     20 NMatT0=    0 NMatD0=   20 NMtDS0=    0 NMtDT0=    0
 Symmetry not used in FoFCou.
 FMM levels:  10  Number of levels for PrismC:   9
 New state      3 was old state      5
 New state      4 was old state      7
 New state      5 was old state     13
 Excitation Energies [eV] at current iteration:
 Root      1 :     2.099298721983211
 Root      2 :     2.596983236464830
 Root      3 :     3.685584861597179
 Root      4 :     3.905039101073942
 Root      5 :     4.185662730233689
 Root      6 :     4.196434357278749
 Root      7 :     4.303075424994526
 Root      8 :     4.359410156578048
 Root      9 :     4.538527352678113
 Root     10 :     4.564092467473809
 Root     11 :     4.758854054217078
 Root     12 :     4.832703961239089
 Root     13 :     5.081373010508919
 Root     14 :     5.120281774719831
 Root     15 :     5.301202425004008
 Root     16 :     5.469226538067785
 Root     17 :     5.977509141617648
 Root     18 :     6.025990158491362
 Root     19 :     7.143415052334806
 Root     20 :     7.213516451297859
 Iteration     2 Dimension    30 NMult    20 NNew     10
 CISAX will form    10 AO SS matrices at one time.
 NMat=    10 NSing=    10 JSym2X= 0.
 Root      1 not converged, maximum delta is    0.082271783758077
 Root      2 not converged, maximum delta is    0.060870424238460
 Root      3 not converged, maximum delta is    0.097983243265257
 Root      4 not converged, maximum delta is    0.186938794620643
 Root      5 not converged, maximum delta is    0.411068592149715
 Excitation Energies [eV] at current iteration:
 Root      1 :     1.583138611671783   Change is   -0.516160110311427
 Root      2 :     2.190317133233187   Change is   -0.406666103231643
 Root      3 :     3.319043335037872   Change is   -0.366541526559307
 Root      4 :     3.486981837927474   Change is   -0.418057263146468
 Root      5 :     3.652105140208981   Change is   -0.533557590024708
 Iteration     3 Dimension    40 NMult    30 NNew     10
 CISAX will form    10 AO SS matrices at one time.
 NMat=    10 NSing=    10 JSym2X= 0.
 Root      1 not converged, maximum delta is    0.016349647630607
 Root      2 not converged, maximum delta is    0.010202430685203
 Root      3 not converged, maximum delta is    0.029185154887505
 Root      4 not converged, maximum delta is    0.095177699474565
 Root      5 not converged, maximum delta is    0.084105909822552
 Excitation Energies [eV] at current iteration:
 Root      1 :     1.544040476873714   Change is   -0.039098134798070
 Root      2 :     2.172390023714927   Change is   -0.017927109518260
 Root      3 :     3.302201170921410   Change is   -0.016842164116461
 Root      4 :     3.434709332558783   Change is   -0.052272505368690
 Root      5 :     3.591790271444514   Change is   -0.060314868764467
 Iteration     4 Dimension    50 NMult    40 NNew     10
 CISAX will form    10 AO SS matrices at one time.
 NMat=    10 NSing=    10 JSym2X= 0.
 Root      1 not converged, maximum delta is    0.002992470871856
 Root      2 not converged, maximum delta is    0.004223437633750
 Root      3 not converged, maximum delta is    0.005211453871331
 Root      4 not converged, maximum delta is    0.022817468869171
 Root      5 not converged, maximum delta is    0.021192803297478
 Excitation Energies [eV] at current iteration:
 Root      1 :     1.539825889073816   Change is   -0.004214587799898
 Root      2 :     2.169606329423612   Change is   -0.002783694291315
 Root      3 :     3.298914182727165   Change is   -0.003286988194245
 Root      4 :     3.425092801196031   Change is   -0.009616531362752
 Root      5 :     3.583233394567594   Change is   -0.008556876876920
 Iteration     5 Dimension    60 NMult    50 NNew     10
 CISAX will form    10 AO SS matrices at one time.
 NMat=    10 NSing=    10 JSym2X= 0.
 Root      1 not converged, maximum delta is    0.001358452330893
 Root      2 has converged.
 Root      3 not converged, maximum delta is    0.002886688480990
 Root      4 not converged, maximum delta is    0.013815253580699
 Root      5 not converged, maximum delta is    0.023716526881132
 Excitation Energies [eV] at current iteration:
 Root      1 :     1.539457947085540   Change is   -0.000367941988276
 Root      2 :     2.169340162202174   Change is   -0.000266167221437
 Root      3 :     3.298503243705855   Change is   -0.000410939021310
 Root      4 :     3.422963643325061   Change is   -0.002129157870970
 Root      5 :     3.580596726027074   Change is   -0.002636668540519
 Iteration     6 Dimension    68 NMult    60 NNew      8
 CISAX will form     8 AO SS matrices at one time.
 NMat=     8 NSing=     8 JSym2X= 0.
 Root      1 has converged.
 Root      2 has converged.
 Root      3 not converged, maximum delta is    0.001548265280822
 Root      4 not converged, maximum delta is    0.008370116473488
 Root      5 not converged, maximum delta is    0.020037299745514
 Excitation Energies [eV] at current iteration:
 Root      1 :     1.539422365972441   Change is   -0.000035581113099
 Root      2 :     2.169336492681072   Change is   -0.000003669521102
 Root      3 :     3.298426371302613   Change is   -0.000076872403242
 Root      4 :     3.422228126029087   Change is   -0.000735517295974
 Root      5 :     3.579478257772757   Change is   -0.001118468254318
 Iteration     7 Dimension    74 NMult    68 NNew      6
 CISAX will form     6 AO SS matrices at one time.
 NMat=     6 NSing=     6 JSym2X= 0.
 Root      1 has converged.
 Root      2 has converged.
 Root      3 has converged.
 Root      4 not converged, maximum delta is    0.002231601035451
 Root      5 not converged, maximum delta is    0.007562010431581
 Excitation Energies [eV] at current iteration:
 Root      1 :     1.539422238583076   Change is   -0.000000127389365
 Root      2 :     2.169335521703152   Change is   -0.000000970977921
 Root      3 :     3.298408676278811   Change is   -0.000017695023802
 Root      4 :     3.422058257896725   Change is   -0.000169868132362
 Root      5 :     3.579151847200509   Change is   -0.000326410572248
 Iteration     8 Dimension    78 NMult    74 NNew      4
 CISAX will form     4 AO SS matrices at one time.
 NMat=     4 NSing=     4 JSym2X= 0.
 Root      1 has converged.
 Root      2 has converged.
 Root      3 has converged.
 Root      4 not converged, maximum delta is    0.001022336179734
 Root      5 not converged, maximum delta is    0.002527135699161
 Excitation Energies [eV] at current iteration:
 Root      1 :     1.539422186704816   Change is   -0.000000051878260
 Root      2 :     2.169334891665547   Change is   -0.000000630037605
 Root      3 :     3.298407702246311   Change is   -0.000000974032501
 Root      4 :     3.422027904055471   Change is   -0.000030353841254
 Root      5 :     3.579084913140919   Change is   -0.000066934059590
 Iteration     9 Dimension    82 NMult    78 NNew      4
 CISAX will form     4 AO SS matrices at one time.
 NMat=     4 NSing=     4 JSym2X= 0.
 Root      1 has converged.
 Root      2 has converged.
 Root      3 has converged.
 Root      4 not converged, maximum delta is    0.001164229118615
 Root      5 not converged, maximum delta is    0.003722073655874
 Excitation Energies [eV] at current iteration:
 Root      1 :     1.539422157891480   Change is   -0.000000028813335
 Root      2 :     2.169334331407850   Change is   -0.000000560257697
 Root      3 :     3.298405304439095   Change is   -0.000002397807216
 Root      4 :     3.422017664918386   Change is   -0.000010239137086
 Root      5 :     3.579055912343609   Change is   -0.000029000797311
 Iteration    10 Dimension    86 NMult    82 NNew      4
 CISAX will form     4 AO SS matrices at one time.
 NMat=     4 NSing=     4 JSym2X= 0.
 Root      1 has converged.
 Root      2 has converged.
 Root      3 has converged.
 Root      4 not converged, maximum delta is    0.001206377197164
 Root      5 not converged, maximum delta is    0.008748988348978
 Excitation Energies [eV] at current iteration:
 Root      1 :     1.539422153623149   Change is   -0.000000004268332
 Root      2 :     2.169333445419455   Change is   -0.000000885988395
 Root      3 :     3.298401043308305   Change is   -0.000004261130790
 Root      4 :     3.422012110902795   Change is   -0.000005554015591
 Root      5 :     3.579015942890440   Change is   -0.000039969453169
 Iteration    11 Dimension    90 NMult    86 NNew      4
 CISAX will form     4 AO SS matrices at one time.
 NMat=     4 NSing=     4 JSym2X= 0.
 Root      1 has converged.
 Root      2 has converged.
 Root      3 has converged.
 Root      4 has converged.
 Root      5 not converged, maximum delta is    0.027162269911561
 Excitation Energies [eV] at current iteration:
 Root      1 :     1.539422147363900   Change is   -0.000000006259248
 Root      2 :     2.169333149071234   Change is   -0.000000296348222
 Root      3 :     3.298397431624142   Change is   -0.000003611684163
 Root      4 :     3.422009854578438   Change is   -0.000002256324356
 Root      5 :     3.578915005547573   Change is   -0.000100937342866
 Iteration    12 Dimension    92 NMult    90 NNew      2
 CISAX will form     2 AO SS matrices at one time.
 NMat=     2 NSing=     2 JSym2X= 0.
 Root      1 has converged.
 Root      2 has converged.
 Root      3 has converged.
 Root      4 has converged.
 Root      5 not converged, maximum delta is    0.064890413064554
 Excitation Energies [eV] at current iteration:
 Root      1 :     1.539422145422701   Change is   -0.000000001941199
 Root      2 :     2.169332981826717   Change is   -0.000000167244517
 Root      3 :     3.298395926537300   Change is   -0.000001505086842
 Root      4 :     3.422009605627714   Change is   -0.000000248950724
 Root      5 :     3.578701401692693   Change is   -0.000213603854880
 Iteration    13 Dimension    94 NMult    92 NNew      2
 CISAX will form     2 AO SS matrices at one time.
 NMat=     2 NSing=     2 JSym2X= 0.
 Root      1 has converged.
 Root      2 has converged.
 Root      3 has converged.
 Root      4 has converged.
 Root      5 not converged, maximum delta is    0.052635300834189
 Excitation Energies [eV] at current iteration:
 Root      1 :     1.539422143719512   Change is   -0.000000001703189
 Root      2 :     2.169332926552902   Change is   -0.000000055273814
 Root      3 :     3.298395601824747   Change is   -0.000000324712553
 Root      4 :     3.422009598545467   Change is   -0.000000007082247
 Root      5 :     3.578536264163278   Change is   -0.000165137529415
 Iteration    14 Dimension    96 NMult    94 NNew      2
 CISAX will form     2 AO SS matrices at one time.
 NMat=     2 NSing=     2 JSym2X= 0.
 Root      1 has converged.
 Root      2 has converged.
 Root      3 has converged.
 Root      4 has converged.
 Root      5 not converged, maximum delta is    0.013360524562518
 Excitation Energies [eV] at current iteration:
 Root      1 :     1.539422140350676   Change is   -0.000000003368836
 Root      2 :     2.169332761889000   Change is   -0.000000164663902
 Root      3 :     3.298395572682887   Change is   -0.000000029141860
 Root      4 :     3.422009595443452   Change is   -0.000000003102016
 Root      5 :     3.578494100530263   Change is   -0.000042163633015
 Iteration    15 Dimension    98 NMult    96 NNew      2
 CISAX will form     2 AO SS matrices at one time.
 NMat=     2 NSing=     2 JSym2X= 0.
 Root      1 has converged.
 Root      2 has converged.
[...]
 Alpha virt. eigenvalues --    1.22386   1.22538   1.22818   1.23098   1.23824
 Alpha virt. eigenvalues --    1.24424   1.24800   1.25327   1.25493   1.25975
 Alpha virt. eigenvalues --    1.26270   1.26357   1.26666   1.27426   1.27761
 Alpha virt. eigenvalues --    1.28070   1.28264   1.28740   1.29421   1.30102
 Alpha virt. eigenvalues --    1.30500   1.31596   1.31841   1.31985   1.32618
 Alpha virt. eigenvalues --    1.33091   1.33658   1.33999   1.34506   1.34548
 Alpha virt. eigenvalues --    1.35265   1.35518   1.35595   1.37063   1.37463
 Alpha virt. eigenvalues --    1.37541   1.38148   1.38518   1.38695   1.39286
 Alpha virt. eigenvalues --    1.39724   1.39945   1.40204   1.41018   1.42319
 Alpha virt. eigenvalues --    1.42448   1.43030   1.43514   1.43817   1.44126
 Alpha virt. eigenvalues --    1.44228   1.44549   1.44843   1.45263   1.45442
 Alpha virt. eigenvalues --    1.45834   1.46293   1.46617   1.47384   1.47939
 Alpha virt. eigenvalues --    1.48032   1.48078   1.48213   1.48493   1.49199
 Alpha virt. eigenvalues --    1.49493   1.49554   1.49713   1.50520   1.50878
 Alpha virt. eigenvalues --    1.52140   1.52153   1.52709   1.52993   1.53761
 Alpha virt. eigenvalues --    1.53945   1.54652   1.54881   1.55595   1.55715
 Alpha virt. eigenvalues --    1.56200   1.56604   1.56878   1.57189   1.57930
 Alpha virt. eigenvalues --    1.58337   1.58971   1.59206   1.59401   1.59662
 Alpha virt. eigenvalues --    1.60083   1.60136   1.60505   1.60644   1.61012
 Alpha virt. eigenvalues --    1.61268   1.61354   1.61448   1.61866   1.61958
 Alpha virt. eigenvalues --    1.62271   1.62671   1.62900   1.63165   1.63797
 Alpha virt. eigenvalues --    1.63917   1.63961   1.64278   1.64338   1.64393
 Alpha virt. eigenvalues --    1.64718   1.65083   1.65239   1.65996   1.66441
 Alpha virt. eigenvalues --    1.66609   1.66772   1.67350   1.67946   1.68242
 Alpha virt. eigenvalues --    1.68730   1.68921   1.69256   1.69967   1.70307
 Alpha virt. eigenvalues --    1.70578   1.70963   1.71857   1.72144   1.72587
 Alpha virt. eigenvalues --    1.72701   1.73596   1.74876   1.75427   1.75673
 Alpha virt. eigenvalues --    1.75902   1.76068   1.76866   1.77276   1.77561
 Alpha virt. eigenvalues --    1.77884   1.78137   1.78244   1.79045   1.79163
 Alpha virt. eigenvalues --    1.79375   1.80047   1.80171   1.80374   1.80599
 Alpha virt. eigenvalues --    1.80929   1.81082   1.81164   1.81449   1.81736
 Alpha virt. eigenvalues --    1.81953   1.82156   1.82275   1.82459   1.82592
 Alpha virt. eigenvalues --    1.82824   1.82837   1.83078   1.83641   1.83760
 Alpha virt. eigenvalues --    1.83982   1.84211   1.84325   1.84473   1.84539
 Alpha virt. eigenvalues --    1.84852   1.85233   1.85270   1.85765   1.85815
 Alpha virt. eigenvalues --    1.85986   1.86091   1.86495   1.86745   1.86819
 Alpha virt. eigenvalues --    1.86929   1.87129   1.87382   1.87660   1.87765
 Alpha virt. eigenvalues --    1.88014   1.88150   1.88412   1.88709   1.89063
 Alpha virt. eigenvalues --    1.89520   1.89526   1.89671   1.89825   1.89941
 Alpha virt. eigenvalues --    1.90152   1.90277   1.90507   1.90542   1.90792
 Alpha virt. eigenvalues --    1.90962   1.91270   1.91543   1.91671   1.92013
 Alpha virt. eigenvalues --    1.92129   1.92820   1.93061   1.93140   1.93409
 Alpha virt. eigenvalues --    1.93702   1.93836   1.93906   1.94136   1.94275
 Alpha virt. eigenvalues --    1.94771   1.94838   1.95316   1.95434   1.95523
 Alpha virt. eigenvalues --    1.95974   1.96118   1.96327   1.96432   1.96568
 Alpha virt. eigenvalues --    1.96798   1.97387   1.97431   1.97617   1.97893
 Alpha virt. eigenvalues --    1.98061   1.98144   1.99113   1.99237   1.99413
 Alpha virt. eigenvalues --    1.99580   1.99763   2.00008   2.00167   2.00285
 Alpha virt. eigenvalues --    2.00539   2.00637   2.01220   2.01439   2.01585
 Alpha virt. eigenvalues --    2.01733   2.01955   2.01994   2.02253   2.02776
 Alpha virt. eigenvalues --    2.02920   2.03086   2.03193   2.03342   2.03783
 Alpha virt. eigenvalues --    2.04251   2.04591   2.05055   2.05275   2.05808
 Alpha virt. eigenvalues --    2.06031   2.06310   2.06374   2.06671   2.07071
 Alpha virt. eigenvalues --    2.07601   2.07677   2.07787   2.08096   2.08334
 Alpha virt. eigenvalues --    2.08665   2.09068   2.09201   2.10059   2.10204
 Alpha virt. eigenvalues --    2.10831   2.10960   2.11341   2.11750   2.12038
 Alpha virt. eigenvalues --    2.12071   2.12158   2.12366   2.13107   2.13517
 Alpha virt. eigenvalues --    2.14205   2.14472   2.14739   2.14862   2.15163
 Alpha virt. eigenvalues --    2.15371   2.15581   2.15796   2.16073   2.16584
 Alpha virt. eigenvalues --    2.16713   2.17187   2.17379   2.17773   2.18031
 Alpha virt. eigenvalues --    2.18178   2.18228   2.18618   2.18827   2.19453
 Alpha virt. eigenvalues --    2.19569   2.20093   2.20589   2.20683   2.20843
 Alpha virt. eigenvalues --    2.21197   2.21633   2.21930   2.22003   2.22483
 Alpha virt. eigenvalues --    2.22677   2.22897   2.23083   2.23592   2.23743
 Alpha virt. eigenvalues --    2.23897   2.24487   2.24824   2.25210   2.26149
 Alpha virt. eigenvalues --    2.27119   2.27249   2.27532   2.28366   2.28679
 Alpha virt. eigenvalues --    2.29007   2.29561   2.30435   2.30523   2.31422
 Alpha virt. eigenvalues --    2.31668   2.31907   2.32096   2.32572   2.32940
 Alpha virt. eigenvalues --    2.33352   2.33487   2.33928   2.34617   2.34793
 Alpha virt. eigenvalues --    2.35079   2.35213   2.35501   2.35671   2.36084
 Alpha virt. eigenvalues --    2.36307   2.37429   2.37823   2.37891   2.38512
 Alpha virt. eigenvalues --    2.38778   2.38971   2.39734   2.40082   2.40429
 Alpha virt. eigenvalues --    2.40529   2.41101   2.41240   2.41397   2.41512
 Alpha virt. eigenvalues --    2.41883   2.42109   2.42398   2.42783   2.42852
 Alpha virt. eigenvalues --    2.43178   2.43407   2.43910   2.44055   2.44466
 Alpha virt. eigenvalues --    2.45564   2.45752   2.46118   2.46692   2.47025
 Alpha virt. eigenvalues --    2.47552   2.48458   2.48637   2.48985   2.49249
 Alpha virt. eigenvalues --    2.49389   2.49538   2.49956   2.50315   2.50519
 Alpha virt. eigenvalues --    2.50874   2.51738   2.51963   2.52484   2.52916
 Alpha virt. eigenvalues --    2.53324   2.53511   2.53929   2.54285   2.54415
 Alpha virt. eigenvalues --    2.54943   2.55127   2.55354   2.55892   2.56092
 Alpha virt. eigenvalues --    2.56464   2.57309   2.57543   2.58225   2.58420
 Alpha virt. eigenvalues --    2.58745   2.59138   2.59329   2.60140   2.60750
 Alpha virt. eigenvalues --    2.60942   2.61348   2.61793   2.62035   2.63236
 Alpha virt. eigenvalues --    2.63689   2.63749   2.64021   2.64627   2.65013
 Alpha virt. eigenvalues --    2.65243   2.65622   2.65756   2.66093   2.66903
 Alpha virt. eigenvalues --    2.67741   2.67817   2.67935   2.68266   2.68558
 Alpha virt. eigenvalues --    2.69632   2.69863   2.69982   2.70461   2.71342
 Alpha virt. eigenvalues --    2.71433   2.71683   2.71686   2.71955   2.72453
 Alpha virt. eigenvalues --    2.72970   2.73463   2.73590   2.73996   2.74271
 Alpha virt. eigenvalues --    2.74733   2.75021   2.75970   2.77055   2.77489
 Alpha virt. eigenvalues --    2.77858   2.77962   2.78287   2.78887   2.79283
 Alpha virt. eigenvalues --    2.79605   2.80040   2.80164   2.80326   2.80328
 Alpha virt. eigenvalues --    2.80548   2.81155   2.81259   2.81668   2.81728
 Alpha virt. eigenvalues --    2.81829   2.83003   2.83532   2.84066   2.84181
 Alpha virt. eigenvalues --    2.85543   2.85868   2.86462   2.87266   2.87620
 Alpha virt. eigenvalues --    2.88049   2.88536   2.89437   2.89943   2.90319
 Alpha virt. eigenvalues --    2.90725   2.92270   2.92495   2.92766   2.93198
 Alpha virt. eigenvalues --    2.93341   2.94484   2.94940   2.95749   2.95926
 Alpha virt. eigenvalues --    2.96249   2.96811   2.96900   2.97216   2.97516
 Alpha virt. eigenvalues --    2.97944   2.98075   2.98294   2.98498   2.98696
 Alpha virt. eigenvalues --    2.98975   2.99433   2.99600   2.99872   2.99939
 Alpha virt. eigenvalues --    3.00282   3.00995   3.01180   3.01597   3.01888
 Alpha virt. eigenvalues --    3.02315   3.02987   3.03046   3.03352   3.03645
 Alpha virt. eigenvalues --    3.04389   3.04809   3.04902   3.05268   3.05415
 Alpha virt. eigenvalues --    3.05814   3.06021   3.06793   3.06846   3.07201
 Alpha virt. eigenvalues --    3.07947   3.08185   3.08550   3.08614   3.09216
 Alpha virt. eigenvalues --    3.09317   3.09474   3.09650   3.09738   3.10081
 Alpha virt. eigenvalues --    3.10599   3.10761   3.11238   3.11308   3.11928
 Alpha virt. eigenvalues --    3.12673   3.12770   3.13569   3.13619   3.14043
 Alpha virt. eigenvalues --    3.14210   3.14471   3.15006   3.15139   3.15826
 Alpha virt. eigenvalues --    3.16522   3.18095   3.18199   3.19457   3.19633
 Alpha virt. eigenvalues --    3.20188   3.20639   3.20803   3.21750   3.23121
 Alpha virt. eigenvalues --    3.23160   3.24809   3.25694   3.26278   3.27211
 Alpha virt. eigenvalues --    3.28142   3.28376   3.28878   3.29366   3.30715
 Alpha virt. eigenvalues --    3.33536   3.34009   3.43188   3.45094   3.48090
 Alpha virt. eigenvalues --    3.51140   3.53404   3.53627   3.56977   3.58791
 Alpha virt. eigenvalues --    3.60766   3.68569   3.70602   3.73689   3.75071
 Alpha virt. eigenvalues --    3.76240   3.76984
          Condensed to atoms (all electrons):
 Mulliken charges:
               1
     1  Mg   0.952202
     2  C   -0.078254
     3  C   -0.086935
     4  C   -0.049812
     5  C   -0.086870
     6  N   -0.370794
     7  C   -0.029164
     8  C    0.014506
     9  C   -0.122993
    10  C    0.087199
    11  C    0.011369
    12  C    0.022341
    13  C   -0.009557
    14  C    0.211569
    15  O   -0.254249
    16  O   -0.362253
    17  N   -0.437165
    18  C    0.126592
    19  C   -0.122121
    20  C   -0.066914
    21  C    0.164246
    22  C    0.071424
    23  C   -0.016493
    24  O   -0.206806
    25  C   -0.013121
    26  N   -0.352901
    27  C    0.025390
    28  C   -0.131885
    29  C   -0.063334
    30  C    0.069981
    31  C    0.042446
    32  C   -0.024633
    33  C   -0.047460
    34  N   -0.491673
    35  C    0.110926
    36  C   -0.165281
    37  C   -0.095557
    38  C    0.226274
    39  C    0.062900
    40  C    0.163573
    41  O   -0.169361
    42  C   -0.083614
    43  C    0.266496
    44  O   -0.204839
    45  O   -0.364668
    46  C    0.122708
    47  C    0.292743
    48  C   -0.182130
    49  C   -0.222636
    50  C    0.036451
    51  C    0.082568
    52  C   -0.060549
    53  C    0.010698
    54  C   -0.170852
    55  C   -0.003199
    56  C    0.020652
    57  C   -0.075415
    58  C    0.032525
    59  C   -0.221619
    60  C    0.010779
    61  C   -0.014486
    62  C    0.025403
    63  C   -0.003692
    64  C   -0.226316
    65  C   -0.011868
    66  C    0.012327
    67  H   -0.003351
    68  H   -0.038184
    69  H    0.001985
    70  H    0.031440
    71  H    0.048653
    72  H    0.049051
    73  H    0.041132
    74  H    0.030385
    75  H    0.039160
    76  H    0.036544
    77  H    0.073992
    78  H    0.080240
    79  H    0.052855
    80  H    0.062837
    81  H    0.037859
    82  H    0.059396
    83  H    0.070248
    84  H    0.038079
    85  H    0.039550
    86  H    0.035113
    87  H    0.041921
    88  H    0.039944
    89  H    0.046695
    90  H    0.048201
    91  H    0.030294
    92  H    0.043449
    93  H    0.028547
    94  H    0.043446
    95  H    0.060114
    96  H    0.053139
    97  H    0.045488
    98  H    0.063019
    99  H    0.069324
   100  H    0.050438
   101  H    0.042562
   102  H    0.036665
   103  H    0.040960
   104  H    0.023177
   105  H    0.025574
   106  H    0.052905
   107  H    0.036869
   108  H    0.034464
   109  H    0.010975
   110  H    0.018354
   111  H    0.018754
   112  H    0.019191
   113  H    0.017455
   114  H    0.024800
   115  H    0.038014
   116  H    0.022197
   117  H    0.022722
   118  H    0.015513
   119  H    0.022352
   120  H    0.024123
   121  H    0.020777
   122  H    0.003792
   123  H    0.020159
   124  H    0.015760
   125  H    0.029538
   126  H    0.019475
   127  H    0.038037
   128  H    0.019222
   129  H   -0.002674
   130  H    0.029255
   131  H    0.030847
   132  H    0.014711
   133  H    0.010518
   134  H    0.018251
   135  H    0.023107
   136  H    0.009857
   137  H    0.040453
   138  H    0.023810
   139  H    0.039561
   140  H    0.022098
 Sum of Mulliken charges =  -0.00000
 Mulliken charges with hydrogens summed into heavy atoms:
               1
     1  Mg   0.952202
     2  C   -0.078254
     3  C   -0.090286
     4  C   -0.087996
     5  C   -0.084885
     6  N   -0.370794
     7  C   -0.029164
     8  C    0.045946
     9  C   -0.074341
    10  C    0.087199
    11  C    0.131938
    12  C    0.098045
    13  C    0.144675
    14  C    0.211569
    15  O   -0.254249
    16  O   -0.362253
    17  N   -0.437165
    18  C    0.126592
    19  C   -0.122121
    20  C   -0.066914
    21  C    0.164246
    22  C    0.224975
    23  C   -0.016493
    24  O   -0.206806
    25  C    0.154602
    26  N   -0.352901
    27  C    0.025390
    28  C   -0.092335
    29  C   -0.028222
    30  C    0.069981
    31  C    0.171007
    32  C    0.053861
    33  C    0.067981
    34  N   -0.491673
    35  C    0.110926
    36  C   -0.165281
    37  C   -0.095557
    38  C    0.226274
    39  C    0.221642
    40  C    0.163573
    41  O   -0.169361
    42  C   -0.020594
    43  C    0.266496
    44  O   -0.204839
    45  O   -0.364668
    46  C    0.285031
    47  C    0.370368
    48  C   -0.158953
    49  C   -0.222636
    50  C    0.151799
    51  C    0.128007
    52  C   -0.023441
    53  C    0.047344
    54  C   -0.146052
    55  C    0.079734
    56  C    0.058517
    57  C   -0.030515
    58  C    0.056476
    59  C   -0.205859
    60  C    0.097828
    61  C    0.002062
    62  C    0.085505
    63  C    0.021537
    64  C   -0.208065
    65  C    0.061549
    66  C    0.097796
 Electronic spatial extent (au):  <R**2>=         125124.3800
 Charge=             -0.0000 electrons
 Dipole moment (field-independent basis, Debye):
    X=              2.5876    Y=              3.9378    Z=              0.4119  Tot=              4.7299
 Quadrupole moment (field-independent basis, Debye-Ang):
   XX=           -361.9110   YY=           -430.6222   ZZ=           -406.9236
   XY=             11.7766   XZ=             -2.9542   YZ=             38.8013
 Traceless Quadrupole moment (field-independent basis, Debye-Ang):
   XX=             37.9079   YY=            -30.8033   ZZ=             -7.1047
   XY=             11.7766   XZ=             -2.9542   YZ=             38.8013
 Octapole moment (field-independent basis, Debye-Ang**2):
  XXX=            376.3165  YYY=            179.0514  ZZZ=             46.5485  XYY=              6.9700
  XXY=             13.0453  XXZ=           -104.8202  XZZ=             47.1602  YZZ=            -18.0560
  YYZ=             64.0738  XYZ=            233.3378
 Hexadecapole moment (field-independent basis, Debye-Ang**3):
 XXXX=        -132432.6869 YYYY=         -23693.9830 ZZZZ=         -14790.3422 XXXY=           -390.0155
 XXXZ=            206.5187 YYYX=            806.7174 YYYZ=            990.9718 ZZZX=            276.7576
 ZZZY=            708.3096 XXYY=         -26255.7520 XXZZ=         -24756.2013 YYZZ=          -7133.2167
 XXYZ=            969.9021 YYXZ=            -68.1823 ZZXY=            -97.4192
 N-N= 9.489965640613D+03 E-N=-2.597187173969D+04  KE= 2.975760647329D+03
 Leave Link  601 at Thu Apr 28 02:20:31 2022, MaxMem= 10066329600 cpu:              12.4 elap:               0.6
 (Enter /sw/apps/gaussian-16.0/g16/l9999.exe)
 1\1\GINC-BP1-COMPUTE137\SP\RwB97XD TD-FC\def2SVP\C55H74Mg1N4O6\OF15641
 \28-Apr-2022\0\\#p wB97XD/Def2SVP td=(nstates=5)\\step_1401_chromophor
 e_14 TDDFT with wB97XD functional\\0,1\Mg,0,46.164,44.93,43.815\C,0,42
 .736,44.708,43.175\C,0,46.454,41.543,43.142\C,0,49.517,45.292,43.521\C
 ,0,45.897,48.489,43.747\N,0,44.763,43.389,43.087\C,0,43.373,43.468,42.
 945\C,0,42.796,42.114,42.757\C,0,43.976,41.154,43.042\C,0,45.136,42.07
 3,43.194\C,0,43.716,40.312,44.335\C,0,41.955,41.888,41.376\C,0,42.319,
 42.615,40.069\C,0,42.488,41.802,38.847\O,0,42.105,40.659,38.623\O,0,43
 .157,42.577,37.895\N,0,47.789,43.552,43.402\C,0,47.691,42.199,43.103\C
 ,0,48.947,41.593,42.962\C,0,49.88,42.628,43.152\C,0,49.113,43.888,43.3
 88\C,0,49.184,40.126,42.657\C,0,51.332,42.486,42.984\O,0,51.84,41.462,
 42.63\C,0,52.186,43.738,43.167\N,0,47.552,46.601,43.931\C,0,48.859,46.
 452,43.741\C,0,49.668,47.769,43.703\C,0,48.513,48.825,43.802\C,0,47.23
 1,47.946,43.733\C,0,50.835,47.811,44.723\C,0,48.432,50.007,42.73\C,0,4
 8.347,51.428,43.295\N,0,44.673,46.298,43.756\C,0,44.703,47.759,43.727\
 C,0,43.284,48.209,43.85\C,0,42.582,47.031,43.635\C,0,43.434,45.924,43.
 55\C,0,42.843,49.652,43.856\C,0,41.163,46.596,43.433\O,0,40.19,47.28,4
 3.302\C,0,41.225,45.038,43.18\C,0,40.425,44.265,44.239\O,0,39.45,43.58
 7,44.063\O,0,41.213,44.337,45.36\C,0,40.959,43.278,46.348\C,0,43.524,4
 1.859,36.782\C,0,44.36,42.747,35.96\C,0,45.162,42.352,34.917\C,0,45.38
 ,40.909,34.516\C,0,45.92,43.361,34.139\C,0,45.804,43.234,32.634\C,0,45
 .118,44.45,31.987\C,0,45.415,44.473,30.42\C,0,45.857,45.91,30.052\C,0,
 44.147,44.049,29.54\C,0,44.272,42.615,28.972\C,0,43.645,42.29,27.6\C,0
 ,44.109,43.172,26.395\C,0,43.047,44.194,25.819\C,0,44.721,42.366,25.16
 4\C,0,46.057,42.906,24.589\C,0,46.106,42.535,23.126\C,0,46.477,43.716,
 22.199\C,0,45.679,43.612,20.839\C,0,48.005,43.844,22.052\H,0,46.55,40.
 467,42.985\H,0,50.565,45.52,43.313\H,0,45.783,49.574,43.781\H,0,42.134
 ,42.164,43.622\H,0,44.238,40.492,42.217\H,0,44.139,39.317,44.47\H,0,42
 .633,40.288,44.456\H,0,44.145,40.853,45.179\H,0,40.879,41.912,41.544\H
 ,0,41.914,40.811,41.214\H,0,43.302,43.083,40.111\H,0,41.597,43.406,39.
 865\H,0,50.194,39.725,42.573\H,0,48.51,39.582,41.996\H,0,49.136,39.786
 ,43.692\H,0,52.069,44.176,44.158\H,0,52.026,44.375,42.297\H,0,53.209,4
 3.373,43.078\H,0,50.186,47.827,42.746\H,0,48.561,49.273,44.794\H,0,50.
 616,48.698,45.318\H,0,51.721,47.79,44.088\H,0,50.862,46.877,45.286\H,0
 ,47.583,49.796,42.08\H,0,49.405,49.896,42.251\H,0,49.187,52.007,42.909
 \H,0,48.418,51.374,44.381\H,0,47.398,51.898,43.035\H,0,41.775,49.698,4
 3.646\H,0,43.39,50.317,43.187\H,0,42.994,49.991,44.881\H,0,40.795,44.7
 64,42.217\H,0,40.097,42.637,46.161\H,0,40.81,43.675,47.352\H,0,41.808,
 42.619,46.53\H,0,42.557,41.778,36.285\H,0,44.059,40.913,36.859\H,0,44.
 31,43.807,36.209\H,0,46.357,40.699,34.08\H,0,44.759,40.607,33.672\H,0,
 45.287,40.287,35.406\H,0,46.98,43.285,34.379\H,0,45.525,44.31,34.502\H
 ,0,45.228,42.338,32.402\H,0,46.805,43.123,32.216\H,0,45.373,45.396,32.
 463\H,0,44.071,44.28,32.242\H,0,46.206,43.779,30.136\H,0,46.451,45.868
 ,29.139\H,0,46.304,46.41,30.912\H,0,45.019,46.592,29.91\H,0,44.089,44.
 71,28.675\H,0,43.231,44.095,30.13\H,0,43.736,42.005,29.699\H,0,45.313,
 42.311,28.864\H,0,42.586,42.445,27.809\H,0,43.731,41.227,27.373\H,0,44
 .999,43.659,26.793\H,0,43.322,45.237,25.976\H,0,42.179,44.029,26.456\H
 ,0,42.792,44.118,24.762\H,0,43.894,42.198,24.474\H,0,44.825,41.391,25.
 639\H,0,46.937,42.443,25.035\H,0,46.047,43.963,24.854\H,0,45.167,42.11
 9,22.76\H,0,46.806,41.748,22.847\H,0,46.111,44.603,22.716\H,0,45.397,4
 2.604,20.537\H,0,46.299,43.823,19.968\H,0,44.826,44.289,20.8\H,0,48.53
 6,43.228,22.777\H,0,48.371,44.868,22.132\H,0,48.191,43.392,21.078\\Ver
 sion=ES64L-G16RevA.03\State=1-A\HF=-3007.8287413\RMSD=9.558e-09\PG=C01
  [X(C55H74Mg1N4O6)]\\@


 WOE UNTO THEM THAT CALL EVIL GOOD, AND GOOD EVIL      
 Job cpu time:       0 days 16 hours 46 minutes 36.1 seconds.
 Elapsed time:       0 days  0 hours 42 minutes 29.5 seconds.
 File lengths (MBytes):  RWF=   8929 Int=      0 D2E=      0 Chk=    390 Scr=      1
 Normal termination of Gaussian 16 at Thu Apr 28 02:20:31 2022.
