 Entering Gaussian System, Link 0=g16
 Initial command:
 /sw/apps/gaussian-16.0/g16/l1.exe "/tmp/Gau-5004.inp" -scrdir="/tmp/"
 Entering Link 1 = /sw/apps/gaussian-16.0/g16/l1.exe PID=      5005.
  
 Copyright (c) 1988,1990,1992,1993,1995,1998,2003,2009,2016,
            Gaussian, Inc.  All Rights Reserved.
  
 This is part of the Gaussian(R) 16 program.  It is based on
 the Gaussian(R) 09 system (copyright 2009, Gaussian, Inc.),
 the Gaussian(R) 03 system (copyright 2003, Gaussian, Inc.),
 the Gaussian(R) 98 system (copyright 1998, Gaussian, Inc.),
 the Gaussian(R) 94 system (copyright 1995, Gaussian, Inc.),
 the Gaussian 92(TM) system (copyright 1992, Gaussian, Inc.),
 the Gaussian 90(TM) system (copyright 1990, Gaussian, Inc.),
 the Gaussian 88(TM) system (copyright 1988, Gaussian, Inc.),
 the Gaussian 86(TM) system (copyright 1986, Carnegie Mellon
 University), and the Gaussian 82(TM) system (copyright 1983,
 Carnegie Mellon University). Gaussian is a federally registered
 trademark of Gaussian, Inc.
  
 This software contains proprietary and confidential information,
 including trade secrets, belonging to Gaussian, Inc.
  
 This software is provided under written license and may be
 used, copied, transmitted, or stored only in accord with that
 written license.
  
 The following legend is applicable only to US Government
 contracts under FAR:
  
                    RESTRICTED RIGHTS LEGEND
  
 Use, reproduction and disclosure by the US Government is
 subject to restrictions as set forth in subparagraphs (a)
 and (c) of the Commercial Computer Software - Restricted
 Rights clause in FAR 52.227-19.
  
 Gaussian, Inc.
 340 Quinnipiac St., Bldg. 40, Wallingford CT 06492
  
  
 ---------------------------------------------------------------
 Warning -- This program may not be used in any manner that
 competes with the business of Gaussian, Inc. or will provide
 assistance to any competitor of Gaussian, Inc.  The licensee
 of this program is prohibited from giving any competitor of
 Gaussian, Inc. access to this program.  By using this program,
 the user acknowledges that Gaussian, Inc. is engaged in the
 business of creating and licensing software in the field of
 computational chemistry and represents and warrants to the
 licensee that it is not a competitor of Gaussian, Inc. and that
 it will not use this program in any manner prohibited above.
 ---------------------------------------------------------------
  

 Cite this work as:
 Gaussian 16, Revision A.03,
 M. J. Frisch, G. W. Trucks, H. B. Schlegel, G. E. Scuseria, 
 M. A. Robb, J. R. Cheeseman, G. Scalmani, V. Barone, 
 G. A. Petersson, H. Nakatsuji, X. Li, M. Caricato, A. V. Marenich, 
 J. Bloino, B. G. Janesko, R. Gomperts, B. Mennucci, H. P. Hratchian, 
 J. V. Ortiz, A. F. Izmaylov, J. L. Sonnenberg, D. Williams-Young, 
 F. Ding, F. Lipparini, F. Egidi, J. Goings, B. Peng, A. Petrone, 
 T. Henderson, D. Ranasinghe, V. G. Zakrzewski, J. Gao, N. Rega, 
 G. Zheng, W. Liang, M. Hada, M. Ehara, K. Toyota, R. Fukuda, 
 J. Hasegawa, M. Ishida, T. Nakajima, Y. Honda, O. Kitao, H. Nakai, 
 T. Vreven, K. Throssell, J. A. Montgomery, Jr., J. E. Peralta, 
 F. Ogliaro, M. J. Bearpark, J. J. Heyd, E. N. Brothers, K. N. Kudin, 
 V. N. Staroverov, T. A. Keith, R. Kobayashi, J. Normand, 
 K. Raghavachari, A. P. Rendell, J. C. Burant, S. S. Iyengar, 
 J. Tomasi, M. Cossi, J. M. Millam, M. Klene, C. Adamo, R. Cammi, 
 J. W. Ochterski, R. L. Martin, K. Morokuma, O. Farkas, 
 J. B. Foresman, and D. J. Fox, Gaussian, Inc., Wallingford CT, 2016.
 
 ******************************************
 Gaussian 16:  ES64L-G16RevA.03 25-Dec-2016
                 5-May-2022 
 ******************************************
 %nproc=24
 Will use up to   24 processors via shared memory.
 %mem=75GB
 --------------------------------
 #p wB97XD/Def2SVP td=(nstates=5)
 --------------------------------
 1/38=1,172=1/1;
 2/12=2,17=6,18=5,40=1/2;
 3/5=43,7=101,11=9,25=1,30=1,74=-58/1,2,3,8;
 4//1;
 5/5=2,38=5/2;
 8/6=1,10=1,108=5/1;
 9/41=5,42=1,70=2/14;
 6/7=2,8=2,9=2,10=2/1;
 99/5=1,9=1/99;
 Leave Link    1 at Thu May  5 09:41:04 2022, MaxMem= 10066329600 cpu:               1.3 elap:               0.1
 (Enter /sw/apps/gaussian-16.0/g16/l101.exe)
 ----------------------------------------------------
 step_801_chromophore_20 TDDFT with wB97XD functional
 ----------------------------------------------------
 Symbolic Z-matrix:
 Charge =  0 Multiplicity = 1
 Mg                    5.941     55.928    41.64 
 C                     5.913     52.332    41.615 
 C                     9.085     55.821    40.406 
 C                     5.903     59.247    41.704 
 C                     2.782     55.857    43.09 
 N                     7.21      54.254    40.927 
 C                     7.032     52.868    40.846 
 C                     8.139     52.106    40.12 
 C                     9.24      53.198    40.144 
 C                     8.49      54.528    40.522 
 C                     10.403    52.88     41.116 
 C                     7.55      51.685    38.705 
 C                     8.03      50.397    38.001 
 C                     7.157     49.906    36.876 
 O                     6.509     48.866    36.919 
 O                     7.12      50.787    35.809 
 N                     7.273     57.354    40.997 
 C                     8.558     57.071    40.644 
 C                     9.29      58.362    40.548 
 C                     8.318     59.403    40.613 
 C                     7.071     58.67     41.194 
 C                     10.773    58.528    40.35 
 C                     8.458     60.917    40.328 
 O                     9.561     61.333    39.952 
 C                     7.323     61.934    40.378 
 N                     4.409     57.366    41.949 
 C                     4.69      58.666    42.033 
 C                     3.39      59.473    42.336 
 C                     2.458     58.31     42.912 
 C                     3.264     57.078    42.661 
 C                     3.646     60.653    43.287 
 C                     1.023     58.219    42.219 
 C                    -0.151     58.137    43.182 
 N                     4.451     54.447    42.081 
 C                     3.31      54.565    42.844 
 C                     2.884     53.289    43.244 
 C                     3.831     52.355    42.762 
 C                     4.827     53.093    42.076 
 C                     1.665     52.969    44.089 
 C                     4.246     50.921    42.723 
 O                     3.688     49.964    43.272 
 C                     5.614     50.907    42.009 
 C                     5.467     49.875    40.97 
 O                     4.647     49.911    40.067 
 O                     6.354     48.866    41.201 
 C                     6.189     47.779    40.228 
 C                     6.341     50.24     34.694 
 C                     6.897     51.068    33.518 
 C                     6.669     50.832    32.241 
 C                     5.561     49.988    31.679 
 C                     7.274     51.777    31.166 
 C                     6.46      53.097    31.226 
 C                     6.451     53.709    29.804 
 C                     6.933     55.162    29.934 
 C                     5.986     56.183    29.221 
 C                     8.329     55.34     29.357 
 C                     9.133     56.362    30.219 
 C                     10.414    55.807    30.884 
 C                     11.614    55.954    30.026 
 C                     12.635    54.839    30.124 
 C                     12.242    57.354    30.288 
 C                     12.776    58.19     29.125 
 C                     14.198    58.532    29.218 
 C                     15.112    57.327    28.858 
 C                     16.345    57.121    29.814 
 C                     15.758    57.494    27.404 
 H                     10.147    55.815    40.149 
 H                     6.045     60.327    41.783 
 H                     1.808     55.895    43.582 
 H                     8.473     51.306    40.781 
 H                     9.697     53.267    39.158 
 H                     10.438    51.803    41.278 
 H                     10.238    53.501    41.996 
 H                     11.353    53.207    40.691 
 H                     7.77      52.553    38.083 
 H                     6.466     51.601    38.629 
 H                     8.22      49.652    38.773 
 H                     8.978     50.633    37.518 
 H                     11.153    59.303    41.015 
 H                     10.944    59.026    39.395 
 H                     11.421    57.682    40.578 
 H                     7.256     62.266    41.414 
 H                     6.355     61.484    40.157 
 H                     7.502     62.765    39.695 
 H                     2.989     59.919    41.426 
 H                     2.482     58.499    43.985 
 H                     2.747     60.805    43.884 
 H                     3.836     61.518    42.651 
 H                     4.533     60.584    43.915 
 H                     1.073     57.361    41.548 
 H                     0.798     59.1      41.618 
 H                    -0.831     58.984    43.087 
 H                     0.157     58.091    44.227 
 H                    -0.658     57.202    42.945 
 H                     0.887     52.604    43.419 
 H                     1.108     53.759    44.594 
 H                     1.89      52.114    44.727 
 H                     6.284     50.461    42.744 
 H                     6.944     47.986    39.47 
 H                     5.254     47.746    39.67 
 H                     6.407     46.763    40.556 
 H                     5.294     50.4      34.952 
 H                     6.409     49.165    34.527 
 H                     7.516     51.924    33.788 
 H                     6.05      49.349    30.944 
 H                     4.927     50.624    31.061 
 H                     4.917     49.424    32.354 
 H                     7.455     51.221    30.247 
 H                     8.271     51.931    31.579 
 H                     6.869     53.629    32.086 
 H                     5.436     52.92     31.554 
 H                     5.414     53.74     29.469 
 H                     7.043     53.089    29.131 
 H                     7.017     55.428    30.987 
 H                     5.457     56.681    30.034 
 H                     5.108     55.78     28.716 
 H                     6.409     56.943    28.565 
 H                     8.468     55.731    28.349 
 H                     8.903     54.427    29.197 
 H                     8.481     56.921    30.89 
 H                     9.477     57.152    29.551 
 H                     10.232    54.741    31.022 
 H                     10.676    56.164    31.88 
 H                     11.324    56.       28.977 
 H                     12.886    54.443    29.14 
 H                     12.27     54.04     30.769 
 H                     13.555    55.253    30.536 
 H                     12.809    57.262    31.214 
 H                     11.44     58.011    30.624 
 H                     12.17     59.03     28.785 
 H                     12.649    57.572    28.236 
 H                     14.413    58.804    30.252 
 H                     14.351    59.349    28.514 
 H                     14.502    56.424    28.824 
 H                     17.189    56.832    29.187 
 H                     16.047    56.235    30.374 
 H                     16.566    57.96     30.474 
 H                     15.701    56.576    26.819 
 H                     16.794    57.831    27.426 
 H                     15.126    58.211    26.878 
 
 ITRead=  0  0  0  0  0  0  0  0  0  0  0  0  0  0  0  0  0  0  0  0
 ITRead=  0  0  0  0  0  0  0  0  0  0  0  0  0  0  0  0  0  0  0  0
 ITRead=  0  0  0  0  0  0  0  0  0  0  0  0  0  0  0  0  0  0  0  0
 ITRead=  0  0  0  0  0  0  0  0  0  0  0  0  0  0  0  0  0  0  0  0
 ITRead=  0  0  0  0  0  0  0  0  0  0  0  0  0  0  0  0  0  0  0  0
 ITRead=  0  0  0  0  0  0  0  0  0  0  0  0  0  0  0  0  0  0  0  0
 ITRead=  0  0  0  0  0  0  0  0  0  0  0  0  0  0  0  0  0  0  0  0
 MicOpt= -1 -1 -1 -1 -1 -1 -1 -1 -1 -1 -1 -1 -1 -1 -1 -1 -1 -1 -1 -1
 MicOpt= -1 -1 -1 -1 -1 -1 -1 -1 -1 -1 -1 -1 -1 -1 -1 -1 -1 -1 -1 -1
 MicOpt= -1 -1 -1 -1 -1 -1 -1 -1 -1 -1 -1 -1 -1 -1 -1 -1 -1 -1 -1 -1
 MicOpt= -1 -1 -1 -1 -1 -1 -1 -1 -1 -1 -1 -1 -1 -1 -1 -1 -1 -1 -1 -1
 MicOpt= -1 -1 -1 -1 -1 -1 -1 -1 -1 -1 -1 -1 -1 -1 -1 -1 -1 -1 -1 -1
 MicOpt= -1 -1 -1 -1 -1 -1 -1 -1 -1 -1 -1 -1 -1 -1 -1 -1 -1 -1 -1 -1
 MicOpt= -1 -1 -1 -1 -1 -1 -1 -1 -1 -1 -1 -1 -1 -1 -1 -1 -1 -1 -1 -1
 NAtoms=    140 NQM=      140 NQMF=       0 NMMI=      0 NMMIF=      0
                NMic=       0 NMicF=      0.
                    Isotopes and Nuclear Properties:
 (Nuclear quadrupole moments (NQMom) in fm**2, nuclear magnetic moments (NMagM)
  in nuclear magnetons)

  Atom         1           2           3           4           5           6           7           8           9          10
 IAtWgt=          24          12          12          12          12          14          12          12          12          12
 AtmWgt=  23.9850450  12.0000000  12.0000000  12.0000000  12.0000000  14.0030740  12.0000000  12.0000000  12.0000000  12.0000000
 NucSpn=           0           0           0           0           0           2           0           0           0           0
 AtZEff=  -0.0000000  -0.0000000  -0.0000000  -0.0000000  -0.0000000  -0.0000000  -0.0000000  -0.0000000  -0.0000000  -0.0000000
 NQMom=    0.0000000   0.0000000   0.0000000   0.0000000   0.0000000   2.0440000   0.0000000   0.0000000   0.0000000   0.0000000
 NMagM=    0.0000000   0.0000000   0.0000000   0.0000000   0.0000000   0.4037610   0.0000000   0.0000000   0.0000000   0.0000000
 AtZNuc=  12.0000000   6.0000000   6.0000000   6.0000000   6.0000000   7.0000000   6.0000000   6.0000000   6.0000000   6.0000000

  Atom        11          12          13          14          15          16          17          18          19          20
 IAtWgt=          12          12          12          12          16          16          14          12          12          12
 AtmWgt=  12.0000000  12.0000000  12.0000000  12.0000000  15.9949146  15.9949146  14.0030740  12.0000000  12.0000000  12.0000000
 NucSpn=           0           0           0           0           0           0           2           0           0           0
 AtZEff=  -0.0000000  -0.0000000  -0.0000000  -0.0000000  -0.0000000  -0.0000000  -0.0000000  -0.0000000  -0.0000000  -0.0000000
 NQMom=    0.0000000   0.0000000   0.0000000   0.0000000   0.0000000   0.0000000   2.0440000   0.0000000   0.0000000   0.0000000
 NMagM=    0.0000000   0.0000000   0.0000000   0.0000000   0.0000000   0.0000000   0.4037610   0.0000000   0.0000000   0.0000000
 AtZNuc=   6.0000000   6.0000000   6.0000000   6.0000000   8.0000000   8.0000000   7.0000000   6.0000000   6.0000000   6.0000000

  Atom        21          22          23          24          25          26          27          28          29          30
 IAtWgt=          12          12          12          16          12          14          12          12          12          12
 AtmWgt=  12.0000000  12.0000000  12.0000000  15.9949146  12.0000000  14.0030740  12.0000000  12.0000000  12.0000000  12.0000000
 NucSpn=           0           0           0           0           0           2           0           0           0           0
 AtZEff=  -0.0000000  -0.0000000  -0.0000000  -0.0000000  -0.0000000  -0.0000000  -0.0000000  -0.0000000  -0.0000000  -0.0000000
 NQMom=    0.0000000   0.0000000   0.0000000   0.0000000   0.0000000   2.0440000   0.0000000   0.0000000   0.0000000   0.0000000
 NMagM=    0.0000000   0.0000000   0.0000000   0.0000000   0.0000000   0.4037610   0.0000000   0.0000000   0.0000000   0.0000000
 AtZNuc=   6.0000000   6.0000000   6.0000000   8.0000000   6.0000000   7.0000000   6.0000000   6.0000000   6.0000000   6.0000000

  Atom        31          32          33          34          35          36          37          38          39          40
 IAtWgt=          12          12          12          14          12          12          12          12          12          12
 AtmWgt=  12.0000000  12.0000000  12.0000000  14.0030740  12.0000000  12.0000000  12.0000000  12.0000000  12.0000000  12.0000000
 NucSpn=           0           0           0           2           0           0           0           0           0           0
 AtZEff=  -0.0000000  -0.0000000  -0.0000000  -0.0000000  -0.0000000  -0.0000000  -0.0000000  -0.0000000  -0.0000000  -0.0000000
 NQMom=    0.0000000   0.0000000   0.0000000   2.0440000   0.0000000   0.0000000   0.0000000   0.0000000   0.0000000   0.0000000
 NMagM=    0.0000000   0.0000000   0.0000000   0.4037610   0.0000000   0.0000000   0.0000000   0.0000000   0.0000000   0.0000000
 AtZNuc=   6.0000000   6.0000000   6.0000000   7.0000000   6.0000000   6.0000000   6.0000000   6.0000000   6.0000000   6.0000000

  Atom        41          42          43          44          45          46          47          48          49          50
 IAtWgt=          16          12          12          16          16          12          12          12          12          12
 AtmWgt=  15.9949146  12.0000000  12.0000000  15.9949146  15.9949146  12.0000000  12.0000000  12.0000000  12.0000000  12.0000000
 NucSpn=           0           0           0           0           0           0           0           0           0           0
 AtZEff=  -0.0000000  -0.0000000  -0.0000000  -0.0000000  -0.0000000  -0.0000000  -0.0000000  -0.0000000  -0.0000000  -0.0000000
 NQMom=    0.0000000   0.0000000   0.0000000   0.0000000   0.0000000   0.0000000   0.0000000   0.0000000   0.0000000   0.0000000
 NMagM=    0.0000000   0.0000000   0.0000000   0.0000000   0.0000000   0.0000000   0.0000000   0.0000000   0.0000000   0.0000000
 AtZNuc=   8.0000000   6.0000000   6.0000000   8.0000000   8.0000000   6.0000000   6.0000000   6.0000000   6.0000000   6.0000000

  Atom        51          52          53          54          55          56          57          58          59          60
 IAtWgt=          12          12          12          12          12          12          12          12          12          12
 AtmWgt=  12.0000000  12.0000000  12.0000000  12.0000000  12.0000000  12.0000000  12.0000000  12.0000000  12.0000000  12.0000000
 NucSpn=           0           0           0           0           0           0           0           0           0           0
 AtZEff=  -0.0000000  -0.0000000  -0.0000000  -0.0000000  -0.0000000  -0.0000000  -0.0000000  -0.0000000  -0.0000000  -0.0000000
 NQMom=    0.0000000   0.0000000   0.0000000   0.0000000   0.0000000   0.0000000   0.0000000   0.0000000   0.0000000   0.0000000
 NMagM=    0.0000000   0.0000000   0.0000000   0.0000000   0.0000000   0.0000000   0.0000000   0.0000000   0.0000000   0.0000000
 AtZNuc=   6.0000000   6.0000000   6.0000000   6.0000000   6.0000000   6.0000000   6.0000000   6.0000000   6.0000000   6.0000000

  Atom        61          62          63          64          65          66          67          68          69          70
 IAtWgt=          12          12          12          12          12          12           1           1           1           1
 AtmWgt=  12.0000000  12.0000000  12.0000000  12.0000000  12.0000000  12.0000000   1.0078250   1.0078250   1.0078250   1.0078250
 NucSpn=           0           0           0           0           0           0           1           1           1           1
 AtZEff=  -0.0000000  -0.0000000  -0.0000000  -0.0000000  -0.0000000  -0.0000000  -0.0000000  -0.0000000  -0.0000000  -0.0000000
 NQMom=    0.0000000   0.0000000   0.0000000   0.0000000   0.0000000   0.0000000   0.0000000   0.0000000   0.0000000   0.0000000
 NMagM=    0.0000000   0.0000000   0.0000000   0.0000000   0.0000000   0.0000000   2.7928460   2.7928460   2.7928460   2.7928460
 AtZNuc=   6.0000000   6.0000000   6.0000000   6.0000000   6.0000000   6.0000000   1.0000000   1.0000000   1.0000000   1.0000000

  Atom        71          72          73          74          75          76          77          78          79          80
 IAtWgt=           1           1           1           1           1           1           1           1           1           1
 AtmWgt=   1.0078250   1.0078250   1.0078250   1.0078250   1.0078250   1.0078250   1.0078250   1.0078250   1.0078250   1.0078250
 NucSpn=           1           1           1           1           1           1           1           1           1           1
 AtZEff=  -0.0000000  -0.0000000  -0.0000000  -0.0000000  -0.0000000  -0.0000000  -0.0000000  -0.0000000  -0.0000000  -0.0000000
 NQMom=    0.0000000   0.0000000   0.0000000   0.0000000   0.0000000   0.0000000   0.0000000   0.0000000   0.0000000   0.0000000
 NMagM=    2.7928460   2.7928460   2.7928460   2.7928460   2.7928460   2.7928460   2.7928460   2.7928460   2.7928460   2.7928460
 AtZNuc=   1.0000000   1.0000000   1.0000000   1.0000000   1.0000000   1.0000000   1.0000000   1.0000000   1.0000000   1.0000000

  Atom        81          82          83          84          85          86          87          88          89          90
 IAtWgt=           1           1           1           1           1           1           1           1           1           1
 AtmWgt=   1.0078250   1.0078250   1.0078250   1.0078250   1.0078250   1.0078250   1.0078250   1.0078250   1.0078250   1.0078250
 NucSpn=           1           1           1           1           1           1           1           1           1           1
 AtZEff=  -0.0000000  -0.0000000  -0.0000000  -0.0000000  -0.0000000  -0.0000000  -0.0000000  -0.0000000  -0.0000000  -0.0000000
 NQMom=    0.0000000   0.0000000   0.0000000   0.0000000   0.0000000   0.0000000   0.0000000   0.0000000   0.0000000   0.0000000
 NMagM=    2.7928460   2.7928460   2.7928460   2.7928460   2.7928460   2.7928460   2.7928460   2.7928460   2.7928460   2.7928460
 AtZNuc=   1.0000000   1.0000000   1.0000000   1.0000000   1.0000000   1.0000000   1.0000000   1.0000000   1.0000000   1.0000000

  Atom        91          92          93          94          95          96          97          98          99         100
 IAtWgt=           1           1           1           1           1           1           1           1           1           1
 AtmWgt=   1.0078250   1.0078250   1.0078250   1.0078250   1.0078250   1.0078250   1.0078250   1.0078250   1.0078250   1.0078250
 NucSpn=           1           1           1           1           1           1           1           1           1           1
 AtZEff=  -0.0000000  -0.0000000  -0.0000000  -0.0000000  -0.0000000  -0.0000000  -0.0000000  -0.0000000  -0.0000000  -0.0000000
 NQMom=    0.0000000   0.0000000   0.0000000   0.0000000   0.0000000   0.0000000   0.0000000   0.0000000   0.0000000   0.0000000
 NMagM=    2.7928460   2.7928460   2.7928460   2.7928460   2.7928460   2.7928460   2.7928460   2.7928460   2.7928460   2.7928460
 AtZNuc=   1.0000000   1.0000000   1.0000000   1.0000000   1.0000000   1.0000000   1.0000000   1.0000000   1.0000000   1.0000000

  Atom       101         102         103         104         105         106         107         108         109         110
 IAtWgt=           1           1           1           1           1           1           1           1           1           1
 AtmWgt=   1.0078250   1.0078250   1.0078250   1.0078250   1.0078250   1.0078250   1.0078250   1.0078250   1.0078250   1.0078250
 NucSpn=           1           1           1           1           1           1           1           1           1           1
 AtZEff=  -0.0000000  -0.0000000  -0.0000000  -0.0000000  -0.0000000  -0.0000000  -0.0000000  -0.0000000  -0.0000000  -0.0000000
 NQMom=    0.0000000   0.0000000   0.0000000   0.0000000   0.0000000   0.0000000   0.0000000   0.0000000   0.0000000   0.0000000
 NMagM=    2.7928460   2.7928460   2.7928460   2.7928460   2.7928460   2.7928460   2.7928460   2.7928460   2.7928460   2.7928460
 AtZNuc=   1.0000000   1.0000000   1.0000000   1.0000000   1.0000000   1.0000000   1.0000000   1.0000000   1.0000000   1.0000000

  Atom       111         112         113         114         115         116         117         118         119         120
 IAtWgt=           1           1           1           1           1           1           1           1           1           1
 AtmWgt=   1.0078250   1.0078250   1.0078250   1.0078250   1.0078250   1.0078250   1.0078250   1.0078250   1.0078250   1.0078250
 NucSpn=           1           1           1           1           1           1           1           1           1           1
 AtZEff=  -0.0000000  -0.0000000  -0.0000000  -0.0000000  -0.0000000  -0.0000000  -0.0000000  -0.0000000  -0.0000000  -0.0000000
 NQMom=    0.0000000   0.0000000   0.0000000   0.0000000   0.0000000   0.0000000   0.0000000   0.0000000   0.0000000   0.0000000
 NMagM=    2.7928460   2.7928460   2.7928460   2.7928460   2.7928460   2.7928460   2.7928460   2.7928460   2.7928460   2.7928460
 AtZNuc=   1.0000000   1.0000000   1.0000000   1.0000000   1.0000000   1.0000000   1.0000000   1.0000000   1.0000000   1.0000000

  Atom       121         122         123         124         125         126         127         128         129         130
 IAtWgt=           1           1           1           1           1           1           1           1           1           1
 AtmWgt=   1.0078250   1.0078250   1.0078250   1.0078250   1.0078250   1.0078250   1.0078250   1.0078250   1.0078250   1.0078250
 NucSpn=           1           1           1           1           1           1           1           1           1           1
 AtZEff=  -0.0000000  -0.0000000  -0.0000000  -0.0000000  -0.0000000  -0.0000000  -0.0000000  -0.0000000  -0.0000000  -0.0000000
 NQMom=    0.0000000   0.0000000   0.0000000   0.0000000   0.0000000   0.0000000   0.0000000   0.0000000   0.0000000   0.0000000
 NMagM=    2.7928460   2.7928460   2.7928460   2.7928460   2.7928460   2.7928460   2.7928460   2.7928460   2.7928460   2.7928460
 AtZNuc=   1.0000000   1.0000000   1.0000000   1.0000000   1.0000000   1.0000000   1.0000000   1.0000000   1.0000000   1.0000000

  Atom       131         132         133         134         135         136         137         138         139         140
 IAtWgt=           1           1           1           1           1           1           1           1           1           1
 AtmWgt=   1.0078250   1.0078250   1.0078250   1.0078250   1.0078250   1.0078250   1.0078250   1.0078250   1.0078250   1.0078250
 NucSpn=           1           1           1           1           1           1           1           1           1           1
 AtZEff=  -0.0000000  -0.0000000  -0.0000000  -0.0000000  -0.0000000  -0.0000000  -0.0000000  -0.0000000  -0.0000000  -0.0000000
 NQMom=    0.0000000   0.0000000   0.0000000   0.0000000   0.0000000   0.0000000   0.0000000   0.0000000   0.0000000   0.0000000
 NMagM=    2.7928460   2.7928460   2.7928460   2.7928460   2.7928460   2.7928460   2.7928460   2.7928460   2.7928460   2.7928460
 AtZNuc=   1.0000000   1.0000000   1.0000000   1.0000000   1.0000000   1.0000000   1.0000000   1.0000000   1.0000000   1.0000000
 Leave Link  101 at Thu May  5 09:41:04 2022, MaxMem= 10066329600 cpu:               4.0 elap:               0.2
 (Enter /sw/apps/gaussian-16.0/g16/l202.exe)
 Stoichiometry    C55H74MgN4O6
 Framework group  C1[X(C55H74MgN4O6)]
 Deg. of freedom   414
 Full point group                 C1      NOp   1
 Largest Abelian subgroup         C1      NOp   1
 Largest concise Abelian subgroup C1      NOp   1
                         Standard orientation:                         
 ---------------------------------------------------------------------
 Center     Atomic      Atomic             Coordinates (Angstroms)
 Number     Number       Type             X           Y           Z
 ---------------------------------------------------------------------
      1         12           0        4.059373    1.461753   -0.460534
      2          6           0        4.216148   -2.010941   -1.381641
      3          6           0        1.457320    1.814120   -2.587528
      4          6           0        3.981453    4.660370    0.424948
      5          6           0        6.865309    0.971190    1.532676
      6          7           0        2.896444   -0.002510   -1.654074
      7          6           0        2.976017   -1.388266   -1.834598
      8          6           0        1.838778   -2.010724   -2.642312
      9          6           0        1.273641   -0.722975   -3.296196
     10          6           0        1.907472    0.463123   -2.480284
     11          6           0        1.569940   -0.620244   -4.812814
     12          6           0        0.910518   -2.778545   -1.605408
     13          6           0        0.121829   -4.036031   -2.031624
     14          6           0       -0.411998   -4.882337   -0.905733
     15          8           0       -0.011328   -6.013188   -0.652768
     16          8           0       -1.365143   -4.221453   -0.150243
     17          7           0        2.784636    3.007546   -0.915200
     18          6           0        1.864139    2.946653   -1.917648
     19          6           0        1.364832    4.327987   -2.150735
     20          6           0        1.846962    5.136291   -1.079808
     21          6           0        2.994449    4.265277   -0.484435
     22          6           0        0.462557    4.767291   -3.272769
     23          6           0        1.460754    6.575668   -0.665011
     24          8           0        0.576731    7.145581   -1.316735
     25          6           0        2.010252    7.323957    0.544588
     26          7           0        5.008749    2.575289    1.078645
     27          6           0        4.885596    3.900465    1.147611
     28          6           0        5.745742    4.454336    2.325080
     29          6           0        6.755246    3.234875    2.541382
     30          6           0        6.200440    2.176332    1.645761
     31          6           0        6.396548    5.804648    1.985306
     32          6           0        6.853493    2.727916    4.051712
     33          6           0        8.268799    2.563454    4.582965
     34          7           0        5.237344   -0.204330    0.206168
     35          6           0        6.452951   -0.202920    0.854452
     36          6           0        7.067785   -1.454092    0.692585
     37          6           0        6.229168   -2.234839   -0.137260
     38          6           0        5.112050   -1.429629   -0.470338
     39          6           0        8.412984   -1.877079    1.252860
     40          6           0        6.058899   -3.534668   -0.852491
     41          8           0        6.853333   -4.481433   -0.886035
     42          6           0        4.770758   -3.379808   -1.688031
     43          6           0        3.983338   -4.579435   -1.360894
     44          8           0        3.593186   -4.869742   -0.241694
     45          8           0        3.799319   -5.325024   -2.487147
     46          6           0        3.080757   -6.570296   -2.189678
     47          6           0       -1.933439   -5.100171    0.876485
     48          6           0       -3.267914   -4.383594    1.165258
     49          6           0       -4.260023   -4.873906    1.882004
     50          6           0       -4.172151   -6.014902    2.854757
     51          6           0       -5.535616   -4.017332    2.113990
     52          6           0       -5.147562   -2.907896    3.127480
     53          6           0       -6.411665   -2.559888    3.950670
     54          6           0       -6.599561   -1.037249    3.868829
     55          6           0       -6.807333   -0.373903    5.270407
     56          6           0       -7.790635   -0.668543    2.997722
     57          6           0       -7.476990    0.630232    2.192270
     58          6           0       -7.495060    0.477964    0.653538
     59          6           0       -8.834413    0.728174    0.069328
     60          6           0       -9.194818   -0.113609   -1.137643
     61          6           0       -8.975809    2.252796   -0.210964
     62          6           0      -10.288601    2.974624    0.092617
     63          6           0      -10.915414    3.619520   -1.064496
     64          6           0      -11.619115    2.591406   -1.994445
     65          6           0      -11.375987    2.814053   -3.533269
     66          6           0      -13.209582    2.643689   -1.830124
     67          1           0        0.716418    1.989075   -3.371354
     68          1           0        3.931696    5.743550    0.555528
     69          1           0        7.766895    0.885170    2.142536
     70          1           0        2.289470   -2.599318   -3.441631
     71          1           0        0.187913   -0.726133   -3.212577
     72          1           0        1.743617   -1.622630   -5.203269
     73          1           0        2.389403    0.091058   -4.911789
     74          1           0        0.721739   -0.176548   -5.336020
     75          1           0        0.221032   -2.001059   -1.275512
     76          1           0        1.375782   -3.100861   -0.673995
     77          1           0        0.736925   -4.583352   -2.745211
     78          1           0       -0.771817   -3.690145   -2.550709
     79          1           0        0.822098    5.705636   -3.694062
     80          1           0       -0.476579    5.122111   -2.846863
     81          1           0        0.384793    4.127739   -4.151706
     82          1           0        2.931342    7.803914    0.214070
     83          1           0        2.309351    6.649278    1.346905
     84          1           0        1.289212    8.046900    0.927402
     85          1           0        5.126703    4.646014    3.201360
     86          1           0        7.670871    3.602559    2.078712
     87          1           0        7.347985    5.861893    2.513705
     88          1           0        5.709592    6.570561    2.346261
     89          1           0        6.515715    6.031016    0.926783
     90          1           0        6.283196    1.799336    4.089193
     91          1           0        6.398361    3.427596    4.752633
     92          1           0        8.478111    3.219610    5.428236
     93          1           0        9.032525    2.760046    3.829918
     94          1           0        8.351768    1.516310    4.872876
     95          1           0        8.224026   -2.505425    2.122852
     96          1           0        9.088413   -1.148858    1.703265
     97          1           0        8.899198   -2.545495    0.541868
     98          1           0        5.106192   -3.544209   -2.711992
     99          1           0        2.042514   -6.339338   -2.426630
    100          1           0        3.050698   -6.893220   -1.149728
    101          1           0        3.307351   -7.447402   -2.795239
    102          1           0       -1.206031   -5.123508    1.688092
    103          1           0       -2.062905   -6.149057    0.609625
    104          1           0       -3.372996   -3.383340    0.744251
    105          1           0       -5.022033   -6.650788    2.607738
    106          1           0       -4.431767   -5.640261    3.845020
    107          1           0       -3.243969   -6.580176    2.940783
    108          1           0       -6.399870   -4.669236    2.234593
    109          1           0       -5.667773   -3.589231    1.120231
    110          1           0       -4.620893   -2.164590    2.527461
    111          1           0       -4.354831   -3.239094    3.797833
    112          1           0       -6.200482   -2.805159    4.991727
    113          1           0       -7.258477   -3.145317    3.592932
    114          1           0       -5.734122   -0.586133    3.384958
    115          1           0       -5.863472    0.130908    5.478027
    116          1           0       -6.801936   -1.032154    6.139311
    117          1           0       -7.620346    0.336684    5.415116
    118          1           0       -8.755517   -0.432425    3.446629
    119          1           0       -8.167754   -1.453536    2.341815
    120          1           0       -6.599916    1.143932    2.585563
    121          1           0       -8.263389    1.351023    2.417431
    122          1           0       -7.237184   -0.563641    0.460967
    123          1           0       -6.770169    1.044652    0.069151
    124          1           0       -9.610391    0.534705    0.808954
    125          1           0      -10.157187   -0.607628   -1.003986
    126          1           0       -8.417846   -0.851367   -1.336838
    127          1           0       -9.302289    0.548436   -1.996530
    128          1           0       -8.439861    2.439689   -1.141158
    129          1           0       -8.322428    2.772825    0.489330
    130          1           0      -10.328706    3.598402    0.985773
    131          1           0      -10.973903    2.203107    0.444038
    132          1           0      -10.130597    4.100846   -1.649092
    133          1           0      -11.641472    4.319963   -0.653725
    134          1           0      -11.310395    1.587523   -1.701908
    135          1           0      -12.320534    2.608239   -4.037708
    136          1           0      -10.701787    1.992344   -3.773372
    137          1           0      -10.946340    3.779646   -3.800469
    138          1           0      -13.650020    1.649245   -1.757380
    139          1           0      -13.710189    3.190404   -2.628776
    140          1           0      -13.393636    3.112235   -0.862251
 ---------------------------------------------------------------------
 Rotational constants (GHZ):           0.0307538           0.0143340           0.0117164
 Leave Link  202 at Thu May  5 09:41:04 2022, MaxMem= 10066329600 cpu:               2.0 elap:               0.1
 (Enter /sw/apps/gaussian-16.0/g16/l301.exe)
 Standard basis: def2SVP (5D, 7F)
 Ernie: Thresh=  0.10000D-02 Tol=  0.10000D-05 Strict=F.
 There are  1364 symmetry adapted cartesian basis functions of A   symmetry.
 There are  1298 symmetry adapted basis functions of A   symmetry.
  1298 basis functions,  2180 primitive gaussians,  1364 cartesian basis functions
   246 alpha electrons      246 beta electrons
       nuclear repulsion energy      9723.4857762371 Hartrees.
 IExCor= 4639 DFT=T Ex+Corr=wB97XD ExCW=0 ScaHFX=  1.000000
 ScaDFX=  1.000000  1.000000  1.000000  1.000000 ScalE2=  1.000000  1.000000
 IRadAn=      5 IRanWt=     -1 IRanGd=            0 ICorTp=0 IEmpDi=121
 HFx  wShort=  0.000000 wLong=  0.200000 cFull=  0.222036 cShort=  0.000000 cLong=  0.777964
 DFx  wShort=  0.000000 wLong=  0.200000 cFull=  0.000000 cShort=  0.000000 cLong=  1.000000
 NAtoms=  140 NActive=  140 NUniq=  140 SFac= 1.00D+00 NAtFMM=   60 NAOKFM=T Big=T
 Integral buffers will be    131072 words long.
 Raffenetti 1 integral format.
 Two-electron integral symmetry is turned on.
 R6Disp:  Grimme-D2 Dispersion energy=       -0.1345701667 Hartrees.
 Nuclear repulsion after empirical dispersion term =     9723.3512060704 Hartrees.
 Leave Link  301 at Thu May  5 09:41:04 2022, MaxMem= 10066329600 cpu:               1.3 elap:               0.1
 (Enter /sw/apps/gaussian-16.0/g16/l302.exe)
 NPDir=0 NMtPBC=     1 NCelOv=     1 NCel=       1 NClECP=     1 NCelD=      1
         NCelK=      1 NCelE2=     1 NClLst=     1 CellRange=     0.0.
 One-electron integrals computed using PRISM.
 One-electron integral symmetry used in STVInt
   1 Symmetry operations used in ECPInt.
 ECPInt:  NShTT=  192510 NPrTT=  683786 LenC2=   98930 LenP2D=  211571.
 LDataN:  DoStor=T MaxTD1= 4 Len=   56
 NBasis=  1298 RedAO= T EigKep=  3.25D-04  NBF=  1298
 NBsUse=  1298 1.00D-06 EigRej= -1.00D+00 NBFU=  1298
 Precomputing XC quadrature grid using
 IXCGrd= 4 IRadAn=           5 IRanWt=          -1 IRanGd=           0 AccXCQ= 0.00D+00.
 Generated NRdTot=       0 NPtTot=           0 NUsed=           0 NTot=          32
 NSgBfM=  1141  1141  1141  1141  1141 MxSgAt=   140 MxSgA2=   140.
 Leave Link  302 at Thu May  5 09:41:08 2022, MaxMem= 10066329600 cpu:              83.9 elap:               3.5
 (Enter /sw/apps/gaussian-16.0/g16/l303.exe)
 DipDrv:  MaxL=1.
 Leave Link  303 at Thu May  5 09:41:08 2022, MaxMem= 10066329600 cpu:               5.6 elap:               0.3
 (Enter /sw/apps/gaussian-16.0/g16/l308.exe)
 Leave Link  308 at Thu May  5 09:41:09 2022, MaxMem= 10066329600 cpu:              13.3 elap:               0.6
 (Enter /sw/apps/gaussian-16.0/g16/l401.exe)
 ExpMin= 3.36D-02 ExpMax= 4.95D+03 ExpMxC= 7.45D+02 IAcc=3 IRadAn=         5 AccDes= 0.00D+00
 Harris functional with IExCor= 4639 and IRadAn=       5 diagonalized for initial guess.
 HarFok:  IExCor= 4639 AccDes= 0.00D+00 IRadAn=         5 IDoV= 1 UseB2=F ITyADJ=14
 ICtDFT=  3500011 ScaDFX=  1.000000  1.000000  1.000000  1.000000
 FoFCou: FMM=F IPFlag=           0 FMFlag=      100000 FMFlg1=        2001
         NFxFlg=           0 DoJE=T BraDBF=F KetDBF=T FulRan=T
         wScrn=  0.000000 ICntrl=       500 IOpCl=  0 I1Cent=   200000004 NGrid=           0
         NMat0=    1 NMatS0=      1 NMatT0=    0 NMatD0=    1 NMtDS0=    0 NMtDT0=    0
 Petite list used in FoFCou.
 Harris En= -2877.98359289931    
 JPrj=0 DoOrth=F DoCkMO=F.
 Leave Link  401 at Thu May  5 09:41:14 2022, MaxMem= 10066329600 cpu:             139.0 elap:               5.8
 (Enter /sw/apps/gaussian-16.0/g16/l502.exe)
 Integral symmetry usage will be decided dynamically.
 Closed shell SCF:
 Using DIIS extrapolation, IDIIS=  1040.
 NGot= 10066329600 LenX= 10062561258 LenY= 10060699398
 Requested convergence on RMS density matrix=1.00D-08 within 128 cycles.
 Requested convergence on MAX density matrix=1.00D-06.
 Requested convergence on             energy=1.00D-06.
 No special actions if energy rises.
 Fock matrices will be formed incrementally for  20 cycles.

 Cycle   1  Pass 1  IDiag  1:
 FoFJK:  IHMeth= 1 ICntrl=       0 DoSepK=T KAlg= 0 I1Cent=           0 FoldK=F
 IRaf=         1 NMat=       1 IRICut=       1 DoRegI=T DoRafI=F ISym2E= 0 IDoP0=0 IntGTp=1.
 FoFCou: FMM=T IPFlag=           0 FMFlag=      100000 FMFlg1=        2001
         NFxFlg=           0 DoJE=T BraDBF=F KetDBF=F FulRan=T
         wScrn=  0.000000 ICntrl=       500 IOpCl=  0 I1Cent=           0 NGrid=           0
         NMat0=    1 NMatS0=      1 NMatT0=    0 NMatD0=    1 NMtDS0=    0 NMtDT0=    0
 Symmetry not used in FoFCou.
 FMM levels:  10  Number of levels for PrismC:   9
 E= -3007.13375385696    
 DIIS: error= 2.95D-02 at cycle   1 NSaved=   1.
 NSaved= 1 IEnMin= 1 EnMin= -3007.13375385696     IErMin= 1 ErrMin= 2.95D-02
 ErrMax= 2.95D-02  0.00D+00 EMaxC= 1.00D-01 BMatC= 1.51D+00 BMatP= 1.51D+00
 IDIUse=3 WtCom= 7.05D-01 WtEn= 2.95D-01
 Coeff-Com:  0.100D+01
 Coeff-En:   0.100D+01
 Coeff:      0.100D+01
 Gap=     0.153 Goal=   None    Shift=    0.000
 GapD=    0.153 DampG=1.000 DampE=0.500 DampFc=0.5000 IDamp=-1.
 Damping current iteration by 5.00D-01
 RMSDP=1.55D-03 MaxDP=1.81D-01              OVMax= 2.38D-01

 Cycle   2  Pass 1  IDiag  1:
 RMSU=  7.65D-04    CP:  9.88D-01
 E= -3007.46399375626     Delta-E=       -0.330239899296 Rises=F Damp=T
 DIIS: error= 1.25D-02 at cycle   2 NSaved=   2.
 NSaved= 2 IEnMin= 2 EnMin= -3007.46399375626     IErMin= 2 ErrMin= 1.25D-02
 ErrMax= 1.25D-02  0.00D+00 EMaxC= 1.00D-01 BMatC= 2.91D-01 BMatP= 1.51D+00
 IDIUse=3 WtCom= 8.75D-01 WtEn= 1.25D-01
 Coeff-Com: -0.328D+00 0.133D+01
 Coeff-En:   0.000D+00 0.100D+01
 Coeff:     -0.288D+00 0.129D+01
 Gap=     0.203 Goal=   None    Shift=    0.000
 RMSDP=7.34D-04 MaxDP=9.07D-02 DE=-3.30D-01 OVMax= 1.94D-01

 Cycle   3  Pass 1  IDiag  1:
 RMSU=  7.02D-04    CP:  9.79D-01  1.26D+00
 E= -3007.70249306246     Delta-E=       -0.238499306201 Rises=F Damp=F
 DIIS: error= 1.73D-02 at cycle   3 NSaved=   3.
 NSaved= 3 IEnMin= 3 EnMin= -3007.70249306246     IErMin= 2 ErrMin= 1.25D-02
 ErrMax= 1.73D-02  0.00D+00 EMaxC= 1.00D-01 BMatC= 1.49D-01 BMatP= 2.91D-01
 IDIUse=3 WtCom= 8.27D-01 WtEn= 1.73D-01
 Coeff-Com: -0.305D+00 0.685D+00 0.621D+00
 Coeff-En:   0.000D+00 0.000D+00 0.100D+01
 Coeff:     -0.253D+00 0.566D+00 0.686D+00
 Gap=     0.164 Goal=   None    Shift=    0.000
 RMSDP=4.71D-04 MaxDP=4.62D-02 DE=-2.38D-01 OVMax= 1.35D-01

 Cycle   4  Pass 1  IDiag  1:
 RMSU=  2.32D-04    CP:  9.76D-01  1.59D+00  5.44D-01
 E= -3007.80998298714     Delta-E=       -0.107489924683 Rises=F Damp=F
 DIIS: error= 6.88D-03 at cycle   4 NSaved=   4.
 NSaved= 4 IEnMin= 4 EnMin= -3007.80998298714     IErMin= 4 ErrMin= 6.88D-03
 ErrMax= 6.88D-03  0.00D+00 EMaxC= 1.00D-01 BMatC= 2.83D-02 BMatP= 1.49D-01
 IDIUse=3 WtCom= 9.31D-01 WtEn= 6.88D-02
 Coeff-Com: -0.109D+00 0.219D+00 0.385D+00 0.504D+00
 Coeff-En:   0.000D+00 0.000D+00 0.151D+00 0.849D+00
 Coeff:     -0.102D+00 0.204D+00 0.369D+00 0.528D+00
 Gap=     0.161 Goal=   None    Shift=    0.000
 RMSDP=1.61D-04 MaxDP=1.58D-02 DE=-1.07D-01 OVMax= 4.33D-02

 Cycle   5  Pass 1  IDiag  1:
 RMSU=  6.67D-05    CP:  9.76D-01  1.53D+00  7.03D-01  6.45D-01
 E= -3007.83425019093     Delta-E=       -0.024267203786 Rises=F Damp=F
 DIIS: error= 7.16D-04 at cycle   5 NSaved=   5.
 NSaved= 5 IEnMin= 5 EnMin= -3007.83425019093     IErMin= 5 ErrMin= 7.16D-04
 ErrMax= 7.16D-04  0.00D+00 EMaxC= 1.00D-01 BMatC= 5.47D-04 BMatP= 2.83D-02
 IDIUse=3 WtCom= 9.93D-01 WtEn= 7.16D-03
 Coeff-Com: -0.256D-01 0.481D-01 0.122D+00 0.229D+00 0.627D+00
 Coeff-En:   0.000D+00 0.000D+00 0.000D+00 0.000D+00 0.100D+01
 Coeff:     -0.254D-01 0.477D-01 0.121D+00 0.227D+00 0.630D+00
 Gap=     0.160 Goal=   None    Shift=    0.000
 RMSDP=2.76D-05 MaxDP=4.25D-03 DE=-2.43D-02 OVMax= 5.99D-03

 Cycle   6  Pass 1  IDiag  1:
 RMSU=  2.32D-05    CP:  9.76D-01  1.54D+00  7.03D-01  6.98D-01  8.95D-01
 E= -3007.83470936795     Delta-E=       -0.000459177021 Rises=F Damp=F
 DIIS: error= 3.07D-04 at cycle   6 NSaved=   6.
 NSaved= 6 IEnMin= 6 EnMin= -3007.83470936795     IErMin= 6 ErrMin= 3.07D-04
 ErrMax= 3.07D-04  0.00D+00 EMaxC= 1.00D-01 BMatC= 7.82D-05 BMatP= 5.47D-04
 IDIUse=3 WtCom= 9.97D-01 WtEn= 3.07D-03
 Coeff-Com:  0.106D-01-0.228D-01-0.208D-01-0.147D-02 0.290D+00 0.745D+00
 Coeff-En:   0.000D+00 0.000D+00 0.000D+00 0.000D+00 0.000D+00 0.100D+01
 Coeff:      0.106D-01-0.227D-01-0.207D-01-0.146D-02 0.289D+00 0.746D+00
 Gap=     0.161 Goal=   None    Shift=    0.000
 RMSDP=1.31D-05 MaxDP=1.02D-03 DE=-4.59D-04 OVMax= 5.72D-03

 Cycle   7  Pass 1  IDiag  1:
 RMSU=  9.08D-06    CP:  9.76D-01  1.54D+00  7.08D-01  7.15D-01  1.01D+00
                    CP:  9.65D-01
 E= -3007.83481421072     Delta-E=       -0.000104842775 Rises=F Damp=F
 DIIS: error= 7.86D-05 at cycle   7 NSaved=   7.
 NSaved= 7 IEnMin= 7 EnMin= -3007.83481421072     IErMin= 7 ErrMin= 7.86D-05
 ErrMax= 7.86D-05  0.00D+00 EMaxC= 1.00D-01 BMatC= 7.61D-06 BMatP= 7.82D-05
 IDIUse=1 WtCom= 1.00D+00 WtEn= 0.00D+00
 Coeff-Com:  0.605D-02-0.122D-01-0.181D-01-0.229D-01 0.429D-01 0.273D+00
 Coeff-Com:  0.731D+00
 Coeff:      0.605D-02-0.122D-01-0.181D-01-0.229D-01 0.429D-01 0.273D+00
 Coeff:      0.731D+00
 Gap=     0.161 Goal=   None    Shift=    0.000
 RMSDP=5.85D-06 MaxDP=9.79D-04 DE=-1.05D-04 OVMax= 2.30D-03

 Cycle   8  Pass 1  IDiag  1:
 RMSU=  3.85D-06    CP:  9.76D-01  1.54D+00  7.10D-01  7.19D-01  1.03D+00
                    CP:  1.11D+00  1.15D+00
 E= -3007.83483252857     Delta-E=       -0.000018317849 Rises=F Damp=F
 DIIS: error= 2.87D-05 at cycle   8 NSaved=   8.
 NSaved= 8 IEnMin= 8 EnMin= -3007.83483252857     IErMin= 8 ErrMin= 2.87D-05
 ErrMax= 2.87D-05  0.00D+00 EMaxC= 1.00D-01 BMatC= 2.00D-06 BMatP= 7.61D-06
 IDIUse=1 WtCom= 1.00D+00 WtEn= 0.00D+00
 Coeff-Com:  0.823D-03-0.137D-02-0.481D-02-0.117D-01-0.401D-01-0.200D-01
 Coeff-Com:  0.324D+00 0.753D+00
 Coeff:      0.823D-03-0.137D-02-0.481D-02-0.117D-01-0.401D-01-0.200D-01
 Coeff:      0.324D+00 0.753D+00
 Gap=     0.161 Goal=   None    Shift=    0.000
 RMSDP=3.69D-06 MaxDP=2.43D-04 DE=-1.83D-05 OVMax= 2.63D-03

 Cycle   9  Pass 1  IDiag  1:
 RMSU=  2.17D-06    CP:  9.76D-01  1.54D+00  7.11D-01  7.20D-01  1.05D+00
                    CP:  1.16D+00  1.39D+00  1.26D+00
 E= -3007.83484102482     Delta-E=       -0.000008496252 Rises=F Damp=F
 DIIS: error= 1.83D-05 at cycle   9 NSaved=   9.
 NSaved= 9 IEnMin= 9 EnMin= -3007.83484102482     IErMin= 9 ErrMin= 1.83D-05
 ErrMax= 1.83D-05  0.00D+00 EMaxC= 1.00D-01 BMatC= 5.45D-07 BMatP= 2.00D-06
 IDIUse=1 WtCom= 1.00D+00 WtEn= 0.00D+00
 Coeff-Com: -0.144D-02 0.294D-02 0.343D-02 0.301D-02-0.214D-01-0.737D-01
 Coeff-Com: -0.123D+00 0.212D+00 0.999D+00
 Coeff:     -0.144D-02 0.294D-02 0.343D-02 0.301D-02-0.214D-01-0.737D-01
 Coeff:     -0.123D+00 0.212D+00 0.999D+00
 Gap=     0.161 Goal=   None    Shift=    0.000
 RMSDP=3.37D-06 MaxDP=2.14D-04 DE=-8.50D-06 OVMax= 2.10D-03

 Cycle  10  Pass 1  IDiag  1:
 RMSU=  1.23D-06    CP:  9.76D-01  1.54D+00  7.11D-01  7.21D-01  1.06D+00
                    CP:  1.21D+00  1.58D+00  1.77D+00  1.56D+00
 E= -3007.83484576415     Delta-E=       -0.000004739324 Rises=F Damp=F
 DIIS: error= 1.35D-05 at cycle  10 NSaved=  10.
 NSaved=10 IEnMin=10 EnMin= -3007.83484576415     IErMin=10 ErrMin= 1.35D-05
 ErrMax= 1.35D-05  0.00D+00 EMaxC= 1.00D-01 BMatC= 2.16D-07 BMatP= 5.45D-07
 IDIUse=1 WtCom= 1.00D+00 WtEn= 0.00D+00
 Coeff-Com: -0.924D-03 0.178D-02 0.304D-02 0.551D-02 0.488D-02-0.232D-01
 Coeff-Com: -0.175D+00-0.156D+00 0.430D+00 0.910D+00
 Coeff:     -0.924D-03 0.178D-02 0.304D-02 0.551D-02 0.488D-02-0.232D-01
 Coeff:     -0.175D+00-0.156D+00 0.430D+00 0.910D+00
 Gap=     0.161 Goal=   None    Shift=    0.000
 RMSDP=2.52D-06 MaxDP=1.46D-04 DE=-4.74D-06 OVMax= 1.87D-03

 Cycle  11  Pass 1  IDiag  1:
 RMSU=  7.55D-07    CP:  9.76D-01  1.54D+00  7.11D-01  7.20D-01  1.06D+00
                    CP:  1.23D+00  1.71D+00  2.09D+00  2.25D+00  1.45D+00
 E= -3007.83484793926     Delta-E=       -0.000002175108 Rises=F Damp=F
 DIIS: error= 7.71D-06 at cycle  11 NSaved=  11.
 NSaved=11 IEnMin=11 EnMin= -3007.83484793926     IErMin=11 ErrMin= 7.71D-06
 ErrMax= 7.71D-06  0.00D+00 EMaxC= 1.00D-01 BMatC= 9.30D-08 BMatP= 2.16D-07
 IDIUse=1 WtCom= 1.00D+00 WtEn= 0.00D+00
 Coeff-Com: -0.203D-04-0.741D-05 0.385D-03 0.199D-02 0.941D-02 0.141D-01
 Coeff-Com: -0.532D-01-0.143D+00-0.136D+00 0.425D+00 0.881D+00
 Coeff:     -0.203D-04-0.741D-05 0.385D-03 0.199D-02 0.941D-02 0.141D-01
 Coeff:     -0.532D-01-0.143D+00-0.136D+00 0.425D+00 0.881D+00
 Gap=     0.161 Goal=   None    Shift=    0.000
 RMSDP=1.70D-06 MaxDP=9.38D-05 DE=-2.18D-06 OVMax= 1.13D-03

 Cycle  12  Pass 1  IDiag  1:
 RMSU=  4.00D-07    CP:  9.76D-01  1.54D+00  7.11D-01  7.20D-01  1.06D+00
                    CP:  1.24D+00  1.78D+00  2.32D+00  2.65D+00  2.06D+00
                    CP:  1.36D+00
 E= -3007.83484878782     Delta-E=       -0.000000848562 Rises=F Damp=F
 DIIS: error= 4.52D-06 at cycle  12 NSaved=  12.
 NSaved=12 IEnMin=12 EnMin= -3007.83484878782     IErMin=12 ErrMin= 4.52D-06
 ErrMax= 4.52D-06  0.00D+00 EMaxC= 1.00D-01 BMatC= 2.92D-08 BMatP= 9.30D-08
 IDIUse=1 WtCom= 1.00D+00 WtEn= 0.00D+00
 Coeff-Com:  0.412D-03-0.817D-03-0.128D-02-0.155D-02 0.144D-02 0.175D-01
 Coeff-Com:  0.565D-01 0.231D-01-0.251D+00-0.275D+00 0.399D+00 0.103D+01
 Coeff:      0.412D-03-0.817D-03-0.128D-02-0.155D-02 0.144D-02 0.175D-01
 Coeff:      0.565D-01 0.231D-01-0.251D+00-0.275D+00 0.399D+00 0.103D+01
 Gap=     0.161 Goal=   None    Shift=    0.000
 RMSDP=1.26D-06 MaxDP=1.26D-04 DE=-8.49D-07 OVMax= 8.98D-04

 Cycle  13  Pass 1  IDiag  1:
 RMSU=  2.25D-07    CP:  9.76D-01  1.54D+00  7.11D-01  7.20D-01  1.06D+00
                    CP:  1.25D+00  1.83D+00  2.45D+00  2.99D+00  2.51D+00
                    CP:  2.02D+00  1.43D+00
 E= -3007.83484908569     Delta-E=       -0.000000297870 Rises=F Damp=F
 DIIS: error= 1.43D-06 at cycle  13 NSaved=  13.
 NSaved=13 IEnMin=13 EnMin= -3007.83484908569     IErMin=13 ErrMin= 1.43D-06
 ErrMax= 1.43D-06  0.00D+00 EMaxC= 1.00D-01 BMatC= 6.69D-09 BMatP= 2.92D-08
 IDIUse=1 WtCom= 1.00D+00 WtEn= 0.00D+00
 Coeff-Com:  0.194D-03-0.377D-03-0.684D-03-0.110D-02-0.146D-02 0.478D-02
 Coeff-Com:  0.360D-01 0.425D-01-0.804D-01-0.227D+00-0.687D-02 0.460D+00
 Coeff-Com:  0.775D+00
 Coeff:      0.194D-03-0.377D-03-0.684D-03-0.110D-02-0.146D-02 0.478D-02
 Coeff:      0.360D-01 0.425D-01-0.804D-01-0.227D+00-0.687D-02 0.460D+00
 Coeff:      0.775D+00
 Gap=     0.161 Goal=   None    Shift=    0.000
 RMSDP=4.31D-07 MaxDP=2.33D-05 DE=-2.98D-07 OVMax= 3.02D-04

 Cycle  14  Pass 1  IDiag  1:
 RMSU=  2.39D-07    CP:  9.76D-01  1.54D+00  7.11D-01  7.20D-01  1.06D+00
                    CP:  1.25D+00  1.84D+00  2.49D+00  3.00D+00  2.66D+00
                    CP:  2.26D+00  1.74D+00  1.19D+00
 E= -3007.83484912569     Delta-E=       -0.000000040007 Rises=F Damp=F
 DIIS: error= 8.04D-07 at cycle  14 NSaved=  14.
 NSaved=14 IEnMin=14 EnMin= -3007.83484912569     IErMin=14 ErrMin= 8.04D-07
 ErrMax= 8.04D-07  0.00D+00 EMaxC= 1.00D-01 BMatC= 1.24D-09 BMatP= 6.69D-09
 IDIUse=1 WtCom= 1.00D+00 WtEn= 0.00D+00
 Coeff-Com: -0.121D-04 0.280D-04 0.482D-05-0.866D-04-0.934D-03-0.214D-02
 Coeff-Com:  0.104D-02 0.118D-01 0.238D-01-0.279D-01-0.900D-01-0.498D-01
 Coeff-Com:  0.275D+00 0.860D+00
 Coeff:     -0.121D-04 0.280D-04 0.482D-05-0.866D-04-0.934D-03-0.214D-02
 Coeff:      0.104D-02 0.118D-01 0.238D-01-0.279D-01-0.900D-01-0.498D-01
 Coeff:      0.275D+00 0.860D+00
 Gap=     0.161 Goal=   None    Shift=    0.000
 RMSDP=1.76D-07 MaxDP=2.24D-05 DE=-4.00D-08 OVMax= 1.22D-04

 Cycle  15  Pass 1  IDiag  1:
 RMSU=  5.66D-08    CP:  9.76D-01  1.54D+00  7.11D-01  7.20D-01  1.06D+00
                    CP:  1.25D+00  1.84D+00  2.50D+00  3.00D+00  2.72D+00
                    CP:  2.36D+00  1.88D+00  1.48D+00  1.32D+00
 E= -3007.83484913399     Delta-E=       -0.000000008291 Rises=F Damp=F
 DIIS: error= 4.06D-07 at cycle  15 NSaved=  15.
 NSaved=15 IEnMin=15 EnMin= -3007.83484913399     IErMin=15 ErrMin= 4.06D-07
 ErrMax= 4.06D-07  0.00D+00 EMaxC= 1.00D-01 BMatC= 4.11D-10 BMatP= 1.24D-09
 IDIUse=1 WtCom= 1.00D+00 WtEn= 0.00D+00
 Coeff-Com: -0.553D-04 0.110D-03 0.180D-03 0.252D-03-0.271D-04-0.214D-02
 Coeff-Com: -0.892D-02-0.601D-02 0.291D-01 0.508D-01-0.314D-01-0.134D+00
 Coeff-Com: -0.997D-01 0.365D+00 0.837D+00
 Coeff:     -0.553D-04 0.110D-03 0.180D-03 0.252D-03-0.271D-04-0.214D-02
 Coeff:     -0.892D-02-0.601D-02 0.291D-01 0.508D-01-0.314D-01-0.134D+00
 Coeff:     -0.997D-01 0.365D+00 0.837D+00
 Gap=     0.161 Goal=   None    Shift=    0.000
 RMSDP=7.43D-08 MaxDP=4.87D-06 DE=-8.29D-09 OVMax= 4.74D-05

 Cycle  16  Pass 1  IDiag  1:
 RMSU=  4.50D-08    CP:  9.76D-01  1.54D+00  7.11D-01  7.20D-01  1.06D+00
                    CP:  1.25D+00  1.84D+00  2.50D+00  3.00D+00  2.72D+00
                    CP:  2.38D+00  1.95D+00  1.63D+00  1.44D+00  1.32D+00
 E= -3007.83484913655     Delta-E=       -0.000000002563 Rises=F Damp=F
 DIIS: error= 2.40D-07 at cycle  16 NSaved=  16.
 NSaved=16 IEnMin=16 EnMin= -3007.83484913655     IErMin=16 ErrMin= 2.40D-07
 ErrMax= 2.40D-07  0.00D+00 EMaxC= 1.00D-01 BMatC= 1.14D-10 BMatP= 4.11D-10
 IDIUse=1 WtCom= 1.00D+00 WtEn= 0.00D+00
 Coeff-Com: -0.104D-04 0.195D-04 0.455D-04 0.879D-04 0.253D-03 0.337D-04
 Coeff-Com: -0.254D-02-0.437D-02 0.354D-03 0.241D-01 0.943D-02-0.243D-01
 Coeff-Com: -0.106D+00-0.128D+00 0.230D+00 0.100D+01
 Coeff:     -0.104D-04 0.195D-04 0.455D-04 0.879D-04 0.253D-03 0.337D-04
 Coeff:     -0.254D-02-0.437D-02 0.354D-03 0.241D-01 0.943D-02-0.243D-01
 Coeff:     -0.106D+00-0.128D+00 0.230D+00 0.100D+01
 Gap=     0.161 Goal=   None    Shift=    0.000
 RMSDP=5.76D-08 MaxDP=3.53D-06 DE=-2.56D-09 OVMax= 3.92D-05

 Cycle  17  Pass 1  IDiag  1:
 RMSU=  1.65D-08    CP:  9.76D-01  1.54D+00  7.11D-01  7.20D-01  1.06D+00
                    CP:  1.25D+00  1.84D+00  2.50D+00  3.00D+00  2.73D+00
                    CP:  2.40D+00  1.99D+00  1.73D+00  1.53D+00  1.78D+00
                    CP:  1.63D+00
 E= -3007.83484913755     Delta-E=       -0.000000001002 Rises=F Damp=F
 DIIS: error= 1.66D-07 at cycle  17 NSaved=  17.
 NSaved=17 IEnMin=17 EnMin= -3007.83484913755     IErMin=17 ErrMin= 1.66D-07
 ErrMax= 1.66D-07  0.00D+00 EMaxC= 1.00D-01 BMatC= 3.83D-11 BMatP= 1.14D-10
 IDIUse=1 WtCom= 1.00D+00 WtEn= 0.00D+00
 Coeff-Com:  0.183D-04-0.366D-04-0.562D-04-0.697D-04 0.953D-04 0.839D-03
 Coeff-Com:  0.274D-02 0.126D-02-0.128D-01-0.101D-01 0.127D-01 0.485D-01
 Coeff-Com:  0.996D-02-0.184D+00-0.254D+00 0.281D+00 0.110D+01
 Coeff:      0.183D-04-0.366D-04-0.562D-04-0.697D-04 0.953D-04 0.839D-03
 Coeff:      0.274D-02 0.126D-02-0.128D-01-0.101D-01 0.127D-01 0.485D-01
 Coeff:      0.996D-02-0.184D+00-0.254D+00 0.281D+00 0.110D+01
 Gap=     0.161 Goal=   None    Shift=    0.000
 RMSDP=4.20D-08 MaxDP=2.43D-06 DE=-1.00D-09 OVMax= 2.63D-05

 Cycle  18  Pass 1  IDiag  1:
 RMSU=  9.20D-09    CP:  9.76D-01  1.54D+00  7.11D-01  7.20D-01  1.06D+00
                    CP:  1.25D+00  1.84D+00  2.50D+00  3.00D+00  2.74D+00
                    CP:  2.41D+00  2.01D+00  1.79D+00  1.57D+00  2.15D+00
                    CP:  2.25D+00  1.49D+00
 E= -3007.83484913815     Delta-E=       -0.000000000604 Rises=F Damp=F
 DIIS: error= 6.67D-08 at cycle  18 NSaved=  18.
 NSaved=18 IEnMin=18 EnMin= -3007.83484913815     IErMin=18 ErrMin= 6.67D-08
 ErrMax= 6.67D-08  0.00D+00 EMaxC= 1.00D-01 BMatC= 1.33D-11 BMatP= 3.83D-11
 IDIUse=1 WtCom= 1.00D+00 WtEn= 0.00D+00
 Coeff-Com:  0.109D-04-0.212D-04-0.378D-04-0.552D-04-0.344D-04 0.334D-03
 Coeff-Com:  0.192D-02 0.209D-02-0.599D-02-0.103D-01 0.114D-02 0.289D-01
 Coeff-Com:  0.371D-01-0.463D-01-0.171D+00-0.181D+00 0.511D+00 0.834D+00
 Coeff:      0.109D-04-0.212D-04-0.378D-04-0.552D-04-0.344D-04 0.334D-03
 Coeff:      0.192D-02 0.209D-02-0.599D-02-0.103D-01 0.114D-02 0.289D-01
 Coeff:      0.371D-01-0.463D-01-0.171D+00-0.181D+00 0.511D+00 0.834D+00
 Gap=     0.161 Goal=   None    Shift=    0.000
 RMSDP=1.86D-08 MaxDP=1.19D-06 DE=-6.04D-10 OVMax= 1.14D-05

 Cycle  19  Pass 1  IDiag  1:
 RMSU=  4.57D-09    CP:  9.76D-01  1.54D+00  7.11D-01  7.20D-01  1.06D+00
                    CP:  1.25D+00  1.84D+00  2.50D+00  3.00D+00  2.74D+00
                    CP:  2.41D+00  2.02D+00  1.81D+00  1.58D+00  2.32D+00
                    CP:  2.52D+00  1.85D+00  1.35D+00
 E= -3007.83484913830     Delta-E=       -0.000000000146 Rises=F Damp=F
 DIIS: error= 3.08D-08 at cycle  19 NSaved=  19.
 NSaved=19 IEnMin=19 EnMin= -3007.83484913830     IErMin=19 ErrMin= 3.08D-08
 ErrMax= 3.08D-08  0.00D+00 EMaxC= 1.00D-01 BMatC= 2.11D-12 BMatP= 1.33D-11
 IDIUse=1 WtCom= 1.00D+00 WtEn= 0.00D+00
 Coeff-Com: -0.101D-05 0.217D-05 0.165D-05 0.177D-06-0.377D-04-0.114D-03
 Coeff-Com: -0.975D-04 0.434D-03 0.914D-03-0.387D-03-0.357D-02-0.258D-02
 Coeff-Com:  0.102D-01 0.279D-01 0.126D-01-0.150D+00-0.897D-01 0.256D+00
 Coeff-Com:  0.938D+00
 Coeff:     -0.101D-05 0.217D-05 0.165D-05 0.177D-06-0.377D-04-0.114D-03
 Coeff:     -0.975D-04 0.434D-03 0.914D-03-0.387D-03-0.357D-02-0.258D-02
 Coeff:      0.102D-01 0.279D-01 0.126D-01-0.150D+00-0.897D-01 0.256D+00
 Coeff:      0.938D+00
 Gap=     0.161 Goal=   None    Shift=    0.000
 RMSDP=8.94D-09 MaxDP=5.15D-07 DE=-1.46D-10 OVMax= 5.57D-06

 SCF Done:  E(RwB97XD) =  -3007.83484914     A.U. after   19 cycles
            NFock= 19  Conv=0.89D-08     -V/T= 2.0108
 KE= 2.975706562591D+03 PE=-2.643916186212D+04 EE= 1.073226924432D+04
 Leave Link  502 at Thu May  5 09:48:40 2022, MaxMem= 10066329600 cpu:           10263.6 elap:             446.0
 (Enter /sw/apps/gaussian-16.0/g16/l801.exe)
 DoSCS=F DFT=T ScalE2(SS,OS)=  1.000000  1.000000
 ExpMin= 3.36D-02 ExpMax= 4.95D+03 ExpMxC= 7.45D+02 IAcc=3 IRadAn=         5 AccDes= 0.00D+00
 HarFok:  IExCor=  205 AccDes= 0.00D+00 IRadAn=         5 IDoV=-2 UseB2=F ITyADJ=14
 ICtDFT= 12500011 ScaDFX=  1.000000  1.000000  1.000000  1.000000
 GSVD:  LWork=       -5460 too small for GESVD, short by       25550 words or       25550 for optimal perf.
 Largest valence mixing into a core orbital is  1.47D-04
 Largest core mixing into a valence orbital is  5.65D-05
 Range of M.O.s used for correlation:    71  1298
 NBasis=  1298 NAE=   246 NBE=   246 NFC=    70 NFV=     0
 NROrb=   1228 NOA=   176 NOB=   176 NVA=  1052 NVB=  1052
 Leave Link  801 at Thu May  5 09:48:41 2022, MaxMem= 10066329600 cpu:               6.1 elap:               0.3
 (Enter /sw/apps/gaussian-16.0/g16/l914.exe)
 RHF ground state
 Two-electron integrals replicated using symmetry.
 MDV= 10066329600 DFT=T DoStab=F Mixed=T DoRPA=T DoScal=F NonHer=T
 Making orbital integer symmetry assigments:
 Orbital symmetries:
       Occupied  (A) (A) (A) (A) (A) (A) (A) (A) (A) (A) (A) (A)
                 (A) (A) (A) (A) (A) (A) (A) (A) (A) (A) (A) (A)
                 (A) (A) (A) (A) (A) (A) (A) (A) (A) (A) (A) (A)
                 (A) (A) (A) (A) (A) (A) (A) (A) (A) (A) (A) (A)
                 (A) (A) (A) (A) (A) (A) (A) (A) (A) (A) (A) (A)
                 (A) (A) (A) (A) (A) (A) (A) (A) (A) (A) (A) (A)
                 (A) (A) (A) (A) (A) (A) (A) (A) (A) (A) (A) (A)
                 (A) (A) (A) (A) (A) (A) (A) (A) (A) (A) (A) (A)
                 (A) (A) (A) (A) (A) (A) (A) (A) (A) (A) (A) (A)
                 (A) (A) (A) (A) (A) (A) (A) (A) (A) (A) (A) (A)
                 (A) (A) (A) (A) (A) (A) (A) (A) (A) (A) (A) (A)
                 (A) (A) (A) (A) (A) (A) (A) (A) (A) (A) (A) (A)
                 (A) (A) (A) (A) (A) (A) (A) (A) (A) (A) (A) (A)
                 (A) (A) (A) (A) (A) (A) (A) (A) (A) (A) (A) (A)
                 (A) (A) (A) (A) (A) (A) (A) (A) (A) (A) (A) (A)
                 (A) (A) (A) (A) (A) (A) (A) (A) (A) (A) (A) (A)
                 (A) (A) (A) (A) (A) (A) (A) (A) (A) (A) (A) (A)
                 (A) (A) (A) (A) (A) (A) (A) (A) (A) (A) (A) (A)
                 (A) (A) (A) (A) (A) (A) (A) (A) (A) (A) (A) (A)
                 (A) (A) (A) (A) (A) (A) (A) (A) (A) (A) (A) (A)
                 (A) (A) (A) (A) (A) (A)
       Virtual   (A) (A) (A) (A) (A) (A) (A) (A) (A) (A) (A) (A)
                 (A) (A) (A) (A) (A) (A) (A) (A) (A) (A) (A) (A)
                 (A) (A) (A) (A) (A) (A) (A) (A) (A) (A) (A) (A)
                 (A) (A) (A) (A) (A) (A) (A) (A) (A) (A) (A) (A)
                 (A) (A) (A) (A) (A) (A) (A) (A) (A) (A) (A) (A)
                 (A) (A) (A) (A) (A) (A) (A) (A) (A) (A) (A) (A)
                 (A) (A) (A) (A) (A) (A) (A) (A) (A) (A) (A) (A)
                 (A) (A) (A) (A) (A) (A) (A) (A) (A) (A) (A) (A)
                 (A) (A) (A) (A) (A) (A) (A) (A) (A) (A) (A) (A)
                 (A) (A) (A) (A) (A) (A) (A) (A) (A) (A) (A) (A)
                 (A) (A) (A) (A) (A) (A) (A) (A) (A) (A) (A) (A)
                 (A) (A) (A) (A) (A) (A) (A) (A) (A) (A) (A) (A)
                 (A) (A) (A) (A) (A) (A) (A) (A) (A) (A) (A) (A)
                 (A) (A) (A) (A) (A) (A) (A) (A) (A) (A) (A) (A)
                 (A) (A) (A) (A) (A) (A) (A) (A) (A) (A) (A) (A)
                 (A) (A) (A) (A) (A) (A) (A) (A) (A) (A) (A) (A)
                 (A) (A) (A) (A) (A) (A) (A) (A) (A) (A) (A) (A)
                 (A) (A) (A) (A) (A) (A) (A) (A) (A) (A) (A) (A)
                 (A) (A) (A) (A) (A) (A) (A) (A) (A) (A) (A) (A)
                 (A) (A) (A) (A) (A) (A) (A) (A) (A) (A) (A) (A)
                 (A) (A) (A) (A) (A) (A) (A) (A) (A) (A) (A) (A)
                 (A) (A) (A) (A) (A) (A) (A) (A) (A) (A) (A) (A)
                 (A) (A) (A) (A) (A) (A) (A) (A) (A) (A) (A) (A)
                 (A) (A) (A) (A) (A) (A) (A) (A) (A) (A) (A) (A)
                 (A) (A) (A) (A) (A) (A) (A) (A) (A) (A) (A) (A)
                 (A) (A) (A) (A) (A) (A) (A) (A) (A) (A) (A) (A)
                 (A) (A) (A) (A) (A) (A) (A) (A) (A) (A) (A) (A)
                 (A) (A) (A) (A) (A) (A) (A) (A) (A) (A) (A) (A)
                 (A) (A) (A) (A) (A) (A) (A) (A) (A) (A) (A) (A)
                 (A) (A) (A) (A) (A) (A) (A) (A) (A) (A) (A) (A)
                 (A) (A) (A) (A) (A) (A) (A) (A) (A) (A) (A) (A)
                 (A) (A) (A) (A) (A) (A) (A) (A) (A) (A) (A) (A)
                 (A) (A) (A) (A) (A) (A) (A) (A) (A) (A) (A) (A)
                 (A) (A) (A) (A) (A) (A) (A) (A) (A) (A) (A) (A)
                 (A) (A) (A) (A) (A) (A) (A) (A) (A) (A) (A) (A)
                 (A) (A) (A) (A) (A) (A) (A) (A) (A) (A) (A) (A)
                 (A) (A) (A) (A) (A) (A) (A) (A) (A) (A) (A) (A)
                 (A) (A) (A) (A) (A) (A) (A) (A) (A) (A) (A) (A)
                 (A) (A) (A) (A) (A) (A) (A) (A) (A) (A) (A) (A)
                 (A) (A) (A) (A) (A) (A) (A) (A) (A) (A) (A) (A)
                 (A) (A) (A) (A) (A) (A) (A) (A) (A) (A) (A) (A)
                 (A) (A) (A) (A) (A) (A) (A) (A) (A) (A) (A) (A)
                 (A) (A) (A) (A) (A) (A) (A) (A) (A) (A) (A) (A)
                 (A) (A) (A) (A) (A) (A) (A) (A) (A) (A) (A) (A)
                 (A) (A) (A) (A) (A) (A) (A) (A) (A) (A) (A) (A)
                 (A) (A) (A) (A) (A) (A) (A) (A) (A) (A) (A) (A)
                 (A) (A) (A) (A) (A) (A) (A) (A) (A) (A) (A) (A)
                 (A) (A) (A) (A) (A) (A) (A) (A) (A) (A) (A) (A)
                 (A) (A) (A) (A) (A) (A) (A) (A) (A) (A) (A) (A)
                 (A) (A) (A) (A) (A) (A) (A) (A) (A) (A) (A) (A)
                 (A) (A) (A) (A) (A) (A) (A) (A) (A) (A) (A) (A)
                 (A) (A) (A) (A) (A) (A) (A) (A) (A) (A) (A) (A)
                 (A) (A) (A) (A) (A) (A) (A) (A) (A) (A) (A) (A)
                 (A) (A) (A) (A) (A) (A) (A) (A) (A) (A) (A) (A)
                 (A) (A) (A) (A) (A) (A) (A) (A) (A) (A) (A) (A)
                 (A) (A) (A) (A) (A) (A) (A) (A) (A) (A) (A) (A)
                 (A) (A) (A) (A) (A) (A) (A) (A) (A) (A) (A) (A)
                 (A) (A) (A) (A) (A) (A) (A) (A) (A) (A) (A) (A)
                 (A) (A) (A) (A) (A) (A) (A) (A) (A) (A) (A) (A)
                 (A) (A) (A) (A) (A) (A) (A) (A) (A) (A) (A) (A)
                 (A) (A) (A) (A) (A) (A) (A) (A) (A) (A) (A) (A)
                 (A) (A) (A) (A) (A) (A) (A) (A) (A) (A) (A) (A)
                 (A) (A) (A) (A) (A) (A) (A) (A) (A) (A) (A) (A)
                 (A) (A) (A) (A) (A) (A) (A) (A) (A) (A) (A) (A)
                 (A) (A) (A) (A) (A) (A) (A) (A) (A) (A) (A) (A)
                 (A) (A) (A) (A) (A) (A) (A) (A) (A) (A) (A) (A)
                 (A) (A) (A) (A) (A) (A) (A) (A) (A) (A) (A) (A)
                 (A) (A) (A) (A) (A) (A) (A) (A) (A) (A) (A) (A)
                 (A) (A) (A) (A) (A) (A) (A) (A) (A) (A) (A) (A)
                 (A) (A) (A) (A) (A) (A) (A) (A) (A) (A) (A) (A)
                 (A) (A) (A) (A) (A) (A) (A) (A) (A) (A) (A) (A)
                 (A) (A) (A) (A) (A) (A) (A) (A) (A) (A) (A) (A)
                 (A) (A) (A) (A) (A) (A) (A) (A) (A) (A) (A) (A)
                 (A) (A) (A) (A) (A) (A) (A) (A) (A) (A) (A) (A)
                 (A) (A) (A) (A) (A) (A) (A) (A) (A) (A) (A) (A)
                 (A) (A) (A) (A) (A) (A) (A) (A) (A) (A) (A) (A)
                 (A) (A) (A) (A) (A) (A) (A) (A) (A) (A) (A) (A)
                 (A) (A) (A) (A) (A) (A) (A) (A) (A) (A) (A) (A)
                 (A) (A) (A) (A) (A) (A) (A) (A) (A) (A) (A) (A)
                 (A) (A) (A) (A) (A) (A) (A) (A) (A) (A) (A) (A)
                 (A) (A) (A) (A) (A) (A) (A) (A) (A) (A) (A) (A)
                 (A) (A) (A) (A) (A) (A) (A) (A) (A) (A) (A) (A)
                 (A) (A) (A) (A) (A) (A) (A) (A) (A) (A) (A) (A)
                 (A) (A) (A) (A) (A) (A) (A) (A) (A) (A) (A) (A)
                 (A) (A) (A) (A) (A) (A) (A) (A) (A) (A) (A) (A)
                 (A) (A) (A) (A) (A) (A) (A) (A) (A) (A) (A) (A)
                 (A) (A) (A) (A) (A) (A) (A) (A) (A) (A) (A) (A)
                 (A) (A) (A) (A) (A) (A) (A) (A)
    20 initial guesses have been made.
 Convergence on wavefunction:    0.001000000000000
 Davidson Disk Diagonalization:  ConvIn= 1.00D-03 SkipCon=T Conv= 1.00D-03.
 Max sub-space:  2000 roots to seek:    20 dimension of matrix:       370304
 Iteration     1 Dimension    20 NMult     0 NNew     20
 CISAX will form    20 AO SS matrices at one time.
 NMat=    20 NSing=    20 JSym2X= 0.
 FoFJK:  IHMeth= 1 ICntrl=       0 DoSepK=T KAlg= 0 I1Cent=           0 FoldK=F
 IRaf=         1 NMat=      40 IRICut=       1 DoRegI=T DoRafI=F ISym2E= 0 IDoP0=3 IntGTp=3.
 FoFCou: FMM=T IPFlag=           0 FMFlag=      100000 FMFlg1=        2001
         NFxFlg=           0 DoJE=F BraDBF=F KetDBF=F FulRan=T
         wScrn=  0.000000 ICntrl=       500 IOpCl=  0 I1Cent=           0 NGrid=           0
         NMat0=   20 NMatS0=     20 NMatT0=    0 NMatD0=   20 NMtDS0=    0 NMtDT0=    0
 Symmetry not used in FoFCou.
 FMM levels:  10  Number of levels for PrismC:   9
 New state      3 was old state      4
 New state      4 was old state      8
 New state      5 was old state      7
 Excitation Energies [eV] at current iteration:
 Root      1 :     2.196996798964551
 Root      2 :     2.695360461896207
 Root      3 :     3.701234738034477
 Root      4 :     4.044140550345730
 Root      5 :     4.249147103705971
 Root      6 :     4.350236842166410
 Root      7 :     4.396031659254694
 Root      8 :     4.470095774866031
 Root      9 :     4.521768704580462
 Root     10 :     4.618777998480922
 Root     11 :     4.884206420429638
 Root     12 :     4.934467997693695
 Root     13 :     5.062110988555644
 Root     14 :     5.111065787531396
 Root     15 :     5.313542599381865
 Root     16 :     5.411198942368394
 Root     17 :     5.635900121562552
 Root     18 :     6.107340764127350
 Root     19 :     6.888178416401670
 Root     20 :     6.985293520048828
 Iteration     2 Dimension    30 NMult    20 NNew     10
 CISAX will form    10 AO SS matrices at one time.
 NMat=    10 NSing=    10 JSym2X= 0.
 Root      1 not converged, maximum delta is    0.072823597428117
 Root      2 not converged, maximum delta is    0.052839215006106
 Root      3 not converged, maximum delta is    0.097440508006551
 Root      4 not converged, maximum delta is    0.207720813094603
 Root      5 not converged, maximum delta is    0.301440263563059
 Excitation Energies [eV] at current iteration:
 Root      1 :     1.713835665663528   Change is   -0.483161133301023
 Root      2 :     2.308962275180975   Change is   -0.386398186715232
 Root      3 :     3.355201586113036   Change is   -0.346033151921442
 Root      4 :     3.536738262852915   Change is   -0.507402287492816
 Root      5 :     3.669975275130069   Change is   -0.579171828575901
 Iteration     3 Dimension    40 NMult    30 NNew     10
 CISAX will form    10 AO SS matrices at one time.
 NMat=    10 NSing=    10 JSym2X= 0.
 Root      1 not converged, maximum delta is    0.018478897645737
 Root      2 not converged, maximum delta is    0.009561436145412
 Root      3 not converged, maximum delta is    0.018280219396967
 Root      4 not converged, maximum delta is    0.065068559694859
 Root      5 not converged, maximum delta is    0.060658777987810
 Excitation Energies [eV] at current iteration:
 Root      1 :     1.677453032700169   Change is   -0.036382632963359
 Root      2 :     2.292222754873979   Change is   -0.016739520306996
 Root      3 :     3.339376780724687   Change is   -0.015824805388349
 Root      4 :     3.486751058444117   Change is   -0.049987204408797
 Root      5 :     3.601358174672386   Change is   -0.068617100457684
 Iteration     4 Dimension    50 NMult    40 NNew     10
 CISAX will form    10 AO SS matrices at one time.
 NMat=    10 NSing=    10 JSym2X= 0.
 Root      1 not converged, maximum delta is    0.003939304928698
 Root      2 not converged, maximum delta is    0.004257340918576
 Root      3 not converged, maximum delta is    0.009023569683418
 Root      4 not converged, maximum delta is    0.071631276324683
 Root      5 not converged, maximum delta is    0.131280580248276
 Excitation Energies [eV] at current iteration:
 Root      1 :     1.673557327034424   Change is   -0.003895705665745
 Root      2 :     2.289680310085266   Change is   -0.002542444788713
 Root      3 :     3.335517127195868   Change is   -0.003859653528818
 Root      4 :     3.467445269662631   Change is   -0.019305788781487
 Root      5 :     3.555585665654405   Change is   -0.045772509017980
 Iteration     5 Dimension    60 NMult    50 NNew     10
 CISAX will form    10 AO SS matrices at one time.
 NMat=    10 NSing=    10 JSym2X= 0.
 Root      1 not converged, maximum delta is    0.001279403208727
 Root      2 has converged.
 Root      3 not converged, maximum delta is    0.005272666813560
 Root      4 not converged, maximum delta is    0.059016785647956
 Root      5 not converged, maximum delta is    0.117851155810043
 Excitation Energies [eV] at current iteration:
 Root      1 :     1.673211078372367   Change is   -0.000346248662057
 Root      2 :     2.289466623637305   Change is   -0.000213686447960
 Root      3 :     3.334903166207101   Change is   -0.000613960988768
 Root      4 :     3.457397870613878   Change is   -0.010047399048753
 Root      5 :     3.535520881742262   Change is   -0.020064783912143
 Iteration     6 Dimension    68 NMult    60 NNew      8
 CISAX will form     8 AO SS matrices at one time.
 NMat=     8 NSing=     8 JSym2X= 0.
 Root      1 has converged.
 Root      2 has converged.
 Root      3 not converged, maximum delta is    0.001960929351893
 Root      4 not converged, maximum delta is    0.020503284696460
 Root      5 not converged, maximum delta is    0.026887494768511
 Excitation Energies [eV] at current iteration:
 Root      1 :     1.673173544670713   Change is   -0.000037533701654
 Root      2 :     2.289460982420949   Change is   -0.000005641216357
 Root      3 :     3.334788702628634   Change is   -0.000114463578467
 Root      4 :     3.453908791253622   Change is   -0.003489079360256
 Root      5 :     3.532004736276095   Change is   -0.003516145466167
 Iteration     7 Dimension    74 NMult    68 NNew      6
 CISAX will form     6 AO SS matrices at one time.
 NMat=     6 NSing=     6 JSym2X= 0.
 Root      1 has converged.
 Root      2 has converged.
 Root      3 not converged, maximum delta is    0.001790811409136
 Root      4 not converged, maximum delta is    0.016583458497510
 Root      5 not converged, maximum delta is    0.019123100329977
 Excitation Energies [eV] at current iteration:
 Root      1 :     1.673173009992588   Change is   -0.000000534678125
 Root      2 :     2.289459682034978   Change is   -0.000001300385971
 Root      3 :     3.334753246645465   Change is   -0.000035455983170
 Root      4 :     3.452611742382147   Change is   -0.001297048871474
 Root      5 :     3.531142940118046   Change is   -0.000861796158049
 Iteration     8 Dimension    80 NMult    74 NNew      6
 CISAX will form     6 AO SS matrices at one time.
 NMat=     6 NSing=     6 JSym2X= 0.
 Root      1 has converged.
 Root      2 has converged.
 Root      3 has converged.
 Root      4 not converged, maximum delta is    0.009952921669694
 Root      5 not converged, maximum delta is    0.014566687720413
 Excitation Energies [eV] at current iteration:
 Root      1 :     1.673172869951058   Change is   -0.000000140041530
 Root      2 :     2.289458720251842   Change is   -0.000000961783136
 Root      3 :     3.334743331492978   Change is   -0.000009915152487
 Root      4 :     3.452178900477243   Change is   -0.000432841904904
 Root      5 :     3.530817397583395   Change is   -0.000325542534652
 Iteration     9 Dimension    84 NMult    80 NNew      4
 CISAX will form     4 AO SS matrices at one time.
 NMat=     4 NSing=     4 JSym2X= 0.
 Root      1 has converged.
 Root      2 has converged.
 Root      3 has converged.
 Root      4 not converged, maximum delta is    0.003360254179156
 Root      5 not converged, maximum delta is    0.006674481565602
 Excitation Energies [eV] at current iteration:
 Root      1 :     1.673172835397104   Change is   -0.000000034553954
 Root      2 :     2.289458109216604   Change is   -0.000000611035237
 Root      3 :     3.334741858360161   Change is   -0.000001473132817
 Root      4 :     3.452077674530637   Change is   -0.000101225946606
 Root      5 :     3.530711199046005   Change is   -0.000106198537390
 Iteration    10 Dimension    88 NMult    84 NNew      4
 CISAX will form     4 AO SS matrices at one time.
 NMat=     4 NSing=     4 JSym2X= 0.
 Root      1 has converged.
 Root      2 has converged.
 Root      3 has converged.
 Root      4 has converged.
 Root      5 not converged, maximum delta is    0.001576581111655
 Excitation Energies [eV] at current iteration:
 Root      1 :     1.673172771091131   Change is   -0.000000064305973
 Root      2 :     2.289457702807562   Change is   -0.000000406409043
 Root      3 :     3.334741671442549   Change is   -0.000000186917612
 Root      4 :     3.452063111672939   Change is   -0.000014562857699
 Root      5 :     3.530691659287733   Change is   -0.000019539758272
 Iteration    11 Dimension    90 NMult    88 NNew      2
 CISAX will form     2 AO SS matrices at one time.
 NMat=     2 NSing=     2 JSym2X= 0.
 Root      1 has converged.
 Root      2 has converged.
 Root      3 has converged.
 Root      4 has converged.
 Root      5 has converged.
 Excitation Energies [eV] at current iteration:
 Root      1 :     1.673172760700152   Change is   -0.000000010390979
 Root      2 :     2.289457639368219   Change is   -0.000000063439343
 Root      3 :     3.334741630410277   Change is   -0.000000041032272
 Root      4 :     3.452061285757387   Change is   -0.000001825915552
 Root      5 :     3.530688270482989   Change is   -0.000003388804744
 Convergence achieved on expansion vectors.
 ***********************************************************************
 Excited states from <AA,BB:AA,BB> singles matrix:
 ***********************************************************************
 
 1PDM for each excited state written to RWF  633
 Ground to excited state transition densities written to RWF  633
 Ground to excited state transition electric dipole moments (Au):
       state          X           Y           Z        Dip. S.      Osc.
         1        -1.6638      2.3405     -0.6905      8.7227      0.3576
         2         0.4666      0.6253      0.6029      0.9721      0.0545
         3         0.2471      0.1450      0.1881      0.1174      0.0096
         4        -0.9978     -1.0025     -0.8248      2.6809      0.2267
         5         1.1902      1.7764      1.2879      6.2308      0.5390
 Ground to excited state transition velocity dipole moments (Au):
       state          X           Y           Z        Dip. S.      Osc.
         1         0.0982     -0.1393      0.0414      0.0308      0.3334
         2        -0.0374     -0.0490     -0.0475      0.0061      0.0480
         3        -0.0275     -0.0169     -0.0189      0.0014      0.0076
         4         0.1211      0.1245      0.1044      0.0411      0.2157
         5        -0.1514     -0.2260     -0.1603      0.0997      0.5122
 Ground to excited state transition magnetic dipole moments (Au):
       state          X           Y           Z
         1        -0.3778     -0.5409     -0.9268
         2        -0.7312      0.2484      0.3179
         3        -0.4636      0.0410      0.3103
         4        -0.1697     -0.9660      0.9251
         5        -1.2682      2.0510     -1.8101
 Ground to excited state transition velocity quadrupole moments (Au):
       state          XX          YY          ZZ          XY          XZ          YZ
         1         1.5800     -0.6775     -0.1366     -0.8031      0.2012      0.2943
         2        -0.6124     -0.1361      0.0632     -0.5043     -0.4098     -0.0945
         3        -0.1711     -0.4256      0.0315     -0.1261     -0.0322     -0.2653
         4         1.6467      0.1746     -0.0369      1.1159      0.9502      0.1119
         5        -2.0311     -0.9143      0.2481     -1.6367     -1.2930     -0.1766
 <0|del|b> * <b|rxdel|0> + <0|del|b> * <b|delr+rdel|0>
[...]
 Alpha virt. eigenvalues --    1.21811   1.22524   1.22738   1.23148   1.23752
 Alpha virt. eigenvalues --    1.24169   1.24295   1.24642   1.25752   1.26036
 Alpha virt. eigenvalues --    1.26616   1.27616   1.28372   1.28524   1.28945
 Alpha virt. eigenvalues --    1.29443   1.29744   1.30041   1.30735   1.31245
 Alpha virt. eigenvalues --    1.31928   1.32262   1.32865   1.33152   1.33411
 Alpha virt. eigenvalues --    1.33799   1.34089   1.34316   1.34749   1.35217
 Alpha virt. eigenvalues --    1.35509   1.36231   1.36700   1.37351   1.38002
 Alpha virt. eigenvalues --    1.38423   1.38718   1.39001   1.39842   1.39961
 Alpha virt. eigenvalues --    1.40738   1.41090   1.41378   1.41911   1.42325
 Alpha virt. eigenvalues --    1.43086   1.43258   1.43373   1.43494   1.44025
 Alpha virt. eigenvalues --    1.44651   1.44733   1.45032   1.45716   1.46113
 Alpha virt. eigenvalues --    1.46221   1.46424   1.47151   1.47540   1.47599
 Alpha virt. eigenvalues --    1.48058   1.48343   1.48812   1.49525   1.49833
 Alpha virt. eigenvalues --    1.50009   1.50347   1.50749   1.51079   1.51457
 Alpha virt. eigenvalues --    1.51542   1.52067   1.52340   1.52661   1.53166
 Alpha virt. eigenvalues --    1.54119   1.54787   1.55145   1.55453   1.56244
 Alpha virt. eigenvalues --    1.56449   1.56984   1.57179   1.57418   1.57861
 Alpha virt. eigenvalues --    1.58257   1.58921   1.59081   1.59880   1.60234
 Alpha virt. eigenvalues --    1.60579   1.60796   1.61125   1.61243   1.61336
 Alpha virt. eigenvalues --    1.61619   1.61698   1.62203   1.62344   1.62804
 Alpha virt. eigenvalues --    1.63568   1.63633   1.63990   1.64017   1.64109
 Alpha virt. eigenvalues --    1.64406   1.64736   1.65013   1.65075   1.65360
 Alpha virt. eigenvalues --    1.65610   1.65668   1.66379   1.66603   1.66835
 Alpha virt. eigenvalues --    1.67022   1.67158   1.67542   1.67930   1.68119
 Alpha virt. eigenvalues --    1.68823   1.69057   1.69631   1.70330   1.70769
 Alpha virt. eigenvalues --    1.70989   1.71375   1.71981   1.72357   1.72681
 Alpha virt. eigenvalues --    1.73614   1.74091   1.74335   1.74639   1.75301
 Alpha virt. eigenvalues --    1.75395   1.76094   1.76448   1.76523   1.76805
 Alpha virt. eigenvalues --    1.76997   1.77489   1.77877   1.77987   1.78819
 Alpha virt. eigenvalues --    1.79144   1.79305   1.79372   1.80090   1.80242
 Alpha virt. eigenvalues --    1.80669   1.80827   1.80995   1.81284   1.81785
 Alpha virt. eigenvalues --    1.81961   1.82364   1.82567   1.82733   1.83102
 Alpha virt. eigenvalues --    1.83391   1.83501   1.83731   1.84041   1.84256
 Alpha virt. eigenvalues --    1.84428   1.84519   1.84715   1.84982   1.85027
 Alpha virt. eigenvalues --    1.85188   1.85390   1.85731   1.85842   1.85955
 Alpha virt. eigenvalues --    1.86073   1.86569   1.86599   1.86978   1.87205
 Alpha virt. eigenvalues --    1.87499   1.87708   1.87866   1.88099   1.88288
 Alpha virt. eigenvalues --    1.88474   1.88543   1.88702   1.89070   1.89250
 Alpha virt. eigenvalues --    1.89501   1.89660   1.89752   1.89909   1.90143
 Alpha virt. eigenvalues --    1.90427   1.90564   1.90694   1.91188   1.91422
 Alpha virt. eigenvalues --    1.91804   1.91810   1.92218   1.92299   1.92564
 Alpha virt. eigenvalues --    1.92605   1.92868   1.93168   1.93523   1.93787
 Alpha virt. eigenvalues --    1.94005   1.94174   1.94316   1.94500   1.94690
 Alpha virt. eigenvalues --    1.95118   1.95231   1.95535   1.95584   1.95808
 Alpha virt. eigenvalues --    1.95994   1.96321   1.96394   1.96566   1.96749
 Alpha virt. eigenvalues --    1.96947   1.97310   1.97557   1.97993   1.98190
 Alpha virt. eigenvalues --    1.98339   1.98635   1.98794   1.99079   1.99097
 Alpha virt. eigenvalues --    1.99434   1.99757   2.00083   2.00235   2.00378
 Alpha virt. eigenvalues --    2.00543   2.01080   2.01406   2.01653   2.02000
 Alpha virt. eigenvalues --    2.02032   2.02408   2.02461   2.02873   2.03202
 Alpha virt. eigenvalues --    2.03286   2.03865   2.04167   2.04325   2.04648
 Alpha virt. eigenvalues --    2.04976   2.06060   2.06156   2.06262   2.06532
 Alpha virt. eigenvalues --    2.06884   2.07322   2.07459   2.07789   2.07935
 Alpha virt. eigenvalues --    2.08080   2.08386   2.08649   2.08810   2.09093
 Alpha virt. eigenvalues --    2.09483   2.09857   2.10172   2.10418   2.10687
 Alpha virt. eigenvalues --    2.11267   2.11365   2.11438   2.11588   2.12116
 Alpha virt. eigenvalues --    2.12406   2.12612   2.13271   2.13538   2.13741
 Alpha virt. eigenvalues --    2.13825   2.14008   2.14569   2.14590   2.15408
 Alpha virt. eigenvalues --    2.15513   2.15641   2.16100   2.16704   2.16821
 Alpha virt. eigenvalues --    2.17060   2.17239   2.17501   2.17759   2.18155
 Alpha virt. eigenvalues --    2.18594   2.18629   2.18890   2.19206   2.19911
 Alpha virt. eigenvalues --    2.20212   2.20336   2.20508   2.20905   2.20984
 Alpha virt. eigenvalues --    2.21434   2.21680   2.22080   2.22215   2.22405
 Alpha virt. eigenvalues --    2.23150   2.23441   2.23870   2.23989   2.24249
 Alpha virt. eigenvalues --    2.24517   2.24635   2.25282   2.25488   2.25602
 Alpha virt. eigenvalues --    2.26309   2.27094   2.27666   2.27965   2.28242
 Alpha virt. eigenvalues --    2.28681   2.29293   2.29445   2.29903   2.30599
 Alpha virt. eigenvalues --    2.30887   2.31126   2.31381   2.31756   2.32376
 Alpha virt. eigenvalues --    2.32983   2.33448   2.33911   2.34031   2.34092
 Alpha virt. eigenvalues --    2.34674   2.35309   2.35431   2.35922   2.36136
 Alpha virt. eigenvalues --    2.36552   2.36771   2.37115   2.37260   2.37585
 Alpha virt. eigenvalues --    2.37884   2.38480   2.38699   2.39345   2.40191
 Alpha virt. eigenvalues --    2.40316   2.40769   2.41301   2.41453   2.41792
 Alpha virt. eigenvalues --    2.42743   2.42899   2.43486   2.43694   2.43784
 Alpha virt. eigenvalues --    2.44032   2.44258   2.44653   2.44996   2.45273
 Alpha virt. eigenvalues --    2.45786   2.46082   2.46729   2.47013   2.47044
 Alpha virt. eigenvalues --    2.47368   2.47453   2.48786   2.49147   2.49497
 Alpha virt. eigenvalues --    2.49751   2.50622   2.51117   2.51487   2.51733
 Alpha virt. eigenvalues --    2.52055   2.52078   2.52775   2.53067   2.53524
 Alpha virt. eigenvalues --    2.53887   2.54033   2.54455   2.54711   2.55109
 Alpha virt. eigenvalues --    2.55317   2.55624   2.56135   2.56242   2.57058
 Alpha virt. eigenvalues --    2.57851   2.57887   2.58271   2.58409   2.59189
 Alpha virt. eigenvalues --    2.59603   2.59637   2.60546   2.61001   2.61031
 Alpha virt. eigenvalues --    2.61603   2.61686   2.61804   2.62454   2.63040
 Alpha virt. eigenvalues --    2.63463   2.63793   2.64481   2.64880   2.65726
 Alpha virt. eigenvalues --    2.65974   2.66215   2.66330   2.67057   2.67411
 Alpha virt. eigenvalues --    2.67766   2.67851   2.68200   2.68520   2.68648
 Alpha virt. eigenvalues --    2.69062   2.69566   2.70180   2.70637   2.70990
 Alpha virt. eigenvalues --    2.71195   2.71461   2.72158   2.72348   2.72592
 Alpha virt. eigenvalues --    2.73176   2.73433   2.73949   2.74610   2.74767
 Alpha virt. eigenvalues --    2.74993   2.76246   2.76802   2.77472   2.77707
 Alpha virt. eigenvalues --    2.77944   2.78339   2.79015   2.79167   2.79791
 Alpha virt. eigenvalues --    2.79918   2.80143   2.80537   2.80794   2.81099
 Alpha virt. eigenvalues --    2.81753   2.81871   2.82441   2.82594   2.82760
 Alpha virt. eigenvalues --    2.83308   2.83327   2.83897   2.84245   2.84412
 Alpha virt. eigenvalues --    2.85059   2.85094   2.87272   2.87400   2.88511
 Alpha virt. eigenvalues --    2.89010   2.89553   2.89800   2.90078   2.90610
 Alpha virt. eigenvalues --    2.90780   2.91621   2.92472   2.93474   2.93768
 Alpha virt. eigenvalues --    2.94040   2.94309   2.94657   2.95596   2.96346
 Alpha virt. eigenvalues --    2.96596   2.96871   2.97290   2.97731   2.98157
 Alpha virt. eigenvalues --    2.98237   2.98635   2.98805   2.99058   2.99166
 Alpha virt. eigenvalues --    2.99382   2.99669   3.00429   3.00460   3.01093
 Alpha virt. eigenvalues --    3.01446   3.01610   3.02304   3.02539   3.02992
 Alpha virt. eigenvalues --    3.03184   3.03609   3.03831   3.04153   3.04236
 Alpha virt. eigenvalues --    3.04314   3.04531   3.04645   3.04857   3.05587
 Alpha virt. eigenvalues --    3.05760   3.06279   3.06342   3.06780   3.06943
 Alpha virt. eigenvalues --    3.07070   3.07081   3.07265   3.07354   3.08057
 Alpha virt. eigenvalues --    3.08135   3.08898   3.09016   3.09338   3.09607
 Alpha virt. eigenvalues --    3.10479   3.10665   3.10837   3.10959   3.11175
 Alpha virt. eigenvalues --    3.12162   3.13243   3.13928   3.14025   3.14272
 Alpha virt. eigenvalues --    3.14509   3.14643   3.15124   3.15355   3.15545
 Alpha virt. eigenvalues --    3.15717   3.17819   3.18119   3.19953   3.20597
 Alpha virt. eigenvalues --    3.21018   3.21222   3.21986   3.22923   3.23097
 Alpha virt. eigenvalues --    3.23842   3.24489   3.24886   3.25588   3.26047
 Alpha virt. eigenvalues --    3.27334   3.27549   3.27810   3.29044   3.30973
 Alpha virt. eigenvalues --    3.33166   3.33934   3.43695   3.45024   3.45896
 Alpha virt. eigenvalues --    3.47433   3.49312   3.49777   3.56653   3.59178
 Alpha virt. eigenvalues --    3.62511   3.69033   3.69938   3.70570   3.71626
 Alpha virt. eigenvalues --    3.72439   3.77432
          Condensed to atoms (all electrons):
 Mulliken charges:
               1
     1  Mg   0.932495
     2  C    0.000445
     3  C   -0.082123
     4  C   -0.093059
     5  C   -0.089193
     6  N   -0.344481
     7  C   -0.033365
     8  C   -0.020630
     9  C   -0.127985
    10  C    0.069671
    11  C    0.023553
    12  C   -0.012382
    13  C    0.054346
    14  C    0.213087
    15  O   -0.263781
    16  O   -0.378040
    17  N   -0.461067
    18  C    0.185087
    19  C   -0.162966
    20  C   -0.075591
    21  C    0.157230
    22  C    0.080516
    23  C    0.043433
    24  O   -0.255212
    25  C   -0.006465
    26  N   -0.373266
    27  C    0.118561
    28  C   -0.117987
    29  C   -0.057022
    30  C    0.071961
    31  C    0.013207
    32  C   -0.011468
    33  C   -0.056778
    34  N   -0.440021
    35  C    0.137714
    36  C   -0.193200
    37  C   -0.037356
    38  C    0.138805
    39  C    0.081280
    40  C    0.122189
    41  O   -0.219183
    42  C   -0.046233
    43  C    0.232129
    44  O   -0.246056
    45  O   -0.350416
    46  C    0.136431
    47  C    0.244168
    48  C   -0.153039
    49  C   -0.200287
    50  C    0.050009
    51  C   -0.010811
    52  C   -0.037927
    53  C    0.070074
    54  C   -0.168183
    55  C    0.001122
    56  C    0.021114
    57  C   -0.047951
    58  C    0.045091
    59  C   -0.214181
    60  C    0.043656
    61  C   -0.013873
    62  C   -0.009069
    63  C    0.054776
    64  C   -0.255444
    65  C    0.007643
    66  C   -0.017580
    67  H   -0.000155
    68  H   -0.040133
    69  H   -0.014350
    70  H    0.035510
    71  H    0.034467
    72  H    0.046907
    73  H    0.047390
    74  H    0.040453
    75  H    0.035818
    76  H    0.073890
    77  H    0.044200
    78  H    0.043171
    79  H    0.047895
    80  H    0.064906
    81  H    0.038723
    82  H    0.070567
    83  H    0.051182
    84  H    0.069471
    85  H    0.051397
    86  H    0.029254
    87  H    0.044464
    88  H    0.033287
    89  H    0.039967
    90  H    0.053073
    91  H    0.030112
    92  H    0.041147
    93  H    0.034212
    94  H    0.041627
    95  H    0.039236
    96  H    0.025930
    97  H    0.055765
    98  H    0.070624
    99  H    0.026313
   100  H    0.079328
   101  H    0.051709
   102  H    0.050556
   103  H    0.062870
   104  H    0.029367
   105  H    0.029087
   106  H    0.033618
   107  H    0.041645
   108  H    0.026120
   109  H    0.027264
   110  H    0.028926
   111  H    0.031011
   112  H    0.014675
   113  H    0.032737
   114  H    0.037022
   115  H    0.015099
   116  H    0.019340
   117  H    0.037826
   118  H    0.011185
   119  H   -0.001157
   120  H    0.017264
   121  H    0.004874
   122  H   -0.002441
   123  H    0.013001
   124  H    0.002462
   125  H    0.036090
   126  H    0.022863
   127  H    0.018621
   128  H    0.012611
   129  H    0.012347
   130  H    0.016673
   131  H   -0.005974
   132  H    0.015548
   133  H    0.014503
   134  H    0.019569
   135  H    0.025769
   136  H    0.023334
   137  H    0.041665
   138  H    0.027764
   139  H    0.037831
   140  H    0.014957
 Sum of Mulliken charges =  -0.00000
 Mulliken charges with hydrogens summed into heavy atoms:
               1
     1  Mg   0.932495
     2  C    0.000445
     3  C   -0.082278
     4  C   -0.133192
     5  C   -0.103543
     6  N   -0.344481
     7  C   -0.033365
     8  C    0.014880
     9  C   -0.093518
    10  C    0.069671
    11  C    0.158303
    12  C    0.097326
    13  C    0.141717
    14  C    0.213087
    15  O   -0.263781
    16  O   -0.378040
    17  N   -0.461067
    18  C    0.185087
    19  C   -0.162966
    20  C   -0.075591
    21  C    0.157230
    22  C    0.232041
    23  C    0.043433
    24  O   -0.255212
    25  C    0.184755
    26  N   -0.373266
    27  C    0.118561
    28  C   -0.066591
    29  C   -0.027768
    30  C    0.071961
    31  C    0.130925
    32  C    0.071716
    33  C    0.060207
    34  N   -0.440021
    35  C    0.137714
    36  C   -0.193200
    37  C   -0.037356
    38  C    0.138805
    39  C    0.202211
    40  C    0.122189
    41  O   -0.219183
    42  C    0.024391
    43  C    0.232129
    44  O   -0.246056
    45  O   -0.350416
    46  C    0.293781
    47  C    0.357595
    48  C   -0.123672
    49  C   -0.200287
    50  C    0.154359
    51  C    0.042573
    52  C    0.022010
    53  C    0.117486
    54  C   -0.131161
    55  C    0.073387
    56  C    0.031142
    57  C   -0.025814
    58  C    0.055650
    59  C   -0.211719
    60  C    0.121231
    61  C    0.011086
    62  C    0.001630
    63  C    0.084827
    64  C   -0.235875
    65  C    0.098411
    66  C    0.062972
 Electronic spatial extent (au):  <R**2>=          95307.7011
 Charge=             -0.0000 electrons
 Dipole moment (field-independent basis, Debye):
    X=             -2.1753    Y=              4.5655    Z=              0.2776  Tot=              5.0649
 Quadrupole moment (field-independent basis, Debye-Ang):
   XX=           -405.4386   YY=           -425.7931   ZZ=           -376.6124
   XY=             60.8246   XZ=              2.9968   YZ=             15.3060
 Traceless Quadrupole moment (field-independent basis, Debye-Ang):
   XX=             -2.8239   YY=            -23.1784   ZZ=             26.0023
   XY=             60.8246   XZ=              2.9968   YZ=             15.3060
 Octapole moment (field-independent basis, Debye-Ang**2):
  XXX=            -19.4032  YYY=            -52.5364  ZZZ=            -21.7665  XYY=            -25.4324
  XXY=            239.9352  XXZ=            185.7583  XZZ=             68.6028  YZZ=            -36.0431
  YYZ=            100.7791  XYZ=             65.1685
 Hexadecapole moment (field-independent basis, Debye-Ang**3):
 XXXX=         -86968.6574 YYYY=         -32869.7353 ZZZZ=         -12217.3488 XXXY=           2443.6122
 XXXZ=            510.3824 YYYX=           1404.2616 YYYZ=            909.8840 ZZZX=              3.1807
 ZZZY=            103.1143 XXYY=         -20106.1533 XXZZ=         -16194.3853 YYZZ=          -7068.5703
 XXYZ=            146.0818 YYXZ=             11.5209 ZZXY=            148.7724
 N-N= 9.723351206070D+03 E-N=-2.643916186697D+04  KE= 2.975706562591D+03
 Leave Link  601 at Thu May  5 10:11:23 2022, MaxMem= 10066329600 cpu:              15.2 elap:               0.7
 (Enter /sw/apps/gaussian-16.0/g16/l9999.exe)
 1\1\GINC-BP1-COMPUTE192\SP\RwB97XD TD-FC\def2SVP\C55H74Mg1N4O6\OF15641
 \05-May-2022\0\\#p wB97XD/Def2SVP td=(nstates=5)\\step_801_chromophore
 _20 TDDFT with wB97XD functional\\0,1\Mg,0,5.941,55.928,41.64\C,0,5.91
 3,52.332,41.615\C,0,9.085,55.821,40.406\C,0,5.903,59.247,41.704\C,0,2.
 782,55.857,43.09\N,0,7.21,54.254,40.927\C,0,7.032,52.868,40.846\C,0,8.
 139,52.106,40.12\C,0,9.24,53.198,40.144\C,0,8.49,54.528,40.522\C,0,10.
 403,52.88,41.116\C,0,7.55,51.685,38.705\C,0,8.03,50.397,38.001\C,0,7.1
 57,49.906,36.876\O,0,6.509,48.866,36.919\O,0,7.12,50.787,35.809\N,0,7.
 273,57.354,40.997\C,0,8.558,57.071,40.644\C,0,9.29,58.362,40.548\C,0,8
 .318,59.403,40.613\C,0,7.071,58.67,41.194\C,0,10.773,58.528,40.35\C,0,
 8.458,60.917,40.328\O,0,9.561,61.333,39.952\C,0,7.323,61.934,40.378\N,
 0,4.409,57.366,41.949\C,0,4.69,58.666,42.033\C,0,3.39,59.473,42.336\C,
 0,2.458,58.31,42.912\C,0,3.264,57.078,42.661\C,0,3.646,60.653,43.287\C
 ,0,1.023,58.219,42.219\C,0,-0.151,58.137,43.182\N,0,4.451,54.447,42.08
 1\C,0,3.31,54.565,42.844\C,0,2.884,53.289,43.244\C,0,3.831,52.355,42.7
 62\C,0,4.827,53.093,42.076\C,0,1.665,52.969,44.089\C,0,4.246,50.921,42
 .723\O,0,3.688,49.964,43.272\C,0,5.614,50.907,42.009\C,0,5.467,49.875,
 40.97\O,0,4.647,49.911,40.067\O,0,6.354,48.866,41.201\C,0,6.189,47.779
 ,40.228\C,0,6.341,50.24,34.694\C,0,6.897,51.068,33.518\C,0,6.669,50.83
 2,32.241\C,0,5.561,49.988,31.679\C,0,7.274,51.777,31.166\C,0,6.46,53.0
 97,31.226\C,0,6.451,53.709,29.804\C,0,6.933,55.162,29.934\C,0,5.986,56
 .183,29.221\C,0,8.329,55.34,29.357\C,0,9.133,56.362,30.219\C,0,10.414,
 55.807,30.884\C,0,11.614,55.954,30.026\C,0,12.635,54.839,30.124\C,0,12
 .242,57.354,30.288\C,0,12.776,58.19,29.125\C,0,14.198,58.532,29.218\C,
 0,15.112,57.327,28.858\C,0,16.345,57.121,29.814\C,0,15.758,57.494,27.4
 04\H,0,10.147,55.815,40.149\H,0,6.045,60.327,41.783\H,0,1.808,55.895,4
 3.582\H,0,8.473,51.306,40.781\H,0,9.697,53.267,39.158\H,0,10.438,51.80
 3,41.278\H,0,10.238,53.501,41.996\H,0,11.353,53.207,40.691\H,0,7.77,52
 .553,38.083\H,0,6.466,51.601,38.629\H,0,8.22,49.652,38.773\H,0,8.978,5
 0.633,37.518\H,0,11.153,59.303,41.015\H,0,10.944,59.026,39.395\H,0,11.
 421,57.682,40.578\H,0,7.256,62.266,41.414\H,0,6.355,61.484,40.157\H,0,
 7.502,62.765,39.695\H,0,2.989,59.919,41.426\H,0,2.482,58.499,43.985\H,
 0,2.747,60.805,43.884\H,0,3.836,61.518,42.651\H,0,4.533,60.584,43.915\
 H,0,1.073,57.361,41.548\H,0,0.798,59.1,41.618\H,0,-0.831,58.984,43.087
 \H,0,0.157,58.091,44.227\H,0,-0.658,57.202,42.945\H,0,0.887,52.604,43.
 419\H,0,1.108,53.759,44.594\H,0,1.89,52.114,44.727\H,0,6.284,50.461,42
 .744\H,0,6.944,47.986,39.47\H,0,5.254,47.746,39.67\H,0,6.407,46.763,40
 .556\H,0,5.294,50.4,34.952\H,0,6.409,49.165,34.527\H,0,7.516,51.924,33
 .788\H,0,6.05,49.349,30.944\H,0,4.927,50.624,31.061\H,0,4.917,49.424,3
 2.354\H,0,7.455,51.221,30.247\H,0,8.271,51.931,31.579\H,0,6.869,53.629
 ,32.086\H,0,5.436,52.92,31.554\H,0,5.414,53.74,29.469\H,0,7.043,53.089
 ,29.131\H,0,7.017,55.428,30.987\H,0,5.457,56.681,30.034\H,0,5.108,55.7
 8,28.716\H,0,6.409,56.943,28.565\H,0,8.468,55.731,28.349\H,0,8.903,54.
 427,29.197\H,0,8.481,56.921,30.89\H,0,9.477,57.152,29.551\H,0,10.232,5
 4.741,31.022\H,0,10.676,56.164,31.88\H,0,11.324,56.,28.977\H,0,12.886,
 54.443,29.14\H,0,12.27,54.04,30.769\H,0,13.555,55.253,30.536\H,0,12.80
 9,57.262,31.214\H,0,11.44,58.011,30.624\H,0,12.17,59.03,28.785\H,0,12.
 649,57.572,28.236\H,0,14.413,58.804,30.252\H,0,14.351,59.349,28.514\H,
 0,14.502,56.424,28.824\H,0,17.189,56.832,29.187\H,0,16.047,56.235,30.3
 74\H,0,16.566,57.96,30.474\H,0,15.701,56.576,26.819\H,0,16.794,57.831,
 27.426\H,0,15.126,58.211,26.878\\Version=ES64L-G16RevA.03\State=1-A\HF
 =-3007.8348491\RMSD=8.937e-09\PG=C01 [X(C55H74Mg1N4O6)]\\@


 WE LEARN WISDOM FROM FAILURE MUCH MORE THAN FROM SUCCESS.
 WE DISCOVER WHAT WILL DO BY FINDING OUT WHAT WILL NOT DO...
 AND HE WHO NEVER MADE A MISTAKE NEVER MADE A DISCOVERY
 Job cpu time:       0 days 11 hours 54 minutes  0.5 seconds.
 Elapsed time:       0 days  0 hours 30 minutes 19.7 seconds.
 File lengths (MBytes):  RWF=   8929 Int=      0 D2E=      0 Chk=    390 Scr=      1
 Normal termination of Gaussian 16 at Thu May  5 10:11:24 2022.
