 Entering Gaussian System, Link 0=g16
 Initial command:
 /sw/apps/gaussian-16.0/g16/l1.exe "/tmp/Gau-73638.inp" -scrdir="/tmp/"
 Entering Link 1 = /sw/apps/gaussian-16.0/g16/l1.exe PID=     73639.
  
 Copyright (c) 1988,1990,1992,1993,1995,1998,2003,2009,2016,
            Gaussian, Inc.  All Rights Reserved.
  
 This is part of the Gaussian(R) 16 program.  It is based on
 the Gaussian(R) 09 system (copyright 2009, Gaussian, Inc.),
 the Gaussian(R) 03 system (copyright 2003, Gaussian, Inc.),
 the Gaussian(R) 98 system (copyright 1998, Gaussian, Inc.),
 the Gaussian(R) 94 system (copyright 1995, Gaussian, Inc.),
 the Gaussian 92(TM) system (copyright 1992, Gaussian, Inc.),
 the Gaussian 90(TM) system (copyright 1990, Gaussian, Inc.),
 the Gaussian 88(TM) system (copyright 1988, Gaussian, Inc.),
 the Gaussian 86(TM) system (copyright 1986, Carnegie Mellon
 University), and the Gaussian 82(TM) system (copyright 1983,
 Carnegie Mellon University). Gaussian is a federally registered
 trademark of Gaussian, Inc.
  
 This software contains proprietary and confidential information,
 including trade secrets, belonging to Gaussian, Inc.
  
 This software is provided under written license and may be
 used, copied, transmitted, or stored only in accord with that
 written license.
  
 The following legend is applicable only to US Government
 contracts under FAR:
  
                    RESTRICTED RIGHTS LEGEND
  
 Use, reproduction and disclosure by the US Government is
 subject to restrictions as set forth in subparagraphs (a)
 and (c) of the Commercial Computer Software - Restricted
 Rights clause in FAR 52.227-19.
  
 Gaussian, Inc.
 340 Quinnipiac St., Bldg. 40, Wallingford CT 06492
  
  
 ---------------------------------------------------------------
 Warning -- This program may not be used in any manner that
 competes with the business of Gaussian, Inc. or will provide
 assistance to any competitor of Gaussian, Inc.  The licensee
 of this program is prohibited from giving any competitor of
 Gaussian, Inc. access to this program.  By using this program,
 the user acknowledges that Gaussian, Inc. is engaged in the
 business of creating and licensing software in the field of
 computational chemistry and represents and warrants to the
 licensee that it is not a competitor of Gaussian, Inc. and that
 it will not use this program in any manner prohibited above.
 ---------------------------------------------------------------
  

 Cite this work as:
 Gaussian 16, Revision A.03,
 M. J. Frisch, G. W. Trucks, H. B. Schlegel, G. E. Scuseria, 
 M. A. Robb, J. R. Cheeseman, G. Scalmani, V. Barone, 
 G. A. Petersson, H. Nakatsuji, X. Li, M. Caricato, A. V. Marenich, 
 J. Bloino, B. G. Janesko, R. Gomperts, B. Mennucci, H. P. Hratchian, 
 J. V. Ortiz, A. F. Izmaylov, J. L. Sonnenberg, D. Williams-Young, 
 F. Ding, F. Lipparini, F. Egidi, J. Goings, B. Peng, A. Petrone, 
 T. Henderson, D. Ranasinghe, V. G. Zakrzewski, J. Gao, N. Rega, 
 G. Zheng, W. Liang, M. Hada, M. Ehara, K. Toyota, R. Fukuda, 
 J. Hasegawa, M. Ishida, T. Nakajima, Y. Honda, O. Kitao, H. Nakai, 
 T. Vreven, K. Throssell, J. A. Montgomery, Jr., J. E. Peralta, 
 F. Ogliaro, M. J. Bearpark, J. J. Heyd, E. N. Brothers, K. N. Kudin, 
 V. N. Staroverov, T. A. Keith, R. Kobayashi, J. Normand, 
 K. Raghavachari, A. P. Rendell, J. C. Burant, S. S. Iyengar, 
 J. Tomasi, M. Cossi, J. M. Millam, M. Klene, C. Adamo, R. Cammi, 
 J. W. Ochterski, R. L. Martin, K. Morokuma, O. Farkas, 
 J. B. Foresman, and D. J. Fox, Gaussian, Inc., Wallingford CT, 2016.
 
 ******************************************
 Gaussian 16:  ES64L-G16RevA.03 25-Dec-2016
                 5-May-2022 
 ******************************************
 %nproc=24
 Will use up to   24 processors via shared memory.
 %mem=75GB
 -----------------------------------
 #p cam-b3lyp/Def2SVP td=(nstates=5)
 -----------------------------------
 1/38=1,172=1/1;
 2/12=2,17=6,18=5,40=1/2;
 3/5=43,7=101,11=9,25=1,30=1,74=-40/1,2,3,8;
 4//1;
 5/5=2,38=5/2;
 8/6=1,10=1,108=5/1;
 9/41=5,42=1,70=2/14;
 6/7=2,8=2,9=2,10=2/1;
 99/5=1,9=1/99;
 Leave Link    1 at Thu May  5 13:18:33 2022, MaxMem= 10066329600 cpu:               1.3 elap:               0.1
 (Enter /sw/apps/gaussian-16.0/g16/l101.exe)
 ------------------------------------------------------
 step_901_chromophore_7 TDDFT with cam-b3lyp functional
 ------------------------------------------------------
 Symbolic Z-matrix:
 Charge =  0 Multiplicity = 1
 Mg                    25.741    0.104     29.485 
 C                     27.621   -0.284     32.462 
 C                     22.988    0.266     31.404 
 C                     23.94     0.12      26.631 
 C                     28.718   -0.681     27.615 
 N                     25.309   -0.168     31.734 
 C                     26.276   -0.126     32.761 
 C                     25.633    0.025     34.099 
 C                     24.073    0.199     33.758 
 C                     24.119    0.051     32.204 
 C                     23.033   -0.688     34.559 
 C                     26.264    1.262     34.854 
 C                     25.632    1.806     36.14 
 C                     26.627    1.912     37.336 
 O                     27.731    2.464     37.355 
 O                     26.231    1.121     38.314 
 N                     23.738    0.207     29.104 
 C                     22.709    0.195     29.992 
 C                     21.375    0.264     29.384 
 C                     21.63     0.241     27.959 
 C                     23.174    0.292     27.842 
 C                     20.096    0.2       30.171 
 C                     20.65     0.254     26.809 
 O                     20.912    0.289     25.604 
 C                     19.214    0.404     27.162 
 N                     26.241   -0.1       27.427 
 C                     25.354    0.043     26.468 
 C                     26.03    -0.152     25.081 
 C                     27.544   -0.266     25.418 
 C                     27.496   -0.409     26.93 
 C                     25.503   -1.373     24.406 
 C                     28.262    1.141     25.006 
 C                     29.753    1.083     24.854 
 N                     27.813   -0.319     29.885 
 C                     28.876   -0.655     29.049 
 C                     30.023   -0.957     29.821 
 C                     29.636   -0.755     31.198 
 C                     28.278   -0.391     31.16 
 C                     31.334   -1.349     29.215 
 C                     30.101   -0.622     32.563 
 O                     31.174   -0.681     33.16 
 C                     28.826   -0.244     33.423 
 C                     28.829   -1.31      34.458 
 O                     28.69    -2.5       34.293 
 O                     28.968   -0.72      35.681 
 C                     28.802   -1.671     36.806 
 C                     27.021    0.952     39.498 
 C                     26.153    0.987     40.711 
 C                     26.465    1.174     42.022 
 C                     27.955    1.459     42.491 
 C                     25.428    1.197     43.166 
 C                     24.053    0.481     43.039 
 C                     22.829    1.409     43.334 
 C                     22.313    1.249     44.731 
 C                     21.378    0.001     44.842 
 C                     21.692    2.534     45.37 
 C                     22.691    3.38      46.061 
 C                     22.436    3.417     47.541 
 C                     23.057    4.707     48.153 
 C                     23.473    4.489     49.598 
 C                     21.963    5.863     48.143 
 C                     22.472    7.151     47.536 
 C                     21.547    7.822     46.484 
 C                     22.045    7.98      45.026 
 C                     21.514    9.313     44.443 
 C                     21.598    6.842     44.02 
 H                     22.103    0.506     31.997 
 H                     23.373    0.145     25.698 
 H                     29.543   -0.918     26.941 
 H                     25.609   -0.874     34.715 
 H                     23.935    1.244     34.034 
 H                     23.411   -1.297     35.381 
 H                     22.52    -1.333     33.846 
 H                     22.328    0.005     35.018 
 H                     26.393    1.989     34.053 
 H                     27.286    0.947     35.065 
 H                     24.769    1.212     36.441 
 H                     25.191    2.745     35.808 
 H                     19.37     1.009     30.089 
 H                     20.332    0.155     31.234 
 H                     19.567   -0.747     30.073 
 H                     18.604    0.574     26.274 
 H                     19.008    1.199     27.878 
 H                     18.941   -0.592     27.509 
 H                     25.756    0.721     24.489 
 H                     28.111   -1.142     25.103 
 H                     24.82    -1.914     25.06 
 H                     26.306   -2.081     24.2 
 H                     25.002   -1.155     23.462 
 H                     27.96     2.031     25.559 
 H                     27.77     1.373     24.062 
 H                     30.099    0.105     24.52 
 H                     30.236    1.249     25.816 
 H                     30.19     1.845     24.208 
 H                     31.426   -2.373     28.854 
 H                     32.124   -1.157     29.942 
 H                     31.441   -0.695     28.35 
 H                     29.081    0.753     33.785 
 H                     27.805   -1.419     37.168 
 H                     29.463   -1.253     37.565 
 H                     29.013   -2.719     36.591 
 H                     27.692    1.779     39.725 
 H                     27.595    0.026     39.453 
 H                     25.132    0.785     40.386 
 H                     28.177    0.704     43.244 
 H                     28.16     2.337     43.105 
 H                     28.666    1.485     41.665 
 H                     25.29     2.247     43.422 
 H                     25.867    0.708     44.036 
 H                     24.068   -0.384     43.702 
 H                     23.925    0.033     42.054 
 H                     22.055    1.214     42.592 
 H                     23.03     2.48      43.287 
 H                     23.203    1.005     45.311 
 H                     21.537   -0.717     44.038 
 H                     20.326    0.267     44.937 
 H                     21.683   -0.541     45.737 
 H                     20.93     2.154     46.05 
 H                     21.122    3.095     44.629 
 H                     22.577    4.405     45.709 
 H                     23.733    3.153     45.837 
 H                     22.966    2.662     48.121 
 H                     21.406    3.217     47.833 
 H                     24.01     4.991     47.706 
 H                     22.62     4.124     50.169 
 H                     23.739    5.483     49.959 
 H                     24.357    3.851     49.601 
 H                     21.686    6.081     49.175 
 H                     21.009    5.663     47.654 
 H                     23.489    7.103     47.145 
 H                     22.511    7.979     48.243 
 H                     21.151    8.738     46.923 
 H                     20.669    7.178     46.445 
 H                     23.123    8.097     45.131 
 H                     22.224    10.093    44.72 
 H                     20.521    9.437     44.875 
 H                     21.425    9.345     43.357 
 H                     22.489    6.393     43.58 
 H                     20.844    7.155     43.298 
 H                     21.172    6.069     44.661 
 
 ITRead=  0  0  0  0  0  0  0  0  0  0  0  0  0  0  0  0  0  0  0  0
 ITRead=  0  0  0  0  0  0  0  0  0  0  0  0  0  0  0  0  0  0  0  0
 ITRead=  0  0  0  0  0  0  0  0  0  0  0  0  0  0  0  0  0  0  0  0
 ITRead=  0  0  0  0  0  0  0  0  0  0  0  0  0  0  0  0  0  0  0  0
 ITRead=  0  0  0  0  0  0  0  0  0  0  0  0  0  0  0  0  0  0  0  0
 ITRead=  0  0  0  0  0  0  0  0  0  0  0  0  0  0  0  0  0  0  0  0
 ITRead=  0  0  0  0  0  0  0  0  0  0  0  0  0  0  0  0  0  0  0  0
 MicOpt= -1 -1 -1 -1 -1 -1 -1 -1 -1 -1 -1 -1 -1 -1 -1 -1 -1 -1 -1 -1
 MicOpt= -1 -1 -1 -1 -1 -1 -1 -1 -1 -1 -1 -1 -1 -1 -1 -1 -1 -1 -1 -1
 MicOpt= -1 -1 -1 -1 -1 -1 -1 -1 -1 -1 -1 -1 -1 -1 -1 -1 -1 -1 -1 -1
 MicOpt= -1 -1 -1 -1 -1 -1 -1 -1 -1 -1 -1 -1 -1 -1 -1 -1 -1 -1 -1 -1
 MicOpt= -1 -1 -1 -1 -1 -1 -1 -1 -1 -1 -1 -1 -1 -1 -1 -1 -1 -1 -1 -1
 MicOpt= -1 -1 -1 -1 -1 -1 -1 -1 -1 -1 -1 -1 -1 -1 -1 -1 -1 -1 -1 -1
 MicOpt= -1 -1 -1 -1 -1 -1 -1 -1 -1 -1 -1 -1 -1 -1 -1 -1 -1 -1 -1 -1
 NAtoms=    140 NQM=      140 NQMF=       0 NMMI=      0 NMMIF=      0
                NMic=       0 NMicF=      0.
                    Isotopes and Nuclear Properties:
 (Nuclear quadrupole moments (NQMom) in fm**2, nuclear magnetic moments (NMagM)
  in nuclear magnetons)

  Atom         1           2           3           4           5           6           7           8           9          10
 IAtWgt=          24          12          12          12          12          14          12          12          12          12
 AtmWgt=  23.9850450  12.0000000  12.0000000  12.0000000  12.0000000  14.0030740  12.0000000  12.0000000  12.0000000  12.0000000
 NucSpn=           0           0           0           0           0           2           0           0           0           0
 AtZEff=  -0.0000000  -0.0000000  -0.0000000  -0.0000000  -0.0000000  -0.0000000  -0.0000000  -0.0000000  -0.0000000  -0.0000000
 NQMom=    0.0000000   0.0000000   0.0000000   0.0000000   0.0000000   2.0440000   0.0000000   0.0000000   0.0000000   0.0000000
 NMagM=    0.0000000   0.0000000   0.0000000   0.0000000   0.0000000   0.4037610   0.0000000   0.0000000   0.0000000   0.0000000
 AtZNuc=  12.0000000   6.0000000   6.0000000   6.0000000   6.0000000   7.0000000   6.0000000   6.0000000   6.0000000   6.0000000

  Atom        11          12          13          14          15          16          17          18          19          20
 IAtWgt=          12          12          12          12          16          16          14          12          12          12
 AtmWgt=  12.0000000  12.0000000  12.0000000  12.0000000  15.9949146  15.9949146  14.0030740  12.0000000  12.0000000  12.0000000
 NucSpn=           0           0           0           0           0           0           2           0           0           0
 AtZEff=  -0.0000000  -0.0000000  -0.0000000  -0.0000000  -0.0000000  -0.0000000  -0.0000000  -0.0000000  -0.0000000  -0.0000000
 NQMom=    0.0000000   0.0000000   0.0000000   0.0000000   0.0000000   0.0000000   2.0440000   0.0000000   0.0000000   0.0000000
 NMagM=    0.0000000   0.0000000   0.0000000   0.0000000   0.0000000   0.0000000   0.4037610   0.0000000   0.0000000   0.0000000
 AtZNuc=   6.0000000   6.0000000   6.0000000   6.0000000   8.0000000   8.0000000   7.0000000   6.0000000   6.0000000   6.0000000

  Atom        21          22          23          24          25          26          27          28          29          30
 IAtWgt=          12          12          12          16          12          14          12          12          12          12
 AtmWgt=  12.0000000  12.0000000  12.0000000  15.9949146  12.0000000  14.0030740  12.0000000  12.0000000  12.0000000  12.0000000
 NucSpn=           0           0           0           0           0           2           0           0           0           0
 AtZEff=  -0.0000000  -0.0000000  -0.0000000  -0.0000000  -0.0000000  -0.0000000  -0.0000000  -0.0000000  -0.0000000  -0.0000000
 NQMom=    0.0000000   0.0000000   0.0000000   0.0000000   0.0000000   2.0440000   0.0000000   0.0000000   0.0000000   0.0000000
 NMagM=    0.0000000   0.0000000   0.0000000   0.0000000   0.0000000   0.4037610   0.0000000   0.0000000   0.0000000   0.0000000
 AtZNuc=   6.0000000   6.0000000   6.0000000   8.0000000   6.0000000   7.0000000   6.0000000   6.0000000   6.0000000   6.0000000

  Atom        31          32          33          34          35          36          37          38          39          40
 IAtWgt=          12          12          12          14          12          12          12          12          12          12
 AtmWgt=  12.0000000  12.0000000  12.0000000  14.0030740  12.0000000  12.0000000  12.0000000  12.0000000  12.0000000  12.0000000
 NucSpn=           0           0           0           2           0           0           0           0           0           0
 AtZEff=  -0.0000000  -0.0000000  -0.0000000  -0.0000000  -0.0000000  -0.0000000  -0.0000000  -0.0000000  -0.0000000  -0.0000000
 NQMom=    0.0000000   0.0000000   0.0000000   2.0440000   0.0000000   0.0000000   0.0000000   0.0000000   0.0000000   0.0000000
 NMagM=    0.0000000   0.0000000   0.0000000   0.4037610   0.0000000   0.0000000   0.0000000   0.0000000   0.0000000   0.0000000
 AtZNuc=   6.0000000   6.0000000   6.0000000   7.0000000   6.0000000   6.0000000   6.0000000   6.0000000   6.0000000   6.0000000

  Atom        41          42          43          44          45          46          47          48          49          50
 IAtWgt=          16          12          12          16          16          12          12          12          12          12
 AtmWgt=  15.9949146  12.0000000  12.0000000  15.9949146  15.9949146  12.0000000  12.0000000  12.0000000  12.0000000  12.0000000
 NucSpn=           0           0           0           0           0           0           0           0           0           0
 AtZEff=  -0.0000000  -0.0000000  -0.0000000  -0.0000000  -0.0000000  -0.0000000  -0.0000000  -0.0000000  -0.0000000  -0.0000000
 NQMom=    0.0000000   0.0000000   0.0000000   0.0000000   0.0000000   0.0000000   0.0000000   0.0000000   0.0000000   0.0000000
 NMagM=    0.0000000   0.0000000   0.0000000   0.0000000   0.0000000   0.0000000   0.0000000   0.0000000   0.0000000   0.0000000
 AtZNuc=   8.0000000   6.0000000   6.0000000   8.0000000   8.0000000   6.0000000   6.0000000   6.0000000   6.0000000   6.0000000

  Atom        51          52          53          54          55          56          57          58          59          60
 IAtWgt=          12          12          12          12          12          12          12          12          12          12
 AtmWgt=  12.0000000  12.0000000  12.0000000  12.0000000  12.0000000  12.0000000  12.0000000  12.0000000  12.0000000  12.0000000
 NucSpn=           0           0           0           0           0           0           0           0           0           0
 AtZEff=  -0.0000000  -0.0000000  -0.0000000  -0.0000000  -0.0000000  -0.0000000  -0.0000000  -0.0000000  -0.0000000  -0.0000000
 NQMom=    0.0000000   0.0000000   0.0000000   0.0000000   0.0000000   0.0000000   0.0000000   0.0000000   0.0000000   0.0000000
 NMagM=    0.0000000   0.0000000   0.0000000   0.0000000   0.0000000   0.0000000   0.0000000   0.0000000   0.0000000   0.0000000
 AtZNuc=   6.0000000   6.0000000   6.0000000   6.0000000   6.0000000   6.0000000   6.0000000   6.0000000   6.0000000   6.0000000

  Atom        61          62          63          64          65          66          67          68          69          70
 IAtWgt=          12          12          12          12          12          12           1           1           1           1
 AtmWgt=  12.0000000  12.0000000  12.0000000  12.0000000  12.0000000  12.0000000   1.0078250   1.0078250   1.0078250   1.0078250
 NucSpn=           0           0           0           0           0           0           1           1           1           1
 AtZEff=  -0.0000000  -0.0000000  -0.0000000  -0.0000000  -0.0000000  -0.0000000  -0.0000000  -0.0000000  -0.0000000  -0.0000000
 NQMom=    0.0000000   0.0000000   0.0000000   0.0000000   0.0000000   0.0000000   0.0000000   0.0000000   0.0000000   0.0000000
 NMagM=    0.0000000   0.0000000   0.0000000   0.0000000   0.0000000   0.0000000   2.7928460   2.7928460   2.7928460   2.7928460
 AtZNuc=   6.0000000   6.0000000   6.0000000   6.0000000   6.0000000   6.0000000   1.0000000   1.0000000   1.0000000   1.0000000

  Atom        71          72          73          74          75          76          77          78          79          80
 IAtWgt=           1           1           1           1           1           1           1           1           1           1
 AtmWgt=   1.0078250   1.0078250   1.0078250   1.0078250   1.0078250   1.0078250   1.0078250   1.0078250   1.0078250   1.0078250
 NucSpn=           1           1           1           1           1           1           1           1           1           1
 AtZEff=  -0.0000000  -0.0000000  -0.0000000  -0.0000000  -0.0000000  -0.0000000  -0.0000000  -0.0000000  -0.0000000  -0.0000000
 NQMom=    0.0000000   0.0000000   0.0000000   0.0000000   0.0000000   0.0000000   0.0000000   0.0000000   0.0000000   0.0000000
 NMagM=    2.7928460   2.7928460   2.7928460   2.7928460   2.7928460   2.7928460   2.7928460   2.7928460   2.7928460   2.7928460
 AtZNuc=   1.0000000   1.0000000   1.0000000   1.0000000   1.0000000   1.0000000   1.0000000   1.0000000   1.0000000   1.0000000

  Atom        81          82          83          84          85          86          87          88          89          90
 IAtWgt=           1           1           1           1           1           1           1           1           1           1
 AtmWgt=   1.0078250   1.0078250   1.0078250   1.0078250   1.0078250   1.0078250   1.0078250   1.0078250   1.0078250   1.0078250
 NucSpn=           1           1           1           1           1           1           1           1           1           1
 AtZEff=  -0.0000000  -0.0000000  -0.0000000  -0.0000000  -0.0000000  -0.0000000  -0.0000000  -0.0000000  -0.0000000  -0.0000000
 NQMom=    0.0000000   0.0000000   0.0000000   0.0000000   0.0000000   0.0000000   0.0000000   0.0000000   0.0000000   0.0000000
 NMagM=    2.7928460   2.7928460   2.7928460   2.7928460   2.7928460   2.7928460   2.7928460   2.7928460   2.7928460   2.7928460
 AtZNuc=   1.0000000   1.0000000   1.0000000   1.0000000   1.0000000   1.0000000   1.0000000   1.0000000   1.0000000   1.0000000

  Atom        91          92          93          94          95          96          97          98          99         100
 IAtWgt=           1           1           1           1           1           1           1           1           1           1
 AtmWgt=   1.0078250   1.0078250   1.0078250   1.0078250   1.0078250   1.0078250   1.0078250   1.0078250   1.0078250   1.0078250
 NucSpn=           1           1           1           1           1           1           1           1           1           1
 AtZEff=  -0.0000000  -0.0000000  -0.0000000  -0.0000000  -0.0000000  -0.0000000  -0.0000000  -0.0000000  -0.0000000  -0.0000000
 NQMom=    0.0000000   0.0000000   0.0000000   0.0000000   0.0000000   0.0000000   0.0000000   0.0000000   0.0000000   0.0000000
 NMagM=    2.7928460   2.7928460   2.7928460   2.7928460   2.7928460   2.7928460   2.7928460   2.7928460   2.7928460   2.7928460
 AtZNuc=   1.0000000   1.0000000   1.0000000   1.0000000   1.0000000   1.0000000   1.0000000   1.0000000   1.0000000   1.0000000

  Atom       101         102         103         104         105         106         107         108         109         110
 IAtWgt=           1           1           1           1           1           1           1           1           1           1
 AtmWgt=   1.0078250   1.0078250   1.0078250   1.0078250   1.0078250   1.0078250   1.0078250   1.0078250   1.0078250   1.0078250
 NucSpn=           1           1           1           1           1           1           1           1           1           1
 AtZEff=  -0.0000000  -0.0000000  -0.0000000  -0.0000000  -0.0000000  -0.0000000  -0.0000000  -0.0000000  -0.0000000  -0.0000000
 NQMom=    0.0000000   0.0000000   0.0000000   0.0000000   0.0000000   0.0000000   0.0000000   0.0000000   0.0000000   0.0000000
 NMagM=    2.7928460   2.7928460   2.7928460   2.7928460   2.7928460   2.7928460   2.7928460   2.7928460   2.7928460   2.7928460
 AtZNuc=   1.0000000   1.0000000   1.0000000   1.0000000   1.0000000   1.0000000   1.0000000   1.0000000   1.0000000   1.0000000

  Atom       111         112         113         114         115         116         117         118         119         120
 IAtWgt=           1           1           1           1           1           1           1           1           1           1
 AtmWgt=   1.0078250   1.0078250   1.0078250   1.0078250   1.0078250   1.0078250   1.0078250   1.0078250   1.0078250   1.0078250
 NucSpn=           1           1           1           1           1           1           1           1           1           1
 AtZEff=  -0.0000000  -0.0000000  -0.0000000  -0.0000000  -0.0000000  -0.0000000  -0.0000000  -0.0000000  -0.0000000  -0.0000000
 NQMom=    0.0000000   0.0000000   0.0000000   0.0000000   0.0000000   0.0000000   0.0000000   0.0000000   0.0000000   0.0000000
 NMagM=    2.7928460   2.7928460   2.7928460   2.7928460   2.7928460   2.7928460   2.7928460   2.7928460   2.7928460   2.7928460
 AtZNuc=   1.0000000   1.0000000   1.0000000   1.0000000   1.0000000   1.0000000   1.0000000   1.0000000   1.0000000   1.0000000

  Atom       121         122         123         124         125         126         127         128         129         130
 IAtWgt=           1           1           1           1           1           1           1           1           1           1
 AtmWgt=   1.0078250   1.0078250   1.0078250   1.0078250   1.0078250   1.0078250   1.0078250   1.0078250   1.0078250   1.0078250
 NucSpn=           1           1           1           1           1           1           1           1           1           1
 AtZEff=  -0.0000000  -0.0000000  -0.0000000  -0.0000000  -0.0000000  -0.0000000  -0.0000000  -0.0000000  -0.0000000  -0.0000000
 NQMom=    0.0000000   0.0000000   0.0000000   0.0000000   0.0000000   0.0000000   0.0000000   0.0000000   0.0000000   0.0000000
 NMagM=    2.7928460   2.7928460   2.7928460   2.7928460   2.7928460   2.7928460   2.7928460   2.7928460   2.7928460   2.7928460
 AtZNuc=   1.0000000   1.0000000   1.0000000   1.0000000   1.0000000   1.0000000   1.0000000   1.0000000   1.0000000   1.0000000

  Atom       131         132         133         134         135         136         137         138         139         140
 IAtWgt=           1           1           1           1           1           1           1           1           1           1
 AtmWgt=   1.0078250   1.0078250   1.0078250   1.0078250   1.0078250   1.0078250   1.0078250   1.0078250   1.0078250   1.0078250
 NucSpn=           1           1           1           1           1           1           1           1           1           1
 AtZEff=  -0.0000000  -0.0000000  -0.0000000  -0.0000000  -0.0000000  -0.0000000  -0.0000000  -0.0000000  -0.0000000  -0.0000000
 NQMom=    0.0000000   0.0000000   0.0000000   0.0000000   0.0000000   0.0000000   0.0000000   0.0000000   0.0000000   0.0000000
 NMagM=    2.7928460   2.7928460   2.7928460   2.7928460   2.7928460   2.7928460   2.7928460   2.7928460   2.7928460   2.7928460
 AtZNuc=   1.0000000   1.0000000   1.0000000   1.0000000   1.0000000   1.0000000   1.0000000   1.0000000   1.0000000   1.0000000
 Leave Link  101 at Thu May  5 13:18:34 2022, MaxMem= 10066329600 cpu:               3.5 elap:               0.2
 (Enter /sw/apps/gaussian-16.0/g16/l202.exe)
 Stoichiometry    C55H74MgN4O6
 Framework group  C1[X(C55H74MgN4O6)]
 Deg. of freedom   414
 Full point group                 C1      NOp   1
 Largest Abelian subgroup         C1      NOp   1
 Largest concise Abelian subgroup C1      NOp   1
                         Standard orientation:                         
 ---------------------------------------------------------------------
 Center     Atomic      Atomic             Coordinates (Angstroms)
 Number     Number       Type             X           Y           Z
 ---------------------------------------------------------------------
      1         12           0        5.880488    0.533929    0.223681
      2          6           0        3.429036   -2.006353   -0.067563
      3          6           0        3.557164    2.712004   -0.846817
      4          6           0        8.315981    2.869496    0.172009
      5          6           0        8.342278   -2.036852    0.777152
      6          7           0        3.722349    0.349924   -0.568270
      7          6           0        2.886374   -0.775036   -0.403370
      8          6           0        1.464885   -0.437576   -0.706658
      9          6           0        1.496111    1.144597   -0.982179
     10          6           0        3.026603    1.414488   -0.828275
     11          6           0        0.772331    1.687659   -2.282639
     12          6           0        0.548947   -0.856189    0.511609
     13          6           0       -0.914940   -0.408388    0.586873
     14          6           0       -1.923447   -1.580252    0.790162
     15          8           0       -1.894142   -2.462469    1.653131
     16          8           0       -2.734927   -1.652141   -0.246811
     17          7           0        5.894963    2.519132   -0.252279
     18          6           0        4.880476    3.274291   -0.750356
     19          6           0        5.229144    4.677202   -1.003835
     20          6           0        6.640236    4.757203   -0.689832
     21          6           0        6.991051    3.356513   -0.128384
     22          6           0        4.283134    5.674357   -1.612155
     23          6           0        7.578694    5.937525   -0.785773
     24          8           0        8.766452    5.976957   -0.454761
     25          6           0        6.971457    7.239290   -1.167714
     26          7           0        7.980650    0.479223    0.560289
     27          6           0        8.720302    1.565218    0.581003
     28          6           0       10.204583    1.195927    0.862612
     29          6           0       10.155362   -0.325784    1.179997
     30          6           0        8.734328   -0.664786    0.762102
     31          6           0       11.057019    1.503663   -0.321806
     32          6           0       10.330078   -0.512877    2.792259
     33          6           0       10.731844   -1.886287    3.241569
     34          7           0        5.935553   -1.608583    0.420463
     35          6           0        6.988994   -2.503638    0.596243
     36          6           0        6.508641   -3.833796    0.543912
     37          6           0        5.079241   -3.730095    0.362902
     38          6           0        4.807818   -2.352902    0.274732
     39          6           0        7.395612   -5.028241    0.705787
     40          6           0        3.816335   -4.438166    0.391927
     41          8           0        3.433376   -5.592142    0.573315
     42          6           0        2.695412   -3.339033    0.183251
     43          6           0        1.959983   -3.872507   -0.992393
     44          8           0        2.379866   -4.034531   -2.114932
     45          8           0        0.670747   -4.117420   -0.616843
     46          6           0       -0.205807   -4.481782   -1.755471
     47          6           0       -3.699521   -2.706001   -0.362804
     48          6           0       -5.010191   -2.162132   -0.823639
     49          6           0       -6.259188   -2.700127   -0.783597
     50          6           0       -6.534072   -4.119053   -0.126047
     51          6           0       -7.528410   -1.986096   -1.297279
     52          6           0       -7.459171   -0.871681   -2.380190
     53          6           0       -8.162439    0.460697   -1.959988
     54          6           0       -9.545402    0.580085   -2.522681
     55          6           0       -9.505268    1.082299   -4.002621
     56          6           0      -10.565307    1.370005   -1.638934
     57          6           0      -11.266665    0.514189   -0.655637
     58          6           0      -12.733756    0.425541   -0.966413
     59          6           0      -13.527099    0.063490    0.323475
     60          6           0      -14.790630   -0.714196   -0.004089
     61          6           0      -13.971774    1.407045    1.051758
     62          6           0      -13.615910    1.426529    2.521266
     63          6           0      -12.919652    2.715308    3.037836
     64          6           0      -11.480743    2.626058    3.603791
     65          6           0      -11.327685    3.623453    4.778745
     66          6           0      -10.318283    2.957438    2.581164
     67          1           0        2.788234    3.469636   -1.011786
     68          1           0        9.110978    3.618169    0.180468
     69          1           0        9.178277   -2.719198    0.940187
     70          1           0        1.086242   -0.804230   -1.660821
     71          1           0        0.959606    1.499818   -0.102846
     72          1           0        0.192500    0.979070   -2.875217
     73          1           0        1.525699    2.150395   -2.919722
     74          1           0        0.052629    2.433131   -1.944624
     75          1           0        1.162883   -0.593046    1.372196
     76          1           0        0.588420   -1.945525    0.507240
     77          1           0       -1.201356    0.164359   -0.295245
     78          1           0       -0.893326    0.338792    1.379136
     79          1           0        4.050177    6.594709   -1.076465
     80          1           0        3.314661    5.199566   -1.768113
     81          1           0        4.517376    5.928430   -2.645030
     82          1           0        7.681717    8.057992   -1.046055
     83          1           0        6.062465    7.488627   -0.621196
     84          1           0        6.833038    7.139492   -2.243741
     85          1           0       10.518022    1.828127    1.693123
     86          1           0       10.758535   -1.025856    0.601922
     87          1           0       10.449269    1.842668   -1.160020
     88          1           0       11.554045    0.604948   -0.687573
     89          1           0       11.827130    2.246640   -0.110679
     90          1           0        9.538804   -0.110513    3.425584
     91          1           0       11.098305    0.225573    3.019290
     92          1           0       11.341665   -2.403944    2.501363
     93          1           0        9.849761   -2.510278    3.378880
     94          1           0       11.239102   -1.936287    4.205477
     95          1           0        8.000987   -5.315354   -0.153543
     96          1           0        6.782185   -5.878142    1.007230
     97          1           0        8.084692   -4.750192    1.502812
     98          1           0        2.151947   -3.383571    1.128101
     99          1           0       -0.774680   -3.563677   -1.903874
    100          1           0       -0.924876   -5.155987   -1.290591
    101          1           0        0.284887   -4.919873   -2.625153
    102          1           0       -4.005476   -3.155223    0.580747
    103          1           0       -3.341723   -3.487917   -1.033300
    104          1           0       -4.816757   -1.190866   -1.279812
    105          1           0       -7.038302   -4.706703   -0.892036
    106          1           0       -7.298450   -4.207222    0.647165
    107          1           0       -5.633982   -4.587575    0.272445
    108          1           0       -8.046964   -1.624937   -0.409728
    109          1           0       -8.172965   -2.729348   -1.767242
    110          1           0       -7.884596   -1.276035   -3.298629
    111          1           0       -6.429934   -0.651922   -2.662482
    112          1           0       -7.531334    1.298246   -2.256439
    113          1           0       -8.340845    0.580169   -0.890619
    114          1           0       -9.897604   -0.450378   -2.568893
    115          1           0       -8.538086    0.918186   -4.476801
    116          1           0       -9.830833    2.116414   -4.107974
    117          1           0      -10.182868    0.443785   -4.569165
    118          1           0      -11.249284    1.821402   -2.357168
    119          1           0      -10.082754    2.226114   -1.166789
    120          1           0      -11.193308    0.984446    0.324671
    121          1           0      -10.828561   -0.470426   -0.494189
    122          1           0      -13.022303   -0.410263   -1.603198
    123          1           0      -13.132910    1.265292   -1.533562
    124          1           0      -13.012166   -0.645838    0.971837
    125          1           0      -15.388643   -0.148875   -0.717999
    126          1           0      -15.330632   -0.769607    0.941660
    127          1           0      -14.497247   -1.716740   -0.316084
    128          1           0      -15.056851    1.491027    0.982258
    129          1           0      -13.610930    2.353653    0.648073
    130          1           0      -13.064801    0.552815    2.871091
    131          1           0      -14.484347    1.458323    3.178351
    132          1           0      -13.623294    3.238579    3.685655
    133          1           0      -12.871074    3.365628    2.164987
    134          1           0      -11.433984    1.628139    4.038267
    135          1           0      -11.663927    3.113429    5.682098
    136          1           0      -11.932313    4.486460    4.500013
    137          1           0      -10.310188    3.962646    4.973652
    138          1           0       -9.644872    2.101526    2.526263
    139          1           0       -9.824535    3.912361    2.760339
    140          1           0      -10.816337    2.995263    1.611423
 ---------------------------------------------------------------------
 Rotational constants (GHZ):           0.0493141           0.0090128           0.0081714
 Leave Link  202 at Thu May  5 13:18:34 2022, MaxMem= 10066329600 cpu:               0.6 elap:               0.0
 (Enter /sw/apps/gaussian-16.0/g16/l301.exe)
 Standard basis: def2SVP (5D, 7F)
 Ernie: Thresh=  0.10000D-02 Tol=  0.10000D-05 Strict=F.
 There are  1364 symmetry adapted cartesian basis functions of A   symmetry.
 There are  1298 symmetry adapted basis functions of A   symmetry.
  1298 basis functions,  2180 primitive gaussians,  1364 cartesian basis functions
   246 alpha electrons      246 beta electrons
       nuclear repulsion energy      9442.9404835863 Hartrees.
 IExCor=20419 DFT=T Ex+Corr=CAM-B3LYP ExCW=0 ScaHFX=  1.000000
 ScaDFX=  1.000000  1.000000  1.000000  0.810000 ScalE2=  1.000000  1.000000
 IRadAn=      5 IRanWt=     -1 IRanGd=            0 ICorTp=0 IEmpDi=  4
 HFx  wShort=  0.000000 wLong=  0.330000 cFull=  0.190000 cShort=  0.000000 cLong=  0.460000
 DFx  wShort=  0.000000 wLong=  0.330000 cFull=  0.190000 cShort=  0.000000 cLong=  0.460000
 NAtoms=  140 NActive=  140 NUniq=  140 SFac= 1.00D+00 NAtFMM=   60 NAOKFM=T Big=T
 Integral buffers will be    131072 words long.
 Raffenetti 1 integral format.
 Two-electron integral symmetry is turned on.
 Leave Link  301 at Thu May  5 13:18:34 2022, MaxMem= 10066329600 cpu:               1.5 elap:               0.1
 (Enter /sw/apps/gaussian-16.0/g16/l302.exe)
 NPDir=0 NMtPBC=     1 NCelOv=     1 NCel=       1 NClECP=     1 NCelD=      1
         NCelK=      1 NCelE2=     1 NClLst=     1 CellRange=     0.0.
 One-electron integrals computed using PRISM.
 One-electron integral symmetry used in STVInt
   1 Symmetry operations used in ECPInt.
 ECPInt:  NShTT=  192510 NPrTT=  683786 LenC2=   92074 LenP2D=  203395.
 LDataN:  DoStor=T MaxTD1= 4 Len=   56
 NBasis=  1298 RedAO= T EigKep=  2.87D-04  NBF=  1298
 NBsUse=  1298 1.00D-06 EigRej= -1.00D+00 NBFU=  1298
 Precomputing XC quadrature grid using
 IXCGrd= 4 IRadAn=           5 IRanWt=          -1 IRanGd=           0 AccXCQ= 0.00D+00.
 Generated NRdTot=       0 NPtTot=           0 NUsed=           0 NTot=          32
 NSgBfM=  1018   993   996  1001  1018 MxSgAt=   140 MxSgA2=   140.
 Leave Link  302 at Thu May  5 13:18:38 2022, MaxMem= 10066329600 cpu:              96.9 elap:               4.1
 (Enter /sw/apps/gaussian-16.0/g16/l303.exe)
 DipDrv:  MaxL=1.
 Leave Link  303 at Thu May  5 13:18:38 2022, MaxMem= 10066329600 cpu:               6.0 elap:               0.3
 (Enter /sw/apps/gaussian-16.0/g16/l308.exe)
 Leave Link  308 at Thu May  5 13:18:39 2022, MaxMem= 10066329600 cpu:              12.3 elap:               0.6
 (Enter /sw/apps/gaussian-16.0/g16/l401.exe)
 ExpMin= 3.36D-02 ExpMax= 4.95D+03 ExpMxC= 7.45D+02 IAcc=3 IRadAn=         5 AccDes= 0.00D+00
 Harris functional with IExCor=20419 and IRadAn=       5 diagonalized for initial guess.
 HarFok:  IExCor=20419 AccDes= 0.00D+00 IRadAn=         5 IDoV= 1 UseB2=F ITyADJ=14
 ICtDFT=  3500011 ScaDFX=  1.000000  1.000000  1.000000  1.000000
 FoFCou: FMM=F IPFlag=           0 FMFlag=      100000 FMFlg1=        2001
         NFxFlg=           0 DoJE=T BraDBF=F KetDBF=T FulRan=T
         wScrn=  0.000000 ICntrl=       500 IOpCl=  0 I1Cent=   200000004 NGrid=           0
         NMat0=    1 NMatS0=      1 NMatT0=    0 NMatD0=    1 NMtDS0=    0 NMtDT0=    0
 Petite list used in FoFCou.
 Harris En= -2890.87634041085    
 JPrj=0 DoOrth=F DoCkMO=F.
 Leave Link  401 at Thu May  5 13:18:46 2022, MaxMem= 10066329600 cpu:             173.7 elap:               7.3
 (Enter /sw/apps/gaussian-16.0/g16/l502.exe)
 Integral symmetry usage will be decided dynamically.
 Closed shell SCF:
 Using DIIS extrapolation, IDIIS=  1040.
 NGot= 10066329600 LenX= 10062561258 LenY= 10060699398
 Requested convergence on RMS density matrix=1.00D-08 within 128 cycles.
 Requested convergence on MAX density matrix=1.00D-06.
 Requested convergence on             energy=1.00D-06.
 No special actions if energy rises.
 Fock matrices will be formed incrementally for  20 cycles.

 Cycle   1  Pass 1  IDiag  1:
 FoFJK:  IHMeth= 1 ICntrl=       0 DoSepK=T KAlg= 0 I1Cent=           0 FoldK=F
 IRaf=         1 NMat=       1 IRICut=       1 DoRegI=T DoRafI=F ISym2E= 0 IDoP0=0 IntGTp=1.
 FoFCou: FMM=T IPFlag=           0 FMFlag=      100000 FMFlg1=        2001
         NFxFlg=           0 DoJE=T BraDBF=F KetDBF=F FulRan=T
         wScrn=  0.000000 ICntrl=       500 IOpCl=  0 I1Cent=           0 NGrid=           0
         NMat0=    1 NMatS0=      1 NMatT0=    0 NMatD0=    1 NMtDS0=    0 NMtDT0=    0
 Symmetry not used in FoFCou.
 FMM levels:  10  Number of levels for PrismC:   9
 E= -3006.50497335763    
 DIIS: error= 2.37D-02 at cycle   1 NSaved=   1.
 NSaved= 1 IEnMin= 1 EnMin= -3006.50497335763     IErMin= 1 ErrMin= 2.37D-02
 ErrMax= 2.37D-02  0.00D+00 EMaxC= 1.00D-01 BMatC= 1.26D+00 BMatP= 1.26D+00
 IDIUse=3 WtCom= 7.63D-01 WtEn= 2.37D-01
 Coeff-Com:  0.100D+01
 Coeff-En:   0.100D+01
 Coeff:      0.100D+01
 Gap=     0.107 Goal=   None    Shift=    0.000
 GapD=    0.107 DampG=1.000 DampE=0.500 DampFc=0.5000 IDamp=-1.
 Damping current iteration by 5.00D-01
 RMSDP=1.54D-03 MaxDP=1.65D-01              OVMax= 2.72D-01

 Cycle   2  Pass 1  IDiag  1:
 RMSU=  7.58D-04    CP:  9.85D-01
 E= -3006.81028300653     Delta-E=       -0.305309648902 Rises=F Damp=T
 DIIS: error= 1.01D-02 at cycle   2 NSaved=   2.
 NSaved= 2 IEnMin= 2 EnMin= -3006.81028300653     IErMin= 2 ErrMin= 1.01D-02
 ErrMax= 1.01D-02  0.00D+00 EMaxC= 1.00D-01 BMatC= 2.31D-01 BMatP= 1.26D+00
 IDIUse=3 WtCom= 8.99D-01 WtEn= 1.01D-01
 Coeff-Com: -0.223D+00 0.122D+01
 Coeff-En:   0.000D+00 0.100D+01
 Coeff:     -0.201D+00 0.120D+01
 Gap=     0.146 Goal=   None    Shift=    0.000
 RMSDP=7.05D-04 MaxDP=7.84D-02 DE=-3.05D-01 OVMax= 2.52D-01

 Cycle   3  Pass 1  IDiag  1:
 RMSU=  6.89D-04    CP:  9.75D-01  1.16D+00
 E= -3007.03728498330     Delta-E=       -0.227001976767 Rises=F Damp=F
 DIIS: error= 1.47D-02 at cycle   3 NSaved=   3.
 NSaved= 3 IEnMin= 3 EnMin= -3007.03728498330     IErMin= 2 ErrMin= 1.01D-02
 ErrMax= 1.47D-02  0.00D+00 EMaxC= 1.00D-01 BMatC= 1.46D-01 BMatP= 2.31D-01
 IDIUse=3 WtCom= 8.53D-01 WtEn= 1.47D-01
 Coeff-Com: -0.268D+00 0.650D+00 0.618D+00
 Coeff-En:   0.000D+00 0.000D+00 0.100D+01
 Coeff:     -0.228D+00 0.554D+00 0.674D+00
 Gap=     0.121 Goal=   None    Shift=    0.000
 RMSDP=5.06D-04 MaxDP=5.09D-02 DE=-2.27D-01 OVMax= 2.06D-01

 Cycle   4  Pass 1  IDiag  1:
 RMSU=  2.78D-04    CP:  9.72D-01  1.50D+00  5.17D-01
 E= -3007.13457347793     Delta-E=       -0.097288494628 Rises=F Damp=F
 DIIS: error= 6.21D-03 at cycle   4 NSaved=   4.
 NSaved= 4 IEnMin= 4 EnMin= -3007.13457347793     IErMin= 4 ErrMin= 6.21D-03
 ErrMax= 6.21D-03  0.00D+00 EMaxC= 1.00D-01 BMatC= 3.71D-02 BMatP= 1.46D-01
 IDIUse=3 WtCom= 9.38D-01 WtEn= 6.21D-02
 Coeff-Com: -0.111D+00 0.228D+00 0.409D+00 0.474D+00
 Coeff-En:   0.000D+00 0.000D+00 0.229D+00 0.771D+00
 Coeff:     -0.104D+00 0.214D+00 0.397D+00 0.493D+00
 Gap=     0.125 Goal=   None    Shift=    0.000
 RMSDP=2.07D-04 MaxDP=1.93D-02 DE=-9.73D-02 OVMax= 9.74D-02

 Cycle   5  Pass 1  IDiag  1:
 RMSU=  7.63D-05    CP:  9.72D-01  1.43D+00  7.03D-01  5.15D-01
 E= -3007.16922332514     Delta-E=       -0.034649847214 Rises=F Damp=F
 DIIS: error= 6.28D-04 at cycle   5 NSaved=   5.
 NSaved= 5 IEnMin= 5 EnMin= -3007.16922332514     IErMin= 5 ErrMin= 6.28D-04
 ErrMax= 6.28D-04  0.00D+00 EMaxC= 1.00D-01 BMatC= 9.20D-04 BMatP= 3.71D-02
 IDIUse=3 WtCom= 9.94D-01 WtEn= 6.28D-03
 Coeff-Com: -0.413D-01 0.811D-01 0.177D+00 0.256D+00 0.527D+00
 Coeff-En:   0.000D+00 0.000D+00 0.000D+00 0.000D+00 0.100D+01
 Coeff:     -0.410D-01 0.806D-01 0.176D+00 0.254D+00 0.530D+00
 Gap=     0.123 Goal=   None    Shift=    0.000
 RMSDP=4.41D-05 MaxDP=7.20D-03 DE=-3.46D-02 OVMax= 1.83D-02

 Cycle   6  Pass 1  IDiag  1:
 RMSU=  3.04D-05    CP:  9.72D-01  1.44D+00  6.92D-01  5.93D-01  7.24D-01
 E= -3007.17010305914     Delta-E=       -0.000879733998 Rises=F Damp=F
 DIIS: error= 2.25D-04 at cycle   6 NSaved=   6.
 NSaved= 6 IEnMin= 6 EnMin= -3007.17010305914     IErMin= 6 ErrMin= 2.25D-04
 ErrMax= 2.25D-04  0.00D+00 EMaxC= 1.00D-01 BMatC= 1.06D-04 BMatP= 9.20D-04
 IDIUse=3 WtCom= 9.98D-01 WtEn= 2.25D-03
 Coeff-Com:  0.300D-02-0.791D-02 0.474D-02 0.293D-01 0.267D+00 0.704D+00
 Coeff-En:   0.000D+00 0.000D+00 0.000D+00 0.000D+00 0.523D-01 0.948D+00
 Coeff:      0.299D-02-0.789D-02 0.473D-02 0.292D-01 0.266D+00 0.705D+00
 Gap=     0.125 Goal=   None    Shift=    0.000
 RMSDP=1.73D-05 MaxDP=1.62D-03 DE=-8.80D-04 OVMax= 1.17D-02

 Cycle   7  Pass 1  IDiag  1:
 RMSU=  1.18D-05    CP:  9.72D-01  1.44D+00  6.99D-01  5.89D-01  8.50D-01
                    CP:  7.87D-01
 E= -3007.17024194441     Delta-E=       -0.000138885269 Rises=F Damp=F
 DIIS: error= 1.25D-04 at cycle   7 NSaved=   7.
 NSaved= 7 IEnMin= 7 EnMin= -3007.17024194441     IErMin= 7 ErrMin= 1.25D-04
 ErrMax= 1.25D-04  0.00D+00 EMaxC= 1.00D-01 BMatC= 2.09D-05 BMatP= 1.06D-04
 IDIUse=3 WtCom= 9.99D-01 WtEn= 1.25D-03
 Coeff-Com:  0.530D-02-0.114D-01-0.135D-01-0.942D-02 0.787D-01 0.386D+00
 Coeff-Com:  0.564D+00
 Coeff-En:   0.000D+00 0.000D+00 0.000D+00 0.000D+00 0.000D+00 0.000D+00
 Coeff-En:   0.100D+01
 Coeff:      0.530D-02-0.113D-01-0.135D-01-0.941D-02 0.786D-01 0.386D+00
 Coeff:      0.565D+00
 Gap=     0.125 Goal=   None    Shift=    0.000
 RMSDP=6.56D-06 MaxDP=1.36D-03 DE=-1.39D-04 OVMax= 2.70D-03

 Cycle   8  Pass 1  IDiag  1:
 RMSU=  4.87D-06    CP:  9.71D-01  1.44D+00  7.00D-01  5.94D-01  8.57D-01
                    CP:  9.19D-01  9.66D-01
 E= -3007.17027101358     Delta-E=       -0.000029069171 Rises=F Damp=F
 DIIS: error= 4.12D-05 at cycle   8 NSaved=   8.
 NSaved= 8 IEnMin= 8 EnMin= -3007.17027101358     IErMin= 8 ErrMin= 4.12D-05
 ErrMax= 4.12D-05  0.00D+00 EMaxC= 1.00D-01 BMatC= 2.40D-06 BMatP= 2.09D-05
 IDIUse=1 WtCom= 1.00D+00 WtEn= 0.00D+00
 Coeff-Com:  0.195D-02-0.370D-02-0.813D-02-0.126D-01-0.368D-01 0.243D-01
 Coeff-Com:  0.218D+00 0.817D+00
 Coeff:      0.195D-02-0.370D-02-0.813D-02-0.126D-01-0.368D-01 0.243D-01
 Coeff:      0.218D+00 0.817D+00
 Gap=     0.125 Goal=   None    Shift=    0.000
 RMSDP=4.59D-06 MaxDP=3.13D-04 DE=-2.91D-05 OVMax= 3.36D-03

 Cycle   9  Pass 1  IDiag  1:
 RMSU=  2.48D-06    CP:  9.71D-01  1.44D+00  7.01D-01  5.94D-01  8.78D-01
                    CP:  9.65D-01  1.22D+00  1.22D+00
 E= -3007.17028099820     Delta-E=       -0.000009984620 Rises=F Damp=F
 DIIS: error= 3.22D-05 at cycle   9 NSaved=   9.
 NSaved= 9 IEnMin= 9 EnMin= -3007.17028099820     IErMin= 9 ErrMin= 3.22D-05
 ErrMax= 3.22D-05  0.00D+00 EMaxC= 1.00D-01 BMatC= 8.79D-07 BMatP= 2.40D-06
 IDIUse=1 WtCom= 1.00D+00 WtEn= 0.00D+00
 Coeff-Com: -0.244D-03 0.683D-03-0.783D-03-0.296D-02-0.336D-01-0.519D-01
 Coeff-Com: -0.497D-01 0.352D+00 0.787D+00
 Coeff:     -0.244D-03 0.683D-03-0.783D-03-0.296D-02-0.336D-01-0.519D-01
 Coeff:     -0.497D-01 0.352D+00 0.787D+00
 Gap=     0.125 Goal=   None    Shift=    0.000
 RMSDP=2.91D-06 MaxDP=2.20D-04 DE=-9.98D-06 OVMax= 1.81D-03

 Cycle  10  Pass 1  IDiag  1:
 RMSU=  1.26D-06    CP:  9.71D-01  1.44D+00  7.01D-01  5.94D-01  8.84D-01
                    CP:  9.91D-01  1.35D+00  1.57D+00  1.36D+00
 E= -3007.17028506202     Delta-E=       -0.000004063824 Rises=F Damp=F
 DIIS: error= 1.54D-05 at cycle  10 NSaved=  10.
 NSaved=10 IEnMin=10 EnMin= -3007.17028506202     IErMin=10 ErrMin= 1.54D-05
 ErrMax= 1.54D-05  0.00D+00 EMaxC= 1.00D-01 BMatC= 3.11D-07 BMatP= 8.79D-07
 IDIUse=1 WtCom= 1.00D+00 WtEn= 0.00D+00
 Coeff-Com: -0.105D-02 0.210D-02 0.315D-02 0.436D-02-0.497D-02-0.331D-01
 Coeff-Com: -0.148D+00-0.144D+00 0.377D+00 0.944D+00
 Coeff:     -0.105D-02 0.210D-02 0.315D-02 0.436D-02-0.497D-02-0.331D-01
 Coeff:     -0.148D+00-0.144D+00 0.377D+00 0.944D+00
 Gap=     0.125 Goal=   None    Shift=    0.000
 RMSDP=2.82D-06 MaxDP=2.15D-04 DE=-4.06D-06 OVMax= 1.90D-03

 Cycle  11  Pass 1  IDiag  1:
 RMSU=  7.26D-07    CP:  9.71D-01  1.44D+00  7.01D-01  5.94D-01  8.89D-01
                    CP:  1.01D+00  1.48D+00  1.86D+00  1.94D+00  1.50D+00
 E= -3007.17028719425     Delta-E=       -0.000002132230 Rises=F Damp=F
 DIIS: error= 1.26D-05 at cycle  11 NSaved=  11.
 NSaved=11 IEnMin=11 EnMin= -3007.17028719425     IErMin=11 ErrMin= 1.26D-05
 ErrMax= 1.26D-05  0.00D+00 EMaxC= 1.00D-01 BMatC= 8.12D-08 BMatP= 3.11D-07
 IDIUse=1 WtCom= 1.00D+00 WtEn= 0.00D+00
 Coeff-Com: -0.404D-03 0.769D-03 0.151D-02 0.284D-02 0.546D-02 0.277D-02
 Coeff-Com: -0.594D-01-0.140D+00-0.422D-01 0.414D+00 0.815D+00
 Coeff:     -0.404D-03 0.769D-03 0.151D-02 0.284D-02 0.546D-02 0.277D-02
 Coeff:     -0.594D-01-0.140D+00-0.422D-01 0.414D+00 0.815D+00
 Gap=     0.125 Goal=   None    Shift=    0.000
 RMSDP=1.29D-06 MaxDP=8.99D-05 DE=-2.13D-06 OVMax= 8.74D-04

 Cycle  12  Pass 1  IDiag  1:
 RMSU=  3.33D-07    CP:  9.71D-01  1.44D+00  7.01D-01  5.94D-01  8.91D-01
                    CP:  1.02D+00  1.53D+00  1.99D+00  2.21D+00  1.92D+00
                    CP:  1.27D+00
 E= -3007.17028763101     Delta-E=       -0.000000436759 Rises=F Damp=F
 DIIS: error= 4.29D-06 at cycle  12 NSaved=  12.
 NSaved=12 IEnMin=12 EnMin= -3007.17028763101     IErMin=12 ErrMin= 4.29D-06
 ErrMax= 4.29D-06  0.00D+00 EMaxC= 1.00D-01 BMatC= 1.72D-08 BMatP= 8.12D-08
 IDIUse=1 WtCom= 1.00D+00 WtEn= 0.00D+00
 Coeff-Com:  0.119D-03-0.254D-03-0.310D-03-0.258D-04 0.280D-02 0.113D-01
 Coeff-Com:  0.154D-01-0.718D-02-0.120D+00-0.128D+00 0.298D+00 0.929D+00
 Coeff:      0.119D-03-0.254D-03-0.310D-03-0.258D-04 0.280D-02 0.113D-01
 Coeff:      0.154D-01-0.718D-02-0.120D+00-0.128D+00 0.298D+00 0.929D+00
 Gap=     0.125 Goal=   None    Shift=    0.000
 RMSDP=7.21D-07 MaxDP=5.69D-05 DE=-4.37D-07 OVMax= 4.31D-04

 Cycle  13  Pass 1  IDiag  1:
 RMSU=  1.71D-07    CP:  9.71D-01  1.44D+00  7.01D-01  5.94D-01  8.91D-01
                    CP:  1.02D+00  1.55D+00  2.05D+00  2.37D+00  2.16D+00
                    CP:  1.65D+00  1.23D+00
 E= -3007.17028772799     Delta-E=       -0.000000096976 Rises=F Damp=F
 DIIS: error= 2.23D-06 at cycle  13 NSaved=  13.
 NSaved=13 IEnMin=13 EnMin= -3007.17028772799     IErMin=13 ErrMin= 2.23D-06
 ErrMax= 2.23D-06  0.00D+00 EMaxC= 1.00D-01 BMatC= 3.99D-09 BMatP= 1.72D-08
 IDIUse=1 WtCom= 1.00D+00 WtEn= 0.00D+00
 Coeff-Com:  0.139D-03-0.279D-03-0.473D-03-0.574D-03 0.773D-04 0.516D-02
 Coeff-Com:  0.186D-01 0.270D-01-0.446D-01-0.148D+00-0.278D-01 0.460D+00
 Coeff-Com:  0.711D+00
 Coeff:      0.139D-03-0.279D-03-0.473D-03-0.574D-03 0.773D-04 0.516D-02
 Coeff:      0.186D-01 0.270D-01-0.446D-01-0.148D+00-0.278D-01 0.460D+00
 Coeff:      0.711D+00
 Gap=     0.125 Goal=   None    Shift=    0.000
 RMSDP=2.12D-07 MaxDP=1.84D-05 DE=-9.70D-08 OVMax= 1.39D-04

 Cycle  14  Pass 1  IDiag  1:
 RMSU=  6.91D-08    CP:  9.71D-01  1.44D+00  7.01D-01  5.94D-01  8.91D-01
                    CP:  1.02D+00  1.56D+00  2.06D+00  2.41D+00  2.24D+00
                    CP:  1.76D+00  1.45D+00  9.91D-01
 E= -3007.17028773803     Delta-E=       -0.000000010044 Rises=F Damp=F
 DIIS: error= 5.54D-07 at cycle  14 NSaved=  14.
 NSaved=14 IEnMin=14 EnMin= -3007.17028773803     IErMin=14 ErrMin= 5.54D-07
 ErrMax= 5.54D-07  0.00D+00 EMaxC= 1.00D-01 BMatC= 7.33D-10 BMatP= 3.99D-09
 IDIUse=1 WtCom= 1.00D+00 WtEn= 0.00D+00
 Coeff-Com:  0.553D-04-0.108D-03-0.210D-03-0.309D-03-0.509D-03 0.844D-03
 Coeff-Com:  0.676D-02 0.157D-01-0.278D-02-0.582D-01-0.648D-01 0.893D-01
 Coeff-Com:  0.371D+00 0.644D+00
 Coeff:      0.553D-04-0.108D-03-0.210D-03-0.309D-03-0.509D-03 0.844D-03
 Coeff:      0.676D-02 0.157D-01-0.278D-02-0.582D-01-0.648D-01 0.893D-01
 Coeff:      0.371D+00 0.644D+00
 Gap=     0.125 Goal=   None    Shift=    0.000
 RMSDP=7.23D-08 MaxDP=1.02D-05 DE=-1.00D-08 OVMax= 3.42D-05

 Cycle  15  Pass 1  IDiag  1:
 RMSU=  3.24D-08    CP:  9.71D-01  1.44D+00  7.01D-01  5.94D-01  8.91D-01
                    CP:  1.02D+00  1.56D+00  2.06D+00  2.42D+00  2.26D+00
                    CP:  1.81D+00  1.52D+00  1.13D+00  9.40D-01
 E= -3007.17028773967     Delta-E=       -0.000000001632 Rises=F Damp=F
 DIIS: error= 2.39D-07 at cycle  15 NSaved=  15.
 NSaved=15 IEnMin=15 EnMin= -3007.17028773967     IErMin=15 ErrMin= 2.39D-07
 ErrMax= 2.39D-07  0.00D+00 EMaxC= 1.00D-01 BMatC= 7.90D-11 BMatP= 7.33D-10
 IDIUse=1 WtCom= 1.00D+00 WtEn= 0.00D+00
 Coeff-Com: -0.412D-05 0.968D-05 0.273D-05-0.160D-04-0.268D-03-0.586D-03
 Coeff-Com: -0.107D-02 0.125D-02 0.718D-02 0.244D-02-0.171D-01-0.455D-01
 Coeff-Com:  0.236D-01 0.226D+00 0.804D+00
 Coeff:     -0.412D-05 0.968D-05 0.273D-05-0.160D-04-0.268D-03-0.586D-03
 Coeff:     -0.107D-02 0.125D-02 0.718D-02 0.244D-02-0.171D-01-0.455D-01
 Coeff:      0.236D-01 0.226D+00 0.804D+00
 Gap=     0.125 Goal=   None    Shift=    0.000
 RMSDP=2.89D-08 MaxDP=2.42D-06 DE=-1.63D-09 OVMax= 1.67D-05

 Cycle  16  Pass 1  IDiag  1:
 RMSU=  1.57D-08    CP:  9.71D-01  1.44D+00  7.01D-01  5.94D-01  8.91D-01
                    CP:  1.02D+00  1.56D+00  2.07D+00  2.42D+00  2.26D+00
                    CP:  1.82D+00  1.54D+00  1.19D+00  1.12D+00  1.05D+00
 E= -3007.17028774003     Delta-E=       -0.000000000362 Rises=F Damp=F
 DIIS: error= 1.19D-07 at cycle  16 NSaved=  16.
 NSaved=16 IEnMin=16 EnMin= -3007.17028774003     IErMin=16 ErrMin= 1.19D-07
 ErrMax= 1.19D-07  0.00D+00 EMaxC= 1.00D-01 BMatC= 4.24D-11 BMatP= 7.90D-11
 IDIUse=1 WtCom= 1.00D+00 WtEn= 0.00D+00
 Coeff-Com: -0.118D-04 0.239D-04 0.370D-04 0.435D-04-0.810D-04-0.449D-03
 Coeff-Com: -0.183D-02-0.188D-02 0.502D-02 0.113D-01 0.139D-02-0.447D-01
 Coeff-Com: -0.507D-01-0.594D-02 0.487D+00 0.601D+00
 Coeff:     -0.118D-04 0.239D-04 0.370D-04 0.435D-04-0.810D-04-0.449D-03
 Coeff:     -0.183D-02-0.188D-02 0.502D-02 0.113D-01 0.139D-02-0.447D-01
 Coeff:     -0.507D-01-0.594D-02 0.487D+00 0.601D+00
 Gap=     0.125 Goal=   None    Shift=    0.000
 RMSDP=1.48D-08 MaxDP=1.83D-06 DE=-3.62D-10 OVMax= 7.34D-06

 Cycle  17  Pass 1  IDiag  1:
 RMSU=  7.18D-09    CP:  9.71D-01  1.44D+00  7.01D-01  5.94D-01  8.91D-01
                    CP:  1.02D+00  1.56D+00  2.07D+00  2.42D+00  2.26D+00
                    CP:  1.83D+00  1.55D+00  1.22D+00  1.17D+00  1.30D+00
                    CP:  1.09D+00
 E= -3007.17028773996     Delta-E=        0.000000000067 Rises=F Damp=F
 DIIS: error= 6.93D-08 at cycle  17 NSaved=  17.
 NSaved=17 IEnMin=16 EnMin= -3007.17028774003     IErMin=17 ErrMin= 6.93D-08
 ErrMax= 6.93D-08  0.00D+00 EMaxC= 1.00D-01 BMatC= 5.98D-12 BMatP= 4.24D-11
 IDIUse=1 WtCom= 1.00D+00 WtEn= 0.00D+00
 Coeff-Com: -0.417D-05 0.805D-05 0.152D-04 0.240D-04 0.285D-04-0.110D-04
 Coeff-Com: -0.559D-03-0.114D-02 0.285D-03 0.383D-02 0.576D-02-0.705D-02
 Coeff-Com: -0.258D-01-0.790D-01 0.400D-01 0.182D+00 0.882D+00
 Coeff:     -0.417D-05 0.805D-05 0.152D-04 0.240D-04 0.285D-04-0.110D-04
 Coeff:     -0.559D-03-0.114D-02 0.285D-03 0.383D-02 0.576D-02-0.705D-02
 Coeff:     -0.258D-01-0.790D-01 0.400D-01 0.182D+00 0.882D+00
 Gap=     0.125 Goal=   None    Shift=    0.000
 RMSDP=9.44D-09 MaxDP=6.39D-07 DE= 6.73D-11 OVMax= 6.27D-06

 SCF Done:  E(RCAM-B3LYP) =  -3007.17028774     A.U. after   17 cycles
            NFock= 17  Conv=0.94D-08     -V/T= 2.0108
 KE= 2.975047187557D+03 PE=-2.587684040048D+04 EE= 1.045168244160D+04
 Leave Link  502 at Thu May  5 13:28:28 2022, MaxMem= 10066329600 cpu:           13562.2 elap:             581.8
 (Enter /sw/apps/gaussian-16.0/g16/l801.exe)
 DoSCS=F DFT=T ScalE2(SS,OS)=  1.000000  1.000000
 ExpMin= 3.36D-02 ExpMax= 4.95D+03 ExpMxC= 7.45D+02 IAcc=3 IRadAn=         5 AccDes= 0.00D+00
 HarFok:  IExCor=  205 AccDes= 0.00D+00 IRadAn=         5 IDoV=-2 UseB2=F ITyADJ=14
 ICtDFT= 12500011 ScaDFX=  1.000000  1.000000  1.000000  1.000000
 GSVD:  LWork=       -5460 too small for GESVD, short by       25550 words or       25550 for optimal perf.
 Largest valence mixing into a core orbital is  1.49D-04
 Largest core mixing into a valence orbital is  5.18D-05
 Range of M.O.s used for correlation:    71  1298
 NBasis=  1298 NAE=   246 NBE=   246 NFC=    70 NFV=     0
 NROrb=   1228 NOA=   176 NOB=   176 NVA=  1052 NVB=  1052
 Leave Link  801 at Thu May  5 13:28:28 2022, MaxMem= 10066329600 cpu:               6.9 elap:               0.3
 (Enter /sw/apps/gaussian-16.0/g16/l914.exe)
 RHF ground state
 Two-electron integrals replicated using symmetry.
 MDV= 10066329600 DFT=T DoStab=F Mixed=T DoRPA=T DoScal=F NonHer=T
 Making orbital integer symmetry assigments:
 Orbital symmetries:
       Occupied  (A) (A) (A) (A) (A) (A) (A) (A) (A) (A) (A) (A)
                 (A) (A) (A) (A) (A) (A) (A) (A) (A) (A) (A) (A)
                 (A) (A) (A) (A) (A) (A) (A) (A) (A) (A) (A) (A)
                 (A) (A) (A) (A) (A) (A) (A) (A) (A) (A) (A) (A)
                 (A) (A) (A) (A) (A) (A) (A) (A) (A) (A) (A) (A)
                 (A) (A) (A) (A) (A) (A) (A) (A) (A) (A) (A) (A)
                 (A) (A) (A) (A) (A) (A) (A) (A) (A) (A) (A) (A)
                 (A) (A) (A) (A) (A) (A) (A) (A) (A) (A) (A) (A)
                 (A) (A) (A) (A) (A) (A) (A) (A) (A) (A) (A) (A)
                 (A) (A) (A) (A) (A) (A) (A) (A) (A) (A) (A) (A)
                 (A) (A) (A) (A) (A) (A) (A) (A) (A) (A) (A) (A)
                 (A) (A) (A) (A) (A) (A) (A) (A) (A) (A) (A) (A)
                 (A) (A) (A) (A) (A) (A) (A) (A) (A) (A) (A) (A)
                 (A) (A) (A) (A) (A) (A) (A) (A) (A) (A) (A) (A)
                 (A) (A) (A) (A) (A) (A) (A) (A) (A) (A) (A) (A)
                 (A) (A) (A) (A) (A) (A) (A) (A) (A) (A) (A) (A)
                 (A) (A) (A) (A) (A) (A) (A) (A) (A) (A) (A) (A)
                 (A) (A) (A) (A) (A) (A) (A) (A) (A) (A) (A) (A)
                 (A) (A) (A) (A) (A) (A) (A) (A) (A) (A) (A) (A)
                 (A) (A) (A) (A) (A) (A) (A) (A) (A) (A) (A) (A)
                 (A) (A) (A) (A) (A) (A)
       Virtual   (A) (A) (A) (A) (A) (A) (A) (A) (A) (A) (A) (A)
                 (A) (A) (A) (A) (A) (A) (A) (A) (A) (A) (A) (A)
                 (A) (A) (A) (A) (A) (A) (A) (A) (A) (A) (A) (A)
                 (A) (A) (A) (A) (A) (A) (A) (A) (A) (A) (A) (A)
                 (A) (A) (A) (A) (A) (A) (A) (A) (A) (A) (A) (A)
                 (A) (A) (A) (A) (A) (A) (A) (A) (A) (A) (A) (A)
                 (A) (A) (A) (A) (A) (A) (A) (A) (A) (A) (A) (A)
                 (A) (A) (A) (A) (A) (A) (A) (A) (A) (A) (A) (A)
                 (A) (A) (A) (A) (A) (A) (A) (A) (A) (A) (A) (A)
                 (A) (A) (A) (A) (A) (A) (A) (A) (A) (A) (A) (A)
                 (A) (A) (A) (A) (A) (A) (A) (A) (A) (A) (A) (A)
                 (A) (A) (A) (A) (A) (A) (A) (A) (A) (A) (A) (A)
                 (A) (A) (A) (A) (A) (A) (A) (A) (A) (A) (A) (A)
                 (A) (A) (A) (A) (A) (A) (A) (A) (A) (A) (A) (A)
                 (A) (A) (A) (A) (A) (A) (A) (A) (A) (A) (A) (A)
                 (A) (A) (A) (A) (A) (A) (A) (A) (A) (A) (A) (A)
                 (A) (A) (A) (A) (A) (A) (A) (A) (A) (A) (A) (A)
                 (A) (A) (A) (A) (A) (A) (A) (A) (A) (A) (A) (A)
                 (A) (A) (A) (A) (A) (A) (A) (A) (A) (A) (A) (A)
                 (A) (A) (A) (A) (A) (A) (A) (A) (A) (A) (A) (A)
                 (A) (A) (A) (A) (A) (A) (A) (A) (A) (A) (A) (A)
                 (A) (A) (A) (A) (A) (A) (A) (A) (A) (A) (A) (A)
                 (A) (A) (A) (A) (A) (A) (A) (A) (A) (A) (A) (A)
                 (A) (A) (A) (A) (A) (A) (A) (A) (A) (A) (A) (A)
                 (A) (A) (A) (A) (A) (A) (A) (A) (A) (A) (A) (A)
                 (A) (A) (A) (A) (A) (A) (A) (A) (A) (A) (A) (A)
                 (A) (A) (A) (A) (A) (A) (A) (A) (A) (A) (A) (A)
                 (A) (A) (A) (A) (A) (A) (A) (A) (A) (A) (A) (A)
                 (A) (A) (A) (A) (A) (A) (A) (A) (A) (A) (A) (A)
                 (A) (A) (A) (A) (A) (A) (A) (A) (A) (A) (A) (A)
                 (A) (A) (A) (A) (A) (A) (A) (A) (A) (A) (A) (A)
                 (A) (A) (A) (A) (A) (A) (A) (A) (A) (A) (A) (A)
                 (A) (A) (A) (A) (A) (A) (A) (A) (A) (A) (A) (A)
                 (A) (A) (A) (A) (A) (A) (A) (A) (A) (A) (A) (A)
                 (A) (A) (A) (A) (A) (A) (A) (A) (A) (A) (A) (A)
                 (A) (A) (A) (A) (A) (A) (A) (A) (A) (A) (A) (A)
                 (A) (A) (A) (A) (A) (A) (A) (A) (A) (A) (A) (A)
                 (A) (A) (A) (A) (A) (A) (A) (A) (A) (A) (A) (A)
                 (A) (A) (A) (A) (A) (A) (A) (A) (A) (A) (A) (A)
                 (A) (A) (A) (A) (A) (A) (A) (A) (A) (A) (A) (A)
                 (A) (A) (A) (A) (A) (A) (A) (A) (A) (A) (A) (A)
                 (A) (A) (A) (A) (A) (A) (A) (A) (A) (A) (A) (A)
                 (A) (A) (A) (A) (A) (A) (A) (A) (A) (A) (A) (A)
                 (A) (A) (A) (A) (A) (A) (A) (A) (A) (A) (A) (A)
                 (A) (A) (A) (A) (A) (A) (A) (A) (A) (A) (A) (A)
                 (A) (A) (A) (A) (A) (A) (A) (A) (A) (A) (A) (A)
                 (A) (A) (A) (A) (A) (A) (A) (A) (A) (A) (A) (A)
                 (A) (A) (A) (A) (A) (A) (A) (A) (A) (A) (A) (A)
                 (A) (A) (A) (A) (A) (A) (A) (A) (A) (A) (A) (A)
                 (A) (A) (A) (A) (A) (A) (A) (A) (A) (A) (A) (A)
                 (A) (A) (A) (A) (A) (A) (A) (A) (A) (A) (A) (A)
                 (A) (A) (A) (A) (A) (A) (A) (A) (A) (A) (A) (A)
                 (A) (A) (A) (A) (A) (A) (A) (A) (A) (A) (A) (A)
                 (A) (A) (A) (A) (A) (A) (A) (A) (A) (A) (A) (A)
                 (A) (A) (A) (A) (A) (A) (A) (A) (A) (A) (A) (A)
                 (A) (A) (A) (A) (A) (A) (A) (A) (A) (A) (A) (A)
                 (A) (A) (A) (A) (A) (A) (A) (A) (A) (A) (A) (A)
                 (A) (A) (A) (A) (A) (A) (A) (A) (A) (A) (A) (A)
                 (A) (A) (A) (A) (A) (A) (A) (A) (A) (A) (A) (A)
                 (A) (A) (A) (A) (A) (A) (A) (A) (A) (A) (A) (A)
                 (A) (A) (A) (A) (A) (A) (A) (A) (A) (A) (A) (A)
                 (A) (A) (A) (A) (A) (A) (A) (A) (A) (A) (A) (A)
                 (A) (A) (A) (A) (A) (A) (A) (A) (A) (A) (A) (A)
                 (A) (A) (A) (A) (A) (A) (A) (A) (A) (A) (A) (A)
                 (A) (A) (A) (A) (A) (A) (A) (A) (A) (A) (A) (A)
                 (A) (A) (A) (A) (A) (A) (A) (A) (A) (A) (A) (A)
                 (A) (A) (A) (A) (A) (A) (A) (A) (A) (A) (A) (A)
                 (A) (A) (A) (A) (A) (A) (A) (A) (A) (A) (A) (A)
                 (A) (A) (A) (A) (A) (A) (A) (A) (A) (A) (A) (A)
                 (A) (A) (A) (A) (A) (A) (A) (A) (A) (A) (A) (A)
                 (A) (A) (A) (A) (A) (A) (A) (A) (A) (A) (A) (A)
                 (A) (A) (A) (A) (A) (A) (A) (A) (A) (A) (A) (A)
                 (A) (A) (A) (A) (A) (A) (A) (A) (A) (A) (A) (A)
                 (A) (A) (A) (A) (A) (A) (A) (A) (A) (A) (A) (A)
                 (A) (A) (A) (A) (A) (A) (A) (A) (A) (A) (A) (A)
                 (A) (A) (A) (A) (A) (A) (A) (A) (A) (A) (A) (A)
                 (A) (A) (A) (A) (A) (A) (A) (A) (A) (A) (A) (A)
                 (A) (A) (A) (A) (A) (A) (A) (A) (A) (A) (A) (A)
                 (A) (A) (A) (A) (A) (A) (A) (A) (A) (A) (A) (A)
                 (A) (A) (A) (A) (A) (A) (A) (A) (A) (A) (A) (A)
                 (A) (A) (A) (A) (A) (A) (A) (A) (A) (A) (A) (A)
                 (A) (A) (A) (A) (A) (A) (A) (A) (A) (A) (A) (A)
                 (A) (A) (A) (A) (A) (A) (A) (A) (A) (A) (A) (A)
                 (A) (A) (A) (A) (A) (A) (A) (A) (A) (A) (A) (A)
                 (A) (A) (A) (A) (A) (A) (A) (A) (A) (A) (A) (A)
                 (A) (A) (A) (A) (A) (A) (A) (A) (A) (A) (A) (A)
                 (A) (A) (A) (A) (A) (A) (A) (A) (A) (A) (A) (A)
                 (A) (A) (A) (A) (A) (A) (A) (A)
    20 initial guesses have been made.
 Convergence on wavefunction:    0.001000000000000
 Davidson Disk Diagonalization:  ConvIn= 1.00D-03 SkipCon=T Conv= 1.00D-03.
 Max sub-space:  2000 roots to seek:    20 dimension of matrix:       370304
 Iteration     1 Dimension    20 NMult     0 NNew     20
 CISAX will form    20 AO SS matrices at one time.
 NMat=    20 NSing=    20 JSym2X= 0.
 FoFJK:  IHMeth= 1 ICntrl=       0 DoSepK=T KAlg= 0 I1Cent=           0 FoldK=F
 IRaf=         1 NMat=      40 IRICut=       1 DoRegI=T DoRafI=F ISym2E= 0 IDoP0=3 IntGTp=3.
 FoFCou: FMM=T IPFlag=           0 FMFlag=      100000 FMFlg1=        2001
         NFxFlg=           0 DoJE=F BraDBF=F KetDBF=F FulRan=T
         wScrn=  0.000000 ICntrl=       500 IOpCl=  0 I1Cent=           0 NGrid=           0
         NMat0=   20 NMatS0=     20 NMatT0=    0 NMatD0=   20 NMtDS0=    0 NMtDT0=    0
 Symmetry not used in FoFCou.
 FMM levels:  10  Number of levels for PrismC:   9
 New state      4 was old state      5
 New state      5 was old state     10
 Excitation Energies [eV] at current iteration:
 Root      1 :     2.223261373741043
 Root      2 :     2.602284363643816
 Root      3 :     3.553392248136591
 Root      4 :     3.940651942281938
 Root      5 :     4.019500611414667
 Root      6 :     4.116431529124347
 Root      7 :     4.196986060419482
 Root      8 :     4.271722212289432
 Root      9 :     4.366821103849814
 Root     10 :     4.595355659718214
 Root     11 :     4.633501103101129
 Root     12 :     4.730388786025667
 Root     13 :     4.860753418053578
 Root     14 :     4.897538329438365
 Root     15 :     5.013354630406597
 Root     16 :     5.166362087897491
 Root     17 :     5.295019242433729
 Root     18 :     5.604989982818736
 Root     19 :     6.221379124378847
 Root     20 :     6.585164627233712
 Iteration     2 Dimension    30 NMult    20 NNew     10
 CISAX will form    10 AO SS matrices at one time.
 NMat=    10 NSing=    10 JSym2X= 0.
 Root      1 not converged, maximum delta is    0.064352916527738
 Root      2 not converged, maximum delta is    0.063116441999595
 Root      3 not converged, maximum delta is    0.058461402414684
 New state      4 was old state      5
 Root      4 not converged, maximum delta is    0.133614471597972
 New state      5 was old state      4
 Root      5 not converged, maximum delta is    0.190370571527030
 Excitation Energies [eV] at current iteration:
 Root      1 :     1.795471990478916   Change is   -0.427789383262127
 Root      2 :     2.188481649011616   Change is   -0.413802714632200
 Root      3 :     3.296419150421472   Change is   -0.256973097715119
 Root      4 :     3.575135013257142   Change is   -0.444365598157525
 Root      5 :     3.648878111780826   Change is   -0.291773830501112
 Iteration     3 Dimension    40 NMult    30 NNew     10
 CISAX will form    10 AO SS matrices at one time.
 NMat=    10 NSing=    10 JSym2X= 0.
 Root      1 not converged, maximum delta is    0.016714197486575
 Root      2 not converged, maximum delta is    0.016041775456396
 Root      3 not converged, maximum delta is    0.012403553874956
 Root      4 not converged, maximum delta is    0.083356303389327
 Root      5 not converged, maximum delta is    0.099018959220732
 Excitation Energies [eV] at current iteration:
 Root      1 :     1.761378371768267   Change is   -0.034093618710649
 Root      2 :     2.164480636135088   Change is   -0.024001012876528
 Root      3 :     3.285148787023678   Change is   -0.011270363397795
 Root      4 :     3.503389013678770   Change is   -0.071745999578372
 Root      5 :     3.535198569620512   Change is   -0.113679542160313
 Iteration     4 Dimension    50 NMult    40 NNew     10
 CISAX will form    10 AO SS matrices at one time.
 NMat=    10 NSing=    10 JSym2X= 0.
 Root      1 not converged, maximum delta is    0.002388286325841
 Root      2 not converged, maximum delta is    0.002992572239666
 Root      3 not converged, maximum delta is    0.003737808992788
 Root      4 not converged, maximum delta is    0.110471914307836
 Root      5 not converged, maximum delta is    0.039983359603708
 Excitation Energies [eV] at current iteration:
 Root      1 :     1.757340811412235   Change is   -0.004037560356032
 Root      2 :     2.161594842349790   Change is   -0.002885793785298
 Root      3 :     3.283119242716221   Change is   -0.002029544307456
 Root      4 :     3.471804769860014   Change is   -0.031584243818756
 Root      5 :     3.524290340946215   Change is   -0.010908228674297
 Iteration     5 Dimension    60 NMult    50 NNew     10
 CISAX will form    10 AO SS matrices at one time.
 NMat=    10 NSing=    10 JSym2X= 0.
 Root      1 not converged, maximum delta is    0.001221420899401
 Root      2 has converged.
 Root      3 not converged, maximum delta is    0.002654465923113
 Root      4 not converged, maximum delta is    0.099372703057011
 Root      5 not converged, maximum delta is    0.029123195149328
 Excitation Energies [eV] at current iteration:
 Root      1 :     1.756988312688744   Change is   -0.000352498723492
 Root      2 :     2.161370636505242   Change is   -0.000224205844548
 Root      3 :     3.282885285916937   Change is   -0.000233956799284
 Root      4 :     3.456034200720207   Change is   -0.015770569139808
 Root      5 :     3.522878819114608   Change is   -0.001411521831608
 Iteration     6 Dimension    68 NMult    60 NNew      8
 CISAX will form     8 AO SS matrices at one time.
 NMat=     8 NSing=     8 JSym2X= 0.
 Root      1 has converged.
 Root      2 has converged.
 Root      3 has converged.
 Root      4 not converged, maximum delta is    0.035571123235664
 Root      5 not converged, maximum delta is    0.014045044135721
 Excitation Energies [eV] at current iteration:
 Root      1 :     1.756954829283713   Change is   -0.000033483405030
 Root      2 :     2.161369232903217   Change is   -0.000001403602025
 Root      3 :     3.282857542881104   Change is   -0.000027743035833
 Root      4 :     3.452861237824036   Change is   -0.003172962896170
 Root      5 :     3.522661789291968   Change is   -0.000217029822640
 Iteration     7 Dimension    72 NMult    68 NNew      4
 CISAX will form     4 AO SS matrices at one time.
 NMat=     4 NSing=     4 JSym2X= 0.
 Root      1 has converged.
 Root      2 has converged.
 Root      3 has converged.
 Root      4 not converged, maximum delta is    0.014888143170414
 Root      5 not converged, maximum delta is    0.009236921766578
 Excitation Energies [eV] at current iteration:
 Root      1 :     1.756954558051759   Change is   -0.000000271231954
 Root      2 :     2.161369153356594   Change is   -0.000000079546623
 Root      3 :     3.282857299386692   Change is   -0.000000243494413
 Root      4 :     3.452111467457311   Change is   -0.000749770366726
 Root      5 :     3.522612450657395   Change is   -0.000049338634572
 Iteration     8 Dimension    76 NMult    72 NNew      4
 CISAX will form     4 AO SS matrices at one time.
 NMat=     4 NSing=     4 JSym2X= 0.
 Root      1 has converged.
 Root      2 has converged.
 Root      3 has converged.
 Root      4 not converged, maximum delta is    0.004458352841425
 Root      5 not converged, maximum delta is    0.003815306862704
 Excitation Energies [eV] at current iteration:
 Root      1 :     1.756954241034273   Change is   -0.000000317017487
 Root      2 :     2.161368966945588   Change is   -0.000000186411006
 Root      3 :     3.282856991700419   Change is   -0.000000307686272
 Root      4 :     3.451956279655983   Change is   -0.000155187801327
 Root      5 :     3.522599703327325   Change is   -0.000012747330070
 Iteration     9 Dimension    80 NMult    76 NNew      4
 CISAX will form     4 AO SS matrices at one time.
 NMat=     4 NSing=     4 JSym2X= 0.
 Root      1 has converged.
 Root      2 has converged.
 Root      3 has converged.
 Root      4 not converged, maximum delta is    0.001411948026578
 Root      5 not converged, maximum delta is    0.001557205846742
 Excitation Energies [eV] at current iteration:
 Root      1 :     1.756954233232871   Change is   -0.000000007801402
 Root      2 :     2.161368286217502   Change is   -0.000000680728087
 Root      3 :     3.282856794135403   Change is   -0.000000197565017
 Root      4 :     3.451928281432764   Change is   -0.000027998223219
 Root      5 :     3.522596347783586   Change is   -0.000003355543739
 Iteration    10 Dimension    84 NMult    80 NNew      4
 CISAX will form     4 AO SS matrices at one time.
 NMat=     4 NSing=     4 JSym2X= 0.
 Root      1 has converged.
 Root      2 has converged.
 Root      3 has converged.
 Root      4 has converged.
 Root      5 has converged.
 Excitation Energies [eV] at current iteration:
 Root      1 :     1.756954227862105   Change is   -0.000000005370766
 Root      2 :     2.161368108698306   Change is   -0.000000177519195
 Root      3 :     3.282856572734663   Change is   -0.000000221400740
 Root      4 :     3.451923811472864   Change is   -0.000004469959900
 Root      5 :     3.522595586317547   Change is   -0.000000761466038
 Convergence achieved on expansion vectors.
 ***********************************************************************
 Excited states from <AA,BB:AA,BB> singles matrix:
 ***********************************************************************
 
 1PDM for each excited state written to RWF  633
 Ground to excited state transition densities written to RWF  633
 Ground to excited state transition electric dipole moments (Au):
       state          X           Y           Z        Dip. S.      Osc.
         1        -0.0882      2.8856     -0.5242      8.6090      0.3706
         2        -1.7242     -0.4989     -0.2552      3.2869      0.1741
         3         0.3552      0.0646      0.0205      0.1307      0.0105
         4        -0.3997     -0.0964     -0.1219      0.1839      0.0156
         5        -0.6527     -0.2432     -0.1305      0.5022      0.0433
 Ground to excited state transition velocity dipole moments (Au):
       state          X           Y           Z        Dip. S.      Osc.
         1         0.0048     -0.1808      0.0333      0.0338      0.3492
         2         0.1307      0.0373      0.0186      0.0188      0.1579
         3        -0.0442     -0.0067     -0.0035      0.0020      0.0111
         4         0.0505      0.0126      0.0126      0.0029      0.0151
         5         0.0824      0.0310      0.0144      0.0080      0.0410
 Ground to excited state transition magnetic dipole moments (Au):
       state          X           Y           Z
         1         0.0755     -0.4108     -2.2205
         2         0.2330     -0.3592     -0.7230
         3         0.0999      0.0049     -0.8055
         4         0.5403      0.0255      0.6278
         5         0.1487      0.3782      0.4561
 Ground to excited state transition velocity quadrupole moments (Au):
       state          XX          YY          ZZ          XY          XZ          YZ
         1         0.2301     -0.3464     -0.0044     -2.0357      0.4005      0.1097
         2         2.5704      0.1683     -0.0011      0.4624      0.1857     -0.0318
         3        -0.8140     -0.0069      0.0058      0.2315     -0.0299      0.0112
         4         1.0574     -0.2508      0.0196      0.1231      0.2022      0.0510
         5         1.6155     -0.1561      0.0156      0.2332      0.1702      0.0017
 <0|del|b> * <b|rxdel|0> + <0|del|b> * <b|delr+rdel|0>
 Rotatory Strengths (R) in cgs (10**-40 erg-esu-cm/Gauss)
       state          XX          YY          ZZ    R(velocity)    E-M Angle
         1        27.6153    -28.7852      9.3377      2.7226       89.90
         2      -112.0925     18.9779    125.2326     10.7060       88.21
         3         5.2002     -3.7577    -10.9970     -3.1849       92.57
         4        20.2515    101.0357     76.8843     66.0572       36.80
         5        44.6396     42.6021     79.5349     55.5922       55.93
 1/2[<0|r|b>*<b|rxdel|0> + (<0|rxdel|b>*<b|r|0>)*]
 Rotatory Strengths (R) in cgs (10**-40 erg-esu-cm/Gauss)
       state          XX          YY          ZZ     R(length)
         1         4.7086    838.3623   -823.1310      6.6466
         2       284.1321   -126.7469   -130.4795      8.9686
         3       -25.0903     -0.2223     11.6608     -4.5506
         4       152.7147      1.7343     54.1262     69.5251
         5        68.6483     65.0354     42.0854     58.5897
  1/2[<0|del|b>*<b|r|0> + (<0|r|b>*<b|del|0>)*] (Au)
       state          X           Y           Z        Dip. S.   Osc.(frdel)
         1        -0.0004     -0.5217     -0.0174      0.5396      0.3597
         2        -0.2253     -0.0186     -0.0047      0.2487      0.1658
         3        -0.0157     -0.0004     -0.0001      0.0162      0.0108
         4        -0.0202     -0.0012     -0.0015      0.0229      0.0153
         5        -0.0538     -0.0075     -0.0019      0.0632      0.0421

 Excitation energies and oscillator strengths:
 
 Excited State   1:      Singlet-A      1.7570 eV  705.68 nm  f=0.3706  <S**2>=0.000
     245 -> 248       -0.15829
     246 -> 247        0.68756
 This state for optimization and/or second-order correction.
 Total Energy, E(TD-HF/TD-DFT) =  -3007.10572086    
 Copying the excited state density for this state as the 1-particle RhoCI density.
 
 Excited State   2:      Singlet-A      2.1614 eV  573.64 nm  f=0.1741  <S**2>=0.000
     245 -> 247        0.65942
     246 -> 248        0.22919
 
 Excited State   3:      Singlet-A      3.2829 eV  377.67 nm  f=0.0105  <S**2>=0.000
     241 -> 247       -0.13652
     244 -> 247        0.67854
 
 Excited State   4:      Singlet-A      3.4519 eV  359.17 nm  f=0.0156  <S**2>=0.000
     239 -> 247        0.13001
     239 -> 249        0.11009
     240 -> 247        0.51301
     240 -> 248       -0.19036
     240 -> 249        0.24494
     241 -> 247        0.17127
     246 -> 248       -0.16858
 
 Excited State   5:      Singlet-A      3.5226 eV  351.97 nm  f=0.0433  <S**2>=0.000
     243 -> 247        0.56977
     243 -> 249       -0.23543
     243 -> 250        0.10152
     243 -> 251       -0.22445
     246 -> 248       -0.16589
 SavETr:  write IOETrn=   770 NScale= 10 NData=  16 NLR=1 NState=    5 LETran=     100.
 Leave Link  914 at Thu May  5 14:00:26 2022, MaxMem= 10066329600 cpu:           45698.0 elap:            1917.5
 (Enter /sw/apps/gaussian-16.0/g16/l601.exe)
 Copying SCF densities to generalized density rwf, IOpCl= 0 IROHF=0.
 Hyperfine terms turned off by default for NAtoms > 100.

 **********************************************************************

[...]
 Alpha virt. eigenvalues --    1.21756   1.21830   1.22976   1.23019   1.24117
 Alpha virt. eigenvalues --    1.24468   1.24937   1.25804   1.25907   1.26345
 Alpha virt. eigenvalues --    1.26561   1.26891   1.27514   1.27591   1.28315
 Alpha virt. eigenvalues --    1.28570   1.28801   1.29014   1.29572   1.30260
 Alpha virt. eigenvalues --    1.31428   1.31579   1.32360   1.32761   1.33426
 Alpha virt. eigenvalues --    1.34016   1.34428   1.35240   1.35482   1.36241
 Alpha virt. eigenvalues --    1.36597   1.37436   1.37508   1.38092   1.38532
 Alpha virt. eigenvalues --    1.38675   1.39422   1.39678   1.39853   1.40166
 Alpha virt. eigenvalues --    1.40948   1.41169   1.41709   1.42020   1.42711
 Alpha virt. eigenvalues --    1.43014   1.43157   1.43628   1.44044   1.44395
 Alpha virt. eigenvalues --    1.44524   1.44896   1.45688   1.45773   1.45959
 Alpha virt. eigenvalues --    1.46253   1.46364   1.47274   1.47665   1.48092
 Alpha virt. eigenvalues --    1.48511   1.49111   1.49417   1.49787   1.50240
 Alpha virt. eigenvalues --    1.50291   1.50835   1.51572   1.51694   1.52117
 Alpha virt. eigenvalues --    1.52336   1.52706   1.53474   1.53549   1.54240
 Alpha virt. eigenvalues --    1.54684   1.54833   1.55365   1.56312   1.56586
 Alpha virt. eigenvalues --    1.56880   1.57539   1.57863   1.58206   1.58492
 Alpha virt. eigenvalues --    1.58572   1.58867   1.59343   1.59589   1.59912
 Alpha virt. eigenvalues --    1.60223   1.60773   1.60839   1.61133   1.61222
 Alpha virt. eigenvalues --    1.61657   1.61896   1.62066   1.62227   1.62410
 Alpha virt. eigenvalues --    1.62483   1.62747   1.62829   1.62892   1.63021
 Alpha virt. eigenvalues --    1.63563   1.63765   1.63775   1.64151   1.64710
 Alpha virt. eigenvalues --    1.65130   1.65472   1.66237   1.66694   1.67002
 Alpha virt. eigenvalues --    1.67386   1.67665   1.67914   1.68517   1.68674
 Alpha virt. eigenvalues --    1.68950   1.70116   1.70684   1.71130   1.71335
 Alpha virt. eigenvalues --    1.71575   1.71740   1.72526   1.72635   1.73336
 Alpha virt. eigenvalues --    1.73724   1.74251   1.74269   1.74761   1.74912
 Alpha virt. eigenvalues --    1.75496   1.76190   1.76323   1.76810   1.76945
 Alpha virt. eigenvalues --    1.77317   1.77431   1.77668   1.77874   1.78098
 Alpha virt. eigenvalues --    1.78483   1.78641   1.78984   1.79622   1.79879
 Alpha virt. eigenvalues --    1.79955   1.80174   1.80806   1.80887   1.81600
 Alpha virt. eigenvalues --    1.81713   1.81899   1.82153   1.82447   1.82584
 Alpha virt. eigenvalues --    1.82708   1.82914   1.82967   1.83236   1.83522
 Alpha virt. eigenvalues --    1.83669   1.83838   1.84220   1.84386   1.84683
 Alpha virt. eigenvalues --    1.84876   1.84915   1.85016   1.85142   1.85301
 Alpha virt. eigenvalues --    1.85373   1.85649   1.85687   1.85886   1.86383
 Alpha virt. eigenvalues --    1.86565   1.86676   1.86778   1.86905   1.87093
 Alpha virt. eigenvalues --    1.87214   1.87342   1.87645   1.87957   1.88275
 Alpha virt. eigenvalues --    1.88436   1.88737   1.88773   1.88855   1.89272
 Alpha virt. eigenvalues --    1.89429   1.89489   1.89670   1.89809   1.90388
 Alpha virt. eigenvalues --    1.90597   1.90669   1.90719   1.90939   1.91013
 Alpha virt. eigenvalues --    1.91495   1.91780   1.91992   1.92382   1.92447
 Alpha virt. eigenvalues --    1.92843   1.93102   1.93369   1.93573   1.94108
 Alpha virt. eigenvalues --    1.94223   1.94380   1.94671   1.94908   1.95023
 Alpha virt. eigenvalues --    1.95212   1.95504   1.95647   1.96415   1.96521
 Alpha virt. eigenvalues --    1.97026   1.97097   1.97322   1.97476   1.97779
 Alpha virt. eigenvalues --    1.98107   1.98533   1.98830   1.98968   1.99238
 Alpha virt. eigenvalues --    1.99524   1.99636   1.99957   2.00084   2.00749
 Alpha virt. eigenvalues --    2.00929   2.01301   2.01393   2.01492   2.01826
 Alpha virt. eigenvalues --    2.01962   2.02397   2.02619   2.02649   2.02975
 Alpha virt. eigenvalues --    2.03278   2.03490   2.03805   2.03958   2.04204
 Alpha virt. eigenvalues --    2.04307   2.04352   2.04893   2.05050   2.05335
 Alpha virt. eigenvalues --    2.05887   2.06017   2.06515   2.06886   2.07479
 Alpha virt. eigenvalues --    2.07798   2.08030   2.08168   2.08736   2.09126
 Alpha virt. eigenvalues --    2.09240   2.09401   2.09734   2.10326   2.10471
 Alpha virt. eigenvalues --    2.11110   2.11187   2.11793   2.11920   2.12181
 Alpha virt. eigenvalues --    2.12338   2.12793   2.12917   2.13007   2.13249
 Alpha virt. eigenvalues --    2.13453   2.13974   2.14630   2.14867   2.15046
 Alpha virt. eigenvalues --    2.15446   2.15654   2.15899   2.16100   2.16137
 Alpha virt. eigenvalues --    2.16438   2.16661   2.17032   2.17189   2.17264
 Alpha virt. eigenvalues --    2.17621   2.18033   2.18168   2.18537   2.18827
 Alpha virt. eigenvalues --    2.19305   2.19361   2.19522   2.19995   2.20321
 Alpha virt. eigenvalues --    2.20436   2.20727   2.21025   2.21123   2.21656
 Alpha virt. eigenvalues --    2.22162   2.22358   2.23084   2.23479   2.23854
 Alpha virt. eigenvalues --    2.24435   2.24648   2.25422   2.25539   2.25757
 Alpha virt. eigenvalues --    2.26685   2.27806   2.28057   2.28191   2.28356
 Alpha virt. eigenvalues --    2.29038   2.29382   2.29851   2.30121   2.30528
 Alpha virt. eigenvalues --    2.30857   2.31116   2.31642   2.32100   2.32742
 Alpha virt. eigenvalues --    2.33043   2.33601   2.34262   2.34524   2.35486
 Alpha virt. eigenvalues --    2.35835   2.36217   2.36877   2.36984   2.37110
 Alpha virt. eigenvalues --    2.37353   2.37394   2.38142   2.38910   2.39071
 Alpha virt. eigenvalues --    2.39298   2.39553   2.39657   2.39974   2.40572
 Alpha virt. eigenvalues --    2.41176   2.41354   2.41618   2.42082   2.42303
 Alpha virt. eigenvalues --    2.42781   2.43432   2.43615   2.43873   2.44141
 Alpha virt. eigenvalues --    2.44722   2.45220   2.45403   2.45631   2.45784
 Alpha virt. eigenvalues --    2.46115   2.46133   2.46916   2.47390   2.47985
 Alpha virt. eigenvalues --    2.48249   2.48493   2.48799   2.50224   2.50414
 Alpha virt. eigenvalues --    2.50866   2.51087   2.51491   2.51625   2.51858
 Alpha virt. eigenvalues --    2.52058   2.52335   2.52471   2.52775   2.52879
 Alpha virt. eigenvalues --    2.53351   2.53741   2.54024   2.54421   2.54491
 Alpha virt. eigenvalues --    2.55664   2.55986   2.56106   2.56769   2.57188
 Alpha virt. eigenvalues --    2.57569   2.58040   2.58610   2.58986   2.59374
 Alpha virt. eigenvalues --    2.59516   2.60026   2.61158   2.61268   2.61633
 Alpha virt. eigenvalues --    2.62006   2.62567   2.62675   2.63071   2.63956
 Alpha virt. eigenvalues --    2.64063   2.64480   2.64654   2.65690   2.65961
 Alpha virt. eigenvalues --    2.66037   2.66236   2.66357   2.66772   2.67134
 Alpha virt. eigenvalues --    2.67433   2.67797   2.68289   2.68963   2.69555
 Alpha virt. eigenvalues --    2.69776   2.69922   2.70303   2.70797   2.71490
 Alpha virt. eigenvalues --    2.71591   2.71665   2.72676   2.72991   2.73246
 Alpha virt. eigenvalues --    2.73404   2.74281   2.74685   2.75343   2.75496
 Alpha virt. eigenvalues --    2.75563   2.75793   2.76448   2.76963   2.77419
 Alpha virt. eigenvalues --    2.77769   2.77995   2.78446   2.78794   2.79628
 Alpha virt. eigenvalues --    2.79679   2.79897   2.80338   2.81114   2.81442
 Alpha virt. eigenvalues --    2.82085   2.82451   2.82725   2.83034   2.83090
 Alpha virt. eigenvalues --    2.83996   2.84275   2.84585   2.85846   2.86166
 Alpha virt. eigenvalues --    2.86388   2.87033   2.87448   2.88342   2.88548
 Alpha virt. eigenvalues --    2.89186   2.89405   2.89682   2.91213   2.92001
 Alpha virt. eigenvalues --    2.92159   2.92237   2.93585   2.94323   2.94536
 Alpha virt. eigenvalues --    2.94792   2.95087   2.95212   2.95822   2.96225
 Alpha virt. eigenvalues --    2.96576   2.97012   2.97246   2.97317   2.97572
 Alpha virt. eigenvalues --    2.97725   2.97822   2.98145   2.98297   2.99017
 Alpha virt. eigenvalues --    2.99366   2.99554   2.99866   3.00236   3.00784
 Alpha virt. eigenvalues --    3.00899   3.01373   3.01471   3.01813   3.01852
 Alpha virt. eigenvalues --    3.02230   3.02708   3.02987   3.03161   3.03433
 Alpha virt. eigenvalues --    3.03597   3.03698   3.04310   3.04643   3.05219
 Alpha virt. eigenvalues --    3.05587   3.06002   3.06373   3.06687   3.06916
 Alpha virt. eigenvalues --    3.07559   3.07747   3.07922   3.08119   3.08230
 Alpha virt. eigenvalues --    3.08470   3.09122   3.09342   3.10400   3.10761
 Alpha virt. eigenvalues --    3.11222   3.11320   3.12498   3.12895   3.13097
 Alpha virt. eigenvalues --    3.13720   3.14447   3.14661   3.14908   3.15224
 Alpha virt. eigenvalues --    3.16001   3.16204   3.16481   3.16848   3.17210
 Alpha virt. eigenvalues --    3.18257   3.18279   3.19357   3.20695   3.20773
 Alpha virt. eigenvalues --    3.21122   3.22618   3.22989   3.23771   3.24084
 Alpha virt. eigenvalues --    3.25102   3.27876   3.28247   3.29359   3.30000
 Alpha virt. eigenvalues --    3.30824   3.32420   3.43343   3.44069   3.47430
 Alpha virt. eigenvalues --    3.49694   3.51071   3.51356   3.51677   3.55106
 Alpha virt. eigenvalues --    3.57925   3.65945   3.68395   3.72196   3.72917
 Alpha virt. eigenvalues --    3.73470   3.77674
          Condensed to atoms (all electrons):
 Mulliken charges:
               1
     1  Mg   0.827894
     2  C    0.045846
     3  C   -0.077777
     4  C   -0.054789
     5  C   -0.065433
     6  N   -0.236090
     7  C   -0.042880
     8  C   -0.015271
     9  C   -0.063388
    10  C    0.019114
    11  C    0.063969
    12  C   -0.021573
    13  C    0.093538
    14  C    0.154521
    15  O   -0.240235
    16  O   -0.288586
    17  N   -0.387586
    18  C    0.141456
    19  C   -0.096868
    20  C   -0.065665
    21  C    0.133897
    22  C    0.099259
    23  C    0.011914
    24  O   -0.200877
    25  C    0.052064
    26  N   -0.279816
    27  C    0.042066
    28  C   -0.052076
    29  C   -0.044353
    30  C    0.023043
    31  C    0.083389
    32  C    0.037569
    33  C    0.023903
    34  N   -0.341437
    35  C    0.121292
    36  C   -0.168527
    37  C   -0.001120
    38  C    0.072696
    39  C    0.116173
    40  C    0.038841
    41  O   -0.184505
    42  C   -0.066378
    43  C    0.198700
    44  O   -0.212468
    45  O   -0.332912
    46  C    0.165370
    47  C    0.283717
    48  C   -0.173712
    49  C   -0.121875
    50  C    0.038023
    51  C    0.084982
    52  C    0.012455
    53  C    0.058427
    54  C   -0.163205
    55  C    0.050834
    56  C    0.081939
    57  C    0.064742
    58  C    0.057122
    59  C   -0.156488
    60  C    0.053647
    61  C    0.078403
    62  C    0.017707
    63  C    0.006169
    64  C   -0.148420
    65  C    0.025925
    66  C    0.056410
    67  H   -0.037259
    68  H    0.003434
    69  H   -0.023136
    70  H    0.012019
    71  H    0.010779
    72  H    0.028830
    73  H    0.025335
    74  H    0.015926
    75  H    0.006624
    76  H    0.060972
    77  H    0.015184
    78  H    0.030681
    79  H    0.038871
    80  H   -0.001759
    81  H    0.035751
    82  H    0.026856
    83  H    0.039525
    84  H    0.028868
    85  H    0.016609
    86  H    0.016644
    87  H    0.021612
    88  H    0.006738
    89  H    0.021592
    90  H    0.005805
    91  H   -0.003982
    92  H    0.006259
    93  H    0.015444
    94  H    0.015168
    95  H    0.029198
    96  H    0.031858
    97  H    0.011811
    98  H    0.060094
    99  H    0.023029
   100  H    0.034237
   101  H    0.072337
   102  H    0.045113
   103  H    0.032485
   104  H    0.001458
   105  H    0.015645
   106  H    0.019405
   107  H    0.020116
   108  H    0.022195
   109  H   -0.001688
   110  H    0.001959
   111  H   -0.003908
   112  H   -0.010644
   113  H   -0.008258
   114  H   -0.013801
   115  H   -0.000075
   116  H    0.013694
   117  H    0.000077
   118  H   -0.015245
   119  H   -0.007944
   120  H   -0.018997
   121  H   -0.002884
   122  H   -0.030362
   123  H   -0.004738
   124  H   -0.003680
   125  H    0.008769
   126  H    0.002347
   127  H    0.011027
   128  H   -0.010588
   129  H   -0.006779
   130  H   -0.007795
   131  H   -0.011750
   132  H   -0.005045
   133  H   -0.023696
   134  H   -0.004563
   135  H    0.007624
   136  H    0.012289
   137  H    0.005102
   138  H    0.017325
   139  H    0.017716
   140  H    0.003427
 Sum of Mulliken charges =  -0.00000
 Mulliken charges with hydrogens summed into heavy atoms:
               1
     1  Mg   0.827894
     2  C    0.045846
     3  C   -0.115036
     4  C   -0.051355
     5  C   -0.088569
     6  N   -0.236090
     7  C   -0.042880
     8  C   -0.003251
     9  C   -0.052609
    10  C    0.019114
    11  C    0.134061
    12  C    0.046022
    13  C    0.139403
    14  C    0.154521
    15  O   -0.240235
    16  O   -0.288586
    17  N   -0.387586
    18  C    0.141456
    19  C   -0.096868
    20  C   -0.065665
    21  C    0.133897
    22  C    0.172122
    23  C    0.011914
    24  O   -0.200877
    25  C    0.147313
    26  N   -0.279816
    27  C    0.042066
    28  C   -0.035467
    29  C   -0.027710
    30  C    0.023043
    31  C    0.133331
    32  C    0.039391
    33  C    0.060773
    34  N   -0.341437
    35  C    0.121292
    36  C   -0.168527
    37  C   -0.001120
    38  C    0.072696
    39  C    0.189040
    40  C    0.038841
    41  O   -0.184505
    42  C   -0.006283
    43  C    0.198700
    44  O   -0.212468
    45  O   -0.332912
    46  C    0.294973
    47  C    0.361316
    48  C   -0.172254
    49  C   -0.121875
    50  C    0.093191
    51  C    0.105490
    52  C    0.010506
    53  C    0.039525
    54  C   -0.177005
    55  C    0.064530
    56  C    0.058750
    57  C    0.042862
    58  C    0.022022
    59  C   -0.160168
    60  C    0.075790
    61  C    0.061036
    62  C   -0.001838
    63  C   -0.022573
    64  C   -0.152983
    65  C    0.050941
    66  C    0.094878
 Electronic spatial extent (au):  <R**2>=         128537.6816
 Charge=              0.0000 electrons
 Dipole moment (field-independent basis, Debye):
    X=             -2.9840    Y=              6.6509    Z=             -1.0663  Tot=              7.3672
 Quadrupole moment (field-independent basis, Debye-Ang):
   XX=           -371.6360   YY=           -425.2872   ZZ=           -408.3390
   XY=             10.8587   XZ=             16.2927   YZ=             -3.0595
 Traceless Quadrupole moment (field-independent basis, Debye-Ang):
   XX=             30.1180   YY=            -23.5331   ZZ=             -6.5849
   XY=             10.8587   XZ=             16.2927   YZ=             -3.0595
 Octapole moment (field-independent basis, Debye-Ang**2):
  XXX=             81.3461  YYY=            190.6507  ZZZ=             -5.8326  XYY=           -184.9287
  XXY=           -290.3385  XXZ=            110.2699  XZZ=             52.8190  YZZ=             16.4035
  YYZ=            -85.8286  XYZ=            -55.0861
 Hexadecapole moment (field-independent basis, Debye-Ang**3):
 XXXX=        -146417.7287 YYYY=         -21871.0741 ZZZZ=          -6978.6689 XXXY=          -2990.0880
 XXXZ=            926.5977 YYYX=            722.5837 YYYZ=           -173.4750 ZZZX=            152.2568
 ZZZY=            -89.4075 XXYY=         -29789.7831 XXZZ=         -26238.7486 YYZZ=          -4770.4426
 XXYZ=           -341.6457 YYXZ=            -86.3201 ZZXY=            321.1161
 N-N= 9.442940483586D+03 E-N=-2.587684040705D+04  KE= 2.975047187557D+03
 Leave Link  601 at Thu May  5 14:00:26 2022, MaxMem= 10066329600 cpu:              12.0 elap:               0.6
 (Enter /sw/apps/gaussian-16.0/g16/l9999.exe)
 1\1\GINC-BP1-COMPUTE196\SP\RCAM-B3LYP TD-FC\def2SVP\C55H74Mg1N4O6\OF15
 641\05-May-2022\0\\#p cam-b3lyp/Def2SVP td=(nstates=5)\\step_901_chrom
 ophore_7 TDDFT with cam-b3lyp functional\\0,1\Mg,0,25.741,0.104,29.485
 \C,0,27.621,-0.284,32.462\C,0,22.988,0.266,31.404\C,0,23.94,0.12,26.63
 1\C,0,28.718,-0.681,27.615\N,0,25.309,-0.168,31.734\C,0,26.276,-0.126,
 32.761\C,0,25.633,0.025,34.099\C,0,24.073,0.199,33.758\C,0,24.119,0.05
 1,32.204\C,0,23.033,-0.688,34.559\C,0,26.264,1.262,34.854\C,0,25.632,1
 .806,36.14\C,0,26.627,1.912,37.336\O,0,27.731,2.464,37.355\O,0,26.231,
 1.121,38.314\N,0,23.738,0.207,29.104\C,0,22.709,0.195,29.992\C,0,21.37
 5,0.264,29.384\C,0,21.63,0.241,27.959\C,0,23.174,0.292,27.842\C,0,20.0
 96,0.2,30.171\C,0,20.65,0.254,26.809\O,0,20.912,0.289,25.604\C,0,19.21
 4,0.404,27.162\N,0,26.241,-0.1,27.427\C,0,25.354,0.043,26.468\C,0,26.0
 3,-0.152,25.081\C,0,27.544,-0.266,25.418\C,0,27.496,-0.409,26.93\C,0,2
 5.503,-1.373,24.406\C,0,28.262,1.141,25.006\C,0,29.753,1.083,24.854\N,
 0,27.813,-0.319,29.885\C,0,28.876,-0.655,29.049\C,0,30.023,-0.957,29.8
 21\C,0,29.636,-0.755,31.198\C,0,28.278,-0.391,31.16\C,0,31.334,-1.349,
 29.215\C,0,30.101,-0.622,32.563\O,0,31.174,-0.681,33.16\C,0,28.826,-0.
 244,33.423\C,0,28.829,-1.31,34.458\O,0,28.69,-2.5,34.293\O,0,28.968,-0
 .72,35.681\C,0,28.802,-1.671,36.806\C,0,27.021,0.952,39.498\C,0,26.153
 ,0.987,40.711\C,0,26.465,1.174,42.022\C,0,27.955,1.459,42.491\C,0,25.4
 28,1.197,43.166\C,0,24.053,0.481,43.039\C,0,22.829,1.409,43.334\C,0,22
 .313,1.249,44.731\C,0,21.378,0.001,44.842\C,0,21.692,2.534,45.37\C,0,2
 2.691,3.38,46.061\C,0,22.436,3.417,47.541\C,0,23.057,4.707,48.153\C,0,
 23.473,4.489,49.598\C,0,21.963,5.863,48.143\C,0,22.472,7.151,47.536\C,
 0,21.547,7.822,46.484\C,0,22.045,7.98,45.026\C,0,21.514,9.313,44.443\C
 ,0,21.598,6.842,44.02\H,0,22.103,0.506,31.997\H,0,23.373,0.145,25.698\
 H,0,29.543,-0.918,26.941\H,0,25.609,-0.874,34.715\H,0,23.935,1.244,34.
 034\H,0,23.411,-1.297,35.381\H,0,22.52,-1.333,33.846\H,0,22.328,0.005,
 35.018\H,0,26.393,1.989,34.053\H,0,27.286,0.947,35.065\H,0,24.769,1.21
 2,36.441\H,0,25.191,2.745,35.808\H,0,19.37,1.009,30.089\H,0,20.332,0.1
 55,31.234\H,0,19.567,-0.747,30.073\H,0,18.604,0.574,26.274\H,0,19.008,
 1.199,27.878\H,0,18.941,-0.592,27.509\H,0,25.756,0.721,24.489\H,0,28.1
 11,-1.142,25.103\H,0,24.82,-1.914,25.06\H,0,26.306,-2.081,24.2\H,0,25.
 002,-1.155,23.462\H,0,27.96,2.031,25.559\H,0,27.77,1.373,24.062\H,0,30
 .099,0.105,24.52\H,0,30.236,1.249,25.816\H,0,30.19,1.845,24.208\H,0,31
 .426,-2.373,28.854\H,0,32.124,-1.157,29.942\H,0,31.441,-0.695,28.35\H,
 0,29.081,0.753,33.785\H,0,27.805,-1.419,37.168\H,0,29.463,-1.253,37.56
 5\H,0,29.013,-2.719,36.591\H,0,27.692,1.779,39.725\H,0,27.595,0.026,39
 .453\H,0,25.132,0.785,40.386\H,0,28.177,0.704,43.244\H,0,28.16,2.337,4
 3.105\H,0,28.666,1.485,41.665\H,0,25.29,2.247,43.422\H,0,25.867,0.708,
 44.036\H,0,24.068,-0.384,43.702\H,0,23.925,0.033,42.054\H,0,22.055,1.2
 14,42.592\H,0,23.03,2.48,43.287\H,0,23.203,1.005,45.311\H,0,21.537,-0.
 717,44.038\H,0,20.326,0.267,44.937\H,0,21.683,-0.541,45.737\H,0,20.93,
 2.154,46.05\H,0,21.122,3.095,44.629\H,0,22.577,4.405,45.709\H,0,23.733
 ,3.153,45.837\H,0,22.966,2.662,48.121\H,0,21.406,3.217,47.833\H,0,24.0
 1,4.991,47.706\H,0,22.62,4.124,50.169\H,0,23.739,5.483,49.959\H,0,24.3
 57,3.851,49.601\H,0,21.686,6.081,49.175\H,0,21.009,5.663,47.654\H,0,23
 .489,7.103,47.145\H,0,22.511,7.979,48.243\H,0,21.151,8.738,46.923\H,0,
 20.669,7.178,46.445\H,0,23.123,8.097,45.131\H,0,22.224,10.093,44.72\H,
 0,20.521,9.437,44.875\H,0,21.425,9.345,43.357\H,0,22.489,6.393,43.58\H
 ,0,20.844,7.155,43.298\H,0,21.172,6.069,44.661\\Version=ES64L-G16RevA.
 03\State=1-A\HF=-3007.1702877\RMSD=9.441e-09\PG=C01 [X(C55H74Mg1N4O6)]
 \\@


 WE TEND TO MEET ANY NEW SITUATION BY REORGANIZING. IT CAN BE A
 WONDERFUL METHOD FOR CREATING THE ILLUSION OF PROGRESS WHILE PRODUCING
 CONFUSION, INEFFICIENCY, AND DEMORALIZATION.
     -- PETRONIUS ARBITER, 210 B.C.
 Job cpu time:       0 days 16 hours 33 minutes  2.1 seconds.
 Elapsed time:       0 days  0 hours 41 minutes 53.1 seconds.
 File lengths (MBytes):  RWF=   8929 Int=      0 D2E=      0 Chk=    390 Scr=      1
 Normal termination of Gaussian 16 at Thu May  5 14:00:27 2022.
