 Entering Gaussian System, Link 0=g16
 Initial command:
 /sw/apps/gaussian-16.0/g16/l1.exe "/tmp/Gau-258172.inp" -scrdir="/tmp/"
 Entering Link 1 = /sw/apps/gaussian-16.0/g16/l1.exe PID=    258173.
  
 Copyright (c) 1988,1990,1992,1993,1995,1998,2003,2009,2016,
            Gaussian, Inc.  All Rights Reserved.
  
 This is part of the Gaussian(R) 16 program.  It is based on
 the Gaussian(R) 09 system (copyright 2009, Gaussian, Inc.),
 the Gaussian(R) 03 system (copyright 2003, Gaussian, Inc.),
 the Gaussian(R) 98 system (copyright 1998, Gaussian, Inc.),
 the Gaussian(R) 94 system (copyright 1995, Gaussian, Inc.),
 the Gaussian 92(TM) system (copyright 1992, Gaussian, Inc.),
 the Gaussian 90(TM) system (copyright 1990, Gaussian, Inc.),
 the Gaussian 88(TM) system (copyright 1988, Gaussian, Inc.),
 the Gaussian 86(TM) system (copyright 1986, Carnegie Mellon
 University), and the Gaussian 82(TM) system (copyright 1983,
 Carnegie Mellon University). Gaussian is a federally registered
 trademark of Gaussian, Inc.
  
 This software contains proprietary and confidential information,
 including trade secrets, belonging to Gaussian, Inc.
  
 This software is provided under written license and may be
 used, copied, transmitted, or stored only in accord with that
 written license.
  
 The following legend is applicable only to US Government
 contracts under FAR:
  
                    RESTRICTED RIGHTS LEGEND
  
 Use, reproduction and disclosure by the US Government is
 subject to restrictions as set forth in subparagraphs (a)
 and (c) of the Commercial Computer Software - Restricted
 Rights clause in FAR 52.227-19.
  
 Gaussian, Inc.
 340 Quinnipiac St., Bldg. 40, Wallingford CT 06492
  
  
 ---------------------------------------------------------------
 Warning -- This program may not be used in any manner that
 competes with the business of Gaussian, Inc. or will provide
 assistance to any competitor of Gaussian, Inc.  The licensee
 of this program is prohibited from giving any competitor of
 Gaussian, Inc. access to this program.  By using this program,
 the user acknowledges that Gaussian, Inc. is engaged in the
 business of creating and licensing software in the field of
 computational chemistry and represents and warrants to the
 licensee that it is not a competitor of Gaussian, Inc. and that
 it will not use this program in any manner prohibited above.
 ---------------------------------------------------------------
  

 Cite this work as:
 Gaussian 16, Revision A.03,
 M. J. Frisch, G. W. Trucks, H. B. Schlegel, G. E. Scuseria, 
 M. A. Robb, J. R. Cheeseman, G. Scalmani, V. Barone, 
 G. A. Petersson, H. Nakatsuji, X. Li, M. Caricato, A. V. Marenich, 
 J. Bloino, B. G. Janesko, R. Gomperts, B. Mennucci, H. P. Hratchian, 
 J. V. Ortiz, A. F. Izmaylov, J. L. Sonnenberg, D. Williams-Young, 
 F. Ding, F. Lipparini, F. Egidi, J. Goings, B. Peng, A. Petrone, 
 T. Henderson, D. Ranasinghe, V. G. Zakrzewski, J. Gao, N. Rega, 
 G. Zheng, W. Liang, M. Hada, M. Ehara, K. Toyota, R. Fukuda, 
 J. Hasegawa, M. Ishida, T. Nakajima, Y. Honda, O. Kitao, H. Nakai, 
 T. Vreven, K. Throssell, J. A. Montgomery, Jr., J. E. Peralta, 
 F. Ogliaro, M. J. Bearpark, J. J. Heyd, E. N. Brothers, K. N. Kudin, 
 V. N. Staroverov, T. A. Keith, R. Kobayashi, J. Normand, 
 K. Raghavachari, A. P. Rendell, J. C. Burant, S. S. Iyengar, 
 J. Tomasi, M. Cossi, J. M. Millam, M. Klene, C. Adamo, R. Cammi, 
 J. W. Ochterski, R. L. Martin, K. Morokuma, O. Farkas, 
 J. B. Foresman, and D. J. Fox, Gaussian, Inc., Wallingford CT, 2016.
 
 ******************************************
 Gaussian 16:  ES64L-G16RevA.03 25-Dec-2016
                29-Apr-2022 
 ******************************************
 %nproc=24
 Will use up to   24 processors via shared memory.
 %mem=50gb
 --------------------
 #p ZINDO=(nstates=5)
 --------------------
 1/38=1,172=1/1;
 2/12=2,17=6,18=5,40=1/2;
 3/5=2,25=1,41=400000/1,2,3,8;
 4/5=3,35=1/1;
 5/5=2,35=1,38=5/2;
 8/6=1,108=5/1;
 9/41=5,42=1,49=10/14;
 6/7=2,8=2,9=2,10=2/1;
 99/5=1,9=1/99;
 Leave Link    1 at Fri Apr 29 13:00:49 2022, MaxMem=  6710886400 cpu:               0.8 elap:               0.0
 (Enter /sw/apps/gaussian-16.0/g16/l101.exe)
 -----------------------------
 step_301_chromophore_13 ZINDO
 -----------------------------
 Symbolic Z-matrix:
 Charge =  0 Multiplicity = 1
 Mg                    46.75     24.604    28.218 
 C                     47.409    27.01     30.804 
 C                     45.704    22.411    30.583 
 C                     46.689    22.292    25.783 
 C                     47.882    27.057    25.926 
 N                     46.547    24.767    30.436 
 C                     46.984    25.768    31.285 
 C                     46.748    25.352    32.774 
 C                     46.304    23.837    32.686 
 C                     46.2      23.624    31.165 
 C                     47.217    22.777    33.234 
 C                     45.66     26.223    33.588 
 C                     46.017    26.41     35.088 
 C                     44.894    26.32     36.113 
 O                     43.797    25.891    35.855 
 O                     45.222    26.797    37.38 
 N                     45.899    22.7      28.088 
 C                     45.579    21.963    29.217 
 C                     45.231    20.583    28.745 
 C                     45.619    20.5      27.339 
 C                     46.071    21.873    26.984 
 C                     44.745    19.456    29.708 
 C                     45.685    19.221    26.476 
 O                     46.057    19.249    25.303 
 C                     45.305    17.894    27.079 
 N                     47.354    24.652    26.209 
 C                     47.294    23.55     25.412 
 C                     47.66     23.891    23.933 
 C                     47.761    25.434    23.922 
 C                     47.702    25.732    25.436 
 C                     48.89     23.106    23.31 
 C                     46.781    26.275    23.065 
 C                     45.3      26.445    23.598 
 N                     47.684    26.515    28.263 
 C                     47.928    27.407    27.25 
 C                     48.316    28.73     27.79 
 C                     48.055    28.64     29.179 
 C                     47.654    27.279    29.402 
 C                     48.836    29.902    26.983 
 C                     48.055    29.394    30.47 
 O                     48.274    30.561    30.768 
 C                     47.719    28.266    31.547 
 C                     48.86     28.149    32.473 
 O                     49.955    27.778    32.154 
 O                     48.579    28.709    33.635 
 C                     49.607    28.673    34.698 
 C                     44.081    26.966    38.317 
 C                     44.018    25.758    39.239 
 C                     43.798    25.629    40.571 
 C                     43.336    26.667    41.567 
 C                     43.832    24.234    41.171 
 C                     42.555    23.341    40.942 
 C                     42.284    22.357    42.137 
 C                     40.93     22.756    42.73 
 C                     39.663    22.497    41.871 
 C                     40.998    24.064    43.606 
 C                     39.781    24.122    44.566 
 C                     40.192    24.689    45.92 
 C                     40.121    23.615    47.065 
 C                     38.637    23.391    47.542 
 C                     41.011    23.907    48.316 
 C                     42.285    23.036    48.28 
 C                     43.589    23.799    48.233 
 C                     44.239    23.555    46.925 
 C                     45.365    22.505    47.048 
 C                     44.782    24.864    46.403 
 H                     45.424    21.724    31.384 
 H                     46.856    21.58     24.972 
 H                     48.141    27.852    25.223 
 H                     47.714    25.443    33.272 
 H                     45.305    23.632    33.073 
 H                     47.933    23.328    33.843 
 H                     47.923    22.259    32.585 
 H                     46.641    22.186    33.947 
 H                     44.708    25.719    33.419 
 H                     45.62     27.151    33.019 
 H                     46.318    27.456    35.149 
 H                     46.931    25.84     35.253 
 H                     45.529    18.698    29.717 
 H                     43.857    19.062    29.214 
 H                     44.481    19.87     30.681 
 H                     45.794    17.56     27.994 
 H                     45.59     17.098    26.391 
 H                     44.226    18.005    27.194 
 H                     46.812    23.616    23.306 
 H                     48.766    25.792    23.699 
 H                     48.454    22.702    22.397 
 H                     49.286    22.385    24.025 
 H                     49.576    23.902    23.021 
 H                     46.691    25.752    22.113 
 H                     47.35     27.189    22.894 
 H                     44.574    26.235    22.813 
 H                     45.086    27.473    23.888 
 H                     45.022    25.925    24.515 
 H                     48.025    30.293    26.369 
 H                     49.716    29.698    26.374 
 H                     48.882    30.699    27.725 
 H                     46.948    28.71     32.177 
 H                     49.418    27.732    35.215 
 H                     49.501    29.52     35.376 
 H                     50.649    28.662    34.377 
 H                     43.17     27.143    37.745 
 H                     44.256    27.797    39. 
 H                     44.398    24.855    38.762 
 H                     42.352    26.402    41.954 
 H                     43.206    27.646    41.106 
 H                     44.023    26.882    42.386 
 H                     44.011    24.214    42.246 
 H                     44.688    23.682    40.783 
 H                     42.952    22.736    40.126 
 H                     41.654    23.907    40.703 
 H                     43.076    22.314    42.884 
 H                     42.017    21.408    41.672 
 H                     40.915    22.066    43.573 
 H                     39.025    23.324    42.183 
 H                     39.294    21.487    42.043 
 H                     39.812    22.647    40.802 
 H                     41.147    24.885    42.905 
 H                     41.862    23.866    44.24 
 H                     39.154    23.236    44.677 
 H                     39.011    24.726    44.085 
 H                     39.459    25.481    46.07 
 H                     41.139    25.21     45.773 
 H                     40.429    22.671    46.614 
 H                     38.055    23.897    46.772 
 H                     38.353    23.888    48.469 
 H                     38.335    22.344    47.521 
 H                     40.462    23.786    49.25 
 H                     41.327    24.949    48.352 
 H                     42.188    22.266    47.514 
 H                     42.224    22.453    49.198 
 H                     44.226    23.447    49.044 
 H                     43.38     24.863    48.348 
 H                     43.527    23.15     46.205 
 H                     45.073    21.744    46.324 
 H                     45.261    21.999    48.008 
 H                     46.368    22.896    46.883 
 H                     44.041    25.122    45.645 
 H                     45.758    24.649    45.968 
 H                     45.044    25.6      47.163 
 
 ITRead=  0  0  0  0  0  0  0  0  0  0  0  0  0  0  0  0  0  0  0  0
 ITRead=  0  0  0  0  0  0  0  0  0  0  0  0  0  0  0  0  0  0  0  0
 ITRead=  0  0  0  0  0  0  0  0  0  0  0  0  0  0  0  0  0  0  0  0
 ITRead=  0  0  0  0  0  0  0  0  0  0  0  0  0  0  0  0  0  0  0  0
 ITRead=  0  0  0  0  0  0  0  0  0  0  0  0  0  0  0  0  0  0  0  0
 ITRead=  0  0  0  0  0  0  0  0  0  0  0  0  0  0  0  0  0  0  0  0
 ITRead=  0  0  0  0  0  0  0  0  0  0  0  0  0  0  0  0  0  0  0  0
 MicOpt= -1 -1 -1 -1 -1 -1 -1 -1 -1 -1 -1 -1 -1 -1 -1 -1 -1 -1 -1 -1
 MicOpt= -1 -1 -1 -1 -1 -1 -1 -1 -1 -1 -1 -1 -1 -1 -1 -1 -1 -1 -1 -1
 MicOpt= -1 -1 -1 -1 -1 -1 -1 -1 -1 -1 -1 -1 -1 -1 -1 -1 -1 -1 -1 -1
 MicOpt= -1 -1 -1 -1 -1 -1 -1 -1 -1 -1 -1 -1 -1 -1 -1 -1 -1 -1 -1 -1
 MicOpt= -1 -1 -1 -1 -1 -1 -1 -1 -1 -1 -1 -1 -1 -1 -1 -1 -1 -1 -1 -1
 MicOpt= -1 -1 -1 -1 -1 -1 -1 -1 -1 -1 -1 -1 -1 -1 -1 -1 -1 -1 -1 -1
 MicOpt= -1 -1 -1 -1 -1 -1 -1 -1 -1 -1 -1 -1 -1 -1 -1 -1 -1 -1 -1 -1
 NAtoms=    140 NQM=      140 NQMF=       0 NMMI=      0 NMMIF=      0
                NMic=       0 NMicF=      0.
                    Isotopes and Nuclear Properties:
 (Nuclear quadrupole moments (NQMom) in fm**2, nuclear magnetic moments (NMagM)
  in nuclear magnetons)

  Atom         1           2           3           4           5           6           7           8           9          10
 IAtWgt=          24          12          12          12          12          14          12          12          12          12
 AtmWgt=  23.9850450  12.0000000  12.0000000  12.0000000  12.0000000  14.0030740  12.0000000  12.0000000  12.0000000  12.0000000
 NucSpn=           0           0           0           0           0           2           0           0           0           0
 AtZEff=  -0.0000000  -0.0000000  -0.0000000  -0.0000000  -0.0000000  -0.0000000  -0.0000000  -0.0000000  -0.0000000  -0.0000000
 NQMom=    0.0000000   0.0000000   0.0000000   0.0000000   0.0000000   2.0440000   0.0000000   0.0000000   0.0000000   0.0000000
 NMagM=    0.0000000   0.0000000   0.0000000   0.0000000   0.0000000   0.4037610   0.0000000   0.0000000   0.0000000   0.0000000
 AtZNuc=  12.0000000   6.0000000   6.0000000   6.0000000   6.0000000   7.0000000   6.0000000   6.0000000   6.0000000   6.0000000

  Atom        11          12          13          14          15          16          17          18          19          20
 IAtWgt=          12          12          12          12          16          16          14          12          12          12
 AtmWgt=  12.0000000  12.0000000  12.0000000  12.0000000  15.9949146  15.9949146  14.0030740  12.0000000  12.0000000  12.0000000
 NucSpn=           0           0           0           0           0           0           2           0           0           0
 AtZEff=  -0.0000000  -0.0000000  -0.0000000  -0.0000000  -0.0000000  -0.0000000  -0.0000000  -0.0000000  -0.0000000  -0.0000000
 NQMom=    0.0000000   0.0000000   0.0000000   0.0000000   0.0000000   0.0000000   2.0440000   0.0000000   0.0000000   0.0000000
 NMagM=    0.0000000   0.0000000   0.0000000   0.0000000   0.0000000   0.0000000   0.4037610   0.0000000   0.0000000   0.0000000
 AtZNuc=   6.0000000   6.0000000   6.0000000   6.0000000   8.0000000   8.0000000   7.0000000   6.0000000   6.0000000   6.0000000

  Atom        21          22          23          24          25          26          27          28          29          30
 IAtWgt=          12          12          12          16          12          14          12          12          12          12
 AtmWgt=  12.0000000  12.0000000  12.0000000  15.9949146  12.0000000  14.0030740  12.0000000  12.0000000  12.0000000  12.0000000
 NucSpn=           0           0           0           0           0           2           0           0           0           0
 AtZEff=  -0.0000000  -0.0000000  -0.0000000  -0.0000000  -0.0000000  -0.0000000  -0.0000000  -0.0000000  -0.0000000  -0.0000000
 NQMom=    0.0000000   0.0000000   0.0000000   0.0000000   0.0000000   2.0440000   0.0000000   0.0000000   0.0000000   0.0000000
 NMagM=    0.0000000   0.0000000   0.0000000   0.0000000   0.0000000   0.4037610   0.0000000   0.0000000   0.0000000   0.0000000
 AtZNuc=   6.0000000   6.0000000   6.0000000   8.0000000   6.0000000   7.0000000   6.0000000   6.0000000   6.0000000   6.0000000

  Atom        31          32          33          34          35          36          37          38          39          40
 IAtWgt=          12          12          12          14          12          12          12          12          12          12
 AtmWgt=  12.0000000  12.0000000  12.0000000  14.0030740  12.0000000  12.0000000  12.0000000  12.0000000  12.0000000  12.0000000
 NucSpn=           0           0           0           2           0           0           0           0           0           0
 AtZEff=  -0.0000000  -0.0000000  -0.0000000  -0.0000000  -0.0000000  -0.0000000  -0.0000000  -0.0000000  -0.0000000  -0.0000000
 NQMom=    0.0000000   0.0000000   0.0000000   2.0440000   0.0000000   0.0000000   0.0000000   0.0000000   0.0000000   0.0000000
 NMagM=    0.0000000   0.0000000   0.0000000   0.4037610   0.0000000   0.0000000   0.0000000   0.0000000   0.0000000   0.0000000
 AtZNuc=   6.0000000   6.0000000   6.0000000   7.0000000   6.0000000   6.0000000   6.0000000   6.0000000   6.0000000   6.0000000

  Atom        41          42          43          44          45          46          47          48          49          50
 IAtWgt=          16          12          12          16          16          12          12          12          12          12
 AtmWgt=  15.9949146  12.0000000  12.0000000  15.9949146  15.9949146  12.0000000  12.0000000  12.0000000  12.0000000  12.0000000
 NucSpn=           0           0           0           0           0           0           0           0           0           0
 AtZEff=  -0.0000000  -0.0000000  -0.0000000  -0.0000000  -0.0000000  -0.0000000  -0.0000000  -0.0000000  -0.0000000  -0.0000000
 NQMom=    0.0000000   0.0000000   0.0000000   0.0000000   0.0000000   0.0000000   0.0000000   0.0000000   0.0000000   0.0000000
 NMagM=    0.0000000   0.0000000   0.0000000   0.0000000   0.0000000   0.0000000   0.0000000   0.0000000   0.0000000   0.0000000
 AtZNuc=   8.0000000   6.0000000   6.0000000   8.0000000   8.0000000   6.0000000   6.0000000   6.0000000   6.0000000   6.0000000

  Atom        51          52          53          54          55          56          57          58          59          60
 IAtWgt=          12          12          12          12          12          12          12          12          12          12
 AtmWgt=  12.0000000  12.0000000  12.0000000  12.0000000  12.0000000  12.0000000  12.0000000  12.0000000  12.0000000  12.0000000
 NucSpn=           0           0           0           0           0           0           0           0           0           0
 AtZEff=  -0.0000000  -0.0000000  -0.0000000  -0.0000000  -0.0000000  -0.0000000  -0.0000000  -0.0000000  -0.0000000  -0.0000000
 NQMom=    0.0000000   0.0000000   0.0000000   0.0000000   0.0000000   0.0000000   0.0000000   0.0000000   0.0000000   0.0000000
 NMagM=    0.0000000   0.0000000   0.0000000   0.0000000   0.0000000   0.0000000   0.0000000   0.0000000   0.0000000   0.0000000
 AtZNuc=   6.0000000   6.0000000   6.0000000   6.0000000   6.0000000   6.0000000   6.0000000   6.0000000   6.0000000   6.0000000

  Atom        61          62          63          64          65          66          67          68          69          70
 IAtWgt=          12          12          12          12          12          12           1           1           1           1
 AtmWgt=  12.0000000  12.0000000  12.0000000  12.0000000  12.0000000  12.0000000   1.0078250   1.0078250   1.0078250   1.0078250
 NucSpn=           0           0           0           0           0           0           1           1           1           1
 AtZEff=  -0.0000000  -0.0000000  -0.0000000  -0.0000000  -0.0000000  -0.0000000  -0.0000000  -0.0000000  -0.0000000  -0.0000000
 NQMom=    0.0000000   0.0000000   0.0000000   0.0000000   0.0000000   0.0000000   0.0000000   0.0000000   0.0000000   0.0000000
 NMagM=    0.0000000   0.0000000   0.0000000   0.0000000   0.0000000   0.0000000   2.7928460   2.7928460   2.7928460   2.7928460
 AtZNuc=   6.0000000   6.0000000   6.0000000   6.0000000   6.0000000   6.0000000   1.0000000   1.0000000   1.0000000   1.0000000

  Atom        71          72          73          74          75          76          77          78          79          80
 IAtWgt=           1           1           1           1           1           1           1           1           1           1
 AtmWgt=   1.0078250   1.0078250   1.0078250   1.0078250   1.0078250   1.0078250   1.0078250   1.0078250   1.0078250   1.0078250
 NucSpn=           1           1           1           1           1           1           1           1           1           1
 AtZEff=  -0.0000000  -0.0000000  -0.0000000  -0.0000000  -0.0000000  -0.0000000  -0.0000000  -0.0000000  -0.0000000  -0.0000000
 NQMom=    0.0000000   0.0000000   0.0000000   0.0000000   0.0000000   0.0000000   0.0000000   0.0000000   0.0000000   0.0000000
 NMagM=    2.7928460   2.7928460   2.7928460   2.7928460   2.7928460   2.7928460   2.7928460   2.7928460   2.7928460   2.7928460
 AtZNuc=   1.0000000   1.0000000   1.0000000   1.0000000   1.0000000   1.0000000   1.0000000   1.0000000   1.0000000   1.0000000

  Atom        81          82          83          84          85          86          87          88          89          90
 IAtWgt=           1           1           1           1           1           1           1           1           1           1
 AtmWgt=   1.0078250   1.0078250   1.0078250   1.0078250   1.0078250   1.0078250   1.0078250   1.0078250   1.0078250   1.0078250
 NucSpn=           1           1           1           1           1           1           1           1           1           1
 AtZEff=  -0.0000000  -0.0000000  -0.0000000  -0.0000000  -0.0000000  -0.0000000  -0.0000000  -0.0000000  -0.0000000  -0.0000000
 NQMom=    0.0000000   0.0000000   0.0000000   0.0000000   0.0000000   0.0000000   0.0000000   0.0000000   0.0000000   0.0000000
 NMagM=    2.7928460   2.7928460   2.7928460   2.7928460   2.7928460   2.7928460   2.7928460   2.7928460   2.7928460   2.7928460
 AtZNuc=   1.0000000   1.0000000   1.0000000   1.0000000   1.0000000   1.0000000   1.0000000   1.0000000   1.0000000   1.0000000

  Atom        91          92          93          94          95          96          97          98          99         100
 IAtWgt=           1           1           1           1           1           1           1           1           1           1
 AtmWgt=   1.0078250   1.0078250   1.0078250   1.0078250   1.0078250   1.0078250   1.0078250   1.0078250   1.0078250   1.0078250
 NucSpn=           1           1           1           1           1           1           1           1           1           1
 AtZEff=  -0.0000000  -0.0000000  -0.0000000  -0.0000000  -0.0000000  -0.0000000  -0.0000000  -0.0000000  -0.0000000  -0.0000000
 NQMom=    0.0000000   0.0000000   0.0000000   0.0000000   0.0000000   0.0000000   0.0000000   0.0000000   0.0000000   0.0000000
 NMagM=    2.7928460   2.7928460   2.7928460   2.7928460   2.7928460   2.7928460   2.7928460   2.7928460   2.7928460   2.7928460
 AtZNuc=   1.0000000   1.0000000   1.0000000   1.0000000   1.0000000   1.0000000   1.0000000   1.0000000   1.0000000   1.0000000

  Atom       101         102         103         104         105         106         107         108         109         110
 IAtWgt=           1           1           1           1           1           1           1           1           1           1
 AtmWgt=   1.0078250   1.0078250   1.0078250   1.0078250   1.0078250   1.0078250   1.0078250   1.0078250   1.0078250   1.0078250
 NucSpn=           1           1           1           1           1           1           1           1           1           1
 AtZEff=  -0.0000000  -0.0000000  -0.0000000  -0.0000000  -0.0000000  -0.0000000  -0.0000000  -0.0000000  -0.0000000  -0.0000000
 NQMom=    0.0000000   0.0000000   0.0000000   0.0000000   0.0000000   0.0000000   0.0000000   0.0000000   0.0000000   0.0000000
 NMagM=    2.7928460   2.7928460   2.7928460   2.7928460   2.7928460   2.7928460   2.7928460   2.7928460   2.7928460   2.7928460
 AtZNuc=   1.0000000   1.0000000   1.0000000   1.0000000   1.0000000   1.0000000   1.0000000   1.0000000   1.0000000   1.0000000

  Atom       111         112         113         114         115         116         117         118         119         120
 IAtWgt=           1           1           1           1           1           1           1           1           1           1
 AtmWgt=   1.0078250   1.0078250   1.0078250   1.0078250   1.0078250   1.0078250   1.0078250   1.0078250   1.0078250   1.0078250
 NucSpn=           1           1           1           1           1           1           1           1           1           1
 AtZEff=  -0.0000000  -0.0000000  -0.0000000  -0.0000000  -0.0000000  -0.0000000  -0.0000000  -0.0000000  -0.0000000  -0.0000000
 NQMom=    0.0000000   0.0000000   0.0000000   0.0000000   0.0000000   0.0000000   0.0000000   0.0000000   0.0000000   0.0000000
 NMagM=    2.7928460   2.7928460   2.7928460   2.7928460   2.7928460   2.7928460   2.7928460   2.7928460   2.7928460   2.7928460
 AtZNuc=   1.0000000   1.0000000   1.0000000   1.0000000   1.0000000   1.0000000   1.0000000   1.0000000   1.0000000   1.0000000

  Atom       121         122         123         124         125         126         127         128         129         130
 IAtWgt=           1           1           1           1           1           1           1           1           1           1
 AtmWgt=   1.0078250   1.0078250   1.0078250   1.0078250   1.0078250   1.0078250   1.0078250   1.0078250   1.0078250   1.0078250
 NucSpn=           1           1           1           1           1           1           1           1           1           1
 AtZEff=  -0.0000000  -0.0000000  -0.0000000  -0.0000000  -0.0000000  -0.0000000  -0.0000000  -0.0000000  -0.0000000  -0.0000000
 NQMom=    0.0000000   0.0000000   0.0000000   0.0000000   0.0000000   0.0000000   0.0000000   0.0000000   0.0000000   0.0000000
 NMagM=    2.7928460   2.7928460   2.7928460   2.7928460   2.7928460   2.7928460   2.7928460   2.7928460   2.7928460   2.7928460
 AtZNuc=   1.0000000   1.0000000   1.0000000   1.0000000   1.0000000   1.0000000   1.0000000   1.0000000   1.0000000   1.0000000

  Atom       131         132         133         134         135         136         137         138         139         140
 IAtWgt=           1           1           1           1           1           1           1           1           1           1
 AtmWgt=   1.0078250   1.0078250   1.0078250   1.0078250   1.0078250   1.0078250   1.0078250   1.0078250   1.0078250   1.0078250
 NucSpn=           1           1           1           1           1           1           1           1           1           1
 AtZEff=  -0.0000000  -0.0000000  -0.0000000  -0.0000000  -0.0000000  -0.0000000  -0.0000000  -0.0000000  -0.0000000  -0.0000000
 NQMom=    0.0000000   0.0000000   0.0000000   0.0000000   0.0000000   0.0000000   0.0000000   0.0000000   0.0000000   0.0000000
 NMagM=    2.7928460   2.7928460   2.7928460   2.7928460   2.7928460   2.7928460   2.7928460   2.7928460   2.7928460   2.7928460
 AtZNuc=   1.0000000   1.0000000   1.0000000   1.0000000   1.0000000   1.0000000   1.0000000   1.0000000   1.0000000   1.0000000
 Leave Link  101 at Fri Apr 29 13:00:49 2022, MaxMem=  6710886400 cpu:               2.8 elap:               0.1
 (Enter /sw/apps/gaussian-16.0/g16/l202.exe)
 Stoichiometry    C55H74MgN4O6
 Framework group  C1[X(C55H74MgN4O6)]
 Deg. of freedom   414
 Full point group                 C1      NOp   1
 Largest Abelian subgroup         C1      NOp   1
 Largest concise Abelian subgroup C1      NOp   1
                         Standard orientation:                         
 ---------------------------------------------------------------------
 Center     Atomic      Atomic             Coordinates (Angstroms)
 Number     Number       Type             X           Y           Z
 ---------------------------------------------------------------------
      1         12           0       -6.065485    0.462838   -0.116134
      2          6           0       -3.843936   -2.356617    0.044818
      3          6           0       -3.424491    2.521006    0.418358
      4          6           0       -8.304947    2.939432    0.243842
      5          6           0       -8.669156   -1.875793   -0.667136
      6          7           0       -3.881801    0.072130    0.141100
      7          6           0       -3.219496   -1.132014    0.299718
      8          6           0       -1.706689   -0.878175    0.604433
      9          6           0       -1.614571    0.684469    0.827512
     10          6           0       -3.043197    1.140071    0.479545
     11          6           0       -1.289930    1.207052    2.198274
     12          6           0       -0.665835   -1.358481   -0.531749
     13          6           0        0.676006   -1.887100    0.044828
     14          6           0        1.966352   -1.512173   -0.672312
     15          8           0        2.027377   -0.653138   -1.516320
     16          8           0        3.080422   -2.258650   -0.295454
     17          7           0       -5.890156    2.544962   -0.097871
     18          6           0       -4.689216    3.175599    0.185414
     19          6           0       -4.997688    4.633783    0.349221
     20          6           0       -6.451968    4.760850    0.405724
     21          6           0       -6.967330    3.388389    0.148414
     22          6           0       -3.897258    5.707911    0.611893
     23          6           0       -7.251384    6.021175    0.802564
     24          8           0       -8.481302    6.019904    0.851514
     25          6           0       -6.518216    7.287439    1.160307
     26          7           0       -8.163125    0.473670   -0.061449
     27          6           0       -8.872150    1.613393    0.165550
     28          6           0      -10.407160    1.374951    0.008805
     29          6           0      -10.504085   -0.063575   -0.550140
     30          6           0       -9.041941   -0.531087   -0.382666
     31          6           0      -11.305326    1.693476    1.277305
     32          6           0      -11.099950   -0.316049   -1.958448
     33          6           0      -10.197757    0.035542   -3.210958
     34          7           0       -6.345097   -1.645968   -0.083640
     35          6           0       -7.420006   -2.404214   -0.472231
     36          6           0       -7.054545   -3.836321   -0.561572
     37          6           0       -5.643894   -3.853940   -0.437895
     38          6           0       -5.269718   -2.493252   -0.170741
     39          6           0       -8.015571   -4.987382   -0.777716
     40          6           0       -4.429779   -4.726085   -0.459895
     41          8           0       -4.246210   -5.914824   -0.687613
     42          6           0       -3.259595   -3.726730   -0.038982
     43          6           0       -2.668138   -4.204783    1.223829
     44          8           0       -3.253454   -4.253034    2.269536
     45          8           0       -1.495734   -4.771395    1.006515
     46          6           0       -0.745297   -5.298378    2.167196
     47          6           0        4.280874   -2.098880   -1.156731
     48          6           0        5.231980   -1.111913   -0.497480
     49          6           0        6.578296   -1.101996   -0.334386
     50          6           0        7.620802   -2.006955   -0.948499
     51          6           0        7.200632    0.063324    0.415219
     52          6           0        7.355502    1.410149   -0.386465
     53          6           0        8.616411    2.236041    0.058204
     54          6           0        9.533654    2.321043   -1.164746
     55          6           0        9.054825    3.180219   -2.365907
     56          6           0       10.308687    0.979719   -1.452909
     57          6           0       11.555852    1.266818   -2.329382
     58          6           0       12.728068    0.393306   -1.897397
     59          6           0       13.890885    1.229364   -1.250553
     60          6           0       14.755113    1.947857   -2.353657
     61          6           0       14.846584    0.431714   -0.305694
     62          6           0       14.505207    0.725538    1.170837
     63          6           0       14.082364   -0.473782    1.987924
     64          6           0       12.658677   -0.318073    2.364447
     65          6           0       12.516814    0.173367    3.821796
     66          6           0       11.960669   -1.644001    2.175992
     67          1           0       -2.551993    3.138236    0.641391
     68          1           0       -9.103076    3.637825    0.504209
     69          1           0       -9.445836   -2.597025   -0.931537
     70          1           0       -1.488627   -1.413777    1.529107
     71          1           0       -0.967254    1.207752    0.122564
     72          1           0       -0.915919    0.336314    2.735926
     73          1           0       -2.083470    1.493473    2.888360
     74          1           0       -0.426815    1.866571    2.100839
     75          1           0       -0.554948   -0.501453   -1.196646
     76          1           0       -1.238753   -2.102126   -1.084291
     77          1           0        0.614121   -2.963843   -0.114018
     78          1           0        0.612733   -1.753875    1.124536
     79          1           0       -4.068797    6.085667    1.620444
     80          1           0       -4.120641    6.487189   -0.116559
     81          1           0       -2.905768    5.294605    0.427645
     82          1           0       -5.754886    7.264775    1.937942
     83          1           0       -7.226187    7.997682    1.587526
     84          1           0       -6.123605    7.595033    0.191052
     85          1           0      -10.773870    2.049827   -0.764451
     86          1           0      -11.000972   -0.751940    0.133363
     87          1           0      -12.052491    2.364736    0.855364
     88          1           0      -10.694855    2.087770    2.089549
     89          1           0      -11.797427    0.742879    1.482088
     90          1           0      -11.972489    0.332580   -2.035183
     91          1           0      -11.451722   -1.344814   -1.879102
     92          1           0      -10.751688    0.626357   -3.939998
     93          1           0       -9.900912   -0.855307   -3.763182
     94          1           0       -9.220519    0.483545   -3.029649
     95          1           0       -8.405267   -4.933398   -1.793994
     96          1           0       -8.829141   -5.060297   -0.056824
     97          1           0       -7.344035   -5.836786   -0.901975
     98          1           0       -2.464146   -3.917621   -0.759604
     99          1           0       -0.160797   -4.445155    2.511958
    100          1           0       -0.096719   -6.123967    1.873804
    101          1           0       -1.332235   -5.652175    3.015287
    102          1           0        3.966559   -1.817399   -2.161922
    103          1           0        4.859842   -3.021374   -1.195161
    104          1           0        4.705930   -0.372691    0.105977
    105          1           0        8.266421   -1.435129   -1.615162
    106          1           0        7.173951   -2.777145   -1.576984
    107          1           0        8.217695   -2.591892   -0.248125
    108          1           0        8.188733   -0.145468    0.825253
    109          1           0        6.619664    0.283530    1.310746
    110          1           0        6.487020    1.921555    0.030300
    111          1           0        7.344201    1.286201   -1.469880
    112          1           0        9.125860    1.854363    0.942459
    113          1           0        8.276467    3.270146    0.114599
    114          1           0       10.375942    2.830489   -0.697852
    115          1           0        9.493816    2.635617   -3.201978
    116          1           0        9.357844    4.217175   -2.228983
    117          1           0        7.979908    3.140944   -2.540473
    118          1           0        9.562308    0.277933   -1.824472
    119          1           0       10.696062    0.726789   -0.466185
    120          1           0       11.864261    2.301752   -2.485079
    121          1           0       11.275081    1.091991   -3.368458
    122          1           0       13.037783   -0.058534   -2.839188
    123          1           0       12.313581   -0.431199   -1.315803
    124          1           0       13.410676    2.030376   -0.687365
    125          1           0       14.149625    1.829961   -3.252069
    126          1           0       15.704457    1.473797   -2.600656
    127          1           0       14.855820    3.020081   -2.186184
    128          1           0       15.897211    0.621893   -0.525722
    129          1           0       14.756774   -0.643670   -0.455355
    130          1           0       13.823141    1.574021    1.233499
    131          1           0       15.427882    1.145084    1.569567
    132          1           0       14.706720   -0.523280    2.879621
    133          1           0       14.207979   -1.373807    1.385282
    134          1           0       12.171098    0.434739    1.744037
    135          1           0       11.926918    1.084391    3.718737
    136          1           0       13.488451    0.533861    4.160050
    137          1           0       12.075040   -0.552598    4.502917
    138          1           0       11.418737   -1.475935    1.244180
    139          1           0       11.289432   -1.770070    3.025447
    140          1           0       12.594202   -2.525756    2.271300
 ---------------------------------------------------------------------
 Rotational constants (GHZ):           0.0538669           0.0085007           0.0076919
 Leave Link  202 at Fri Apr 29 13:00:49 2022, MaxMem=  6710886400 cpu:               0.2 elap:               0.0
 (Enter /sw/apps/gaussian-16.0/g16/l301.exe)
 Standard basis: VSTO-6G (5D, 7F)
 Ernie: Thresh=  0.10000D-02 Tol=  0.10000D-05 Strict=F.
 There are   338 symmetry adapted cartesian basis functions of A   symmetry.
 There are   338 symmetry adapted basis functions of A   symmetry.
   338 basis functions,  2028 primitive gaussians,   338 cartesian basis functions
   176 alpha electrons      176 beta electrons
       nuclear repulsion energy      4727.8791564746 Hartrees.
 IExCor=    0 DFT=F Ex=HF Corr=None ExCW=0 ScaHFX=  1.000000
 ScaDFX=  1.000000  1.000000  1.000000  1.000000 ScalE2=  1.000000  1.000000
 IRadAn=      5 IRanWt=     -1 IRanGd=            0 ICorTp=0 IEmpDi=  4
 Integral buffers will be    131072 words long.
 Regular integral format.
 Two-electron integral symmetry is turned off.
 Leave Link  301 at Fri Apr 29 13:00:49 2022, MaxMem=  6710886400 cpu:               1.3 elap:               0.1
 (Enter /sw/apps/gaussian-16.0/g16/l302.exe)
 Do NDO integrals.
 NPDir=0 NMtPBC=     1 NCelOv=     1 NCel=       1 NClECP=     1 NCelD=      1
         NCelK=      1 NCelE2=     1 NClLst=     1 CellRange=     0.0.
 One-electron integrals computed using PRISM.
 Generate ZINDO/S integrals.
 NDO Nuclear repulsion=  4248.467497213218 Hartrees.
 NBasis=   338 RedAO= F EigKep=  0.00D+00  NBF=   338
 NBsUse=   338 1.00D-04 EigRej=  0.00D+00 NBFU=   338
 Leave Link  302 at Fri Apr 29 13:00:49 2022, MaxMem=  6710886400 cpu:               8.0 elap:               0.4
 (Enter /sw/apps/gaussian-16.0/g16/l303.exe)
 DipDrv:  MaxL=1.
 DipDrv:  will hold  3 matrices at once.
 Leave Link  303 at Fri Apr 29 13:00:49 2022, MaxMem=  6710886400 cpu:               0.5 elap:               0.0
 (Enter /sw/apps/gaussian-16.0/g16/l308.exe)
 Leave Link  308 at Fri Apr 29 13:00:50 2022, MaxMem=  6710886400 cpu:               4.4 elap:               0.2
 (Enter /sw/apps/gaussian-16.0/g16/l401.exe)
 Simple Huckel Guess.
 JPrj=0 DoOrth=F DoCkMO=F.
 Leave Link  401 at Fri Apr 29 13:00:50 2022, MaxMem=  6710886400 cpu:               3.0 elap:               0.2
 (Enter /sw/apps/gaussian-16.0/g16/l502.exe)
 Two-electron integral symmetry not used.
 Closed shell SCF:
 Using DIIS extrapolation, IDIIS=  1040.
 Overlap will be assumed to be unity.
 NGot=  6710886400 LenX=  6710643598 LenY=  6710528913
 Requested convergence on RMS density matrix=1.00D-08 within 128 cycles.
 Requested convergence on MAX density matrix=1.00D-06.
 Requested convergence on             energy=1.00D-06.
 No special actions if energy rises.
 Fock matrices will be formed incrementally for  20 cycles.

 Cycle   1  Pass 1  IDiag  1:
 E= -472.002394915128    
 DIIS: error= 6.09D-02 at cycle   1 NSaved=   1.
 NSaved= 1 IEnMin= 1 EnMin= -472.002394915128     IErMin= 1 ErrMin= 6.09D-02
 ErrMax= 6.09D-02  0.00D+00 EMaxC= 1.00D-01 BMatC= 8.27D-01 BMatP= 8.27D-01
 IDIUse=3 WtCom= 3.91D-01 WtEn= 6.09D-01
 Coeff-Com:  0.100D+01
 Coeff-En:   0.100D+01
 Coeff:      0.100D+01
 GapD=    2.000 DampG=2.000 DampE=0.500 DampFc=1.0000 IDamp=-1.
 RMSDP=3.98D-03 MaxDP=1.74D-01              OVMax= 0.00D+00

 Cycle   2  Pass 1  IDiag  1:
 RMSU=  3.98D-03    CP:  9.95D-01
 E= -473.831964410218     Delta-E=       -1.829569495090 Rises=F Damp=F
 DIIS: error= 2.16D-02 at cycle   2 NSaved=   2.
 NSaved= 2 IEnMin= 2 EnMin= -473.831964410218     IErMin= 2 ErrMin= 2.16D-02
 ErrMax= 2.16D-02  0.00D+00 EMaxC= 1.00D-01 BMatC= 5.08D-02 BMatP= 8.27D-01
 IDIUse=3 WtCom= 7.84D-01 WtEn= 2.16D-01
 Coeff-Com: -0.800D-01 0.108D+01
 Coeff-En:   0.000D+00 0.100D+01
 Coeff:     -0.627D-01 0.106D+01
 RMSDP=1.09D-03 MaxDP=5.56D-02 DE=-1.83D+00 OVMax= 0.00D+00

 Cycle   3  Pass 1  IDiag  1:
 RMSU=  1.01D-03    CP:  9.93D-01  1.11D+00
 E= -473.933307272728     Delta-E=       -0.101342862509 Rises=F Damp=F
 DIIS: error= 9.71D-03 at cycle   3 NSaved=   3.
 NSaved= 3 IEnMin= 3 EnMin= -473.933307272728     IErMin= 3 ErrMin= 9.71D-03
 ErrMax= 9.71D-03  0.00D+00 EMaxC= 1.00D-01 BMatC= 6.88D-03 BMatP= 5.08D-02
 IDIUse=3 WtCom= 9.03D-01 WtEn= 9.71D-02
 Coeff-Com: -0.678D-01 0.240D+00 0.828D+00
 Coeff-En:   0.000D+00 0.000D+00 0.100D+01
 Coeff:     -0.612D-01 0.217D+00 0.845D+00
 RMSDP=3.62D-04 MaxDP=1.75D-02 DE=-1.01D-01 OVMax= 0.00D+00

 Cycle   4  Pass 1  IDiag  1:
 RMSU=  2.36D-04    CP:  9.93D-01  1.17D+00  9.25D-01
 E= -473.945578611248     Delta-E=       -0.012271338521 Rises=F Damp=F
 DIIS: error= 1.41D-03 at cycle   4 NSaved=   4.
 NSaved= 4 IEnMin= 4 EnMin= -473.945578611248     IErMin= 4 ErrMin= 1.41D-03
 ErrMax= 1.41D-03  0.00D+00 EMaxC= 1.00D-01 BMatC= 3.05D-04 BMatP= 6.88D-03
 IDIUse=3 WtCom= 9.86D-01 WtEn= 1.41D-02
 Coeff-Com: -0.781D-04-0.351D-01 0.382D-01 0.997D+00
 Coeff-En:   0.000D+00 0.000D+00 0.000D+00 0.100D+01
 Coeff:     -0.770D-04-0.346D-01 0.377D-01 0.997D+00
 RMSDP=1.25D-04 MaxDP=6.99D-03 DE=-1.23D-02 OVMax= 0.00D+00

 Cycle   5  Pass 1  IDiag  1:
 RMSU=  7.96D-05    CP:  9.93D-01  1.18D+00  1.02D+00  1.07D+00
 E= -473.946584048965     Delta-E=       -0.001005437716 Rises=F Damp=F
 DIIS: error= 6.41D-04 at cycle   5 NSaved=   5.
 NSaved= 5 IEnMin= 5 EnMin= -473.946584048965     IErMin= 5 ErrMin= 6.41D-04
 ErrMax= 6.41D-04  0.00D+00 EMaxC= 1.00D-01 BMatC= 5.47D-05 BMatP= 3.05D-04
 IDIUse=3 WtCom= 9.94D-01 WtEn= 6.41D-03
 Coeff-Com:  0.618D-02-0.250D-01-0.948D-01 0.174D+00 0.939D+00
 Coeff-En:   0.000D+00 0.000D+00 0.000D+00 0.000D+00 0.100D+01
 Coeff:      0.615D-02-0.249D-01-0.942D-01 0.173D+00 0.940D+00
 RMSDP=5.65D-05 MaxDP=2.89D-03 DE=-1.01D-03 OVMax= 0.00D+00

 Cycle   6  Pass 1  IDiag  1:
 RMSU=  3.09D-05    CP:  9.92D-01  1.18D+00  1.03D+00  1.25D+00  1.14D+00
 E= -473.946768707981     Delta-E=       -0.000184659017 Rises=F Damp=F
 DIIS: error= 2.84D-04 at cycle   6 NSaved=   6.
 NSaved= 6 IEnMin= 6 EnMin= -473.946768707981     IErMin= 6 ErrMin= 2.84D-04
 ErrMax= 2.84D-04  0.00D+00 EMaxC= 1.00D-01 BMatC= 6.54D-06 BMatP= 5.47D-05
 IDIUse=3 WtCom= 9.97D-01 WtEn= 2.84D-03
 Coeff-Com: -0.131D-03 0.569D-02-0.156D-01-0.100D+00 0.395D-01 0.107D+01
 Coeff-En:   0.000D+00 0.000D+00 0.000D+00 0.000D+00 0.000D+00 0.100D+01
 Coeff:     -0.130D-03 0.567D-02-0.156D-01-0.998D-01 0.394D-01 0.107D+01
 RMSDP=2.77D-05 MaxDP=1.73D-03 DE=-1.85D-04 OVMax= 0.00D+00

 Cycle   7  Pass 1  IDiag  1:
 RMSU=  1.27D-05    CP:  9.92D-01  1.18D+00  1.04D+00  1.29D+00  1.36D+00
                    CP:  1.39D+00
 E= -473.946803281366     Delta-E=       -0.000034573384 Rises=F Damp=F
 DIIS: error= 7.95D-05 at cycle   7 NSaved=   7.
 NSaved= 7 IEnMin= 7 EnMin= -473.946803281366     IErMin= 7 ErrMin= 7.95D-05
 ErrMax= 7.95D-05  0.00D+00 EMaxC= 1.00D-01 BMatC= 9.11D-07 BMatP= 6.54D-06
 IDIUse=1 WtCom= 1.00D+00 WtEn= 0.00D+00
 Coeff-Com: -0.583D-03 0.226D-02 0.835D-02-0.685D-02-0.962D-01-0.869D-01
 Coeff-Com:  0.118D+01
 Coeff:     -0.583D-03 0.226D-02 0.835D-02-0.685D-02-0.962D-01-0.869D-01
 Coeff:      0.118D+01
 RMSDP=1.91D-05 MaxDP=1.20D-03 DE=-3.46D-05 OVMax= 0.00D+00

 Cycle   8  Pass 1  IDiag  1:
 RMSU=  6.62D-06    CP:  9.92D-01  1.18D+00  1.04D+00  1.31D+00  1.44D+00
                    CP:  1.80D+00  1.73D+00
 E= -473.946814625781     Delta-E=       -0.000011344416 Rises=F Damp=F
 DIIS: error= 4.99D-05 at cycle   8 NSaved=   8.
 NSaved= 8 IEnMin= 8 EnMin= -473.946814625781     IErMin= 8 ErrMin= 4.99D-05
 ErrMax= 4.99D-05  0.00D+00 EMaxC= 1.00D-01 BMatC= 4.56D-07 BMatP= 9.11D-07
 IDIUse=1 WtCom= 1.00D+00 WtEn= 0.00D+00
 Coeff-Com:  0.850D-04-0.157D-02 0.325D-02 0.257D-01-0.590D-02-0.286D+00
 Coeff-Com:  0.142D+00 0.112D+01
 Coeff:      0.850D-04-0.157D-02 0.325D-02 0.257D-01-0.590D-02-0.286D+00
 Coeff:      0.142D+00 0.112D+01
 RMSDP=1.45D-05 MaxDP=7.83D-04 DE=-1.13D-05 OVMax= 0.00D+00

 Cycle   9  Pass 1  IDiag  1:
 RMSU=  3.37D-06    CP:  9.92D-01  1.18D+00  1.05D+00  1.32D+00  1.50D+00
                    CP:  2.07D+00  2.48D+00  1.65D+00
 E= -473.946820536220     Delta-E=       -0.000005910439 Rises=F Damp=F
 DIIS: error= 2.69D-05 at cycle   9 NSaved=   9.
 NSaved= 9 IEnMin= 9 EnMin= -473.946820536220     IErMin= 9 ErrMin= 2.69D-05
 ErrMax= 2.69D-05  0.00D+00 EMaxC= 1.00D-01 BMatC= 1.73D-07 BMatP= 4.56D-07
 IDIUse=1 WtCom= 1.00D+00 WtEn= 0.00D+00
 Coeff-Com:  0.244D-03-0.101D-02-0.315D-02 0.188D-02 0.493D-01-0.686D-02
 Coeff-Com: -0.374D+00-0.224D+00 0.156D+01
 Coeff:      0.244D-03-0.101D-02-0.315D-02 0.188D-02 0.493D-01-0.686D-02
 Coeff:     -0.374D+00-0.224D+00 0.156D+01
 RMSDP=1.65D-05 MaxDP=8.44D-04 DE=-5.91D-06 OVMax= 0.00D+00

 Cycle  10  Pass 1  IDiag  1:
 RMSU=  3.98D-06    CP:  9.92D-01  1.18D+00  1.05D+00  1.33D+00  1.54D+00
                    CP:  2.36D+00  3.00D+00  2.81D+00  2.04D+00
 E= -473.946824624667     Delta-E=       -0.000004088447 Rises=F Damp=F
 DIIS: error= 1.83D-05 at cycle  10 NSaved=  10.
 NSaved=10 IEnMin=10 EnMin= -473.946824624667     IErMin=10 ErrMin= 1.83D-05
 ErrMax= 1.83D-05  0.00D+00 EMaxC= 1.00D-01 BMatC= 7.44D-08 BMatP= 1.73D-07
 IDIUse=1 WtCom= 1.00D+00 WtEn= 0.00D+00
 Coeff-Com: -0.553D-04 0.681D-03-0.854D-03-0.124D-01 0.116D-01 0.816D-01
 Coeff-Com:  0.438D-01-0.545D+00 0.486D-01 0.137D+01
 Coeff:     -0.553D-04 0.681D-03-0.854D-03-0.124D-01 0.116D-01 0.816D-01
 Coeff:      0.438D-01-0.545D+00 0.486D-01 0.137D+01
 RMSDP=1.09D-05 MaxDP=5.08D-04 DE=-4.09D-06 OVMax= 0.00D+00

 Cycle  11  Pass 1  IDiag  1:
 RMSU=  4.41D-06    CP:  9.92D-01  1.18D+00  1.05D+00  1.34D+00  1.56D+00
                    CP:  2.53D+00  3.00D+00  3.00D+00  3.00D+00  2.60D+00
 E= -473.946826141741     Delta-E=       -0.000001517074 Rises=F Damp=F
 DIIS: error= 1.19D-05 at cycle  11 NSaved=  11.
 NSaved=11 IEnMin=11 EnMin= -473.946826141741     IErMin=11 ErrMin= 1.19D-05
 ErrMax= 1.19D-05  0.00D+00 EMaxC= 1.00D-01 BMatC= 2.16D-08 BMatP= 7.44D-08
 IDIUse=1 WtCom= 1.00D+00 WtEn= 0.00D+00
 Coeff-Com: -0.706D-04 0.307D-03 0.105D-02-0.262D-02-0.814D-02-0.108D-01
 Coeff-Com:  0.147D+00-0.184D-01-0.443D+00-0.101D+00 0.144D+01
 Coeff:     -0.706D-04 0.307D-03 0.105D-02-0.262D-02-0.814D-02-0.108D-01
 Coeff:      0.147D+00-0.184D-01-0.443D+00-0.101D+00 0.144D+01
 RMSDP=7.93D-06 MaxDP=4.17D-04 DE=-1.52D-06 OVMax= 0.00D+00

 Cycle  12  Pass 1  IDiag  1:
 RMSU=  4.11D-06    CP:  9.92D-01  1.18D+00  1.05D+00  1.34D+00  1.57D+00
                    CP:  2.65D+00  3.00D+00  3.00D+00  3.00D+00  3.00D+00
                    CP:  1.95D+00
 E= -473.946826643463     Delta-E=       -0.000000501722 Rises=F Damp=F
 DIIS: error= 4.87D-06 at cycle  12 NSaved=  12.
 NSaved=12 IEnMin=12 EnMin= -473.946826643463     IErMin=12 ErrMin= 4.87D-06
 ErrMax= 4.87D-06  0.00D+00 EMaxC= 1.00D-01 BMatC= 5.76D-09 BMatP= 2.16D-08
 IDIUse=1 WtCom= 1.00D+00 WtEn= 0.00D+00
 Coeff-Com:  0.235D-04-0.205D-03 0.166D-03 0.261D-02 0.892D-03-0.258D-01
 Coeff-Com: -0.227D-02 0.874D-01 0.139D+00-0.465D+00-0.727D-02 0.127D+01
 Coeff:      0.235D-04-0.205D-03 0.166D-03 0.261D-02 0.892D-03-0.258D-01
 Coeff:     -0.227D-02 0.874D-01 0.139D+00-0.465D+00-0.727D-02 0.127D+01
 RMSDP=2.32D-06 MaxDP=1.33D-04 DE=-5.02D-07 OVMax= 0.00D+00

 Cycle  13  Pass 1  IDiag  1:
 RMSU=  9.63D-07    CP:  9.92D-01  1.18D+00  1.05D+00  1.34D+00  1.57D+00
                    CP:  2.67D+00  3.00D+00  3.00D+00  3.00D+00  3.00D+00
                    CP:  2.18D+00  1.40D+00
 E= -473.946826727393     Delta-E=       -0.000000083930 Rises=F Damp=F
 DIIS: error= 2.84D-06 at cycle  13 NSaved=  13.
 NSaved=13 IEnMin=13 EnMin= -473.946826727393     IErMin=13 ErrMin= 2.84D-06
 ErrMax= 2.84D-06  0.00D+00 EMaxC= 1.00D-01 BMatC= 2.22D-09 BMatP= 5.76D-09
 IDIUse=1 WtCom= 1.00D+00 WtEn= 0.00D+00
 Coeff-Com:  0.146D-04-0.656D-04-0.216D-03 0.498D-03 0.247D-02-0.974D-03
 Coeff-Com: -0.198D-01-0.446D-01 0.176D+00-0.103D+00-0.171D+00-0.262D-01
 Coeff-Com:  0.119D+01
 Coeff:      0.146D-04-0.656D-04-0.216D-03 0.498D-03 0.247D-02-0.974D-03
 Coeff:     -0.198D-01-0.446D-01 0.176D+00-0.103D+00-0.171D+00-0.262D-01
 Coeff:      0.119D+01
 RMSDP=1.36D-06 MaxDP=6.48D-05 DE=-8.39D-08 OVMax= 0.00D+00

 Cycle  14  Pass 1  IDiag  1:
 RMSU=  2.94D-07    CP:  9.92D-01  1.18D+00  1.05D+00  1.34D+00  1.57D+00
                    CP:  2.69D+00  3.00D+00  3.00D+00  3.00D+00  3.00D+00
                    CP:  2.29D+00  1.60D+00  1.85D+00
 E= -473.946826762758     Delta-E=       -0.000000035365 Rises=F Damp=F
 DIIS: error= 2.35D-06 at cycle  14 NSaved=  14.
 NSaved=14 IEnMin=14 EnMin= -473.946826762758     IErMin=14 ErrMin= 2.35D-06
 ErrMax= 2.35D-06  0.00D+00 EMaxC= 1.00D-01 BMatC= 1.43D-09 BMatP= 2.22D-09
 IDIUse=1 WtCom= 1.00D+00 WtEn= 0.00D+00
 Coeff-Com: -0.209D-04 0.149D-03-0.187D-05-0.167D-02-0.178D-02 0.129D-01
 Coeff-Com:  0.262D-01-0.938D-01-0.254D-01 0.130D+00 0.234D+00-0.718D+00
 Coeff-Com: -0.653D+00 0.209D+01
 Coeff:     -0.209D-04 0.149D-03-0.187D-05-0.167D-02-0.178D-02 0.129D-01
 Coeff:      0.262D-01-0.938D-01-0.254D-01 0.130D+00 0.234D+00-0.718D+00
 Coeff:     -0.653D+00 0.209D+01
 RMSDP=1.82D-06 MaxDP=7.86D-05 DE=-3.54D-08 OVMax= 0.00D+00

 Cycle  15  Pass 1  IDiag  1:
 RMSU=  3.92D-07    CP:  9.92D-01  1.18D+00  1.04D+00  1.34D+00  1.57D+00
                    CP:  2.70D+00  3.00D+00  3.00D+00  3.00D+00  3.00D+00
                    CP:  2.38D+00  1.78D+00  3.00D+00  2.97D+00
 E= -473.946826799356     Delta-E=       -0.000000036598 Rises=F Damp=F
 DIIS: error= 1.66D-06 at cycle  15 NSaved=  15.
 NSaved=15 IEnMin=15 EnMin= -473.946826799356     IErMin=15 ErrMin= 1.66D-06
 ErrMax= 1.66D-06  0.00D+00 EMaxC= 1.00D-01 BMatC= 5.95D-10 BMatP= 1.43D-09
 IDIUse=1 WtCom= 1.00D+00 WtEn= 0.00D+00
 Coeff-Com: -0.770D-05 0.339D-04 0.140D-03-0.171D-03-0.198D-02 0.599D-03
 Coeff-Com:  0.188D-01-0.607D-02-0.381D-01-0.380D-01 0.175D+00 0.502D-01
 Coeff-Com: -0.779D+00-0.406D-01 0.166D+01
 Coeff:     -0.770D-05 0.339D-04 0.140D-03-0.171D-03-0.198D-02 0.599D-03
 Coeff:      0.188D-01-0.607D-02-0.381D-01-0.380D-01 0.175D+00 0.502D-01
 Coeff:     -0.779D+00-0.406D-01 0.166D+01
 RMSDP=1.74D-06 MaxDP=7.24D-05 DE=-3.66D-08 OVMax= 0.00D+00

 Cycle  16  Pass 1  IDiag  1:
 RMSU=  9.55D-07    CP:  9.92D-01  1.18D+00  1.04D+00  1.34D+00  1.57D+00
                    CP:  2.71D+00  3.00D+00  3.00D+00  3.00D+00  3.00D+00
                    CP:  2.47D+00  1.95D+00  3.00D+00  3.00D+00  3.00D+00
 E= -473.946826818386     Delta-E=       -0.000000019030 Rises=F Damp=F
 DIIS: error= 8.14D-07 at cycle  16 NSaved=  16.
 NSaved=16 IEnMin=16 EnMin= -473.946826818386     IErMin=16 ErrMin= 8.14D-07
 ErrMax= 8.14D-07  0.00D+00 EMaxC= 1.00D-01 BMatC= 1.31D-10 BMatP= 5.95D-10
 IDIUse=1 WtCom= 1.00D+00 WtEn= 0.00D+00
 Coeff-Com:  0.985D-05-0.662D-04-0.829D-05 0.743D-03 0.603D-03-0.499D-02
 Coeff-Com: -0.107D-01 0.252D-01 0.437D-01-0.847D-01-0.836D-01 0.297D+00
 Coeff-Com:  0.262D+00-0.833D+00-0.116D+00 0.150D+01
 Coeff:      0.985D-05-0.662D-04-0.829D-05 0.743D-03 0.603D-03-0.499D-02
 Coeff:     -0.107D-01 0.252D-01 0.437D-01-0.847D-01-0.836D-01 0.297D+00
 Coeff:      0.262D+00-0.833D+00-0.116D+00 0.150D+01
 RMSDP=1.01D-06 MaxDP=4.35D-05 DE=-1.90D-08 OVMax= 0.00D+00

 Cycle  17  Pass 1  IDiag  1:
 RMSU=  4.36D-07    CP:  9.92D-01  1.18D+00  1.04D+00  1.34D+00  1.56D+00
                    CP:  2.71D+00  3.00D+00  3.00D+00  3.00D+00  3.00D+00
                    CP:  2.51D+00  2.04D+00  3.00D+00  3.00D+00  3.00D+00
                    CP:  1.84D+00
 E= -473.946826822405     Delta-E=       -0.000000004018 Rises=F Damp=F
 DIIS: error= 5.47D-07 at cycle  17 NSaved=  17.
 NSaved=17 IEnMin=17 EnMin= -473.946826822405     IErMin=17 ErrMin= 5.47D-07
 ErrMax= 5.47D-07  0.00D+00 EMaxC= 1.00D-01 BMatC= 1.18D-11 BMatP= 1.31D-10
 IDIUse=1 WtCom= 1.00D+00 WtEn= 0.00D+00
 Coeff-Com:  0.132D-05-0.593D-05-0.287D-04 0.431D-04 0.332D-03-0.141D-03
 Coeff-Com: -0.297D-02-0.929D-03 0.116D-01-0.251D-02-0.223D-01-0.512D-02
 Coeff-Com:  0.106D+00 0.262D-01-0.250D+00 0.184D-01 0.112D+01
 Coeff:      0.132D-05-0.593D-05-0.287D-04 0.431D-04 0.332D-03-0.141D-03
 Coeff:     -0.297D-02-0.929D-03 0.116D-01-0.251D-02-0.223D-01-0.512D-02
 Coeff:      0.106D+00 0.262D-01-0.250D+00 0.184D-01 0.112D+01
 RMSDP=1.39D-07 MaxDP=6.91D-06 DE=-4.02D-09 OVMax= 0.00D+00

 Cycle  18  Pass 1  IDiag  1:
 RMSU=  3.70D-08    CP:  9.92D-01  1.18D+00  1.04D+00  1.34D+00  1.56D+00
                    CP:  2.71D+00  3.00D+00  3.00D+00  3.00D+00  3.00D+00
                    CP:  2.52D+00  2.05D+00  3.00D+00  3.00D+00  3.00D+00
                    CP:  1.95D+00  1.14D+00
 E= -473.946826822565     Delta-E=       -0.000000000160 Rises=F Damp=F
 DIIS: error= 3.50D-07 at cycle  18 NSaved=  18.
 NSaved=18 IEnMin=18 EnMin= -473.946826822565     IErMin=18 ErrMin= 3.50D-07
 ErrMax= 3.50D-07  0.00D+00 EMaxC= 1.00D-01 BMatC= 2.36D-12 BMatP= 1.18D-11
 IDIUse=1 WtCom= 1.00D+00 WtEn= 0.00D+00
 Coeff-Com: -0.241D-05 0.162D-04 0.125D-05-0.179D-03-0.130D-03 0.112D-02
 Coeff-Com:  0.263D-02-0.598D-02-0.958D-02 0.177D-01 0.217D-01-0.669D-01
 Coeff-Com: -0.650D-01 0.186D+00 0.353D-01-0.342D+00-0.111D+00 0.134D+01
 Coeff:     -0.241D-05 0.162D-04 0.125D-05-0.179D-03-0.130D-03 0.112D-02
 Coeff:      0.263D-02-0.598D-02-0.958D-02 0.177D-01 0.217D-01-0.669D-01
 Coeff:     -0.650D-01 0.186D+00 0.353D-01-0.342D+00-0.111D+00 0.134D+01
 RMSDP=6.59D-08 MaxDP=3.40D-06 DE=-1.60D-10 OVMax= 0.00D+00

 Cycle  19  Pass 1  IDiag  1:
 RMSU=  1.06D-08    CP:  9.92D-01  1.18D+00  1.04D+00  1.34D+00  1.56D+00
                    CP:  2.71D+00  3.00D+00  3.00D+00  3.00D+00  3.00D+00
                    CP:  2.52D+00  2.05D+00  3.00D+00  3.00D+00  3.00D+00
                    CP:  2.00D+00  1.21D+00  1.68D+00
 E= -473.946826822602     Delta-E=       -0.000000000037 Rises=F Damp=F
 DIIS: error= 1.44D-07 at cycle  19 NSaved=  19.
 NSaved=19 IEnMin=19 EnMin= -473.946826822602     IErMin=19 ErrMin= 1.44D-07
 ErrMax= 1.44D-07  0.00D+00 EMaxC= 1.00D-01 BMatC= 3.07D-13 BMatP= 2.36D-12
 IDIUse=1 WtCom= 1.00D+00 WtEn= 0.00D+00
 Coeff-Com: -0.606D-07 0.943D-07 0.487D-05-0.746D-06-0.335D-04-0.475D-04
 Coeff-Com:  0.304D-03 0.337D-03-0.103D-02-0.432D-03 0.210D-02 0.376D-02
 Coeff-Com: -0.827D-02-0.194D-01 0.343D-01 0.239D-01-0.161D+00-0.573D-01
 Coeff-Com:  0.118D+01
 Coeff:     -0.606D-07 0.943D-07 0.487D-05-0.746D-06-0.335D-04-0.475D-04
 Coeff:      0.304D-03 0.337D-03-0.103D-02-0.432D-03 0.210D-02 0.376D-02
 Coeff:     -0.827D-02-0.194D-01 0.343D-01 0.239D-01-0.161D+00-0.573D-01
 Coeff:      0.118D+01
 RMSDP=1.22D-08 MaxDP=1.21D-06 DE=-3.73D-11 OVMax= 0.00D+00

 Cycle  20  Pass 1  IDiag  1:
 RMSU=  4.27D-09    CP:  9.92D-01  1.18D+00  1.04D+00  1.34D+00  1.56D+00
                    CP:  2.71D+00  3.00D+00  3.00D+00  3.00D+00  3.00D+00
                    CP:  2.52D+00  2.05D+00  3.00D+00  3.00D+00  3.00D+00
                    CP:  2.00D+00  1.22D+00  1.88D+00  1.37D+00
 E= -473.946826822601     Delta-E=        0.000000000001 Rises=F Damp=F
 DIIS: error= 5.82D-08 at cycle  20 NSaved=  20.
 NSaved=20 IEnMin=19 EnMin= -473.946826822602     IErMin=20 ErrMin= 5.82D-08
 ErrMax= 5.82D-08  0.00D+00 EMaxC= 1.00D-01 BMatC= 6.22D-14 BMatP= 3.07D-13
 IDIUse=1 WtCom= 1.00D+00 WtEn= 0.00D+00
 Coeff-Com:  0.444D-06-0.304D-05 0.503D-06 0.323D-04 0.238D-04-0.218D-03
 Coeff-Com: -0.446D-03 0.110D-02 0.160D-02-0.330D-02-0.380D-02 0.120D-01
 Coeff-Com:  0.129D-01-0.370D-01-0.233D-02 0.651D-01 0.630D-02-0.247D+00
 Coeff-Com:  0.811D-01 0.111D+01
 Coeff:      0.444D-06-0.304D-05 0.503D-06 0.323D-04 0.238D-04-0.218D-03
 Coeff:     -0.446D-03 0.110D-02 0.160D-02-0.330D-02-0.380D-02 0.120D-01
 Coeff:      0.129D-01-0.370D-01-0.233D-02 0.651D-01 0.630D-02-0.247D+00
 Coeff:      0.811D-01 0.111D+01
 RMSDP=4.55D-09 MaxDP=5.40D-07 DE= 9.09D-13 OVMax= 0.00D+00

 SCF Done:  E(RZINDO/S) =  -473.946826823     A.U. after   20 cycles
            NFock= 20  Conv=0.46D-08     -V/T= 0.9483
 KE=-9.171192297327D+03 PE= 7.527669367846D-07 EE= 4.448777972538D+03
 Leave Link  502 at Fri Apr 29 13:00:51 2022, MaxMem=  6710886400 cpu:              20.2 elap:               0.9
 (Enter /sw/apps/gaussian-16.0/g16/l801.exe)
 Range of M.O.s used for correlation:     1   338
 NBasis=   338 NAE=   176 NBE=   176 NFC=     0 NFV=     0
 NROrb=    338 NOA=   176 NOB=   176 NVA=   162 NVB=   162
 Leave Link  801 at Fri Apr 29 13:00:51 2022, MaxMem=  6710886400 cpu:               0.5 elap:               0.0
 (Enter /sw/apps/gaussian-16.0/g16/l914.exe)
 RHF ground state
 Two-electron integral symmetry not used.
 MDV=  6710886400 DFT=F DoStab=F Mixed=F DoRPA=F DoScal=F NonHer=F
 Making orbital integer symmetry assigments:
 Orbital symmetries:
       Occupied  (A) (A) (A) (A) (A) (A) (A) (A) (A) (A) (A) (A)
                 (A) (A) (A) (A) (A) (A) (A) (A) (A) (A) (A) (A)
                 (A) (A) (A) (A) (A) (A) (A) (A) (A) (A) (A) (A)
                 (A) (A) (A) (A) (A) (A) (A) (A) (A) (A) (A) (A)
                 (A) (A) (A) (A) (A) (A) (A) (A) (A) (A) (A) (A)
                 (A) (A) (A) (A) (A) (A) (A) (A) (A) (A) (A) (A)
                 (A) (A) (A) (A) (A) (A) (A) (A) (A) (A) (A) (A)
                 (A) (A) (A) (A) (A) (A) (A) (A) (A) (A) (A) (A)
                 (A) (A) (A) (A) (A) (A) (A) (A) (A) (A) (A) (A)
                 (A) (A) (A) (A) (A) (A) (A) (A) (A) (A) (A) (A)
                 (A) (A) (A) (A) (A) (A) (A) (A) (A) (A) (A) (A)
                 (A) (A) (A) (A) (A) (A) (A) (A) (A) (A) (A) (A)
                 (A) (A) (A) (A) (A) (A) (A) (A) (A) (A) (A) (A)
                 (A) (A) (A) (A) (A) (A) (A) (A) (A) (A) (A) (A)
                 (A) (A) (A) (A) (A) (A) (A) (A)
       Virtual   (A) (A) (A) (A) (A) (A) (A) (A) (A) (A) (A) (A)
                 (A) (A) (A) (A) (A) (A) (A) (A) (A) (A) (A) (A)
                 (A) (A) (A) (A) (A) (A) (A) (A) (A) (A) (A) (A)
                 (A) (A) (A) (A) (A) (A) (A) (A) (A) (A) (A) (A)
                 (A) (A) (A) (A) (A) (A) (A) (A) (A) (A) (A) (A)
                 (A) (A) (A) (A) (A) (A) (A) (A) (A) (A) (A) (A)
                 (A) (A) (A) (A) (A) (A) (A) (A) (A) (A) (A) (A)
                 (A) (A) (A) (A) (A) (A) (A) (A) (A) (A) (A) (A)
                 (A) (A) (A) (A) (A) (A) (A) (A) (A) (A) (A) (A)
                 (A) (A) (A) (A) (A) (A) (A) (A) (A) (A) (A) (A)
                 (A) (A) (A) (A) (A) (A) (A) (A) (A) (A) (A) (A)
                 (A) (A) (A) (A) (A) (A) (A) (A) (A) (A) (A) (A)
                 (A) (A) (A) (A) (A) (A) (A) (A) (A) (A) (A) (A)
                 (A) (A) (A) (A) (A) (A)
    20 initial guesses have been made.
 Convergence on wavefunction:    0.001000000000000
 Davidson Disk Diagonalization:  ConvIn= 1.00D-03 SkipCon=T Conv= 1.00D-03.
 Max sub-space:  2000 roots to seek:    20 dimension of matrix:        57024
 Iteration     1 Dimension    20 NMult     0 NNew     20
 CISAX will form    20 AO SS matrices at one time.
 NMat=    20 NSing=    20 JSym2X= 0.
 New state      3 was old state      4
 New state      4 was old state      3
 New state      5 was old state      7
 Excitation Energies [eV] at current iteration:
 Root      1 :     1.581102457053646
 Root      2 :     2.096024384481520
 Root      3 :     3.143952866364614
 Root      4 :     3.338033751556468
 Root      5 :     3.457623717631442
 Root      6 :     3.577897563920264
 Root      7 :     3.588340483053139
 Root      8 :     3.695204101716490
 Root      9 :     3.887717320914465
 Root     10 :     3.973472809521510
 Root     11 :     4.063652852874671
 Root     12 :     4.170686532776642
 Root     13 :     4.396093344098441
 Root     14 :     4.414772262943750
 Root     15 :     4.476433170651267
 Root     16 :     4.571580724779841
 Root     17 :     4.621727435172582
 Root     18 :     4.843499454701246
 Root     19 :     5.375950951424896
 Root     20 :     5.705163221506488
 Iteration     2 Dimension    40 NMult    20 NNew     20
 CISAX will form    20 AO SS matrices at one time.
 NMat=    20 NSing=    20 JSym2X= 0.
 Root      1 not converged, maximum delta is    0.048064676957318
 Root      2 not converged, maximum delta is    0.031113240968481
 Root      3 not converged, maximum delta is    0.122272562210535
 Root      4 not converged, maximum delta is    0.244953488185641
 Root      5 not converged, maximum delta is    0.371879428508335
 Excitation Energies [eV] at current iteration:
 Root      1 :     1.228569717137260   Change is   -0.352532739916387
 Root      2 :     1.900966578931240   Change is   -0.195057805550280
 Root      3 :     2.917015901287767   Change is   -0.226936965076848
 Root      4 :     2.976447353619036   Change is   -0.361586397937432
 Root      5 :     3.301104447442537   Change is   -0.156519270188905
 Root      6 :     3.334537834044959   Change is   -0.243359729875306
 Root      7 :     3.369862616109929   Change is   -0.218477866943210
 Root      8 :     3.524473086345089   Change is   -0.170731015371401
 Root      9 :     3.618210367001514   Change is   -0.269506953912951
 Root     10 :     3.669059103356596   Change is   -0.304413706164915
 Root     11 :     3.740259701363887   Change is   -0.323393151510784
 Root     12 :     3.958966900131821   Change is   -0.884532554569425
 Root     13 :     4.013011480970063   Change is   -0.157675051806580
 Root     14 :     4.121550890508956   Change is   -0.293221372434794
 Root     15 :     4.205158475373309   Change is   -0.190934868725132
 Root     16 :     4.271917684088992   Change is   -0.299663040690848
 Root     17 :     4.399384663941198   Change is   -0.222342771231384
 Root     18 :     4.446445389237808   Change is   -0.029987781413459
 Root     19 :     5.369957685469662   Change is   -0.005993265955233
 Root     20 :     5.689766659492344   Change is   -0.015396562014144
 Iteration     3 Dimension    45 NMult    40 NNew      5
 CISAX will form     5 AO SS matrices at one time.
 NMat=     5 NSing=     5 JSym2X= 0.
 Root      1 not converged, maximum delta is    0.014091469481679
 Root      2 not converged, maximum delta is    0.020994715520027
 Root      3 not converged, maximum delta is    0.029633344490624
 Root      4 not converged, maximum delta is    0.025075136443826
 Root      5 not converged, maximum delta is    0.022975749492001
 Excitation Energies [eV] at current iteration:
 Root      1 :     1.211134865535977   Change is   -0.017434851601282
 Root      2 :     1.872588842684544   Change is   -0.028377736246696
 Root      3 :     2.884070099955668   Change is   -0.032945801332099
 Root      4 :     2.959318094726652   Change is   -0.017129258892384
 Root      5 :     3.270430574208260   Change is   -0.030673873234277
 Iteration     4 Dimension    50 NMult    45 NNew      5
 CISAX will form     5 AO SS matrices at one time.
 NMat=     5 NSing=     5 JSym2X= 0.
 Root      1 not converged, maximum delta is    0.001751631061956
 Root      2 not converged, maximum delta is    0.003214668961072
 Root      3 not converged, maximum delta is    0.009151203769794
 Root      4 not converged, maximum delta is    0.005419376152374
 Root      5 not converged, maximum delta is    0.018116184791125
 Excitation Energies [eV] at current iteration:
 Root      1 :     1.210369282593224   Change is   -0.000765582942753
 Root      2 :     1.871775513811388   Change is   -0.000813328873156
 Root      3 :     2.881469190049407   Change is   -0.002600909906261
 Root      4 :     2.957082957712955   Change is   -0.002235137013697
 Root      5 :     3.267779076767586   Change is   -0.002651497440674
 Iteration     5 Dimension    55 NMult    50 NNew      5
 CISAX will form     5 AO SS matrices at one time.
 NMat=     5 NSing=     5 JSym2X= 0.
 Root      1 has converged.
 Root      2 has converged.
 Root      3 not converged, maximum delta is    0.003519932218974
 Root      4 not converged, maximum delta is    0.001971626443204
 Root      5 not converged, maximum delta is    0.011236853496124
 Excitation Energies [eV] at current iteration:
 Root      1 :     1.210324828883991   Change is   -0.000044453709233
 Root      2 :     1.871729777679374   Change is   -0.000045736132014
 Root      3 :     2.881064796743687   Change is   -0.000404393305720
 Root      4 :     2.956731902394580   Change is   -0.000351055318375
 Root      5 :     3.267184739946940   Change is   -0.000594336820646
 Iteration     6 Dimension    58 NMult    55 NNew      3
 CISAX will form     3 AO SS matrices at one time.
 NMat=     3 NSing=     3 JSym2X= 0.
 Root      1 has converged.
 Root      2 has converged.
 Root      3 not converged, maximum delta is    0.002513131940792
 Root      4 not converged, maximum delta is    0.001157714831487
 Root      5 not converged, maximum delta is    0.012473371898508
 Excitation Energies [eV] at current iteration:
 Root      1 :     1.210324648839251   Change is   -0.000000180044740
 Root      2 :     1.871729306486922   Change is   -0.000000471192451
 Root      3 :     2.880955442179463   Change is   -0.000109354564224
 Root      4 :     2.956670843179792   Change is   -0.000061059214789
 Root      5 :     3.266691710862367   Change is   -0.000493029084573
 Iteration     7 Dimension    61 NMult    58 NNew      3
 CISAX will form     3 AO SS matrices at one time.
 NMat=     3 NSing=     3 JSym2X= 0.
 Root      1 has converged.
 Root      2 has converged.
 Root      3 not converged, maximum delta is    0.003525616413204
 Root      4 not converged, maximum delta is    0.002161376157348
 Root      5 not converged, maximum delta is    0.472078615454616
 Excitation Energies [eV] at current iteration:
 Root      1 :     1.210324600662969   Change is   -0.000000048176282
 Root      2 :     1.871728990818571   Change is   -0.000000315668352
 Root      3 :     2.880893124639675   Change is   -0.000062317539788
 Root      4 :     2.956643482394318   Change is   -0.000027360785474
 Root      5 :     3.210330036192965   Change is   -0.056361674669401
 Iteration     8 Dimension    64 NMult    61 NNew      3
 CISAX will form     3 AO SS matrices at one time.
 NMat=     3 NSing=     3 JSym2X= 0.
 Root      1 has converged.
 Root      2 has converged.
 Root      3 not converged, maximum delta is    0.001496587484115
 Root      4 not converged, maximum delta is    0.001069285914304
 Root      5 not converged, maximum delta is    0.067833839616751
 Excitation Energies [eV] at current iteration:
 Root      1 :     1.210324552200096   Change is   -0.000000048462873
 Root      2 :     1.871728791935281   Change is   -0.000000198883290
 Root      3 :     2.880870195931660   Change is   -0.000022928708015
 Root      4 :     2.956630166994398   Change is   -0.000013315399921
 Root      5 :     3.139887863046781   Change is   -0.070442173146183
 Iteration     9 Dimension    67 NMult    64 NNew      3
 CISAX will form     3 AO SS matrices at one time.
 NMat=     3 NSing=     3 JSym2X= 0.
 Root      1 has converged.
 Root      2 has converged.
 Root      3 has converged.
 Root      4 has converged.
 Root      5 not converged, maximum delta is    0.014337517015419
 Excitation Energies [eV] at current iteration:
 Root      1 :     1.210324540575603   Change is   -0.000000011624494
 Root      2 :     1.871728651739048   Change is   -0.000000140196232
 Root      3 :     2.880865511356696   Change is   -0.000004684574964
 Root      4 :     2.956624847811315   Change is   -0.000005319183082
 Root      5 :     3.129799236555946   Change is   -0.010088626490836
 Iteration    10 Dimension    68 NMult    67 NNew      1
 CISAX will form     1 AO SS matrices at one time.
 NMat=     1 NSing=     1 JSym2X= 0.
 Root      1 has converged.
 Root      2 has converged.
 Root      3 has converged.
 Root      4 has converged.
 Root      5 not converged, maximum delta is    0.006099690977882
 Excitation Energies [eV] at current iteration:
 Root      1 :     1.210324540232675   Change is   -0.000000000342928
 Root      2 :     1.871728644505173   Change is   -0.000000007233875
 Root      3 :     2.880864829046355   Change is   -0.000000682310340
 Root      4 :     2.956624626899762   Change is   -0.000000220911554
 Root      5 :     3.128216799554584   Change is   -0.001582437001362
 Iteration    11 Dimension    69 NMult    68 NNew      1
 CISAX will form     1 AO SS matrices at one time.
 NMat=     1 NSing=     1 JSym2X= 0.
 Root      1 has converged.
 Root      2 has converged.
 Root      3 has converged.
 Root      4 has converged.
 Root      5 not converged, maximum delta is    0.003374289487894
 Excitation Energies [eV] at current iteration:
 Root      1 :     1.210324501571865   Change is   -0.000000038660810
 Root      2 :     1.871728564377215   Change is   -0.000000080127959
 Root      3 :     2.880864582687400   Change is   -0.000000246358956
 Root      4 :     2.956624295773473   Change is   -0.000000331126288
 Root      5 :     3.127897410261007   Change is   -0.000319389293576
 Iteration    12 Dimension    70 NMult    69 NNew      1
 CISAX will form     1 AO SS matrices at one time.
 NMat=     1 NSing=     1 JSym2X= 0.
 Root      1 has converged.
 Root      2 has converged.
 Root      3 has converged.
 Root      4 has converged.
 Root      5 not converged, maximum delta is    0.005420130733675
 Excitation Energies [eV] at current iteration:
 Root      1 :     1.210324360403199   Change is   -0.000000141168666
 Root      2 :     1.871728519632325   Change is   -0.000000044744890
 Root      3 :     2.880864159356743   Change is   -0.000000423330656
 Root      4 :     2.956623398693138   Change is   -0.000000897080335
 Root      5 :     3.127713456714355   Change is   -0.000183953546653
 Iteration    13 Dimension    71 NMult    70 NNew      1
 CISAX will form     1 AO SS matrices at one time.
 NMat=     1 NSing=     1 JSym2X= 0.
 Root      1 has converged.
 Root      2 has converged.
 Root      3 has converged.
 Root      4 has converged.
 Root      5 not converged, maximum delta is    0.044767777312401
 Excitation Energies [eV] at current iteration:
 Root      1 :     1.210324337930409   Change is   -0.000000022472790
 Root      2 :     1.871728415216342   Change is   -0.000000104415983
 Root      3 :     2.880863020617918   Change is   -0.000001138738825
 Root      4 :     2.956620480067362   Change is   -0.000002918625776
 Root      5 :     3.126663340420446   Change is   -0.001050116293908
 Iteration    14 Dimension    72 NMult    71 NNew      1
 CISAX will form     1 AO SS matrices at one time.
 NMat=     1 NSing=     1 JSym2X= 0.
 Root      1 has converged.
 Root      2 has converged.
 Root      3 has converged.
 Root      4 not converged, maximum delta is    0.001168914896521
 Root      5 not converged, maximum delta is    0.427568611487798
 Excitation Energies [eV] at current iteration:
 Root      1 :     1.210324337500686   Change is   -0.000000000429723
 Root      2 :     1.871728392003058   Change is   -0.000000023213284
 Root      3 :     2.880862116739800   Change is   -0.000000903878119
 Root      4 :     2.956617091029555   Change is   -0.000003389037806
 Root      5 :     3.090894388444741   Change is   -0.035768951975705
 Iteration    15 Dimension    74 NMult    72 NNew      2
 CISAX will form     2 AO SS matrices at one time.
 NMat=     2 NSing=     2 JSym2X= 0.
 Root      1 has converged.
 Root      2 has converged.
 Root      3 has converged.
 Root      4 has converged.
 Root      5 not converged, maximum delta is    0.023384998128121
 Excitation Energies [eV] at current iteration:
 Root      1 :     1.210324331696242   Change is   -0.000000005804443
 Root      2 :     1.871728378494371   Change is   -0.000000013508687
 Root      3 :     2.880861970568826   Change is   -0.000000146170973
 Root      4 :     2.956615918301287   Change is   -0.000001172728268
 Root      5 :     3.078150380944865   Change is   -0.012744007499876
 Iteration    16 Dimension    75 NMult    74 NNew      1
 CISAX will form     1 AO SS matrices at one time.
 NMat=     1 NSing=     1 JSym2X= 0.
 Root      1 has converged.
 Root      2 has converged.
 Root      3 has converged.
 Root      4 has converged.
 Root      5 not converged, maximum delta is    0.006913707514184
 Excitation Energies [eV] at current iteration:
 Root      1 :     1.210324330640819   Change is   -0.000000001055423
 Root      2 :     1.871728361602133   Change is   -0.000000016892238
 Root      3 :     2.880861961501421   Change is   -0.000000009067405
 Root      4 :     2.956615845740361   Change is   -0.000000072560926
 Root      5 :     3.076183239281685   Change is   -0.001967141663181
 Iteration    17 Dimension    76 NMult    75 NNew      1
 CISAX will form     1 AO SS matrices at one time.
 NMat=     1 NSing=     1 JSym2X= 0.
 Root      1 has converged.
 Root      2 has converged.
 Root      3 has converged.
 Root      4 has converged.
 Root      5 not converged, maximum delta is    0.002977924354276
 Excitation Energies [eV] at current iteration:
 Root      1 :     1.210324322123007   Change is   -0.000000008517812
 Root      2 :     1.871728316755276   Change is   -0.000000044846857
 Root      3 :     2.880861961484044   Change is   -0.000000000017377
 Root      4 :     2.956615822619370   Change is   -0.000000023120991
 Root      5 :     3.075835920618813   Change is   -0.000347318662872
 Iteration    18 Dimension    77 NMult    76 NNew      1
 CISAX will form     1 AO SS matrices at one time.
 NMat=     1 NSing=     1 JSym2X= 0.
 Root      1 has converged.
 Root      2 has converged.
 Root      3 has converged.
 Root      4 has converged.
 Root      5 not converged, maximum delta is    0.003523541951043
 Excitation Energies [eV] at current iteration:
 Root      1 :     1.210324305508557   Change is   -0.000000016614450
 Root      2 :     1.871728314051738   Change is   -0.000000002703538
 Root      3 :     2.880861961465259   Change is   -0.000000000018785
 Root      4 :     2.956615805883842   Change is   -0.000000016735529
 Root      5 :     3.075714682509112   Change is   -0.000121238109701
 Iteration    19 Dimension    78 NMult    77 NNew      1
 CISAX will form     1 AO SS matrices at one time.
 NMat=     1 NSing=     1 JSym2X= 0.
 Root      1 has converged.
 Root      2 has converged.
 Root      3 has converged.
 Root      4 has converged.
 Root      5 not converged, maximum delta is    0.003977925974854
 Excitation Energies [eV] at current iteration:
 Root      1 :     1.210324279364973   Change is   -0.000000026143584
 Root      2 :     1.871728313894497   Change is   -0.000000000157241
 Root      3 :     2.880861958687535   Change is   -0.000000002777723
 Root      4 :     2.956615797568417   Change is   -0.000000008315424
 Root      5 :     3.075640413460875   Change is   -0.000074269048237
 Iteration    20 Dimension    79 NMult    78 NNew      1
 CISAX will form     1 AO SS matrices at one time.
 NMat=     1 NSing=     1 JSym2X= 0.
 Root      1 has converged.
 Root      2 has converged.
 Root      3 has converged.
 Root      4 has converged.
 Root      5 not converged, maximum delta is    0.002329949376388
 Excitation Energies [eV] at current iteration:
 Root      1 :     1.210324279184440   Change is   -0.000000000180533
 Root      2 :     1.871728297355592   Change is   -0.000000016538905
 Root      3 :     2.880861951728409   Change is   -0.000000006959127
 Root      4 :     2.956615796218144   Change is   -0.000000001350274
 Root      5 :     3.075609502799910   Change is   -0.000030910660965
 Iteration    21 Dimension    80 NMult    79 NNew      1
 CISAX will form     1 AO SS matrices at one time.
 NMat=     1 NSing=     1 JSym2X= 0.
 Root      1 has converged.
 Root      2 has converged.
 Root      3 has converged.
 Root      4 has converged.
 Root      5 has converged.
 Excitation Energies [eV] at current iteration:
 Root      1 :     1.210324278398194   Change is   -0.000000000786246
 Root      2 :     1.871728291334048   Change is   -0.000000006021544
 Root      3 :     2.880861950671572   Change is   -0.000000001056837
 Root      4 :     2.956615794198461   Change is   -0.000000002019682
 Root      5 :     3.075602191408266   Change is   -0.000007311391644
 Convergence achieved on expansion vectors.
 ***********************************************************************
 Excited states from <AA,BB:AA,BB> singles matrix:
 ***********************************************************************
 
 1PDM for each excited state written to RWF  633
 Ground to excited state transition densities written to RWF  633
 Ground to excited state transition electric dipole moments (Au):
       state          X           Y           Z        Dip. S.      Osc.
         1        -0.7053     -4.3395     -0.5869     19.6734      0.5834
         2         0.1770     -0.0345      0.0332      0.0336      0.0015
         3        -1.1526      0.4275      0.0862      1.5187      0.1072
         4        -3.8662      0.7259     -0.3345     15.5863      1.1290
         5        -0.0027      0.0465      0.0082      0.0022      0.0002
 Ground to excited state transition velocity dipole moments (Au):
       state          X           Y           Z        Dip. S.      Osc.
         1        -0.0414     -0.0602      0.0018      0.0053      0.0801
         2        -0.0083      0.0080     -0.0005      0.0001      0.0013
         3         0.0356     -0.0011      0.0077      0.0013      0.0084
         4         0.1167     -0.0233      0.0144      0.0144      0.0882
         5         0.0003     -0.0035      0.0058      0.0000      0.0003
 Ground to excited state transition magnetic dipole moments (Au):
       state          X           Y           Z
         1         0.1278      0.0598      0.2684
         2         0.0137     -0.0075      0.0948
         3        -0.0029      0.0861      0.2168
         4        -0.0095      0.2309     -0.0814
         5        -0.7017      0.1344      0.1179
 Ground to excited state transition velocity quadrupole moments (Au):
       state          XX          YY          ZZ          XY          XZ          YZ
         1         0.7951      0.0633     -0.0218      0.7549     -0.0869      0.1284
         2         0.1436      0.0874     -0.0144     -0.1003      0.0034      0.0433
         3        -1.3898      0.7709     -0.0520     -0.1763     -0.1371      0.0837
         4        -1.8125      0.0325      0.0024      0.0966     -0.1435     -0.0623
         5        -0.0199     -0.0034      0.0316      0.0278     -0.0601      0.0967
 <0|del|b> * <b|rxdel|0> + <0|del|b> * <b|delr+rdel|0>
 Rotatory Strengths (R) in cgs (10**-40 erg-esu-cm/Gauss)
       state          XX          YY          ZZ    R(velocity)    E-M Angle
         1       -55.4455    -91.2503     13.1582    -44.5125      112.27
         2        -0.4373     -2.9859      1.0984     -0.7749      101.74
         3         0.2098     19.7039    -10.1112      3.2675       80.07
         4       -27.6816    -35.5863     13.4372    -16.6103      105.11
         5         0.5145      1.0487     -1.5974     -0.0114       90.00
 1/2[<0|r|b>*<b|rxdel|0> + (<0|rxdel|b>*<b|r|0>)*]
 Rotatory Strengths (R) in cgs (10**-40 erg-esu-cm/Gauss)
       state          XX          YY          ZZ     R(length)
         1        63.7632    183.3931    111.3895    119.5153
         2        -1.7161     -0.1840     -2.2263     -1.3755
         3        -2.3592    -26.0121    -13.2135    -13.8616
         4       -25.8456   -118.5166    -19.2674    -54.5432
         5        -1.3610     -4.4199     -0.6853     -2.1554
  1/2[<0|del|b>*<b|r|0> + (<0|r|b>*<b|del|0>)*] (Au)
       state          X           Y           Z        Dip. S.   Osc.(frdel)
         1         0.0292      0.2614     -0.0011     -0.2895     -0.1930
         2        -0.0015     -0.0003     -0.0000      0.0018      0.0012
         3        -0.0411     -0.0005      0.0007      0.0409      0.0273
         4        -0.4513     -0.0169     -0.0048      0.4730      0.3153
         5        -0.0000     -0.0002      0.0000      0.0001      0.0001

 Excitation energies and oscillator strengths:
 
 Excited State   1:      Singlet-A      1.2103 eV 1024.39 nm  f=0.5834  <S**2>=0.000
     175 ->178         0.20260
     176 ->177         0.65952
 This state for optimization and/or second-order correction.
 Total Energy, E(CIS/TDA) =  -473.902348224    
 Copying the excited state density for this state as the 1-particle RhoCI density.
 
 Excited State   2:      Singlet-A      1.8717 eV  662.40 nm  f=0.0015  <S**2>=0.000
     175 ->177        -0.48720
     176 ->178         0.49354
 
 Excited State   3:      Singlet-A      2.8809 eV  430.37 nm  f=0.1072  <S**2>=0.000
     175 ->177         0.12750
     176 ->178         0.15289
     176 ->179         0.64039
 
 Excited State   4:      Singlet-A      2.9566 eV  419.34 nm  f=1.1290  <S**2>=0.000
     175 ->177         0.44386
     176 ->178         0.44782
     176 ->179        -0.20673
     176 ->180         0.14884
 
 Excited State   5:      Singlet-A      3.0756 eV  403.12 nm  f=0.0002  <S**2>=0.000
     168 ->177         0.26381
     168 ->178         0.15450
     168 ->179         0.31615
     168 ->180         0.35184
     168 ->186         0.24347
     168 ->187        -0.13673
     169 ->179         0.10932
     169 ->180         0.12525
 SavETr:  write IOETrn=   770 NScale= 10 NData=  16 NLR=1 NState=    5 LETran=     100.
 Leave Link  914 at Fri Apr 29 13:00:58 2022, MaxMem=  6710886400 cpu:             176.4 elap:               7.6
 (Enter /sw/apps/gaussian-16.0/g16/l601.exe)
 Copying SCF densities to generalized density rwf, IOpCl= 0 IROHF=0.

 **********************************************************************

            Population analysis using the SCF density.

 **********************************************************************

 Orbital symmetries:
       Occupied  (A) (A) (A) (A) (A) (A) (A) (A) (A) (A) (A) (A)
                 (A) (A) (A) (A) (A) (A) (A) (A) (A) (A) (A) (A)
                 (A) (A) (A) (A) (A) (A) (A) (A) (A) (A) (A) (A)
                 (A) (A) (A) (A) (A) (A) (A) (A) (A) (A) (A) (A)
                 (A) (A) (A) (A) (A) (A) (A) (A) (A) (A) (A) (A)
                 (A) (A) (A) (A) (A) (A) (A) (A) (A) (A) (A) (A)
                 (A) (A) (A) (A) (A) (A) (A) (A) (A) (A) (A) (A)
                 (A) (A) (A) (A) (A) (A) (A) (A) (A) (A) (A) (A)
                 (A) (A) (A) (A) (A) (A) (A) (A) (A) (A) (A) (A)
                 (A) (A) (A) (A) (A) (A) (A) (A) (A) (A) (A) (A)
                 (A) (A) (A) (A) (A) (A) (A) (A) (A) (A) (A) (A)
                 (A) (A) (A) (A) (A) (A) (A) (A) (A) (A) (A) (A)
                 (A) (A) (A) (A) (A) (A) (A) (A) (A) (A) (A) (A)
                 (A) (A) (A) (A) (A) (A) (A) (A) (A) (A) (A) (A)
                 (A) (A) (A) (A) (A) (A) (A) (A)
       Virtual   (A) (A) (A) (A) (A) (A) (A) (A) (A) (A) (A) (A)
                 (A) (A) (A) (A) (A) (A) (A) (A) (A) (A) (A) (A)
                 (A) (A) (A) (A) (A) (A) (A) (A) (A) (A) (A) (A)
                 (A) (A) (A) (A) (A) (A) (A) (A) (A) (A) (A) (A)
                 (A) (A) (A) (A) (A) (A) (A) (A) (A) (A) (A) (A)
                 (A) (A) (A) (A) (A) (A) (A) (A) (A) (A) (A) (A)
                 (A) (A) (A) (A) (A) (A) (A) (A) (A) (A) (A) (A)
                 (A) (A) (A) (A) (A) (A) (A) (A) (A) (A) (A) (A)
                 (A) (A) (A) (A) (A) (A) (A) (A) (A) (A) (A) (A)
                 (A) (A) (A) (A) (A) (A) (A) (A) (A) (A) (A) (A)
                 (A) (A) (A) (A) (A) (A) (A) (A) (A) (A) (A) (A)
                 (A) (A) (A) (A) (A) (A) (A) (A) (A) (A) (A) (A)
                 (A) (A) (A) (A) (A) (A) (A) (A) (A) (A) (A) (A)
                 (A) (A) (A) (A) (A) (A)
 The electronic state is 1-A.
 Alpha  occ. eigenvalues --   -1.81972  -1.78734  -1.76239  -1.74735  -1.72279
 Alpha  occ. eigenvalues --   -1.68019  -1.67582  -1.63781  -1.57782  -1.57614
 Alpha  occ. eigenvalues --   -1.55980  -1.51263  -1.48471  -1.47925  -1.45023
 Alpha  occ. eigenvalues --   -1.43884  -1.42519  -1.40033  -1.38961  -1.37658
 Alpha  occ. eigenvalues --   -1.35938  -1.33342  -1.32066  -1.30037  -1.28279
 Alpha  occ. eigenvalues --   -1.26275  -1.23745  -1.21219  -1.20419  -1.18474
 Alpha  occ. eigenvalues --   -1.16949  -1.16585  -1.15747  -1.14391  -1.13187
 Alpha  occ. eigenvalues --   -1.12402  -1.10931  -1.09901  -1.04423  -1.04024
 Alpha  occ. eigenvalues --   -1.03096  -1.00455  -0.99080  -0.98425  -0.97557
 Alpha  occ. eigenvalues --   -0.96447  -0.95261  -0.93813  -0.93188  -0.92324
 Alpha  occ. eigenvalues --   -0.90147  -0.89729  -0.88369  -0.87511  -0.85423
 Alpha  occ. eigenvalues --   -0.84211  -0.82995  -0.82139  -0.81298  -0.80489
 Alpha  occ. eigenvalues --   -0.79981  -0.79158  -0.78830  -0.77030  -0.76783
 Alpha  occ. eigenvalues --   -0.76025  -0.74887  -0.74133  -0.73917  -0.73160
 Alpha  occ. eigenvalues --   -0.72858  -0.72325  -0.71463  -0.71122  -0.70641
 Alpha  occ. eigenvalues --   -0.70196  -0.68886  -0.68583  -0.68459  -0.68039
 Alpha  occ. eigenvalues --   -0.66822  -0.66781  -0.66513  -0.66381  -0.66289
 Alpha  occ. eigenvalues --   -0.65522  -0.65167  -0.64456  -0.64155  -0.63828
 Alpha  occ. eigenvalues --   -0.63403  -0.62859  -0.62699  -0.62268  -0.61872
 Alpha  occ. eigenvalues --   -0.61769  -0.61385  -0.60818  -0.60335  -0.59964
 Alpha  occ. eigenvalues --   -0.59848  -0.59538  -0.59137  -0.58144  -0.57960
 Alpha  occ. eigenvalues --   -0.57581  -0.57172  -0.56946  -0.56622  -0.56293
 Alpha  occ. eigenvalues --   -0.56202  -0.55780  -0.55583  -0.55181  -0.54996
 Alpha  occ. eigenvalues --   -0.53959  -0.53066  -0.53004  -0.52641  -0.52398
 Alpha  occ. eigenvalues --   -0.52346  -0.52083  -0.51792  -0.51426  -0.51029
 Alpha  occ. eigenvalues --   -0.50941  -0.50757  -0.50645  -0.50501  -0.50190
 Alpha  occ. eigenvalues --   -0.49958  -0.49716  -0.49587  -0.49383  -0.49096
 Alpha  occ. eigenvalues --   -0.49042  -0.48953  -0.48522  -0.48411  -0.48121
 Alpha  occ. eigenvalues --   -0.47727  -0.47165  -0.47107  -0.46536  -0.46444
 Alpha  occ. eigenvalues --   -0.46199  -0.46005  -0.45557  -0.45462  -0.45202
 Alpha  occ. eigenvalues --   -0.45144  -0.45063  -0.44581  -0.44468  -0.43645
 Alpha  occ. eigenvalues --   -0.42816  -0.42670  -0.42266  -0.42160  -0.41716
 Alpha  occ. eigenvalues --   -0.41645  -0.41319  -0.40783  -0.39402  -0.38456
 Alpha  occ. eigenvalues --   -0.37647  -0.37370  -0.35607  -0.35380  -0.34432
 Alpha  occ. eigenvalues --   -0.32939  -0.32370  -0.32276  -0.31762  -0.26427
 Alpha  occ. eigenvalues --   -0.21012
 Alpha virt. eigenvalues --   -0.07914  -0.02333  -0.00496   0.01187   0.01764
 Alpha virt. eigenvalues --    0.02472   0.03209   0.03467   0.04553   0.04883
 Alpha virt. eigenvalues --    0.05926   0.06528   0.06715   0.07458   0.07943
 Alpha virt. eigenvalues --    0.08320   0.08584   0.08926   0.09211   0.09626
 Alpha virt. eigenvalues --    0.09764   0.09906   0.10036   0.10283   0.10433
 Alpha virt. eigenvalues --    0.11034   0.11312   0.11828   0.12014   0.12252
 Alpha virt. eigenvalues --    0.12580   0.12715   0.12882   0.13047   0.13337
 Alpha virt. eigenvalues --    0.13463   0.13544   0.13941   0.14119   0.14563
 Alpha virt. eigenvalues --    0.15054   0.15417   0.15508   0.15768   0.15824
 Alpha virt. eigenvalues --    0.15888   0.15948   0.16577   0.17040   0.17205
 Alpha virt. eigenvalues --    0.17291   0.17583   0.17702   0.17911   0.18098
 Alpha virt. eigenvalues --    0.18483   0.18664   0.18701   0.18802   0.19201
 Alpha virt. eigenvalues --    0.19533   0.19842   0.20131   0.20176   0.21131
 Alpha virt. eigenvalues --    0.21378   0.22653   0.22845   0.23147   0.23350
 Alpha virt. eigenvalues --    0.23633   0.23819   0.24153   0.24215   0.24335
 Alpha virt. eigenvalues --    0.24460   0.24561   0.24590   0.24617   0.24673
 Alpha virt. eigenvalues --    0.24799   0.24808   0.24825   0.24881   0.25014
 Alpha virt. eigenvalues --    0.25027   0.25166   0.25255   0.25295   0.25370
 Alpha virt. eigenvalues --    0.25407   0.25442   0.25502   0.25607   0.25631
 Alpha virt. eigenvalues --    0.25860   0.25994   0.26110   0.26152   0.26184
 Alpha virt. eigenvalues --    0.26352   0.26363   0.26394   0.26459   0.26522
 Alpha virt. eigenvalues --    0.26718   0.26971   0.27004   0.27019   0.27086
 Alpha virt. eigenvalues --    0.27340   0.27406   0.27617   0.27788   0.27843
 Alpha virt. eigenvalues --    0.28028   0.28165   0.28633   0.28980   0.29483
 Alpha virt. eigenvalues --    0.30226   0.30384   0.30986   0.31290   0.31619
 Alpha virt. eigenvalues --    0.32417   0.32644   0.33135   0.33383   0.34763
 Alpha virt. eigenvalues --    0.35203   0.35465   0.35737   0.36053   0.36225
 Alpha virt. eigenvalues --    0.36526   0.36790   0.36916   0.37534   0.38204
 Alpha virt. eigenvalues --    0.39484   0.39613   0.39871   0.40330   0.40442
 Alpha virt. eigenvalues --    0.40762   0.41383   0.41516   0.41910   0.42874
 Alpha virt. eigenvalues --    0.43418   0.44351   0.45379   0.45654   0.46759
 Alpha virt. eigenvalues --    0.47119   0.47582   0.48718   0.50344   0.52490
 Alpha virt. eigenvalues --    0.53839   0.55810
          Condensed to atoms (all electrons):
 Mulliken charges:
               1
     1  Mg   0.430875
     2  C   -0.045554
     3  C   -0.096355
     4  C   -0.059096
     5  C   -0.061444
     6  N   -0.301134
     7  C    0.116561
     8  C   -0.003701
     9  C    0.010530
    10  C    0.132190
    11  C   -0.051234
    12  C   -0.030379
    13  C    0.006131
    14  C    0.473758
    15  O   -0.507475
    16  O   -0.279693
    17  N   -0.322672
    18  C    0.117421
    19  C   -0.009000
    20  C   -0.051747
    21  C    0.134898
    22  C   -0.045211
    23  C    0.333792
    24  O   -0.523475
    25  C   -0.030743
    26  N   -0.251582
    27  C    0.117335
    28  C    0.000960
    29  C    0.000767
    30  C    0.110281
    31  C   -0.056159
    32  C   -0.022064
    33  C   -0.056948
    34  N   -0.322903
    35  C    0.099028
    36  C    0.029526
    37  C   -0.058507
    38  C    0.116389
    39  C   -0.042234
    40  C    0.339177
    41  O   -0.508065
    42  C    0.056947
    43  C    0.497080
    44  O   -0.530457
    45  O   -0.263182
    46  C    0.074774
    47  C    0.109332
    48  C   -0.080908
    49  C   -0.002701
    50  C   -0.041505
    51  C   -0.027697
    52  C   -0.041294
    53  C   -0.040135
    54  C   -0.032074
    55  C   -0.054509
    56  C   -0.035803
    57  C   -0.039395
    58  C   -0.033265
    59  C   -0.009897
    60  C   -0.065290
    61  C   -0.037073
    62  C   -0.040537
    63  C   -0.023178
    64  C   -0.010538
    65  C   -0.064198
    66  C   -0.063629
    67  H    0.020943
    68  H    0.043030
    69  H    0.026820
    70  H    0.032592
    71  H    0.039134
    72  H    0.003962
    73  H    0.039265
    74  H    0.025326
    75  H    0.037467
    76  H    0.026431
    77  H    0.036920
    78  H    0.053171
    79  H    0.037771
    80  H    0.029374
    81  H    0.032792
    82  H    0.038247
    83  H    0.032900
    84  H    0.043823
    85  H    0.026451
    86  H    0.025357
    87  H    0.026946
    88  H    0.040798
    89  H    0.023641
    90  H    0.016143
    91  H    0.026926
    92  H    0.020131
    93  H    0.013631
    94  H    0.031204
    95  H    0.026458
    96  H    0.044509
    97  H    0.033935
    98  H    0.047192
    99  H    0.029727
   100  H    0.038065
   101  H    0.054827
   102  H    0.061731
   103  H    0.038041
   104  H    0.028807
   105  H    0.030622
   106  H    0.008841
   107  H    0.031613
   108  H    0.013222
   109  H    0.016267
   110  H    0.017744
   111  H    0.038000
   112  H    0.034298
   113  H    0.015411
   114  H   -0.005392
   115  H    0.022745
   116  H    0.029096
   117  H    0.020409
   118  H    0.032562
   119  H    0.019172
   120  H    0.026477
   121  H    0.005844
   122  H    0.012736
   123  H    0.021176
   124  H    0.023852
   125  H    0.009506
   126  H    0.025774
   127  H    0.022702
   128  H    0.019981
   129  H    0.016061
   130  H    0.022884
   131  H    0.002802
   132  H    0.020433
   133  H    0.018279
   134  H    0.021949
   135  H    0.012376
   136  H    0.016035
   137  H    0.030582
   138  H    0.023624
   139  H    0.008273
   140  H    0.026445
 Sum of Mulliken charges =   0.00000
 Mulliken charges with hydrogens summed into heavy atoms:
               1
     1  Mg   0.430875
     2  C   -0.045554
     3  C   -0.075412
     4  C   -0.016066
     5  C   -0.034624
     6  N   -0.301134
     7  C    0.116561
     8  C    0.028891
     9  C    0.049664
    10  C    0.132190
    11  C    0.017318
    12  C    0.033519
    13  C    0.096222
    14  C    0.473758
    15  O   -0.507475
    16  O   -0.279693
    17  N   -0.322672
    18  C    0.117421
    19  C   -0.009000
    20  C   -0.051747
    21  C    0.134898
    22  C    0.054726
    23  C    0.333792
    24  O   -0.523475
    25  C    0.084227
    26  N   -0.251582
    27  C    0.117335
    28  C    0.027411
    29  C    0.026124
    30  C    0.110281
    31  C    0.035227
    32  C    0.021005
    33  C    0.008017
    34  N   -0.322903
    35  C    0.099028
    36  C    0.029526
    37  C   -0.058507
    38  C    0.116389
    39  C    0.062666
    40  C    0.339177
    41  O   -0.508065
    42  C    0.104139
    43  C    0.497080
    44  O   -0.530457
    45  O   -0.263182
    46  C    0.197392
    47  C    0.209104
    48  C   -0.052101
    49  C   -0.002701
    50  C    0.029571
    51  C    0.001792
    52  C    0.014450
    53  C    0.009575
    54  C   -0.037466
    55  C    0.017742
    56  C    0.015931
    57  C   -0.007074
    58  C    0.000646
    59  C    0.013954
    60  C   -0.007308
    61  C   -0.001030
    62  C   -0.014851
    63  C    0.015534
    64  C    0.011412
    65  C   -0.005205
    66  C   -0.005286
 Charge=              0.0000 electrons
 Dipole moment (field-independent basis, Debye):
    X=              4.6209    Y=              3.0604    Z=              0.5105  Tot=              5.5660
 N-N= 4.248467497213D+03 E-N= 0.000000000000D+00  KE=-9.171192297327D+03
 Leave Link  601 at Fri Apr 29 13:00:58 2022, MaxMem=  6710886400 cpu:               0.7 elap:               0.0
 (Enter /sw/apps/gaussian-16.0/g16/l9999.exe)
 1\1\GINC-BP1-COMPUTE070\SP\RZINDO CIS\STO-3G\C55H74Mg1N4O6\OF15641\29-
 Apr-2022\0\\#p ZINDO=(nstates=5)\\step_301_chromophore_13 ZINDO\\0,1\M
 g,0,46.75,24.604,28.218\C,0,47.409,27.01,30.804\C,0,45.704,22.411,30.5
 83\C,0,46.689,22.292,25.783\C,0,47.882,27.057,25.926\N,0,46.547,24.767
 ,30.436\C,0,46.984,25.768,31.285\C,0,46.748,25.352,32.774\C,0,46.304,2
 3.837,32.686\C,0,46.2,23.624,31.165\C,0,47.217,22.777,33.234\C,0,45.66
 ,26.223,33.588\C,0,46.017,26.41,35.088\C,0,44.894,26.32,36.113\O,0,43.
 797,25.891,35.855\O,0,45.222,26.797,37.38\N,0,45.899,22.7,28.088\C,0,4
 5.579,21.963,29.217\C,0,45.231,20.583,28.745\C,0,45.619,20.5,27.339\C,
 0,46.071,21.873,26.984\C,0,44.745,19.456,29.708\C,0,45.685,19.221,26.4
 76\O,0,46.057,19.249,25.303\C,0,45.305,17.894,27.079\N,0,47.354,24.652
 ,26.209\C,0,47.294,23.55,25.412\C,0,47.66,23.891,23.933\C,0,47.761,25.
 434,23.922\C,0,47.702,25.732,25.436\C,0,48.89,23.106,23.31\C,0,46.781,
 26.275,23.065\C,0,45.3,26.445,23.598\N,0,47.684,26.515,28.263\C,0,47.9
 28,27.407,27.25\C,0,48.316,28.73,27.79\C,0,48.055,28.64,29.179\C,0,47.
 654,27.279,29.402\C,0,48.836,29.902,26.983\C,0,48.055,29.394,30.47\O,0
 ,48.274,30.561,30.768\C,0,47.719,28.266,31.547\C,0,48.86,28.149,32.473
 \O,0,49.955,27.778,32.154\O,0,48.579,28.709,33.635\C,0,49.607,28.673,3
 4.698\C,0,44.081,26.966,38.317\C,0,44.018,25.758,39.239\C,0,43.798,25.
 629,40.571\C,0,43.336,26.667,41.567\C,0,43.832,24.234,41.171\C,0,42.55
 5,23.341,40.942\C,0,42.284,22.357,42.137\C,0,40.93,22.756,42.73\C,0,39
 .663,22.497,41.871\C,0,40.998,24.064,43.606\C,0,39.781,24.122,44.566\C
 ,0,40.192,24.689,45.92\C,0,40.121,23.615,47.065\C,0,38.637,23.391,47.5
 42\C,0,41.011,23.907,48.316\C,0,42.285,23.036,48.28\C,0,43.589,23.799,
 48.233\C,0,44.239,23.555,46.925\C,0,45.365,22.505,47.048\C,0,44.782,24
 .864,46.403\H,0,45.424,21.724,31.384\H,0,46.856,21.58,24.972\H,0,48.14
 1,27.852,25.223\H,0,47.714,25.443,33.272\H,0,45.305,23.632,33.073\H,0,
 47.933,23.328,33.843\H,0,47.923,22.259,32.585\H,0,46.641,22.186,33.947
 \H,0,44.708,25.719,33.419\H,0,45.62,27.151,33.019\H,0,46.318,27.456,35
 .149\H,0,46.931,25.84,35.253\H,0,45.529,18.698,29.717\H,0,43.857,19.06
 2,29.214\H,0,44.481,19.87,30.681\H,0,45.794,17.56,27.994\H,0,45.59,17.
 098,26.391\H,0,44.226,18.005,27.194\H,0,46.812,23.616,23.306\H,0,48.76
 6,25.792,23.699\H,0,48.454,22.702,22.397\H,0,49.286,22.385,24.025\H,0,
 49.576,23.902,23.021\H,0,46.691,25.752,22.113\H,0,47.35,27.189,22.894\
 H,0,44.574,26.235,22.813\H,0,45.086,27.473,23.888\H,0,45.022,25.925,24
 .515\H,0,48.025,30.293,26.369\H,0,49.716,29.698,26.374\H,0,48.882,30.6
 99,27.725\H,0,46.948,28.71,32.177\H,0,49.418,27.732,35.215\H,0,49.501,
 29.52,35.376\H,0,50.649,28.662,34.377\H,0,43.17,27.143,37.745\H,0,44.2
 56,27.797,39.\H,0,44.398,24.855,38.762\H,0,42.352,26.402,41.954\H,0,43
 .206,27.646,41.106\H,0,44.023,26.882,42.386\H,0,44.011,24.214,42.246\H
 ,0,44.688,23.682,40.783\H,0,42.952,22.736,40.126\H,0,41.654,23.907,40.
 703\H,0,43.076,22.314,42.884\H,0,42.017,21.408,41.672\H,0,40.915,22.06
 6,43.573\H,0,39.025,23.324,42.183\H,0,39.294,21.487,42.043\H,0,39.812,
 22.647,40.802\H,0,41.147,24.885,42.905\H,0,41.862,23.866,44.24\H,0,39.
 154,23.236,44.677\H,0,39.011,24.726,44.085\H,0,39.459,25.481,46.07\H,0
 ,41.139,25.21,45.773\H,0,40.429,22.671,46.614\H,0,38.055,23.897,46.772
 \H,0,38.353,23.888,48.469\H,0,38.335,22.344,47.521\H,0,40.462,23.786,4
 9.25\H,0,41.327,24.949,48.352\H,0,42.188,22.266,47.514\H,0,42.224,22.4
 53,49.198\H,0,44.226,23.447,49.044\H,0,43.38,24.863,48.348\H,0,43.527,
 23.15,46.205\H,0,45.073,21.744,46.324\H,0,45.261,21.999,48.008\H,0,46.
 368,22.896,46.883\H,0,44.041,25.122,45.645\H,0,45.758,24.649,45.968\H,
 0,45.044,25.6,47.163\\Version=ES64L-G16RevA.03\State=1-A\HF=-473.94682
 68\RMSD=4.550e-09\PG=C01 [X(C55H74Mg1N4O6)]\\@


 SLITHERY-DITHERY
 FRIEDRICH A. KEKULE
 DREAMT ON A BUS OF THINGS
 FREUD WOULD THINK KEEN.
 MOST OF THE TIME THEY WERE
 HERPETOLOGICAL
 BITING THEIR TAILS IN THE
 SHAPE OF BENZENE.
 Job cpu time:       0 days  0 hours  3 minutes 40.1 seconds.
 Elapsed time:       0 days  0 hours  0 minutes  9.7 seconds.
 File lengths (MBytes):  RWF=   1276 Int=      0 D2E=      0 Chk=     38 Scr=      1
 Normal termination of Gaussian 16 at Fri Apr 29 13:00:59 2022.
