 Entering Gaussian System, Link 0=g16
 Initial command:
 /sw/apps/gaussian-16.0/g16/l1.exe "/tmp/Gau-52631.inp" -scrdir="/tmp/"
 Entering Link 1 = /sw/apps/gaussian-16.0/g16/l1.exe PID=     52632.
  
 Copyright (c) 1988,1990,1992,1993,1995,1998,2003,2009,2016,
            Gaussian, Inc.  All Rights Reserved.
  
 This is part of the Gaussian(R) 16 program.  It is based on
 the Gaussian(R) 09 system (copyright 2009, Gaussian, Inc.),
 the Gaussian(R) 03 system (copyright 2003, Gaussian, Inc.),
 the Gaussian(R) 98 system (copyright 1998, Gaussian, Inc.),
 the Gaussian(R) 94 system (copyright 1995, Gaussian, Inc.),
 the Gaussian 92(TM) system (copyright 1992, Gaussian, Inc.),
 the Gaussian 90(TM) system (copyright 1990, Gaussian, Inc.),
 the Gaussian 88(TM) system (copyright 1988, Gaussian, Inc.),
 the Gaussian 86(TM) system (copyright 1986, Carnegie Mellon
 University), and the Gaussian 82(TM) system (copyright 1983,
 Carnegie Mellon University). Gaussian is a federally registered
 trademark of Gaussian, Inc.
  
 This software contains proprietary and confidential information,
 including trade secrets, belonging to Gaussian, Inc.
  
 This software is provided under written license and may be
 used, copied, transmitted, or stored only in accord with that
 written license.
  
 The following legend is applicable only to US Government
 contracts under FAR:
  
                    RESTRICTED RIGHTS LEGEND
  
 Use, reproduction and disclosure by the US Government is
 subject to restrictions as set forth in subparagraphs (a)
 and (c) of the Commercial Computer Software - Restricted
 Rights clause in FAR 52.227-19.
  
 Gaussian, Inc.
 340 Quinnipiac St., Bldg. 40, Wallingford CT 06492
  
  
 ---------------------------------------------------------------
 Warning -- This program may not be used in any manner that
 competes with the business of Gaussian, Inc. or will provide
 assistance to any competitor of Gaussian, Inc.  The licensee
 of this program is prohibited from giving any competitor of
 Gaussian, Inc. access to this program.  By using this program,
 the user acknowledges that Gaussian, Inc. is engaged in the
 business of creating and licensing software in the field of
 computational chemistry and represents and warrants to the
 licensee that it is not a competitor of Gaussian, Inc. and that
 it will not use this program in any manner prohibited above.
 ---------------------------------------------------------------
  

 Cite this work as:
 Gaussian 16, Revision A.03,
 M. J. Frisch, G. W. Trucks, H. B. Schlegel, G. E. Scuseria, 
 M. A. Robb, J. R. Cheeseman, G. Scalmani, V. Barone, 
 G. A. Petersson, H. Nakatsuji, X. Li, M. Caricato, A. V. Marenich, 
 J. Bloino, B. G. Janesko, R. Gomperts, B. Mennucci, H. P. Hratchian, 
 J. V. Ortiz, A. F. Izmaylov, J. L. Sonnenberg, D. Williams-Young, 
 F. Ding, F. Lipparini, F. Egidi, J. Goings, B. Peng, A. Petrone, 
 T. Henderson, D. Ranasinghe, V. G. Zakrzewski, J. Gao, N. Rega, 
 G. Zheng, W. Liang, M. Hada, M. Ehara, K. Toyota, R. Fukuda, 
 J. Hasegawa, M. Ishida, T. Nakajima, Y. Honda, O. Kitao, H. Nakai, 
 T. Vreven, K. Throssell, J. A. Montgomery, Jr., J. E. Peralta, 
 F. Ogliaro, M. J. Bearpark, J. J. Heyd, E. N. Brothers, K. N. Kudin, 
 V. N. Staroverov, T. A. Keith, R. Kobayashi, J. Normand, 
 K. Raghavachari, A. P. Rendell, J. C. Burant, S. S. Iyengar, 
 J. Tomasi, M. Cossi, J. M. Millam, M. Klene, C. Adamo, R. Cammi, 
 J. W. Ochterski, R. L. Martin, K. Morokuma, O. Farkas, 
 J. B. Foresman, and D. J. Fox, Gaussian, Inc., Wallingford CT, 2016.
 
 ******************************************
 Gaussian 16:  ES64L-G16RevA.03 25-Dec-2016
                 4-May-2022 
 ******************************************
 %nproc=24
 Will use up to   24 processors via shared memory.
 %mem=50gb
 --------------------
 #p ZINDO=(nstates=5)
 --------------------
 1/38=1,172=1/1;
 2/12=2,17=6,18=5,40=1/2;
 3/5=2,25=1,41=400000/1,2,3,8;
 4/5=3,35=1/1;
 5/5=2,35=1,38=5/2;
 8/6=1,108=5/1;
 9/41=5,42=1,49=10/14;
 6/7=2,8=2,9=2,10=2/1;
 99/5=1,9=1/99;
 Leave Link    1 at Wed May  4 13:23:57 2022, MaxMem=  6710886400 cpu:               1.1 elap:               0.1
 (Enter /sw/apps/gaussian-16.0/g16/l101.exe)
 -----------------------------
 step_1701_chromophore_4 ZINDO
 -----------------------------
 Symbolic Z-matrix:
 Charge =  0 Multiplicity = 1
 Mg                    9.326     3.459     28.258 
 C                     11.009    2.142     31.127 
 C                     7.597     5.618     30.429 
 C                     7.7       4.71      25.663 
 C                     10.66     0.874     26.405 
 N                     9.338     3.849     30.54 
 C                     10.118    3.194     31.498 
 C                     9.84      3.715     32.902 
 C                     8.492     4.591     32.62 
 C                     8.384     4.615     31.118 
 C                     7.217     4.13      33.393 
 C                     11.028    4.546     33.411 
 C                     11.629    4.073     34.761 
 C                     10.641    4.012     35.975 
 O                     9.541     4.52      35.986 
 O                     11.151    3.251     36.995 
 N                     7.969     5.003     28.066 
 C                     7.422     5.828     29.029 
 C                     6.774     6.967     28.375 
 C                     6.767     6.633     26.995 
 C                     7.483     5.412     26.822 
 C                     6.053     8.084     29.194 
 C                     6.215     7.481     25.741 
 O                     6.362     7.201     24.521 
 C                     5.516     8.816     25.985 
 N                     9.094     2.797     26.275 
 C                     8.505     3.555     25.362 
 C                     8.526     2.809     23.967 
 C                     9.56      1.707     24.199 
 C                     9.712     1.728     25.684 
 C                     7.106     2.357     23.455 
 C                     10.899    1.836     23.267 
 C                     10.802    1.208     21.949 
 N                     10.555    1.9       28.633 
 C                     11.017    0.919     27.795 
 C                     11.837   -0.036     28.519 
 C                     11.927    0.528     29.786 
 C                     11.093    1.647     29.875 
 C                     12.519   -1.219     27.974 
 C                     12.587    0.335     31.1 
 O                     13.383   -0.525     31.483 
 C                     11.89     1.315     32.078 
 C                     11.132    0.417     33.036 
 O                     10.399   -0.502     32.747 
 O                     11.478    0.773     34.317 
 C                     10.656    0.09      35.368 
 C                     10.254    3.04      38.139 
 C                     10.379    4.228     39.073 
 C                     11.031    4.203     40.234 
 C                     12.219    3.344     40.751 
 C                     10.961    5.437     41.113 
 C                     9.667     5.512     42.027 
 C                     8.746     6.757     41.599 
 C                     8.574     7.91      42.612 
 C                     7.441     7.624     43.67 
 C                     8.364     9.246     41.936 
 C                     9.589     10.208    42.266 
 C                     9.303     11.023    43.533 
 C                     10.409    10.925    44.732 
 C                     11.286    12.196    44.679 
 C                     9.701     10.979    46.156 
 C                     9.31      9.554     46.66 
 C                     8.208     9.494     47.651 
 C                     7.779     8.013     47.968 
 C                     6.536     7.477     47.221 
 C                     7.576     7.747     49.507 
 H                     7.031     6.362     30.993 
 H                     7.159     4.991     24.757 
 H                     11.029   -0.021     25.901 
 H                     9.561     2.863     33.522 
 H                     8.867     5.557     32.957 
 H                     7.559     3.528     34.235 
 H                     6.601     3.442     32.815 
 H                     6.595     4.991     33.638 
 H                     10.88     5.619     33.29 
 H                     11.815    4.313     32.694 
 H                     12.368    4.846     34.971 
 H                     12.293    3.211     34.721 
 H                     5.027     8.037     28.83 
 H                     6.489     9.031     28.875 
 H                     6.19      8.072     30.276 
 H                     6.31      9.449     26.382 
 H                     4.778     8.672     26.774 
 H                     5.012     9.251     25.122 
 H                     8.985     3.494     23.255 
 H                     9.155     0.7       24.1 
 H                     6.826     2.836     22.517 
 H                     6.419     2.701     24.228 
 H                     7.024     1.28      23.307 
 H                     11.666    1.374     23.889 
 H                     11.157    2.879     23.082 
 H                     11.268    0.224     21.89 
 H                     11.199    1.832     21.149 
 H                     9.731     1.087     21.788 
 H                     13.297   -0.8       27.335 
 H                     11.836   -1.824     27.378 
 H                     12.916   -1.852     28.768 
 H                     12.68     1.756     32.686 
 H                     11.314   -0.713     35.699 
 H                     9.719    -0.337     35.013 
 H                     10.416    0.799     36.161 
 H                     10.514    2.102     38.629 
 H                     9.183     2.966     37.954 
 H                     9.597     4.986     39.039 
 H                     12.13     2.407     40.201 
 H                     12.207    3.006     41.788 
 H                     13.118    3.884     40.456 
 H                     10.964    6.316     40.468 
 H                     11.917    5.571     41.62 
 H                     10.12     5.782     42.981 
 H                     9.137     4.56      42.057 
 H                     7.831     6.164     41.604 
 H                     8.85      7.17      40.596 
 H                     9.55      7.904     43.097 
 H                     6.578     7.24      43.126 
 H                     7.158     8.491     44.266 
 H                     7.764     6.93      44.445 
 H                     7.461     9.763     42.262 
 H                     8.176     9.212     40.863 
 H                     9.845     10.867    41.436 
 H                     10.57     9.74      42.351 
 H                     8.359     10.846    44.049 
 H                     9.284     12.037    43.133 
 H                     10.913    9.965     44.619 
 H                     10.946    12.967    43.988 
 H                     12.306    11.925    44.405 
 H                     11.304    12.682    45.655 
 H                     8.804     11.593    46.236 
 H                     10.315    11.341    46.981 
 H                     10.199    9.147     47.143 
 H                     9.072     9.035     45.732 
 H                     7.39      10.087    47.242 
 H                     8.529     9.987     48.568 
 H                     8.601     7.372     47.649 
 H                     5.635     7.564     47.827 
 H                     6.702     6.476     46.824 
 H                     6.398     8.083     46.325 
 H                     6.702     7.113     49.655 
 H                     7.556     8.494     50.301 
 H                     8.463     7.14      49.691 
 
 ITRead=  0  0  0  0  0  0  0  0  0  0  0  0  0  0  0  0  0  0  0  0
 ITRead=  0  0  0  0  0  0  0  0  0  0  0  0  0  0  0  0  0  0  0  0
 ITRead=  0  0  0  0  0  0  0  0  0  0  0  0  0  0  0  0  0  0  0  0
 ITRead=  0  0  0  0  0  0  0  0  0  0  0  0  0  0  0  0  0  0  0  0
 ITRead=  0  0  0  0  0  0  0  0  0  0  0  0  0  0  0  0  0  0  0  0
 ITRead=  0  0  0  0  0  0  0  0  0  0  0  0  0  0  0  0  0  0  0  0
 ITRead=  0  0  0  0  0  0  0  0  0  0  0  0  0  0  0  0  0  0  0  0
 MicOpt= -1 -1 -1 -1 -1 -1 -1 -1 -1 -1 -1 -1 -1 -1 -1 -1 -1 -1 -1 -1
 MicOpt= -1 -1 -1 -1 -1 -1 -1 -1 -1 -1 -1 -1 -1 -1 -1 -1 -1 -1 -1 -1
 MicOpt= -1 -1 -1 -1 -1 -1 -1 -1 -1 -1 -1 -1 -1 -1 -1 -1 -1 -1 -1 -1
 MicOpt= -1 -1 -1 -1 -1 -1 -1 -1 -1 -1 -1 -1 -1 -1 -1 -1 -1 -1 -1 -1
 MicOpt= -1 -1 -1 -1 -1 -1 -1 -1 -1 -1 -1 -1 -1 -1 -1 -1 -1 -1 -1 -1
 MicOpt= -1 -1 -1 -1 -1 -1 -1 -1 -1 -1 -1 -1 -1 -1 -1 -1 -1 -1 -1 -1
 MicOpt= -1 -1 -1 -1 -1 -1 -1 -1 -1 -1 -1 -1 -1 -1 -1 -1 -1 -1 -1 -1
 NAtoms=    140 NQM=      140 NQMF=       0 NMMI=      0 NMMIF=      0
                NMic=       0 NMicF=      0.
                    Isotopes and Nuclear Properties:
 (Nuclear quadrupole moments (NQMom) in fm**2, nuclear magnetic moments (NMagM)
  in nuclear magnetons)

  Atom         1           2           3           4           5           6           7           8           9          10
 IAtWgt=          24          12          12          12          12          14          12          12          12          12
 AtmWgt=  23.9850450  12.0000000  12.0000000  12.0000000  12.0000000  14.0030740  12.0000000  12.0000000  12.0000000  12.0000000
 NucSpn=           0           0           0           0           0           2           0           0           0           0
 AtZEff=  -0.0000000  -0.0000000  -0.0000000  -0.0000000  -0.0000000  -0.0000000  -0.0000000  -0.0000000  -0.0000000  -0.0000000
 NQMom=    0.0000000   0.0000000   0.0000000   0.0000000   0.0000000   2.0440000   0.0000000   0.0000000   0.0000000   0.0000000
 NMagM=    0.0000000   0.0000000   0.0000000   0.0000000   0.0000000   0.4037610   0.0000000   0.0000000   0.0000000   0.0000000
 AtZNuc=  12.0000000   6.0000000   6.0000000   6.0000000   6.0000000   7.0000000   6.0000000   6.0000000   6.0000000   6.0000000

  Atom        11          12          13          14          15          16          17          18          19          20
 IAtWgt=          12          12          12          12          16          16          14          12          12          12
 AtmWgt=  12.0000000  12.0000000  12.0000000  12.0000000  15.9949146  15.9949146  14.0030740  12.0000000  12.0000000  12.0000000
 NucSpn=           0           0           0           0           0           0           2           0           0           0
 AtZEff=  -0.0000000  -0.0000000  -0.0000000  -0.0000000  -0.0000000  -0.0000000  -0.0000000  -0.0000000  -0.0000000  -0.0000000
 NQMom=    0.0000000   0.0000000   0.0000000   0.0000000   0.0000000   0.0000000   2.0440000   0.0000000   0.0000000   0.0000000
 NMagM=    0.0000000   0.0000000   0.0000000   0.0000000   0.0000000   0.0000000   0.4037610   0.0000000   0.0000000   0.0000000
 AtZNuc=   6.0000000   6.0000000   6.0000000   6.0000000   8.0000000   8.0000000   7.0000000   6.0000000   6.0000000   6.0000000

  Atom        21          22          23          24          25          26          27          28          29          30
 IAtWgt=          12          12          12          16          12          14          12          12          12          12
 AtmWgt=  12.0000000  12.0000000  12.0000000  15.9949146  12.0000000  14.0030740  12.0000000  12.0000000  12.0000000  12.0000000
 NucSpn=           0           0           0           0           0           2           0           0           0           0
 AtZEff=  -0.0000000  -0.0000000  -0.0000000  -0.0000000  -0.0000000  -0.0000000  -0.0000000  -0.0000000  -0.0000000  -0.0000000
 NQMom=    0.0000000   0.0000000   0.0000000   0.0000000   0.0000000   2.0440000   0.0000000   0.0000000   0.0000000   0.0000000
 NMagM=    0.0000000   0.0000000   0.0000000   0.0000000   0.0000000   0.4037610   0.0000000   0.0000000   0.0000000   0.0000000
 AtZNuc=   6.0000000   6.0000000   6.0000000   8.0000000   6.0000000   7.0000000   6.0000000   6.0000000   6.0000000   6.0000000

  Atom        31          32          33          34          35          36          37          38          39          40
 IAtWgt=          12          12          12          14          12          12          12          12          12          12
 AtmWgt=  12.0000000  12.0000000  12.0000000  14.0030740  12.0000000  12.0000000  12.0000000  12.0000000  12.0000000  12.0000000
 NucSpn=           0           0           0           2           0           0           0           0           0           0
 AtZEff=  -0.0000000  -0.0000000  -0.0000000  -0.0000000  -0.0000000  -0.0000000  -0.0000000  -0.0000000  -0.0000000  -0.0000000
 NQMom=    0.0000000   0.0000000   0.0000000   2.0440000   0.0000000   0.0000000   0.0000000   0.0000000   0.0000000   0.0000000
 NMagM=    0.0000000   0.0000000   0.0000000   0.4037610   0.0000000   0.0000000   0.0000000   0.0000000   0.0000000   0.0000000
 AtZNuc=   6.0000000   6.0000000   6.0000000   7.0000000   6.0000000   6.0000000   6.0000000   6.0000000   6.0000000   6.0000000

  Atom        41          42          43          44          45          46          47          48          49          50
 IAtWgt=          16          12          12          16          16          12          12          12          12          12
 AtmWgt=  15.9949146  12.0000000  12.0000000  15.9949146  15.9949146  12.0000000  12.0000000  12.0000000  12.0000000  12.0000000
 NucSpn=           0           0           0           0           0           0           0           0           0           0
 AtZEff=  -0.0000000  -0.0000000  -0.0000000  -0.0000000  -0.0000000  -0.0000000  -0.0000000  -0.0000000  -0.0000000  -0.0000000
 NQMom=    0.0000000   0.0000000   0.0000000   0.0000000   0.0000000   0.0000000   0.0000000   0.0000000   0.0000000   0.0000000
 NMagM=    0.0000000   0.0000000   0.0000000   0.0000000   0.0000000   0.0000000   0.0000000   0.0000000   0.0000000   0.0000000
 AtZNuc=   8.0000000   6.0000000   6.0000000   8.0000000   8.0000000   6.0000000   6.0000000   6.0000000   6.0000000   6.0000000

  Atom        51          52          53          54          55          56          57          58          59          60
 IAtWgt=          12          12          12          12          12          12          12          12          12          12
 AtmWgt=  12.0000000  12.0000000  12.0000000  12.0000000  12.0000000  12.0000000  12.0000000  12.0000000  12.0000000  12.0000000
 NucSpn=           0           0           0           0           0           0           0           0           0           0
 AtZEff=  -0.0000000  -0.0000000  -0.0000000  -0.0000000  -0.0000000  -0.0000000  -0.0000000  -0.0000000  -0.0000000  -0.0000000
 NQMom=    0.0000000   0.0000000   0.0000000   0.0000000   0.0000000   0.0000000   0.0000000   0.0000000   0.0000000   0.0000000
 NMagM=    0.0000000   0.0000000   0.0000000   0.0000000   0.0000000   0.0000000   0.0000000   0.0000000   0.0000000   0.0000000
 AtZNuc=   6.0000000   6.0000000   6.0000000   6.0000000   6.0000000   6.0000000   6.0000000   6.0000000   6.0000000   6.0000000

  Atom        61          62          63          64          65          66          67          68          69          70
 IAtWgt=          12          12          12          12          12          12           1           1           1           1
 AtmWgt=  12.0000000  12.0000000  12.0000000  12.0000000  12.0000000  12.0000000   1.0078250   1.0078250   1.0078250   1.0078250
 NucSpn=           0           0           0           0           0           0           1           1           1           1
 AtZEff=  -0.0000000  -0.0000000  -0.0000000  -0.0000000  -0.0000000  -0.0000000  -0.0000000  -0.0000000  -0.0000000  -0.0000000
 NQMom=    0.0000000   0.0000000   0.0000000   0.0000000   0.0000000   0.0000000   0.0000000   0.0000000   0.0000000   0.0000000
 NMagM=    0.0000000   0.0000000   0.0000000   0.0000000   0.0000000   0.0000000   2.7928460   2.7928460   2.7928460   2.7928460
 AtZNuc=   6.0000000   6.0000000   6.0000000   6.0000000   6.0000000   6.0000000   1.0000000   1.0000000   1.0000000   1.0000000

  Atom        71          72          73          74          75          76          77          78          79          80
 IAtWgt=           1           1           1           1           1           1           1           1           1           1
 AtmWgt=   1.0078250   1.0078250   1.0078250   1.0078250   1.0078250   1.0078250   1.0078250   1.0078250   1.0078250   1.0078250
 NucSpn=           1           1           1           1           1           1           1           1           1           1
 AtZEff=  -0.0000000  -0.0000000  -0.0000000  -0.0000000  -0.0000000  -0.0000000  -0.0000000  -0.0000000  -0.0000000  -0.0000000
 NQMom=    0.0000000   0.0000000   0.0000000   0.0000000   0.0000000   0.0000000   0.0000000   0.0000000   0.0000000   0.0000000
 NMagM=    2.7928460   2.7928460   2.7928460   2.7928460   2.7928460   2.7928460   2.7928460   2.7928460   2.7928460   2.7928460
 AtZNuc=   1.0000000   1.0000000   1.0000000   1.0000000   1.0000000   1.0000000   1.0000000   1.0000000   1.0000000   1.0000000

  Atom        81          82          83          84          85          86          87          88          89          90
 IAtWgt=           1           1           1           1           1           1           1           1           1           1
 AtmWgt=   1.0078250   1.0078250   1.0078250   1.0078250   1.0078250   1.0078250   1.0078250   1.0078250   1.0078250   1.0078250
 NucSpn=           1           1           1           1           1           1           1           1           1           1
 AtZEff=  -0.0000000  -0.0000000  -0.0000000  -0.0000000  -0.0000000  -0.0000000  -0.0000000  -0.0000000  -0.0000000  -0.0000000
 NQMom=    0.0000000   0.0000000   0.0000000   0.0000000   0.0000000   0.0000000   0.0000000   0.0000000   0.0000000   0.0000000
 NMagM=    2.7928460   2.7928460   2.7928460   2.7928460   2.7928460   2.7928460   2.7928460   2.7928460   2.7928460   2.7928460
 AtZNuc=   1.0000000   1.0000000   1.0000000   1.0000000   1.0000000   1.0000000   1.0000000   1.0000000   1.0000000   1.0000000

  Atom        91          92          93          94          95          96          97          98          99         100
 IAtWgt=           1           1           1           1           1           1           1           1           1           1
 AtmWgt=   1.0078250   1.0078250   1.0078250   1.0078250   1.0078250   1.0078250   1.0078250   1.0078250   1.0078250   1.0078250
 NucSpn=           1           1           1           1           1           1           1           1           1           1
 AtZEff=  -0.0000000  -0.0000000  -0.0000000  -0.0000000  -0.0000000  -0.0000000  -0.0000000  -0.0000000  -0.0000000  -0.0000000
 NQMom=    0.0000000   0.0000000   0.0000000   0.0000000   0.0000000   0.0000000   0.0000000   0.0000000   0.0000000   0.0000000
 NMagM=    2.7928460   2.7928460   2.7928460   2.7928460   2.7928460   2.7928460   2.7928460   2.7928460   2.7928460   2.7928460
 AtZNuc=   1.0000000   1.0000000   1.0000000   1.0000000   1.0000000   1.0000000   1.0000000   1.0000000   1.0000000   1.0000000

  Atom       101         102         103         104         105         106         107         108         109         110
 IAtWgt=           1           1           1           1           1           1           1           1           1           1
 AtmWgt=   1.0078250   1.0078250   1.0078250   1.0078250   1.0078250   1.0078250   1.0078250   1.0078250   1.0078250   1.0078250
 NucSpn=           1           1           1           1           1           1           1           1           1           1
 AtZEff=  -0.0000000  -0.0000000  -0.0000000  -0.0000000  -0.0000000  -0.0000000  -0.0000000  -0.0000000  -0.0000000  -0.0000000
 NQMom=    0.0000000   0.0000000   0.0000000   0.0000000   0.0000000   0.0000000   0.0000000   0.0000000   0.0000000   0.0000000
 NMagM=    2.7928460   2.7928460   2.7928460   2.7928460   2.7928460   2.7928460   2.7928460   2.7928460   2.7928460   2.7928460
 AtZNuc=   1.0000000   1.0000000   1.0000000   1.0000000   1.0000000   1.0000000   1.0000000   1.0000000   1.0000000   1.0000000

  Atom       111         112         113         114         115         116         117         118         119         120
 IAtWgt=           1           1           1           1           1           1           1           1           1           1
 AtmWgt=   1.0078250   1.0078250   1.0078250   1.0078250   1.0078250   1.0078250   1.0078250   1.0078250   1.0078250   1.0078250
 NucSpn=           1           1           1           1           1           1           1           1           1           1
 AtZEff=  -0.0000000  -0.0000000  -0.0000000  -0.0000000  -0.0000000  -0.0000000  -0.0000000  -0.0000000  -0.0000000  -0.0000000
 NQMom=    0.0000000   0.0000000   0.0000000   0.0000000   0.0000000   0.0000000   0.0000000   0.0000000   0.0000000   0.0000000
 NMagM=    2.7928460   2.7928460   2.7928460   2.7928460   2.7928460   2.7928460   2.7928460   2.7928460   2.7928460   2.7928460
 AtZNuc=   1.0000000   1.0000000   1.0000000   1.0000000   1.0000000   1.0000000   1.0000000   1.0000000   1.0000000   1.0000000

  Atom       121         122         123         124         125         126         127         128         129         130
 IAtWgt=           1           1           1           1           1           1           1           1           1           1
 AtmWgt=   1.0078250   1.0078250   1.0078250   1.0078250   1.0078250   1.0078250   1.0078250   1.0078250   1.0078250   1.0078250
 NucSpn=           1           1           1           1           1           1           1           1           1           1
 AtZEff=  -0.0000000  -0.0000000  -0.0000000  -0.0000000  -0.0000000  -0.0000000  -0.0000000  -0.0000000  -0.0000000  -0.0000000
 NQMom=    0.0000000   0.0000000   0.0000000   0.0000000   0.0000000   0.0000000   0.0000000   0.0000000   0.0000000   0.0000000
 NMagM=    2.7928460   2.7928460   2.7928460   2.7928460   2.7928460   2.7928460   2.7928460   2.7928460   2.7928460   2.7928460
 AtZNuc=   1.0000000   1.0000000   1.0000000   1.0000000   1.0000000   1.0000000   1.0000000   1.0000000   1.0000000   1.0000000

  Atom       131         132         133         134         135         136         137         138         139         140
 IAtWgt=           1           1           1           1           1           1           1           1           1           1
 AtmWgt=   1.0078250   1.0078250   1.0078250   1.0078250   1.0078250   1.0078250   1.0078250   1.0078250   1.0078250   1.0078250
 NucSpn=           1           1           1           1           1           1           1           1           1           1
 AtZEff=  -0.0000000  -0.0000000  -0.0000000  -0.0000000  -0.0000000  -0.0000000  -0.0000000  -0.0000000  -0.0000000  -0.0000000
 NQMom=    0.0000000   0.0000000   0.0000000   0.0000000   0.0000000   0.0000000   0.0000000   0.0000000   0.0000000   0.0000000
 NMagM=    2.7928460   2.7928460   2.7928460   2.7928460   2.7928460   2.7928460   2.7928460   2.7928460   2.7928460   2.7928460
 AtZNuc=   1.0000000   1.0000000   1.0000000   1.0000000   1.0000000   1.0000000   1.0000000   1.0000000   1.0000000   1.0000000
 Leave Link  101 at Wed May  4 13:23:57 2022, MaxMem=  6710886400 cpu:               2.8 elap:               0.1
 (Enter /sw/apps/gaussian-16.0/g16/l202.exe)
 Stoichiometry    C55H74MgN4O6
 Framework group  C1[X(C55H74MgN4O6)]
 Deg. of freedom   414
 Full point group                 C1      NOp   1
 Largest Abelian subgroup         C1      NOp   1
 Largest concise Abelian subgroup C1      NOp   1
                         Standard orientation:                         
 ---------------------------------------------------------------------
 Center     Atomic      Atomic             Coordinates (Angstroms)
 Number     Number       Type             X           Y           Z
 ---------------------------------------------------------------------
      1         12           0        5.868510    0.507600    0.099113
      2          6           0        3.508180   -2.159799    0.433721
      3          6           0        3.157829    2.643520   -0.574694
      4          6           0        7.985521    3.023876   -0.260772
      5          6           0        8.392674   -1.841515    0.174267
      6          7           0        3.570239    0.256594   -0.022188
      7          6           0        2.845264   -0.924484    0.163970
      8          6           0        1.348757   -0.699351   -0.008432
      9          6           0        1.358150    0.796894   -0.660479
     10          6           0        2.789982    1.242813   -0.521714
     11          6           0        0.738322    0.911699   -2.088173
     12          6           0        0.633637   -0.783019    1.348988
     13          6           0       -0.520417   -1.817700    1.419871
     14          6           0       -1.674646   -1.639790    0.375953
     15          8           0       -1.839085   -0.645662   -0.296993
     16          8           0       -2.431023   -2.778359    0.270243
     17          7           0        5.601050    2.527821   -0.231676
     18          6           0        4.438304    3.250744   -0.412247
     19          6           0        4.734956    4.679111   -0.282996
     20          6           0        6.152792    4.751229   -0.259667
     21          6           0        6.672706    3.423420   -0.253327
     22          6           0        3.625517    5.766593   -0.440534
     23          6           0        7.108285    6.040130   -0.111035
     24          8           0        8.358632    6.034770    0.047115
     25          6           0        6.487948    7.433829   -0.054928
     26          7           0        7.955986    0.581773   -0.148477
     27          6           0        8.610019    1.733650   -0.126718
     28          6           0       10.159968    1.460703   -0.288401
     29          6           0       10.260382   -0.039350   -0.010653
     30          6           0        8.832369   -0.468035   -0.086661
     31          6           0       10.767968    1.975642   -1.647820
     32          6           0       11.127814   -0.418167    1.324355
     33          6           0       12.569342   -0.551640    1.111990
     34          7           0        5.963807   -1.501643    0.287292
     35          6           0        7.050546   -2.336469    0.297903
     36          6           0        6.635734   -3.724434    0.398317
     37          6           0        5.261282   -3.626569    0.579393
     38          6           0        4.850001   -2.298002    0.433116
     39          6           0        7.501067   -4.911969    0.449293
     40          6           0        4.062356   -4.456900    0.848783
     41          8           0        3.947077   -5.671339    1.026980
     42          6           0        2.839797   -3.532264    0.618370
     43          6           0        2.171531   -4.092060   -0.622106
     44          8           0        2.704621   -4.375805   -1.671237
     45          8           0        0.845081   -4.302371   -0.332774
     46          6           0        0.025836   -4.676747   -1.530878
     47          6           0       -3.474635   -2.753210   -0.763250
     48          6           0       -4.707614   -2.086507   -0.184809
     49          6           0       -5.807881   -2.738858    0.186003
     50          6           0       -6.048664   -4.193946    0.677181
     51          6           0       -7.002863   -1.917630    0.630861
     52          6           0       -7.910857   -1.393022   -0.559009
     53          6           0       -7.863279    0.210947   -0.639441
     54          6           0       -9.164424    0.987879   -0.341852
     55          6           0      -10.106153    1.098930   -1.601083
     56          6           0       -8.899285    2.348277    0.262293
     57          6           0       -9.479905    2.395057    1.744069
     58          6           0      -10.929025    2.896340    1.735264
     59          6           0      -12.041173    1.933979    2.447603
     60          6           0      -12.345695    2.510377    3.848463
     61          6           0      -13.427178    2.004528    1.669162
     62          6           0      -13.507006    0.933991    0.535539
     63          6           0      -14.448723    1.228146   -0.572037
     64          6           0      -14.333664    0.178389   -1.739369
     65          6           0      -13.475025    0.588835   -2.957822
     66          6           0      -15.734485   -0.307273   -2.270706
     67          1           0        2.400443    3.408942   -0.754925
     68          1           0        8.769284    3.761972   -0.443554
     69          1           0        9.134008   -2.639236    0.101695
     70          1           0        0.995243   -1.393652   -0.770745
     71          1           0        0.762717    1.297382    0.102621
     72          1           0        0.105821    0.035077   -2.228915
     73          1           0        1.483473    0.823901   -2.878062
     74          1           0        0.252846    1.880094   -2.209646
     75          1           0        0.442365    0.194925    1.790479
     76          1           0        1.393731   -1.214342    2.000113
     77          1           0       -0.936102   -1.636046    2.410809
     78          1           0       -0.230791   -2.859613    1.546651
     79          1           0        3.979387    6.363753   -1.280508
     80          1           0        3.664734    6.380402    0.459670
     81          1           0        2.593041    5.418158   -0.487664
     82          1           0        5.933417    7.426834    0.883784
     83          1           0        5.766772    7.515901   -0.867990
     84          1           0        7.186879    8.266467   -0.133790
     85          1           0       10.650761    1.946524    0.554185
     86          1           0       10.639156   -0.615574   -0.854674
     87          1           0       11.528067    2.743196   -1.503614
     88          1           0        9.923363    2.429955   -2.165580
     89          1           0       11.216315    1.182902   -2.247074
     90          1           0       10.669719   -1.353386    1.647049
     91          1           0       11.009763    0.335205    2.103542
     92          1           0       12.910353   -1.582412    1.011427
     93          1           0       13.161367   -0.060646    1.883622
     94          1           0       12.749388   -0.040379    0.166581
     95          1           0        8.000373   -4.829333    1.415229
     96          1           0        8.239249   -4.892444   -0.352228
     97          1           0        6.923863   -5.831177    0.346216
     98          1           0        2.137764   -3.744553    1.424799
     99          1           0       -0.056991   -5.758808   -1.432806
    100          1           0        0.480189   -4.437071   -2.491316
    101          1           0       -0.938378   -4.169375   -1.486222
    102          1           0       -3.674609   -3.771999   -1.094343
    103          1           0       -3.284992   -2.197968   -1.681119
    104          1           0       -4.897621   -1.047913   -0.454000
    105          1           0       -5.255015   -4.770751    0.201990
    106          1           0       -6.946253   -4.716227    0.343546
    107          1           0       -5.912577   -4.162146    1.757596
    108          1           0       -6.635350   -1.048481    1.176929
    109          1           0       -7.519175   -2.442184    1.435352
    110          1           0       -8.898496   -1.649605   -0.175655
    111          1           0       -7.672432   -1.889874   -1.499432
    112          1           0       -7.706436    0.215960   -1.718456
    113          1           0       -7.018913    0.736707   -0.194450
    114          1           0       -9.619557    0.344644    0.411101
    115          1           0       -9.482315    1.380519   -2.449432
    116          1           0      -10.926972    1.805609   -1.483375
    117          1           0      -10.648355    0.174327   -1.795285
    118          1           0       -9.366583    3.167506   -0.284946
    119          1           0       -7.862732    2.684358    0.241389
    120          1           0       -8.870265    2.996793    2.418583
    121          1           0       -9.419859    1.473063    2.322803
    122          1           0      -11.380824    3.128333    0.770496
    123          1           0      -10.835011    3.826395    2.296261
    124          1           0      -11.654941    0.915706    2.399335
    125          1           0      -11.906101    3.485783    4.055499
    126          1           0      -11.997439    1.815472    4.613147
    127          1           0      -13.419587    2.654834    3.970871
    128          1           0      -13.686318    2.959605    1.212348
    129          1           0      -14.316100    1.768539    2.254647
    130          1           0      -13.846566    0.012588    1.009854
    131          1           0      -12.471508    0.868037    0.202998
    132          1           0      -14.232554    2.244318   -0.901762
    133          1           0      -15.465583    1.231579   -0.180932
    134          1           0      -13.838373   -0.699950   -1.325202
    135          1           0      -14.088026    0.989767   -3.764102
    136          1           0      -12.807674   -0.213077   -3.272060
    137          1           0      -12.790239    1.373440   -2.634467
    138          1           0      -15.702668   -0.392428   -3.356741
    139          1           0      -16.708694    0.113609   -2.020466
    140          1           0      -15.730449   -1.316218   -1.857079
 ---------------------------------------------------------------------
 Rotational constants (GHZ):           0.0543241           0.0090048           0.0080160
 Leave Link  202 at Wed May  4 13:23:57 2022, MaxMem=  6710886400 cpu:               0.2 elap:               0.0
 (Enter /sw/apps/gaussian-16.0/g16/l301.exe)
 Standard basis: VSTO-6G (5D, 7F)
 Ernie: Thresh=  0.10000D-02 Tol=  0.10000D-05 Strict=F.
 There are   338 symmetry adapted cartesian basis functions of A   symmetry.
 There are   338 symmetry adapted basis functions of A   symmetry.
   338 basis functions,  2028 primitive gaussians,   338 cartesian basis functions
   176 alpha electrons      176 beta electrons
       nuclear repulsion energy      4780.8629127771 Hartrees.
 IExCor=    0 DFT=F Ex=HF Corr=None ExCW=0 ScaHFX=  1.000000
 ScaDFX=  1.000000  1.000000  1.000000  1.000000 ScalE2=  1.000000  1.000000
 IRadAn=      5 IRanWt=     -1 IRanGd=            0 ICorTp=0 IEmpDi=  4
 Integral buffers will be    131072 words long.
 Regular integral format.
 Two-electron integral symmetry is turned off.
 Leave Link  301 at Wed May  4 13:23:57 2022, MaxMem=  6710886400 cpu:               1.2 elap:               0.1
 (Enter /sw/apps/gaussian-16.0/g16/l302.exe)
 Do NDO integrals.
 NPDir=0 NMtPBC=     1 NCelOv=     1 NCel=       1 NClECP=     1 NCelD=      1
         NCelK=      1 NCelE2=     1 NClLst=     1 CellRange=     0.0.
 One-electron integrals computed using PRISM.
 Generate ZINDO/S integrals.
 NDO Nuclear repulsion=  4294.834389335590 Hartrees.
 NBasis=   338 RedAO= F EigKep=  0.00D+00  NBF=   338
 NBsUse=   338 1.00D-04 EigRej=  0.00D+00 NBFU=   338
 Leave Link  302 at Wed May  4 13:23:58 2022, MaxMem=  6710886400 cpu:               7.9 elap:               0.3
 (Enter /sw/apps/gaussian-16.0/g16/l303.exe)
 DipDrv:  MaxL=1.
 DipDrv:  will hold  3 matrices at once.
 Leave Link  303 at Wed May  4 13:23:58 2022, MaxMem=  6710886400 cpu:               0.7 elap:               0.0
 (Enter /sw/apps/gaussian-16.0/g16/l308.exe)
 Leave Link  308 at Wed May  4 13:23:58 2022, MaxMem=  6710886400 cpu:               5.3 elap:               0.3
 (Enter /sw/apps/gaussian-16.0/g16/l401.exe)
 Simple Huckel Guess.
 JPrj=0 DoOrth=F DoCkMO=F.
 Leave Link  401 at Wed May  4 13:23:58 2022, MaxMem=  6710886400 cpu:               2.6 elap:               0.1
 (Enter /sw/apps/gaussian-16.0/g16/l502.exe)
 Two-electron integral symmetry not used.
 Closed shell SCF:
 Using DIIS extrapolation, IDIIS=  1040.
 Overlap will be assumed to be unity.
 NGot=  6710886400 LenX=  6710643598 LenY=  6710528913
 Requested convergence on RMS density matrix=1.00D-08 within 128 cycles.
 Requested convergence on MAX density matrix=1.00D-06.
 Requested convergence on             energy=1.00D-06.
 No special actions if energy rises.
 Fock matrices will be formed incrementally for  20 cycles.

 Cycle   1  Pass 1  IDiag  1:
 E= -471.967184334675    
 DIIS: error= 6.11D-02 at cycle   1 NSaved=   1.
 NSaved= 1 IEnMin= 1 EnMin= -471.967184334675     IErMin= 1 ErrMin= 6.11D-02
 ErrMax= 6.11D-02  0.00D+00 EMaxC= 1.00D-01 BMatC= 8.32D-01 BMatP= 8.32D-01
 IDIUse=3 WtCom= 3.89D-01 WtEn= 6.11D-01
 Coeff-Com:  0.100D+01
 Coeff-En:   0.100D+01
 Coeff:      0.100D+01
 GapD=    2.000 DampG=2.000 DampE=0.500 DampFc=1.0000 IDamp=-1.
 RMSDP=4.02D-03 MaxDP=1.79D-01              OVMax= 0.00D+00

 Cycle   2  Pass 1  IDiag  1:
 RMSU=  4.02D-03    CP:  9.95D-01
 E= -473.808764424452     Delta-E=       -1.841580089776 Rises=F Damp=F
 DIIS: error= 2.24D-02 at cycle   2 NSaved=   2.
 NSaved= 2 IEnMin= 2 EnMin= -473.808764424452     IErMin= 2 ErrMin= 2.24D-02
 ErrMax= 2.24D-02  0.00D+00 EMaxC= 1.00D-01 BMatC= 5.32D-02 BMatP= 8.32D-01
 IDIUse=3 WtCom= 7.76D-01 WtEn= 2.24D-01
 Coeff-Com: -0.706D-01 0.107D+01
 Coeff-En:   0.000D+00 0.100D+01
 Coeff:     -0.547D-01 0.105D+01
 RMSDP=1.12D-03 MaxDP=6.74D-02 DE=-1.84D+00 OVMax= 0.00D+00

 Cycle   3  Pass 1  IDiag  1:
 RMSU=  1.05D-03    CP:  9.93D-01  1.10D+00
 E= -473.913399982801     Delta-E=       -0.104635558349 Rises=F Damp=F
 DIIS: error= 1.13D-02 at cycle   3 NSaved=   3.
 NSaved= 3 IEnMin= 3 EnMin= -473.913399982801     IErMin= 3 ErrMin= 1.13D-02
 ErrMax= 1.13D-02  0.00D+00 EMaxC= 1.00D-01 BMatC= 7.49D-03 BMatP= 5.32D-02
 IDIUse=3 WtCom= 8.87D-01 WtEn= 1.13D-01
 Coeff-Com: -0.692D-01 0.242D+00 0.827D+00
 Coeff-En:   0.000D+00 0.000D+00 0.100D+01
 Coeff:     -0.614D-01 0.214D+00 0.847D+00
 RMSDP=3.80D-04 MaxDP=1.97D-02 DE=-1.05D-01 OVMax= 0.00D+00

 Cycle   4  Pass 1  IDiag  1:
 RMSU=  2.43D-04    CP:  9.93D-01  1.17D+00  9.26D-01
 E= -473.926856056069     Delta-E=       -0.013456073268 Rises=F Damp=F
 DIIS: error= 1.73D-03 at cycle   4 NSaved=   4.
 NSaved= 4 IEnMin= 4 EnMin= -473.926856056069     IErMin= 4 ErrMin= 1.73D-03
 ErrMax= 1.73D-03  0.00D+00 EMaxC= 1.00D-01 BMatC= 3.15D-04 BMatP= 7.49D-03
 IDIUse=3 WtCom= 9.83D-01 WtEn= 1.73D-02
 Coeff-Com:  0.115D-02-0.409D-01 0.220D-01 0.102D+01
 Coeff-En:   0.000D+00 0.000D+00 0.000D+00 0.100D+01
 Coeff:      0.113D-02-0.402D-01 0.216D-01 0.102D+01
 RMSDP=1.30D-04 MaxDP=7.32D-03 DE=-1.35D-02 OVMax= 0.00D+00

 Cycle   5  Pass 1  IDiag  1:
 RMSU=  7.95D-05    CP:  9.92D-01  1.17D+00  1.02D+00  1.09D+00
 E= -473.927933698857     Delta-E=       -0.001077642788 Rises=F Damp=F
 DIIS: error= 5.69D-04 at cycle   5 NSaved=   5.
 NSaved= 5 IEnMin= 5 EnMin= -473.927933698857     IErMin= 5 ErrMin= 5.69D-04
 ErrMax= 5.69D-04  0.00D+00 EMaxC= 1.00D-01 BMatC= 5.24D-05 BMatP= 3.15D-04
 IDIUse=3 WtCom= 9.94D-01 WtEn= 5.69D-03
 Coeff-Com:  0.616D-02-0.245D-01-0.930D-01 0.167D+00 0.944D+00
 Coeff-En:   0.000D+00 0.000D+00 0.000D+00 0.000D+00 0.100D+01
 Coeff:      0.613D-02-0.244D-01-0.924D-01 0.166D+00 0.945D+00
 RMSDP=5.73D-05 MaxDP=2.84D-03 DE=-1.08D-03 OVMax= 0.00D+00

 Cycle   6  Pass 1  IDiag  1:
 RMSU=  3.12D-05    CP:  9.92D-01  1.17D+00  1.04D+00  1.27D+00  1.11D+00
 E= -473.928114120898     Delta-E=       -0.000180422042 Rises=F Damp=F
 DIIS: error= 3.39D-04 at cycle   6 NSaved=   6.
 NSaved= 6 IEnMin= 6 EnMin= -473.928114120898     IErMin= 6 ErrMin= 3.39D-04
 ErrMax= 3.39D-04  0.00D+00 EMaxC= 1.00D-01 BMatC= 6.54D-06 BMatP= 5.24D-05
 IDIUse=3 WtCom= 9.97D-01 WtEn= 3.39D-03
 Coeff-Com: -0.409D-04 0.538D-02-0.161D-01-0.102D+00 0.830D-01 0.103D+01
 Coeff-En:   0.000D+00 0.000D+00 0.000D+00 0.000D+00 0.000D+00 0.100D+01
 Coeff:     -0.407D-04 0.536D-02-0.161D-01-0.101D+00 0.827D-01 0.103D+01
 RMSDP=2.53D-05 MaxDP=1.34D-03 DE=-1.80D-04 OVMax= 0.00D+00

 Cycle   7  Pass 1  IDiag  1:
 RMSU=  1.22D-05    CP:  9.92D-01  1.17D+00  1.04D+00  1.31D+00  1.30D+00
                    CP:  1.35D+00
 E= -473.928145081311     Delta-E=       -0.000030960412 Rises=F Damp=F
 DIIS: error= 6.42D-05 at cycle   7 NSaved=   7.
 NSaved= 7 IEnMin= 7 EnMin= -473.928145081311     IErMin= 7 ErrMin= 6.42D-05
 ErrMax= 6.42D-05  0.00D+00 EMaxC= 1.00D-01 BMatC= 7.73D-07 BMatP= 6.54D-06
 IDIUse=1 WtCom= 1.00D+00 WtEn= 0.00D+00
 Coeff-Com: -0.546D-03 0.218D-02 0.735D-02-0.982D-02-0.773D-01-0.834D-01
 Coeff-Com:  0.116D+01
 Coeff:     -0.546D-03 0.218D-02 0.735D-02-0.982D-02-0.773D-01-0.834D-01
 Coeff:      0.116D+01
 RMSDP=1.86D-05 MaxDP=9.93D-04 DE=-3.10D-05 OVMax= 0.00D+00

 Cycle   8  Pass 1  IDiag  1:
 RMSU=  6.55D-06    CP:  9.92D-01  1.17D+00  1.04D+00  1.33D+00  1.36D+00
                    CP:  1.74D+00  1.81D+00
 E= -473.928155738149     Delta-E=       -0.000010656839 Rises=F Damp=F
 DIIS: error= 5.27D-05 at cycle   8 NSaved=   8.
 NSaved= 8 IEnMin= 8 EnMin= -473.928155738149     IErMin= 8 ErrMin= 5.27D-05
 ErrMax= 5.27D-05  0.00D+00 EMaxC= 1.00D-01 BMatC= 4.88D-07 BMatP= 7.73D-07
 IDIUse=1 WtCom= 1.00D+00 WtEn= 0.00D+00
 Coeff-Com:  0.502D-04-0.126D-02 0.291D-02 0.212D-01-0.677D-02-0.259D+00
 Coeff-Com:  0.187D+00 0.106D+01
 Coeff:      0.502D-04-0.126D-02 0.291D-02 0.212D-01-0.677D-02-0.259D+00
 Coeff:      0.187D+00 0.106D+01
 RMSDP=1.42D-05 MaxDP=6.86D-04 DE=-1.07D-05 OVMax= 0.00D+00

 Cycle   9  Pass 1  IDiag  1:
 RMSU=  2.79D-06    CP:  9.92D-01  1.17D+00  1.04D+00  1.34D+00  1.39D+00
                    CP:  2.00D+00  2.60D+00  1.75D+00
 E= -473.928162122236     Delta-E=       -0.000006384087 Rises=F Damp=F
 DIIS: error= 3.25D-05 at cycle   9 NSaved=   9.
 NSaved= 9 IEnMin= 9 EnMin= -473.928162122236     IErMin= 9 ErrMin= 3.25D-05
 ErrMax= 3.25D-05  0.00D+00 EMaxC= 1.00D-01 BMatC= 2.30D-07 BMatP= 4.88D-07
 IDIUse=1 WtCom= 1.00D+00 WtEn= 0.00D+00
 Coeff-Com:  0.221D-03-0.736D-03-0.342D-02-0.148D-02 0.498D-01 0.223D-01
 Coeff-Com: -0.349D+00-0.730D+00 0.201D+01
 Coeff:      0.221D-03-0.736D-03-0.342D-02-0.148D-02 0.498D-01 0.223D-01
 Coeff:     -0.349D+00-0.730D+00 0.201D+01
 RMSDP=2.35D-05 MaxDP=1.10D-03 DE=-6.38D-06 OVMax= 0.00D+00

 Cycle  10  Pass 1  IDiag  1:
 RMSU=  1.06D-05    CP:  9.92D-01  1.17D+00  1.04D+00  1.35D+00  1.43D+00
                    CP:  2.42D+00  3.00D+00  3.00D+00  2.59D+00
 E= -473.928169189171     Delta-E=       -0.000007066935 Rises=F Damp=F
 DIIS: error= 2.30D-05 at cycle  10 NSaved=  10.
 NSaved=10 IEnMin=10 EnMin= -473.928169189171     IErMin=10 ErrMin= 2.30D-05
 ErrMax= 2.30D-05  0.00D+00 EMaxC= 1.00D-01 BMatC= 1.23D-07 BMatP= 2.30D-07
 IDIUse=1 WtCom= 1.00D+00 WtEn= 0.00D+00
 Coeff-Com: -0.764D-04 0.848D-03-0.804D-03-0.145D-01 0.121D-01 0.941D-01
 Coeff-Com:  0.805D-01-0.866D+00 0.223D+00 0.147D+01
 Coeff:     -0.764D-04 0.848D-03-0.804D-03-0.145D-01 0.121D-01 0.941D-01
 Coeff:      0.805D-01-0.866D+00 0.223D+00 0.147D+01
 RMSDP=1.93D-05 MaxDP=9.36D-04 DE=-7.07D-06 OVMax= 0.00D+00

 Cycle  11  Pass 1  IDiag  1:
 RMSU=  7.34D-06    CP:  9.92D-01  1.17D+00  1.04D+00  1.36D+00  1.46D+00
                    CP:  2.73D+00  3.00D+00  3.00D+00  3.00D+00  2.32D+00
 E= -473.928172600344     Delta-E=       -0.000003411173 Rises=F Damp=F
 DIIS: error= 1.50D-05 at cycle  11 NSaved=  11.
 NSaved=11 IEnMin=11 EnMin= -473.928172600344     IErMin=11 ErrMin= 1.50D-05
 ErrMax= 1.50D-05  0.00D+00 EMaxC= 1.00D-01 BMatC= 3.22D-08 BMatP= 1.23D-07
 IDIUse=1 WtCom= 1.00D+00 WtEn= 0.00D+00
 Coeff-Com: -0.788D-04 0.304D-03 0.132D-02-0.223D-02-0.104D-01-0.179D-01
 Coeff-Com:  0.177D+00 0.122D+00-0.569D+00-0.187D+00 0.149D+01
 Coeff:     -0.788D-04 0.304D-03 0.132D-02-0.223D-02-0.104D-01-0.179D-01
 Coeff:      0.177D+00 0.122D+00-0.569D+00-0.187D+00 0.149D+01
 RMSDP=1.22D-05 MaxDP=5.90D-04 DE=-3.41D-06 OVMax= 0.00D+00

 Cycle  12  Pass 1  IDiag  1:
 RMSU=  2.47D-06    CP:  9.92D-01  1.17D+00  1.04D+00  1.37D+00  1.47D+00
                    CP:  2.92D+00  3.00D+00  3.00D+00  3.00D+00  3.00D+00
                    CP:  1.76D+00
 E= -473.928173648691     Delta-E=       -0.000001048347 Rises=F Damp=F
 DIIS: error= 8.61D-06 at cycle  12 NSaved=  12.
 NSaved=12 IEnMin=12 EnMin= -473.928173648691     IErMin=12 ErrMin= 8.61D-06
 ErrMax= 8.61D-06  0.00D+00 EMaxC= 1.00D-01 BMatC= 1.07D-08 BMatP= 3.22D-08
 IDIUse=1 WtCom= 1.00D+00 WtEn= 0.00D+00
 Coeff-Com:  0.452D-04-0.333D-03 0.116D-04 0.399D-02 0.244D-02-0.309D-01
 Coeff-Com: -0.461D-01 0.164D+00 0.216D+00-0.609D+00-0.130D+00 0.143D+01
 Coeff:      0.452D-04-0.333D-03 0.116D-04 0.399D-02 0.244D-02-0.309D-01
 Coeff:     -0.461D-01 0.164D+00 0.216D+00-0.609D+00-0.130D+00 0.143D+01
 RMSDP=5.00D-06 MaxDP=2.25D-04 DE=-1.05D-06 OVMax= 0.00D+00

 Cycle  13  Pass 1  IDiag  1:
 RMSU=  1.61D-06    CP:  9.92D-01  1.17D+00  1.04D+00  1.37D+00  1.47D+00
                    CP:  2.98D+00  3.00D+00  3.00D+00  3.00D+00  3.00D+00
                    CP:  2.09D+00  2.39D+00
 E= -473.928173901007     Delta-E=       -0.000000252316 Rises=F Damp=F
 DIIS: error= 4.29D-06 at cycle  13 NSaved=  13.
 NSaved=13 IEnMin=13 EnMin= -473.928173901007     IErMin=13 ErrMin= 4.29D-06
 ErrMax= 4.29D-06  0.00D+00 EMaxC= 1.00D-01 BMatC= 3.83D-09 BMatP= 1.07D-08
 IDIUse=1 WtCom= 1.00D+00 WtEn= 0.00D+00
 Coeff-Com:  0.691D-05 0.151D-04-0.365D-03-0.500D-03 0.246D-02 0.114D-01
 Coeff-Com: -0.270D-01-0.130D+00 0.203D+00 0.490D-01-0.162D+00-0.551D+00
 Coeff-Com:  0.160D+01
 Coeff:      0.691D-05 0.151D-04-0.365D-03-0.500D-03 0.246D-02 0.114D-01
 Coeff:     -0.270D-01-0.130D+00 0.203D+00 0.490D-01-0.162D+00-0.551D+00
 Coeff:      0.160D+01
 RMSDP=2.92D-06 MaxDP=1.29D-04 DE=-2.52D-07 OVMax= 0.00D+00

 Cycle  14  Pass 1  IDiag  1:
 RMSU=  1.15D-06    CP:  9.92D-01  1.17D+00  1.04D+00  1.38D+00  1.47D+00
                    CP:  3.00D+00  3.00D+00  3.00D+00  3.00D+00  3.00D+00
                    CP:  2.26D+00  3.00D+00  1.45D+00
 E= -473.928174001897     Delta-E=       -0.000000100890 Rises=F Damp=F
 DIIS: error= 2.61D-06 at cycle  14 NSaved=  14.
 NSaved=14 IEnMin=14 EnMin= -473.928174001897     IErMin=14 ErrMin= 2.61D-06
 ErrMax= 2.61D-06  0.00D+00 EMaxC= 1.00D-01 BMatC= 1.92D-09 BMatP= 3.83D-09
 IDIUse=1 WtCom= 1.00D+00 WtEn= 0.00D+00
 Coeff-Com: -0.348D-04 0.223D-03 0.140D-03-0.226D-02-0.395D-02 0.171D-01
 Coeff-Com:  0.511D-01-0.992D-01-0.117D+00 0.199D+00 0.350D+00-0.855D+00
 Coeff-Com: -0.534D+00 0.199D+01
 Coeff:     -0.348D-04 0.223D-03 0.140D-03-0.226D-02-0.395D-02 0.171D-01
 Coeff:      0.511D-01-0.992D-01-0.117D+00 0.199D+00 0.350D+00-0.855D+00
 Coeff:     -0.534D+00 0.199D+01
 RMSDP=2.98D-06 MaxDP=1.41D-04 DE=-1.01D-07 OVMax= 0.00D+00

 Cycle  15  Pass 1  IDiag  1:
 RMSU=  8.60D-07    CP:  9.92D-01  1.17D+00  1.04D+00  1.38D+00  1.47D+00
                    CP:  3.00D+00  3.00D+00  3.00D+00  3.00D+00  3.00D+00
                    CP:  2.40D+00  3.00D+00  1.81D+00  3.00D+00
 E= -473.928174062703     Delta-E=       -0.000000060806 Rises=F Damp=F
 DIIS: error= 1.38D-06 at cycle  15 NSaved=  15.
 NSaved=15 IEnMin=15 EnMin= -473.928174062703     IErMin=15 ErrMin= 1.38D-06
 ErrMax= 1.38D-06  0.00D+00 EMaxC= 1.00D-01 BMatC= 3.85D-10 BMatP= 1.92D-09
 IDIUse=1 WtCom= 1.00D+00 WtEn= 0.00D+00
 Coeff-Com:  0.163D-06-0.182D-04 0.126D-03 0.383D-03-0.152D-02-0.265D-02
 Coeff-Com:  0.709D-02 0.319D-01-0.298D-01-0.760D-01 0.100D+00 0.171D+00
 Coeff-Com: -0.470D+00-0.103D+00 0.137D+01
 Coeff:      0.163D-06-0.182D-04 0.126D-03 0.383D-03-0.152D-02-0.265D-02
 Coeff:      0.709D-02 0.319D-01-0.298D-01-0.760D-01 0.100D+00 0.171D+00
 Coeff:     -0.470D+00-0.103D+00 0.137D+01
 RMSDP=1.33D-06 MaxDP=6.74D-05 DE=-6.08D-08 OVMax= 0.00D+00

 Cycle  16  Pass 1  IDiag  1:
 RMSU=  1.00D-06    CP:  9.92D-01  1.17D+00  1.04D+00  1.38D+00  1.47D+00
                    CP:  3.00D+00  3.00D+00  3.00D+00  3.00D+00  3.00D+00
                    CP:  2.46D+00  3.00D+00  1.99D+00  3.00D+00  1.82D+00
 E= -473.928174072481     Delta-E=       -0.000000009778 Rises=F Damp=F
 DIIS: error= 6.42D-07 at cycle  16 NSaved=  16.
 NSaved=16 IEnMin=16 EnMin= -473.928174072481     IErMin=16 ErrMin= 6.42D-07
 ErrMax= 6.42D-07  0.00D+00 EMaxC= 1.00D-01 BMatC= 5.36D-11 BMatP= 3.85D-10
 IDIUse=1 WtCom= 1.00D+00 WtEn= 0.00D+00
 Coeff-Com:  0.790D-05-0.514D-04-0.200D-04 0.570D-03 0.471D-03-0.330D-02
 Coeff-Com: -0.111D-01 0.215D-01 0.321D-01-0.627D-01-0.513D-01 0.185D+00
 Coeff-Com:  0.773D-01-0.450D+00 0.129D+00 0.113D+01
 Coeff:      0.790D-05-0.514D-04-0.200D-04 0.570D-03 0.471D-03-0.330D-02
 Coeff:     -0.111D-01 0.215D-01 0.321D-01-0.627D-01-0.513D-01 0.185D+00
 Coeff:      0.773D-01-0.450D+00 0.129D+00 0.113D+01
 RMSDP=3.81D-07 MaxDP=2.12D-05 DE=-9.78D-09 OVMax= 0.00D+00

 Cycle  17  Pass 1  IDiag  1:
 RMSU=  6.87D-08    CP:  9.92D-01  1.17D+00  1.04D+00  1.38D+00  1.47D+00
                    CP:  3.00D+00  3.00D+00  3.00D+00  3.00D+00  3.00D+00
                    CP:  2.47D+00  3.00D+00  2.02D+00  3.00D+00  2.04D+00
                    CP:  1.30D+00
 E= -473.928174073285     Delta-E=       -0.000000000804 Rises=F Damp=F
 DIIS: error= 1.69D-07 at cycle  17 NSaved=  17.
 NSaved=17 IEnMin=17 EnMin= -473.928174073285     IErMin=17 ErrMin= 1.69D-07
 ErrMax= 1.69D-07  0.00D+00 EMaxC= 1.00D-01 BMatC= 3.82D-12 BMatP= 5.36D-11
 IDIUse=1 WtCom= 1.00D+00 WtEn= 0.00D+00
 Coeff-Com:  0.243D-06 0.431D-07-0.179D-04-0.545D-05 0.134D-03 0.258D-03
 Coeff-Com: -0.142D-02-0.242D-02 0.558D-02 0.139D-02-0.712D-02-0.142D-01
 Coeff-Com:  0.475D-01 0.213D-02-0.114D+00-0.490D-04 0.108D+01
 Coeff:      0.243D-06 0.431D-07-0.179D-04-0.545D-05 0.134D-03 0.258D-03
 Coeff:     -0.142D-02-0.242D-02 0.558D-02 0.139D-02-0.712D-02-0.142D-01
 Coeff:      0.475D-01 0.213D-02-0.114D+00-0.490D-04 0.108D+01
 RMSDP=4.07D-08 MaxDP=2.52D-06 DE=-8.04D-10 OVMax= 0.00D+00

 Cycle  18  Pass 1  IDiag  1:
 RMSU=  2.10D-08    CP:  9.92D-01  1.17D+00  1.04D+00  1.38D+00  1.47D+00
                    CP:  3.00D+00  3.00D+00  3.00D+00  3.00D+00  3.00D+00
                    CP:  2.47D+00  3.00D+00  2.03D+00  3.00D+00  2.06D+00
                    CP:  1.33D+00  1.17D+00
 E= -473.928174073302     Delta-E=       -0.000000000017 Rises=F Damp=F
 DIIS: error= 7.56D-08 at cycle  18 NSaved=  18.
 NSaved=18 IEnMin=18 EnMin= -473.928174073302     IErMin=18 ErrMin= 7.56D-08
 ErrMax= 7.56D-08  0.00D+00 EMaxC= 1.00D-01 BMatC= 7.03D-13 BMatP= 3.82D-12
 IDIUse=1 WtCom= 1.00D+00 WtEn= 0.00D+00
 Coeff-Com: -0.135D-05 0.908D-05 0.634D-06-0.970D-04-0.712D-04 0.617D-03
 Coeff-Com:  0.160D-02-0.374D-02-0.458D-02 0.989D-02 0.866D-02-0.315D-01
 Coeff-Com: -0.859D-02 0.707D-01-0.281D-01-0.200D+00 0.721D-01 0.111D+01
 Coeff:     -0.135D-05 0.908D-05 0.634D-06-0.970D-04-0.712D-04 0.617D-03
 Coeff:      0.160D-02-0.374D-02-0.458D-02 0.989D-02 0.866D-02-0.315D-01
 Coeff:     -0.859D-02 0.707D-01-0.281D-01-0.200D+00 0.721D-01 0.111D+01
 RMSDP=2.15D-08 MaxDP=1.30D-06 DE=-1.73D-11 OVMax= 0.00D+00

 Cycle  19  Pass 1  IDiag  1:
 RMSU=  4.90D-09    CP:  9.92D-01  1.17D+00  1.04D+00  1.38D+00  1.47D+00
                    CP:  3.00D+00  3.00D+00  3.00D+00  3.00D+00  3.00D+00
                    CP:  2.47D+00  3.00D+00  2.03D+00  3.00D+00  2.07D+00
                    CP:  1.34D+00  1.30D+00  1.42D+00
 E= -473.928174073325     Delta-E=       -0.000000000023 Rises=F Damp=F
 DIIS: error= 3.94D-08 at cycle  19 NSaved=  19.
 NSaved=19 IEnMin=19 EnMin= -473.928174073325     IErMin=19 ErrMin= 3.94D-08
 ErrMax= 3.94D-08  0.00D+00 EMaxC= 1.00D-01 BMatC= 6.84D-14 BMatP= 7.03D-13
 IDIUse=1 WtCom= 1.00D+00 WtEn= 0.00D+00
 Coeff-Com:  0.508D-07-0.455D-06 0.223D-05 0.584D-05-0.133D-04-0.531D-04
 Coeff-Com:  0.359D-04 0.467D-03-0.231D-03-0.756D-03 0.120D-03 0.379D-02
 Coeff-Com: -0.458D-02-0.700D-02 0.198D-01 0.133D-01-0.147D+00-0.353D-01
 Coeff-Com:  0.116D+01
 Coeff:      0.508D-07-0.455D-06 0.223D-05 0.584D-05-0.133D-04-0.531D-04
 Coeff:      0.359D-04 0.467D-03-0.231D-03-0.756D-03 0.120D-03 0.379D-02
 Coeff:     -0.458D-02-0.700D-02 0.198D-01 0.133D-01-0.147D+00-0.353D-01
 Coeff:      0.116D+01
 RMSDP=4.86D-09 MaxDP=3.00D-07 DE=-2.27D-11 OVMax= 0.00D+00

 SCF Done:  E(RZINDO/S) =  -473.928174073     A.U. after   19 cycles
            NFock= 19  Conv=0.49D-08     -V/T= 0.9488
 KE=-9.264108543653D+03 PE=-7.803428161424D-07 EE= 4.495345981024D+03
 Leave Link  502 at Wed May  4 13:23:59 2022, MaxMem=  6710886400 cpu:              22.0 elap:               0.9
 (Enter /sw/apps/gaussian-16.0/g16/l801.exe)
 Range of M.O.s used for correlation:     1   338
 NBasis=   338 NAE=   176 NBE=   176 NFC=     0 NFV=     0
 NROrb=    338 NOA=   176 NOB=   176 NVA=   162 NVB=   162
 Leave Link  801 at Wed May  4 13:23:59 2022, MaxMem=  6710886400 cpu:               0.5 elap:               0.0
 (Enter /sw/apps/gaussian-16.0/g16/l914.exe)
 RHF ground state
 Two-electron integral symmetry not used.
 MDV=  6710886400 DFT=F DoStab=F Mixed=F DoRPA=F DoScal=F NonHer=F
 Making orbital integer symmetry assigments:
 Orbital symmetries:
       Occupied  (A) (A) (A) (A) (A) (A) (A) (A) (A) (A) (A) (A)
                 (A) (A) (A) (A) (A) (A) (A) (A) (A) (A) (A) (A)
                 (A) (A) (A) (A) (A) (A) (A) (A) (A) (A) (A) (A)
                 (A) (A) (A) (A) (A) (A) (A) (A) (A) (A) (A) (A)
                 (A) (A) (A) (A) (A) (A) (A) (A) (A) (A) (A) (A)
                 (A) (A) (A) (A) (A) (A) (A) (A) (A) (A) (A) (A)
                 (A) (A) (A) (A) (A) (A) (A) (A) (A) (A) (A) (A)
                 (A) (A) (A) (A) (A) (A) (A) (A) (A) (A) (A) (A)
                 (A) (A) (A) (A) (A) (A) (A) (A) (A) (A) (A) (A)
                 (A) (A) (A) (A) (A) (A) (A) (A) (A) (A) (A) (A)
                 (A) (A) (A) (A) (A) (A) (A) (A) (A) (A) (A) (A)
                 (A) (A) (A) (A) (A) (A) (A) (A) (A) (A) (A) (A)
                 (A) (A) (A) (A) (A) (A) (A) (A) (A) (A) (A) (A)
                 (A) (A) (A) (A) (A) (A) (A) (A) (A) (A) (A) (A)
                 (A) (A) (A) (A) (A) (A) (A) (A)
       Virtual   (A) (A) (A) (A) (A) (A) (A) (A) (A) (A) (A) (A)
                 (A) (A) (A) (A) (A) (A) (A) (A) (A) (A) (A) (A)
                 (A) (A) (A) (A) (A) (A) (A) (A) (A) (A) (A) (A)
                 (A) (A) (A) (A) (A) (A) (A) (A) (A) (A) (A) (A)
                 (A) (A) (A) (A) (A) (A) (A) (A) (A) (A) (A) (A)
                 (A) (A) (A) (A) (A) (A) (A) (A) (A) (A) (A) (A)
                 (A) (A) (A) (A) (A) (A) (A) (A) (A) (A) (A) (A)
                 (A) (A) (A) (A) (A) (A) (A) (A) (A) (A) (A) (A)
                 (A) (A) (A) (A) (A) (A) (A) (A) (A) (A) (A) (A)
                 (A) (A) (A) (A) (A) (A) (A) (A) (A) (A) (A) (A)
                 (A) (A) (A) (A) (A) (A) (A) (A) (A) (A) (A) (A)
                 (A) (A) (A) (A) (A) (A) (A) (A) (A) (A) (A) (A)
                 (A) (A) (A) (A) (A) (A) (A) (A) (A) (A) (A) (A)
                 (A) (A) (A) (A) (A) (A)
    20 initial guesses have been made.
 Convergence on wavefunction:    0.001000000000000
 Davidson Disk Diagonalization:  ConvIn= 1.00D-03 SkipCon=T Conv= 1.00D-03.
 Max sub-space:  2000 roots to seek:    20 dimension of matrix:        57024
 Iteration     1 Dimension    20 NMult     0 NNew     20
 CISAX will form    20 AO SS matrices at one time.
 NMat=    20 NSing=    20 JSym2X= 0.
 New state      3 was old state      4
 New state      4 was old state      3
 New state      5 was old state     11
 Excitation Energies [eV] at current iteration:
 Root      1 :     1.609174981584907
 Root      2 :     2.095168740814876
 Root      3 :     3.231699214805755
 Root      4 :     3.454483183466528
 Root      5 :     3.536007596734833
 Root      6 :     3.619963121165368
 Root      7 :     3.653312545219139
 Root      8 :     3.762575338958413
 Root      9 :     3.941467862070740
 Root     10 :     3.985410037755003
 Root     11 :     4.103938139632565
 Root     12 :     4.140575601907326
 Root     13 :     4.320159178588810
 Root     14 :     4.357162379486862
 Root     15 :     4.419548920702389
 Root     16 :     4.666450163270958
 Root     17 :     4.685232805171231
 Root     18 :     4.772408032757636
 Root     19 :     5.624112146542547
 Root     20 :     5.702426340059414
 Iteration     2 Dimension    40 NMult    20 NNew     20
 CISAX will form    20 AO SS matrices at one time.
 NMat=    20 NSing=    20 JSym2X= 0.
 Root      1 not converged, maximum delta is    0.050234702177455
 Root      2 not converged, maximum delta is    0.031702197067871
 Root      3 not converged, maximum delta is    0.177589820087112
 Root      4 not converged, maximum delta is    0.246449884774718
 New state      5 was old state      6
 Root      5 not converged, maximum delta is    0.230080457139545
 Excitation Energies [eV] at current iteration:
 Root      1 :     1.291575982601874   Change is   -0.317598998983034
 Root      2 :     1.890807208847892   Change is   -0.204361531966984
 Root      3 :     2.995466723579578   Change is   -0.236232491226177
 Root      4 :     3.051875519703566   Change is   -0.402607663762963
 Root      5 :     3.391541928209227   Change is   -0.228421192956141
 Root      6 :     3.411620798193521   Change is   -0.350954540764892
 Root      7 :     3.451826151694890   Change is   -0.084181445039943
 Root      8 :     3.545883663029354   Change is   -0.107428882189785
 Root      9 :     3.617541013637550   Change is   -0.323926848433189
 Root     10 :     3.679355327713531   Change is   -0.306054710041472
 Root     11 :     3.784041185504155   Change is   -0.319896954128410
 Root     12 :     3.876207251097691   Change is   -0.896200781659945
 Root     13 :     3.988635100847968   Change is   -0.151940501059358
 Root     14 :     4.114280064404388   Change is   -0.305268856298001
 Root     15 :     4.171886912242594   Change is   -0.185275467244267
 Root     16 :     4.275248345703363   Change is   -0.044910832885447
 Root     17 :     4.351943567849041   Change is   -0.333289237322190
 Root     18 :     4.440418851029976   Change is   -0.226031312240981
 Root     19 :     5.609786750611593   Change is   -0.014325395930955
 Root     20 :     5.693061259405628   Change is   -0.009365080653787
 Iteration     3 Dimension    45 NMult    40 NNew      5
 CISAX will form     5 AO SS matrices at one time.
 NMat=     5 NSing=     5 JSym2X= 0.
 Root      1 not converged, maximum delta is    0.016915543793132
 Root      2 not converged, maximum delta is    0.025874836816639
 Root      3 not converged, maximum delta is    0.055517305608917
 Root      4 not converged, maximum delta is    0.080757927083546
 Root      5 not converged, maximum delta is    0.035841079643861
 Excitation Energies [eV] at current iteration:
 Root      1 :     1.274716817986565   Change is   -0.016859164615309
 Root      2 :     1.861680467426184   Change is   -0.029126741421709
 Root      3 :     2.964195093084861   Change is   -0.031271630494717
 Root      4 :     3.034251537207627   Change is   -0.017623982495939
 Root      5 :     3.354658894816825   Change is   -0.036883033392402
 Iteration     4 Dimension    50 NMult    45 NNew      5
 CISAX will form     5 AO SS matrices at one time.
 NMat=     5 NSing=     5 JSym2X= 0.
 Root      1 not converged, maximum delta is    0.001711451952691
 Root      2 not converged, maximum delta is    0.002721900798903
 Root      3 not converged, maximum delta is    0.009415097572649
 Root      4 not converged, maximum delta is    0.012156451121450
 Root      5 not converged, maximum delta is    0.130554793504668
 Excitation Energies [eV] at current iteration:
 Root      1 :     1.274091097121242   Change is   -0.000625720865323
 Root      2 :     1.860956488788461   Change is   -0.000723978637722
 Root      3 :     2.961425906449621   Change is   -0.002769186635240
 Root      4 :     3.031548778103700   Change is   -0.002702759103927
 Root      5 :     3.318375888587130   Change is   -0.036283006229695
 Iteration     5 Dimension    55 NMult    50 NNew      5
 CISAX will form     5 AO SS matrices at one time.
 NMat=     5 NSing=     5 JSym2X= 0.
 Root      1 has converged.
 Root      2 has converged.
 Root      3 not converged, maximum delta is    0.036793047732071
 Root      4 not converged, maximum delta is    0.123577219047938
 Root      5 not converged, maximum delta is    0.316151304132795
 Excitation Energies [eV] at current iteration:
 Root      1 :     1.274061499759130   Change is   -0.000029597362112
 Root      2 :     1.860915020433052   Change is   -0.000041468355409
 Root      3 :     2.959420225045846   Change is   -0.002005681403776
 Root      4 :     3.023415353592472   Change is   -0.008133424511228
 Root      5 :     3.066482606257840   Change is   -0.251893282329290
 Iteration     6 Dimension    58 NMult    55 NNew      3
 CISAX will form     3 AO SS matrices at one time.
 NMat=     3 NSing=     3 JSym2X= 0.
 Root      1 has converged.
 Root      2 has converged.
 Root      3 not converged, maximum delta is    0.073767230393772
 Root      4 not converged, maximum delta is    0.307653066049705
 Root      5 not converged, maximum delta is    0.226979241996698
 Excitation Energies [eV] at current iteration:
 Root      1 :     1.274061455006156   Change is   -0.000000044752974
 Root      2 :     1.860913031177291   Change is   -0.000001989255761
 Root      3 :     2.955836254734676   Change is   -0.003583970311170
 Root      4 :     2.991864443551938   Change is   -0.031550910040534
 Root      5 :     3.038636789974456   Change is   -0.027845816283384
 Iteration     7 Dimension    61 NMult    58 NNew      3
 CISAX will form     3 AO SS matrices at one time.
 NMat=     3 NSing=     3 JSym2X= 0.
 Root      1 has converged.
 Root      2 has converged.
 Root      3 not converged, maximum delta is    0.024809536762541
 Root      4 not converged, maximum delta is    0.058240171155948
 Root      5 not converged, maximum delta is    0.014344459450135
 Excitation Energies [eV] at current iteration:
 Root      1 :     1.274061368681951   Change is   -0.000000086324205
 Root      2 :     1.860911228780186   Change is   -0.000001802397106
 Root      3 :     2.954494786546782   Change is   -0.001341468187894
 Root      4 :     2.986123746018340   Change is   -0.005740697533598
 Root      5 :     3.037308458593688   Change is   -0.001328331380768
 Iteration     8 Dimension    64 NMult    61 NNew      3
 CISAX will form     3 AO SS matrices at one time.
 NMat=     3 NSing=     3 JSym2X= 0.
 Root      1 has converged.
 Root      2 has converged.
 Root      3 not converged, maximum delta is    0.007706081850151
 Root      4 not converged, maximum delta is    0.018053910920105
 Root      5 not converged, maximum delta is    0.137232923909419
 Excitation Energies [eV] at current iteration:
 Root      1 :     1.274061313585738   Change is   -0.000000055096214
 Root      2 :     1.860910356884728   Change is   -0.000000871895458
 Root      3 :     2.954163965863792   Change is   -0.000330820682990
 Root      4 :     2.985018022972071   Change is   -0.001105723046269
 Root      5 :     3.032985777537240   Change is   -0.004322681056448
 Iteration     9 Dimension    67 NMult    64 NNew      3
 CISAX will form     3 AO SS matrices at one time.
 NMat=     3 NSing=     3 JSym2X= 0.
 Root      1 has converged.
 Root      2 has converged.
 Root      3 not converged, maximum delta is    0.010600369828168
 Root      4 not converged, maximum delta is    0.116863385155140
 Root      5 not converged, maximum delta is    0.382726074860472
 Excitation Energies [eV] at current iteration:
 Root      1 :     1.274061309659440   Change is   -0.000000003926298
 Root      2 :     1.860910272626778   Change is   -0.000000084257950
 Root      3 :     2.954047446440633   Change is   -0.000116519423158
 Root      4 :     2.982939846506563   Change is   -0.002078176465508
 Root      5 :     2.996312471184080   Change is   -0.036673306353159
 Iteration    10 Dimension    70 NMult    67 NNew      3
 CISAX will form     3 AO SS matrices at one time.
 NMat=     3 NSing=     3 JSym2X= 0.
 Root      1 has converged.
 Root      2 has converged.
 Root      3 not converged, maximum delta is    0.012294093093834
 Root      4 not converged, maximum delta is    0.168329589252435
 Root      5 not converged, maximum delta is    0.179906695962410
 Excitation Energies [eV] at current iteration:
 Root      1 :     1.274061289797538   Change is   -0.000000019861902
 Root      2 :     1.860910248361273   Change is   -0.000000024265505
 Root      3 :     2.953983293969280   Change is   -0.000064152471353
 Root      4 :     2.974098957801345   Change is   -0.008840888705219
 Root      5 :     2.987787945517474   Change is   -0.008524525666607
 Iteration    11 Dimension    73 NMult    70 NNew      3
 CISAX will form     3 AO SS matrices at one time.
 NMat=     3 NSing=     3 JSym2X= 0.
 Root      1 has converged.
 Root      2 has converged.
 Root      3 not converged, maximum delta is    0.012423666570826
 Root      4 not converged, maximum delta is    0.050881634659386
 Root      5 not converged, maximum delta is    0.046440345776710
 Excitation Energies [eV] at current iteration:
 Root      1 :     1.274061212606628   Change is   -0.000000077190910
 Root      2 :     1.860910233570945   Change is   -0.000000014790328
 Root      3 :     2.953927604531975   Change is   -0.000055689437305
 Root      4 :     2.968114173546502   Change is   -0.005984784254842
 Root      5 :     2.986954379661453   Change is   -0.000833565856021
 Iteration    12 Dimension    76 NMult    73 NNew      3
 CISAX will form     3 AO SS matrices at one time.
 NMat=     3 NSing=     3 JSym2X= 0.
 Root      1 has converged.
 Root      2 has converged.
 Root      3 not converged, maximum delta is    0.003909894512000
 Root      4 not converged, maximum delta is    0.009962189982689
 Root      5 not converged, maximum delta is    0.006488746882758
 Excitation Energies [eV] at current iteration:
 Root      1 :     1.274061202860056   Change is   -0.000000009746572
 Root      2 :     1.860910224024302   Change is   -0.000000009546644
 Root      3 :     2.953910596040511   Change is   -0.000017008491464
 Root      4 :     2.966872459114346   Change is   -0.001241714432156
 Root      5 :     2.986847499529663   Change is   -0.000106880131790
 Iteration    13 Dimension    79 NMult    76 NNew      3
 CISAX will form     3 AO SS matrices at one time.
 NMat=     3 NSing=     3 JSym2X= 0.
 Root      1 has converged.
 Root      2 has converged.
 Root      3 has converged.
 Root      4 not converged, maximum delta is    0.001257472640765
 Root      5 has converged.
 Excitation Energies [eV] at current iteration:
 Root      1 :     1.274061202707220   Change is   -0.000000000152836
 Root      2 :     1.860910175664357   Change is   -0.000000048359945
 Root      3 :     2.953908628476436   Change is   -0.000001967564075
 Root      4 :     2.966738808321864   Change is   -0.000133650792483
 Root      5 :     2.986836683530322   Change is   -0.000010815999341
 Iteration    14 Dimension    80 NMult    79 NNew      1
 CISAX will form     1 AO SS matrices at one time.
 NMat=     1 NSing=     1 JSym2X= 0.
 Root      1 has converged.
 Root      2 has converged.
 Root      3 has converged.
 Root      4 has converged.
 Root      5 has converged.
 Excitation Energies [eV] at current iteration:
 Root      1 :     1.274061192136149   Change is   -0.000000010571070
 Root      2 :     1.860910153494266   Change is   -0.000000022170090
 Root      3 :     2.953908422754572   Change is   -0.000000205721864
 Root      4 :     2.966724030117488   Change is   -0.000014778204375
 Root      5 :     2.986835483742468   Change is   -0.000001199787853
 Convergence achieved on expansion vectors.
 ***********************************************************************
 Excited states from <AA,BB:AA,BB> singles matrix:
 ***********************************************************************
 
 1PDM for each excited state written to RWF  633
 Ground to excited state transition densities written to RWF  633
 Ground to excited state transition electric dipole moments (Au):
       state          X           Y           Z        Dip. S.      Osc.
         1        -0.3386      4.0174     -0.4391     16.4471      0.5134
         2         0.0002      0.0804     -0.0690      0.0112      0.0005
         3        -0.8452      0.3033     -0.1886      0.8419      0.0609
         4         0.8268      0.2732      0.0016      0.7583      0.0551
         5         1.7146      0.2174      0.0231      2.9877      0.2186
 Ground to excited state transition velocity dipole moments (Au):
       state          X           Y           Z        Dip. S.      Osc.
         1        -0.0333      0.0485     -0.0045      0.0035      0.0496
         2        -0.0048     -0.0057     -0.0004      0.0001      0.0005
         3         0.0254     -0.0012      0.0059      0.0007      0.0042
         4        -0.0222     -0.0151     -0.0002      0.0007      0.0044
         5        -0.0425     -0.0141     -0.0044      0.0020      0.0123
 Ground to excited state transition magnetic dipole moments (Au):
       state          X           Y           Z
         1         0.0443     -0.0623      0.2667
         2        -0.0017      0.0499      0.2896
         3         0.1424      0.2816     -0.3566
         4        -0.7108      0.0505     -0.2644
         5         0.3011      0.6891      0.0123
 Ground to excited state transition velocity quadrupole moments (Au):
       state          XX          YY          ZZ          XY          XZ          YZ
         1        -0.5130     -0.1005      0.0154      0.5217      0.0024     -0.0075
         2        -0.1149     -0.0692      0.0019     -0.0552     -0.0005      0.0013
         3        -0.2560      0.6411     -0.0701      0.0153      0.0799     -0.0325
         4        -0.4576     -0.0476      0.0050     -0.1244      0.0091      0.0441
         5        -0.5103     -0.1848      0.0316     -0.1366      0.0063      0.0115
 <0|del|b> * <b|rxdel|0> + <0|del|b> * <b|delr+rdel|0>
 Rotatory Strengths (R) in cgs (10**-40 erg-esu-cm/Gauss)
       state          XX          YY          ZZ    R(velocity)    E-M Angle
         1       -50.4173     -0.6064    -34.9538    -28.6592      110.35
         2        -1.9301     -0.6522     -1.3798     -1.3207      100.07
         3        -7.3607      1.9064     13.0595      2.5351       84.61
         4        -1.7812     47.9922     51.3441     32.5184       42.38
         5       -29.2163    -44.9565    -71.2407    -48.4712      131.79
 1/2[<0|r|b>*<b|rxdel|0> + (<0|rxdel|b>*<b|r|0>)*]
 Rotatory Strengths (R) in cgs (10**-40 erg-esu-cm/Gauss)
       state          XX          YY          ZZ     R(length)
         1        10.6044    176.9069     82.8186     90.1100
         2         0.0002     -2.8357     14.1255      3.7633
         3        85.0958    -60.3933    -47.5725     -7.6233
         4       415.5840     -9.7551      0.2908    135.3733
         5      -365.1207   -105.9513     -0.2011   -157.0911
  1/2[<0|del|b>*<b|r|0> + (<0|r|b>*<b|del|0>)*] (Au)
       state          X           Y           Z        Dip. S.   Osc.(frdel)
         1         0.0113      0.1949      0.0020     -0.2082     -0.1388
         2        -0.0000     -0.0005      0.0000      0.0004      0.0003
         3        -0.0214     -0.0004     -0.0011      0.0229      0.0153
         4        -0.0183     -0.0041     -0.0000      0.0224      0.0150
         5        -0.0730     -0.0031     -0.0001      0.0761      0.0507

 Excitation energies and oscillator strengths:
 
 Excited State   1:      Singlet-A      1.2741 eV  973.14 nm  f=0.5134  <S**2>=0.000
     175 ->178         0.22002
     176 ->177         0.65510
 This state for optimization and/or second-order correction.
 Total Energy, E(CIS/TDA) =  -473.881353186    
 Copying the excited state density for this state as the 1-particle RhoCI density.
 
 Excited State   2:      Singlet-A      1.8609 eV  666.26 nm  f=0.0005  <S**2>=0.000
     175 ->177        -0.47789
     176 ->178         0.50300
 
 Excited State   3:      Singlet-A      2.9539 eV  419.73 nm  f=0.0609  <S**2>=0.000
     170 ->177         0.12260
     170 ->179         0.16988
     170 ->180        -0.15586
     175 ->177         0.10288
     176 ->178         0.11312
     176 ->179         0.56044
 
 Excited State   4:      Singlet-A      2.9667 eV  417.92 nm  f=0.0551  <S**2>=0.000
     168 ->177        -0.23909
     168 ->179         0.35101
     168 ->180         0.33683
     168 ->186         0.21853
     169 ->179         0.12333
     170 ->180        -0.11633
 
 Excited State   5:      Singlet-A      2.9868 eV  415.10 nm  f=0.2186  <S**2>=0.000
     169 ->177         0.11779
     169 ->179         0.11337
     169 ->180        -0.15263
     170 ->177         0.20067
     170 ->179         0.28046
     170 ->180        -0.21448
     170 ->186         0.16312
     170 ->187        -0.11834
     175 ->177        -0.18547
     176 ->178        -0.18862
     176 ->179        -0.25993
 SavETr:  write IOETrn=   770 NScale= 10 NData=  16 NLR=1 NState=    5 LETran=     100.
 Leave Link  914 at Wed May  4 13:24:05 2022, MaxMem=  6710886400 cpu:             130.1 elap:               5.5
 (Enter /sw/apps/gaussian-16.0/g16/l601.exe)
 Copying SCF densities to generalized density rwf, IOpCl= 0 IROHF=0.

 **********************************************************************

            Population analysis using the SCF density.

 **********************************************************************

 Orbital symmetries:
       Occupied  (A) (A) (A) (A) (A) (A) (A) (A) (A) (A) (A) (A)
                 (A) (A) (A) (A) (A) (A) (A) (A) (A) (A) (A) (A)
                 (A) (A) (A) (A) (A) (A) (A) (A) (A) (A) (A) (A)
                 (A) (A) (A) (A) (A) (A) (A) (A) (A) (A) (A) (A)
                 (A) (A) (A) (A) (A) (A) (A) (A) (A) (A) (A) (A)
                 (A) (A) (A) (A) (A) (A) (A) (A) (A) (A) (A) (A)
                 (A) (A) (A) (A) (A) (A) (A) (A) (A) (A) (A) (A)
                 (A) (A) (A) (A) (A) (A) (A) (A) (A) (A) (A) (A)
                 (A) (A) (A) (A) (A) (A) (A) (A) (A) (A) (A) (A)
                 (A) (A) (A) (A) (A) (A) (A) (A) (A) (A) (A) (A)
                 (A) (A) (A) (A) (A) (A) (A) (A) (A) (A) (A) (A)
                 (A) (A) (A) (A) (A) (A) (A) (A) (A) (A) (A) (A)
                 (A) (A) (A) (A) (A) (A) (A) (A) (A) (A) (A) (A)
                 (A) (A) (A) (A) (A) (A) (A) (A) (A) (A) (A) (A)
                 (A) (A) (A) (A) (A) (A) (A) (A)
       Virtual   (A) (A) (A) (A) (A) (A) (A) (A) (A) (A) (A) (A)
                 (A) (A) (A) (A) (A) (A) (A) (A) (A) (A) (A) (A)
                 (A) (A) (A) (A) (A) (A) (A) (A) (A) (A) (A) (A)
                 (A) (A) (A) (A) (A) (A) (A) (A) (A) (A) (A) (A)
                 (A) (A) (A) (A) (A) (A) (A) (A) (A) (A) (A) (A)
                 (A) (A) (A) (A) (A) (A) (A) (A) (A) (A) (A) (A)
                 (A) (A) (A) (A) (A) (A) (A) (A) (A) (A) (A) (A)
                 (A) (A) (A) (A) (A) (A) (A) (A) (A) (A) (A) (A)
                 (A) (A) (A) (A) (A) (A) (A) (A) (A) (A) (A) (A)
                 (A) (A) (A) (A) (A) (A) (A) (A) (A) (A) (A) (A)
                 (A) (A) (A) (A) (A) (A) (A) (A) (A) (A) (A) (A)
                 (A) (A) (A) (A) (A) (A) (A) (A) (A) (A) (A) (A)
                 (A) (A) (A) (A) (A) (A) (A) (A) (A) (A) (A) (A)
                 (A) (A) (A) (A) (A) (A)
 The electronic state is 1-A.
 Alpha  occ. eigenvalues --   -1.84185  -1.80873  -1.78639  -1.73296  -1.72191
 Alpha  occ. eigenvalues --   -1.70163  -1.64346  -1.59259  -1.58339  -1.55333
 Alpha  occ. eigenvalues --   -1.54335  -1.51229  -1.48894  -1.47789  -1.46841
 Alpha  occ. eigenvalues --   -1.44353  -1.41948  -1.38782  -1.38560  -1.36541
 Alpha  occ. eigenvalues --   -1.34801  -1.33992  -1.32771  -1.31175  -1.28269
 Alpha  occ. eigenvalues --   -1.26946  -1.24083  -1.22327  -1.20756  -1.18178
 Alpha  occ. eigenvalues --   -1.17397  -1.16005  -1.15430  -1.13011  -1.12235
 Alpha  occ. eigenvalues --   -1.11487  -1.11295  -1.10133  -1.04332  -1.03487
 Alpha  occ. eigenvalues --   -1.02624  -1.00430  -0.98528  -0.97611  -0.96100
 Alpha  occ. eigenvalues --   -0.95143  -0.94788  -0.94051  -0.92496  -0.92031
 Alpha  occ. eigenvalues --   -0.90591  -0.90095  -0.88752  -0.88529  -0.86495
 Alpha  occ. eigenvalues --   -0.85329  -0.84317  -0.83081  -0.81847  -0.80252
 Alpha  occ. eigenvalues --   -0.79353  -0.78782  -0.77155  -0.76482  -0.76026
 Alpha  occ. eigenvalues --   -0.75047  -0.74841  -0.74218  -0.73803  -0.73549
 Alpha  occ. eigenvalues --   -0.72853  -0.71853  -0.71316  -0.70994  -0.70253
 Alpha  occ. eigenvalues --   -0.69739  -0.69035  -0.69005  -0.68607  -0.68303
 Alpha  occ. eigenvalues --   -0.67242  -0.66494  -0.66311  -0.65738  -0.65714
 Alpha  occ. eigenvalues --   -0.65544  -0.65038  -0.64634  -0.63931  -0.63456
 Alpha  occ. eigenvalues --   -0.63076  -0.62831  -0.62647  -0.62149  -0.61908
 Alpha  occ. eigenvalues --   -0.61343  -0.60783  -0.60511  -0.60138  -0.59917
 Alpha  occ. eigenvalues --   -0.59449  -0.59221  -0.58849  -0.58639  -0.58068
 Alpha  occ. eigenvalues --   -0.57962  -0.57788  -0.57504  -0.57014  -0.56717
 Alpha  occ. eigenvalues --   -0.56345  -0.55627  -0.55186  -0.55052  -0.54652
 Alpha  occ. eigenvalues --   -0.54501  -0.53840  -0.53704  -0.53271  -0.52970
 Alpha  occ. eigenvalues --   -0.52787  -0.52310  -0.52063  -0.51676  -0.51315
 Alpha  occ. eigenvalues --   -0.50815  -0.50506  -0.50428  -0.50202  -0.49902
 Alpha  occ. eigenvalues --   -0.49829  -0.49706  -0.49383  -0.49250  -0.49143
 Alpha  occ. eigenvalues --   -0.48624  -0.48509  -0.48463  -0.48119  -0.47703
 Alpha  occ. eigenvalues --   -0.47611  -0.46981  -0.46946  -0.46703  -0.46362
 Alpha  occ. eigenvalues --   -0.45996  -0.45844  -0.45564  -0.45040  -0.44877
 Alpha  occ. eigenvalues --   -0.44548  -0.44508  -0.44235  -0.43768  -0.43706
 Alpha  occ. eigenvalues --   -0.43527  -0.42847  -0.42636  -0.42259  -0.41752
 Alpha  occ. eigenvalues --   -0.41557  -0.41340  -0.41153  -0.39634  -0.38899
 Alpha  occ. eigenvalues --   -0.37966  -0.37138  -0.35429  -0.34872  -0.34517
 Alpha  occ. eigenvalues --   -0.33346  -0.33316  -0.32208  -0.31566  -0.26175
 Alpha  occ. eigenvalues --   -0.21203
 Alpha virt. eigenvalues --   -0.07527  -0.02696  -0.00399   0.01340   0.01644
 Alpha virt. eigenvalues --    0.02792   0.03090   0.03404   0.04396   0.04422
 Alpha virt. eigenvalues --    0.05970   0.06464   0.07143   0.07973   0.08171
 Alpha virt. eigenvalues --    0.08430   0.08860   0.09089   0.09351   0.09655
 Alpha virt. eigenvalues --    0.09715   0.10182   0.10410   0.10550   0.10775
 Alpha virt. eigenvalues --    0.10978   0.11261   0.11324   0.11702   0.12330
 Alpha virt. eigenvalues --    0.12462   0.12848   0.12934   0.13352   0.13503
 Alpha virt. eigenvalues --    0.13535   0.13867   0.14210   0.14292   0.14739
 Alpha virt. eigenvalues --    0.15346   0.15439   0.15489   0.15584   0.15920
 Alpha virt. eigenvalues --    0.15956   0.16266   0.16924   0.16982   0.17043
 Alpha virt. eigenvalues --    0.17177   0.17679   0.17879   0.17976   0.18370
 Alpha virt. eigenvalues --    0.18570   0.18698   0.19194   0.19393   0.19694
 Alpha virt. eigenvalues --    0.19838   0.20043   0.20095   0.21000   0.21339
 Alpha virt. eigenvalues --    0.21602   0.21710   0.22220   0.23620   0.23721
 Alpha virt. eigenvalues --    0.23850   0.23879   0.24004   0.24078   0.24176
 Alpha virt. eigenvalues --    0.24363   0.24434   0.24489   0.24530   0.24730
 Alpha virt. eigenvalues --    0.24964   0.25055   0.25078   0.25082   0.25195
 Alpha virt. eigenvalues --    0.25245   0.25270   0.25317   0.25340   0.25527
 Alpha virt. eigenvalues --    0.25554   0.25620   0.25833   0.25923   0.25973
 Alpha virt. eigenvalues --    0.25995   0.26048   0.26053   0.26117   0.26217
 Alpha virt. eigenvalues --    0.26269   0.26297   0.26360   0.26438   0.26566
 Alpha virt. eigenvalues --    0.26684   0.26690   0.26951   0.27016   0.27017
 Alpha virt. eigenvalues --    0.27088   0.27130   0.27354   0.27571   0.27957
 Alpha virt. eigenvalues --    0.28302   0.28322   0.28869   0.28939   0.29477
 Alpha virt. eigenvalues --    0.29742   0.30741   0.30939   0.31260   0.31591
 Alpha virt. eigenvalues --    0.32094   0.32398   0.33127   0.33634   0.34817
 Alpha virt. eigenvalues --    0.35176   0.35620   0.35698   0.35817   0.36022
 Alpha virt. eigenvalues --    0.36410   0.36576   0.37165   0.37211   0.38062
 Alpha virt. eigenvalues --    0.38330   0.39159   0.39851   0.40231   0.40630
 Alpha virt. eigenvalues --    0.40836   0.41556   0.41570   0.41973   0.43085
 Alpha virt. eigenvalues --    0.43669   0.44642   0.45051   0.45746   0.46883
 Alpha virt. eigenvalues --    0.47023   0.47673   0.47973   0.50400   0.53327
 Alpha virt. eigenvalues --    0.54227   0.56507
          Condensed to atoms (all electrons):
 Mulliken charges:
               1
     1  Mg   0.421464
     2  C   -0.033241
     3  C   -0.094007
     4  C   -0.059929
     5  C   -0.081091
     6  N   -0.289431
     7  C    0.107448
     8  C   -0.000900
     9  C   -0.001919
    10  C    0.148469
    11  C   -0.046012
    12  C   -0.014315
    13  C    0.000054
    14  C    0.470253
    15  O   -0.513736
    16  O   -0.260964
    17  N   -0.343168
    18  C    0.114729
    19  C    0.002441
    20  C   -0.030281
    21  C    0.140995
    22  C   -0.044187
    23  C    0.315097
    24  O   -0.526316
    25  C   -0.025658
    26  N   -0.238748
    27  C    0.129716
    28  C    0.006674
    29  C   -0.000488
    30  C    0.099170
    31  C   -0.050982
    32  C   -0.022369
    33  C   -0.050028
    34  N   -0.324006
    35  C    0.089145
    36  C    0.036642
    37  C   -0.051299
    38  C    0.116094
    39  C   -0.032411
    40  C    0.325962
    41  O   -0.526383
    42  C    0.048611
    43  C    0.492558
    44  O   -0.507878
    45  O   -0.280231
    46  C    0.069174
    47  C    0.105588
    48  C   -0.085393
    49  C   -0.000465
    50  C   -0.044787
    51  C   -0.037803
    52  C   -0.035216
    53  C   -0.047951
    54  C   -0.002905
    55  C   -0.059671
    56  C   -0.027275
    57  C   -0.038357
    58  C   -0.044058
    59  C   -0.017117
    60  C   -0.056619
    61  C   -0.049014
    62  C   -0.041411
    63  C   -0.025586
    64  C   -0.011821
    65  C   -0.057939
    66  C   -0.070105
    67  H    0.026838
    68  H    0.040122
    69  H    0.026576
    70  H    0.040248
    71  H    0.033964
    72  H    0.031181
    73  H    0.020332
    74  H    0.027168
    75  H    0.041762
    76  H    0.012106
    77  H    0.032854
    78  H    0.051699
    79  H    0.035689
    80  H    0.023872
    81  H    0.038087
    82  H    0.040461
    83  H    0.026166
    84  H    0.046076
    85  H    0.027755
    86  H    0.030749
    87  H    0.024593
    88  H    0.027148
    89  H    0.024647
    90  H    0.019694
    91  H    0.025554
    92  H    0.020298
    93  H    0.020083
    94  H    0.015872
    95  H    0.034758
    96  H    0.026526
    97  H    0.037331
    98  H    0.056600
    99  H    0.043250
   100  H    0.052991
   101  H    0.035388
   102  H    0.033981
   103  H    0.047662
   104  H    0.039011
   105  H    0.008207
   106  H    0.035610
   107  H    0.039180
   108  H    0.015357
   109  H    0.016313
   110  H    0.019110
   111  H    0.036273
   112  H    0.007168
   113  H    0.034268
   114  H    0.021149
   115  H    0.023705
   116  H    0.019418
   117  H    0.015821
   118  H    0.016284
   119  H    0.017707
   120  H    0.010952
   121  H    0.019461
   122  H    0.024929
   123  H    0.017268
   124  H    0.035821
   125  H    0.021420
   126  H    0.013264
   127  H    0.017772
   128  H    0.022051
   129  H    0.014350
   130  H    0.015340
   131  H    0.019217
   132  H    0.017550
   133  H    0.017690
   134  H    0.019588
   135  H    0.025481
   136  H    0.021457
   137  H    0.009722
   138  H    0.015327
   139  H    0.031306
   140  H    0.008557
 Sum of Mulliken charges =  -0.00000
 Mulliken charges with hydrogens summed into heavy atoms:
               1
     1  Mg   0.421464
     2  C   -0.033241
     3  C   -0.067169
     4  C   -0.019807
     5  C   -0.054515
     6  N   -0.289431
     7  C    0.107448
     8  C    0.039348
     9  C    0.032044
    10  C    0.148469
    11  C    0.032669
    12  C    0.039553
    13  C    0.084607
    14  C    0.470253
    15  O   -0.513736
    16  O   -0.260964
    17  N   -0.343168
    18  C    0.114729
    19  C    0.002441
    20  C   -0.030281
    21  C    0.140995
    22  C    0.053461
    23  C    0.315097
    24  O   -0.526316
    25  C    0.087046
    26  N   -0.238748
    27  C    0.129716
    28  C    0.034429
    29  C    0.030261
    30  C    0.099170
    31  C    0.025407
    32  C    0.022879
    33  C    0.006225
    34  N   -0.324006
    35  C    0.089145
    36  C    0.036642
    37  C   -0.051299
    38  C    0.116094
    39  C    0.066204
    40  C    0.325962
    41  O   -0.526383
    42  C    0.105212
    43  C    0.492558
    44  O   -0.507878
    45  O   -0.280231
    46  C    0.200803
    47  C    0.187231
    48  C   -0.046382
    49  C   -0.000465
    50  C    0.038211
    51  C   -0.006133
    52  C    0.020167
    53  C   -0.006516
    54  C    0.018244
    55  C   -0.000727
    56  C    0.006716
    57  C   -0.007944
    58  C   -0.001861
    59  C    0.018705
    60  C   -0.004163
    61  C   -0.012614
    62  C   -0.006854
    63  C    0.009654
    64  C    0.007766
    65  C   -0.001278
    66  C   -0.014916
 Charge=              0.0000 electrons
 Dipole moment (field-independent basis, Debye):
    X=             -4.7888    Y=              4.0614    Z=              1.0371  Tot=              6.3642
 N-N= 4.294834389336D+03 E-N= 0.000000000000D+00  KE=-9.264108543653D+03
 Leave Link  601 at Wed May  4 13:24:05 2022, MaxMem=  6710886400 cpu:               0.8 elap:               0.1
 (Enter /sw/apps/gaussian-16.0/g16/l9999.exe)
 1\1\GINC-BP1-COMPUTE101\SP\RZINDO CIS\STO-3G\C55H74Mg1N4O6\OF15641\04-
 May-2022\0\\#p ZINDO=(nstates=5)\\step_1701_chromophore_4 ZINDO\\0,1\M
 g,0,9.326,3.459,28.258\C,0,11.009,2.142,31.127\C,0,7.597,5.618,30.429\
 C,0,7.7,4.71,25.663\C,0,10.66,0.874,26.405\N,0,9.338,3.849,30.54\C,0,1
 0.118,3.194,31.498\C,0,9.84,3.715,32.902\C,0,8.492,4.591,32.62\C,0,8.3
 84,4.615,31.118\C,0,7.217,4.13,33.393\C,0,11.028,4.546,33.411\C,0,11.6
 29,4.073,34.761\C,0,10.641,4.012,35.975\O,0,9.541,4.52,35.986\O,0,11.1
 51,3.251,36.995\N,0,7.969,5.003,28.066\C,0,7.422,5.828,29.029\C,0,6.77
 4,6.967,28.375\C,0,6.767,6.633,26.995\C,0,7.483,5.412,26.822\C,0,6.053
 ,8.084,29.194\C,0,6.215,7.481,25.741\O,0,6.362,7.201,24.521\C,0,5.516,
 8.816,25.985\N,0,9.094,2.797,26.275\C,0,8.505,3.555,25.362\C,0,8.526,2
 .809,23.967\C,0,9.56,1.707,24.199\C,0,9.712,1.728,25.684\C,0,7.106,2.3
 57,23.455\C,0,10.899,1.836,23.267\C,0,10.802,1.208,21.949\N,0,10.555,1
 .9,28.633\C,0,11.017,0.919,27.795\C,0,11.837,-0.036,28.519\C,0,11.927,
 0.528,29.786\C,0,11.093,1.647,29.875\C,0,12.519,-1.219,27.974\C,0,12.5
 87,0.335,31.1\O,0,13.383,-0.525,31.483\C,0,11.89,1.315,32.078\C,0,11.1
 32,0.417,33.036\O,0,10.399,-0.502,32.747\O,0,11.478,0.773,34.317\C,0,1
 0.656,0.09,35.368\C,0,10.254,3.04,38.139\C,0,10.379,4.228,39.073\C,0,1
 1.031,4.203,40.234\C,0,12.219,3.344,40.751\C,0,10.961,5.437,41.113\C,0
 ,9.667,5.512,42.027\C,0,8.746,6.757,41.599\C,0,8.574,7.91,42.612\C,0,7
 .441,7.624,43.67\C,0,8.364,9.246,41.936\C,0,9.589,10.208,42.266\C,0,9.
 303,11.023,43.533\C,0,10.409,10.925,44.732\C,0,11.286,12.196,44.679\C,
 0,9.701,10.979,46.156\C,0,9.31,9.554,46.66\C,0,8.208,9.494,47.651\C,0,
 7.779,8.013,47.968\C,0,6.536,7.477,47.221\C,0,7.576,7.747,49.507\H,0,7
 .031,6.362,30.993\H,0,7.159,4.991,24.757\H,0,11.029,-0.021,25.901\H,0,
 9.561,2.863,33.522\H,0,8.867,5.557,32.957\H,0,7.559,3.528,34.235\H,0,6
 .601,3.442,32.815\H,0,6.595,4.991,33.638\H,0,10.88,5.619,33.29\H,0,11.
 815,4.313,32.694\H,0,12.368,4.846,34.971\H,0,12.293,3.211,34.721\H,0,5
 .027,8.037,28.83\H,0,6.489,9.031,28.875\H,0,6.19,8.072,30.276\H,0,6.31
 ,9.449,26.382\H,0,4.778,8.672,26.774\H,0,5.012,9.251,25.122\H,0,8.985,
 3.494,23.255\H,0,9.155,0.7,24.1\H,0,6.826,2.836,22.517\H,0,6.419,2.701
 ,24.228\H,0,7.024,1.28,23.307\H,0,11.666,1.374,23.889\H,0,11.157,2.879
 ,23.082\H,0,11.268,0.224,21.89\H,0,11.199,1.832,21.149\H,0,9.731,1.087
 ,21.788\H,0,13.297,-0.8,27.335\H,0,11.836,-1.824,27.378\H,0,12.916,-1.
 852,28.768\H,0,12.68,1.756,32.686\H,0,11.314,-0.713,35.699\H,0,9.719,-
 0.337,35.013\H,0,10.416,0.799,36.161\H,0,10.514,2.102,38.629\H,0,9.183
 ,2.966,37.954\H,0,9.597,4.986,39.039\H,0,12.13,2.407,40.201\H,0,12.207
 ,3.006,41.788\H,0,13.118,3.884,40.456\H,0,10.964,6.316,40.468\H,0,11.9
 17,5.571,41.62\H,0,10.12,5.782,42.981\H,0,9.137,4.56,42.057\H,0,7.831,
 6.164,41.604\H,0,8.85,7.17,40.596\H,0,9.55,7.904,43.097\H,0,6.578,7.24
 ,43.126\H,0,7.158,8.491,44.266\H,0,7.764,6.93,44.445\H,0,7.461,9.763,4
 2.262\H,0,8.176,9.212,40.863\H,0,9.845,10.867,41.436\H,0,10.57,9.74,42
 .351\H,0,8.359,10.846,44.049\H,0,9.284,12.037,43.133\H,0,10.913,9.965,
 44.619\H,0,10.946,12.967,43.988\H,0,12.306,11.925,44.405\H,0,11.304,12
 .682,45.655\H,0,8.804,11.593,46.236\H,0,10.315,11.341,46.981\H,0,10.19
 9,9.147,47.143\H,0,9.072,9.035,45.732\H,0,7.39,10.087,47.242\H,0,8.529
 ,9.987,48.568\H,0,8.601,7.372,47.649\H,0,5.635,7.564,47.827\H,0,6.702,
 6.476,46.824\H,0,6.398,8.083,46.325\H,0,6.702,7.113,49.655\H,0,7.556,8
 .494,50.301\H,0,8.463,7.14,49.691\\Version=ES64L-G16RevA.03\State=1-A\
 HF=-473.9281741\RMSD=4.865e-09\PG=C01 [X(C55H74Mg1N4O6)]\\@


 CONTRAIWISE...CONTINUED TWEEDLEDEE, IF IT WAS SO, IT MIGHT BE,
 AND IF IT WERE SO, IT WOULD BE.....
 BUT AS IT ISN'T, IT AIN'T....
 THAT'S LOGIC.....
 ALICE THROUGH THE LOOKING GLASS
 Job cpu time:       0 days  0 hours  2 minutes 56.6 seconds.
 Elapsed time:       0 days  0 hours  0 minutes  7.7 seconds.
 File lengths (MBytes):  RWF=   1275 Int=      0 D2E=      0 Chk=     38 Scr=      1
 Normal termination of Gaussian 16 at Wed May  4 13:24:05 2022.
