 Entering Gaussian System, Link 0=g16
 Initial command:
 /sw/apps/gaussian-16.0/g16/l1.exe "/tmp/Gau-207962.inp" -scrdir="/tmp/"
 Entering Link 1 = /sw/apps/gaussian-16.0/g16/l1.exe PID=    207963.
  
 Copyright (c) 1988,1990,1992,1993,1995,1998,2003,2009,2016,
            Gaussian, Inc.  All Rights Reserved.
  
 This is part of the Gaussian(R) 16 program.  It is based on
 the Gaussian(R) 09 system (copyright 2009, Gaussian, Inc.),
 the Gaussian(R) 03 system (copyright 2003, Gaussian, Inc.),
 the Gaussian(R) 98 system (copyright 1998, Gaussian, Inc.),
 the Gaussian(R) 94 system (copyright 1995, Gaussian, Inc.),
 the Gaussian 92(TM) system (copyright 1992, Gaussian, Inc.),
 the Gaussian 90(TM) system (copyright 1990, Gaussian, Inc.),
 the Gaussian 88(TM) system (copyright 1988, Gaussian, Inc.),
 the Gaussian 86(TM) system (copyright 1986, Carnegie Mellon
 University), and the Gaussian 82(TM) system (copyright 1983,
 Carnegie Mellon University). Gaussian is a federally registered
 trademark of Gaussian, Inc.
  
 This software contains proprietary and confidential information,
 including trade secrets, belonging to Gaussian, Inc.
  
 This software is provided under written license and may be
 used, copied, transmitted, or stored only in accord with that
 written license.
  
 The following legend is applicable only to US Government
 contracts under FAR:
  
                    RESTRICTED RIGHTS LEGEND
  
 Use, reproduction and disclosure by the US Government is
 subject to restrictions as set forth in subparagraphs (a)
 and (c) of the Commercial Computer Software - Restricted
 Rights clause in FAR 52.227-19.
  
 Gaussian, Inc.
 340 Quinnipiac St., Bldg. 40, Wallingford CT 06492
  
  
 ---------------------------------------------------------------
 Warning -- This program may not be used in any manner that
 competes with the business of Gaussian, Inc. or will provide
 assistance to any competitor of Gaussian, Inc.  The licensee
 of this program is prohibited from giving any competitor of
 Gaussian, Inc. access to this program.  By using this program,
 the user acknowledges that Gaussian, Inc. is engaged in the
 business of creating and licensing software in the field of
 computational chemistry and represents and warrants to the
 licensee that it is not a competitor of Gaussian, Inc. and that
 it will not use this program in any manner prohibited above.
 ---------------------------------------------------------------
  

 Cite this work as:
 Gaussian 16, Revision A.03,
 M. J. Frisch, G. W. Trucks, H. B. Schlegel, G. E. Scuseria, 
 M. A. Robb, J. R. Cheeseman, G. Scalmani, V. Barone, 
 G. A. Petersson, H. Nakatsuji, X. Li, M. Caricato, A. V. Marenich, 
 J. Bloino, B. G. Janesko, R. Gomperts, B. Mennucci, H. P. Hratchian, 
 J. V. Ortiz, A. F. Izmaylov, J. L. Sonnenberg, D. Williams-Young, 
 F. Ding, F. Lipparini, F. Egidi, J. Goings, B. Peng, A. Petrone, 
 T. Henderson, D. Ranasinghe, V. G. Zakrzewski, J. Gao, N. Rega, 
 G. Zheng, W. Liang, M. Hada, M. Ehara, K. Toyota, R. Fukuda, 
 J. Hasegawa, M. Ishida, T. Nakajima, Y. Honda, O. Kitao, H. Nakai, 
 T. Vreven, K. Throssell, J. A. Montgomery, Jr., J. E. Peralta, 
 F. Ogliaro, M. J. Bearpark, J. J. Heyd, E. N. Brothers, K. N. Kudin, 
 V. N. Staroverov, T. A. Keith, R. Kobayashi, J. Normand, 
 K. Raghavachari, A. P. Rendell, J. C. Burant, S. S. Iyengar, 
 J. Tomasi, M. Cossi, J. M. Millam, M. Klene, C. Adamo, R. Cammi, 
 J. W. Ochterski, R. L. Martin, K. Morokuma, O. Farkas, 
 J. B. Foresman, and D. J. Fox, Gaussian, Inc., Wallingford CT, 2016.
 
 ******************************************
 Gaussian 16:  ES64L-G16RevA.03 25-Dec-2016
                30-Apr-2022 
 ******************************************
 %nproc=24
 Will use up to   24 processors via shared memory.
 %mem=75GB
 ------------------------------
 #p blyp/Def2SVP td=(nstates=5)
 ------------------------------
 1/38=1,172=1/1;
 2/12=2,17=6,18=5,40=1/2;
 3/5=43,7=101,11=9,25=1,30=1,74=402/1,2,3,8;
 4//1;
 5/5=2,38=5/2;
 8/6=1,10=1,108=5/1;
 9/41=5,42=1,70=2/14;
 6/7=2,8=2,9=2,10=2/1;
 99/5=1,9=1/99;
 Leave Link    1 at Sat Apr 30 17:32:02 2022, MaxMem= 10066329600 cpu:               0.6 elap:               0.0
 (Enter /sw/apps/gaussian-16.0/g16/l101.exe)
 -------------------------------------------------
 step_801_chromophore_8 TDDFT with blyp functional
 -------------------------------------------------
 Symbolic Z-matrix:
 Charge =  0 Multiplicity = 1
 Mg                    46.131    2.988     47.469 
 C                     43.615    5.36      46.742 
 C                     43.718    0.559     47.278 
 C                     48.596    0.751     47.185 
 C                     48.507    5.549     46.982 
 N                     43.976    2.973     46.885 
 C                     43.083    4.078     46.79 
 C                     41.59     3.632     46.726 
 C                     41.739    2.132     47.182 
 C                     43.27     1.817     47.038 
 C                     40.921    1.791     48.464 
 C                     41.186    3.745     45.198 
 C                     39.889    4.403     44.794 
 C                     39.978    5.596     43.872 
 O                     40.182    6.779     44.215 
 O                     39.993    5.122     42.542 
 N                     46.145    0.898     47.319 
 C                     45.092    0.112     47.266 
 C                     45.56    -1.313     47.184 
 C                     46.979   -1.311     47.018 
 C                     47.351    0.13      47.167 
 C                     44.647   -2.479     47.361 
 C                     47.882   -2.535     46.772 
 O                     47.458   -3.685     46.73 
 C                     49.39    -2.248     46.618 
 N                     48.349    3.122     47.38 
 C                     49.055    2.039     47.181 
 C                     50.562    2.432     47.168 
 C                     50.48     3.92      46.721 
 C                     49.02     4.247     47.04 
 C                     51.444    2.225     48.411 
 C                     50.913    4.258     45.246 
 C                     52.381    3.923     44.799 
 N                     46.076    5.027     47.034 
 C                     47.09     5.94      46.883 
 C                     46.53     7.268     46.602 
 C                     45.147    7.056     46.614 
 C                     44.936    5.671     46.82 
 C                     47.287    8.5       46.372 
 C                     43.882    7.732     46.534 
 O                     43.598    8.887     46.411 
 C                     42.803    6.669     46.685 
 C                     41.948    7.098     47.841 
 O                     42.302    7.315     49.004 
 O                     40.699    7.427     47.301 
 C                     39.747    7.916     48.278 
 C                     40.357    6.186     41.648 
 C                     40.286    5.813     40.204 
 C                     40.91     6.401     39.13 
 C                     41.681    7.744     39.239 
 C                     40.827    5.692     37.723 
 C                     41.968    4.668     37.587 
 C                     43.154    4.977     36.581 
 C                     43.149    4.001     35.346 
 C                     43.637    2.475     35.843 
 C                     43.936    4.61      34.272 
 C                     44.037    3.648     33.031 
 C                     42.825    3.721     32.042 
 C                     43.349    4.379     30.699 
 C                     43.703    5.809     30.823 
 C                     42.172    4.274     29.603 
 C                     42.512    3.536     28.258 
 C                     42.819    4.486     27.126 
 C                     44.193    4.179     26.422 
 C                     44.063    3.642     24.967 
 C                     45.17     5.354     26.502 
 H                     42.875   -0.134     47.316 
 H                     49.518    0.168     47.225 
 H                     49.233    6.271     46.603 
 H                     40.819    4.162     47.286 
 H                     41.257    1.401     46.533 
 H                     40.437    2.683     48.862 
 H                     41.661    1.44      49.183 
 H                     40.143    1.045     48.303 
 H                     41.03     2.741     44.803 
 H                     42.078    4.114     44.691 
 H                     39.42     4.889     45.65 
 H                     39.148    3.703     44.409 
 H                     43.646   -2.16      47.651 
 H                     45.001   -3.266     48.026 
 H                     44.495   -2.896     46.365 
 H                     49.816   -1.929     47.569 
 H                     49.512   -1.464     45.871 
 H                     49.883   -3.171     46.313 
 H                     51.068    2.005     46.302 
 H                     51.054    4.428     47.496 
 H                     50.867    2.018     49.313 
 H                     52.179    3.013     48.573 
 H                     51.933    1.283     48.164 
 H                     50.637    5.305     45.119 
 H                     50.303    3.747     44.501 
 H                     52.891    4.854     44.553 
 H                     52.311    3.205     43.982 
 H                     52.93     3.415     45.592 
 H                     48.07     8.601     47.124 
 H                     46.652    9.385     46.336 
 H                     47.742    8.448     45.382 
 H                     42.203    6.717     45.776 
 H                     39.617    7.299     49.167 
 H                     38.811    8.166     47.778 
 H                     40.151    8.89      48.555 
 H                     41.381    6.494     41.859 
 H                     39.592    6.961     41.687 
 H                     39.842    4.836     40.01 
 H                     41.925    7.968     40.277 
 H                     41.008    8.46      38.768 
 H                     42.542    7.586     38.589 
 H                     40.883    6.497     36.99 
 H                     39.859    5.204     37.606 
 H                     41.52     3.741     37.231 
 H                     42.393    4.485     38.575 
 H                     44.114    4.878     37.086 
 H                     43.112    6.009     36.232 
 H                     42.165    3.777     34.935 
 H                     44.61     2.185     35.448 
 H                     42.866    1.777     35.518 
 H                     43.644    2.328     36.924 
 H                     44.945    4.862     34.598 
 H                     43.431    5.522     33.954 
 H                     44.028    2.598     33.32 
 H                     45.013    3.865     32.598 
 H                     41.981    4.383     32.234 
 H                     42.349    2.752     31.896 
 H                     44.266    3.849     30.443 
 H                     43.243    6.214     31.725 
 H                     43.385    6.382     29.952 
 H                     44.792    5.852     30.803 
 H                     41.771    5.266     29.395 
 H                     41.275    3.806     30.008 
 H                     41.633    2.981     27.93 
 H                     43.309    2.829     28.487 
 H                     42.657    5.513     27.453 
 H                     42.039    4.181     26.429 
 H                     44.696    3.41      27.008 
 H                     44.356    4.376     24.217 
 H                     43.007    3.493     24.741 
 H                     44.607    2.736     24.702 
 H                     45.588    5.383     27.508 
 H                     44.617    6.221     26.14 
 H                     45.949    5.198     25.756 
 
 ITRead=  0  0  0  0  0  0  0  0  0  0  0  0  0  0  0  0  0  0  0  0
 ITRead=  0  0  0  0  0  0  0  0  0  0  0  0  0  0  0  0  0  0  0  0
 ITRead=  0  0  0  0  0  0  0  0  0  0  0  0  0  0  0  0  0  0  0  0
 ITRead=  0  0  0  0  0  0  0  0  0  0  0  0  0  0  0  0  0  0  0  0
 ITRead=  0  0  0  0  0  0  0  0  0  0  0  0  0  0  0  0  0  0  0  0
 ITRead=  0  0  0  0  0  0  0  0  0  0  0  0  0  0  0  0  0  0  0  0
 ITRead=  0  0  0  0  0  0  0  0  0  0  0  0  0  0  0  0  0  0  0  0
 MicOpt= -1 -1 -1 -1 -1 -1 -1 -1 -1 -1 -1 -1 -1 -1 -1 -1 -1 -1 -1 -1
 MicOpt= -1 -1 -1 -1 -1 -1 -1 -1 -1 -1 -1 -1 -1 -1 -1 -1 -1 -1 -1 -1
 MicOpt= -1 -1 -1 -1 -1 -1 -1 -1 -1 -1 -1 -1 -1 -1 -1 -1 -1 -1 -1 -1
 MicOpt= -1 -1 -1 -1 -1 -1 -1 -1 -1 -1 -1 -1 -1 -1 -1 -1 -1 -1 -1 -1
 MicOpt= -1 -1 -1 -1 -1 -1 -1 -1 -1 -1 -1 -1 -1 -1 -1 -1 -1 -1 -1 -1
 MicOpt= -1 -1 -1 -1 -1 -1 -1 -1 -1 -1 -1 -1 -1 -1 -1 -1 -1 -1 -1 -1
 MicOpt= -1 -1 -1 -1 -1 -1 -1 -1 -1 -1 -1 -1 -1 -1 -1 -1 -1 -1 -1 -1
 NAtoms=    140 NQM=      140 NQMF=       0 NMMI=      0 NMMIF=      0
                NMic=       0 NMicF=      0.
                    Isotopes and Nuclear Properties:
 (Nuclear quadrupole moments (NQMom) in fm**2, nuclear magnetic moments (NMagM)
  in nuclear magnetons)

  Atom         1           2           3           4           5           6           7           8           9          10
 IAtWgt=          24          12          12          12          12          14          12          12          12          12
 AtmWgt=  23.9850450  12.0000000  12.0000000  12.0000000  12.0000000  14.0030740  12.0000000  12.0000000  12.0000000  12.0000000
 NucSpn=           0           0           0           0           0           2           0           0           0           0
 AtZEff=  -0.0000000  -0.0000000  -0.0000000  -0.0000000  -0.0000000  -0.0000000  -0.0000000  -0.0000000  -0.0000000  -0.0000000
 NQMom=    0.0000000   0.0000000   0.0000000   0.0000000   0.0000000   2.0440000   0.0000000   0.0000000   0.0000000   0.0000000
 NMagM=    0.0000000   0.0000000   0.0000000   0.0000000   0.0000000   0.4037610   0.0000000   0.0000000   0.0000000   0.0000000
 AtZNuc=  12.0000000   6.0000000   6.0000000   6.0000000   6.0000000   7.0000000   6.0000000   6.0000000   6.0000000   6.0000000

  Atom        11          12          13          14          15          16          17          18          19          20
 IAtWgt=          12          12          12          12          16          16          14          12          12          12
 AtmWgt=  12.0000000  12.0000000  12.0000000  12.0000000  15.9949146  15.9949146  14.0030740  12.0000000  12.0000000  12.0000000
 NucSpn=           0           0           0           0           0           0           2           0           0           0
 AtZEff=  -0.0000000  -0.0000000  -0.0000000  -0.0000000  -0.0000000  -0.0000000  -0.0000000  -0.0000000  -0.0000000  -0.0000000
 NQMom=    0.0000000   0.0000000   0.0000000   0.0000000   0.0000000   0.0000000   2.0440000   0.0000000   0.0000000   0.0000000
 NMagM=    0.0000000   0.0000000   0.0000000   0.0000000   0.0000000   0.0000000   0.4037610   0.0000000   0.0000000   0.0000000
 AtZNuc=   6.0000000   6.0000000   6.0000000   6.0000000   8.0000000   8.0000000   7.0000000   6.0000000   6.0000000   6.0000000

  Atom        21          22          23          24          25          26          27          28          29          30
 IAtWgt=          12          12          12          16          12          14          12          12          12          12
 AtmWgt=  12.0000000  12.0000000  12.0000000  15.9949146  12.0000000  14.0030740  12.0000000  12.0000000  12.0000000  12.0000000
 NucSpn=           0           0           0           0           0           2           0           0           0           0
 AtZEff=  -0.0000000  -0.0000000  -0.0000000  -0.0000000  -0.0000000  -0.0000000  -0.0000000  -0.0000000  -0.0000000  -0.0000000
 NQMom=    0.0000000   0.0000000   0.0000000   0.0000000   0.0000000   2.0440000   0.0000000   0.0000000   0.0000000   0.0000000
 NMagM=    0.0000000   0.0000000   0.0000000   0.0000000   0.0000000   0.4037610   0.0000000   0.0000000   0.0000000   0.0000000
 AtZNuc=   6.0000000   6.0000000   6.0000000   8.0000000   6.0000000   7.0000000   6.0000000   6.0000000   6.0000000   6.0000000

  Atom        31          32          33          34          35          36          37          38          39          40
 IAtWgt=          12          12          12          14          12          12          12          12          12          12
 AtmWgt=  12.0000000  12.0000000  12.0000000  14.0030740  12.0000000  12.0000000  12.0000000  12.0000000  12.0000000  12.0000000
 NucSpn=           0           0           0           2           0           0           0           0           0           0
 AtZEff=  -0.0000000  -0.0000000  -0.0000000  -0.0000000  -0.0000000  -0.0000000  -0.0000000  -0.0000000  -0.0000000  -0.0000000
 NQMom=    0.0000000   0.0000000   0.0000000   2.0440000   0.0000000   0.0000000   0.0000000   0.0000000   0.0000000   0.0000000
 NMagM=    0.0000000   0.0000000   0.0000000   0.4037610   0.0000000   0.0000000   0.0000000   0.0000000   0.0000000   0.0000000
 AtZNuc=   6.0000000   6.0000000   6.0000000   7.0000000   6.0000000   6.0000000   6.0000000   6.0000000   6.0000000   6.0000000

  Atom        41          42          43          44          45          46          47          48          49          50
 IAtWgt=          16          12          12          16          16          12          12          12          12          12
 AtmWgt=  15.9949146  12.0000000  12.0000000  15.9949146  15.9949146  12.0000000  12.0000000  12.0000000  12.0000000  12.0000000
 NucSpn=           0           0           0           0           0           0           0           0           0           0
 AtZEff=  -0.0000000  -0.0000000  -0.0000000  -0.0000000  -0.0000000  -0.0000000  -0.0000000  -0.0000000  -0.0000000  -0.0000000
 NQMom=    0.0000000   0.0000000   0.0000000   0.0000000   0.0000000   0.0000000   0.0000000   0.0000000   0.0000000   0.0000000
 NMagM=    0.0000000   0.0000000   0.0000000   0.0000000   0.0000000   0.0000000   0.0000000   0.0000000   0.0000000   0.0000000
 AtZNuc=   8.0000000   6.0000000   6.0000000   8.0000000   8.0000000   6.0000000   6.0000000   6.0000000   6.0000000   6.0000000

  Atom        51          52          53          54          55          56          57          58          59          60
 IAtWgt=          12          12          12          12          12          12          12          12          12          12
 AtmWgt=  12.0000000  12.0000000  12.0000000  12.0000000  12.0000000  12.0000000  12.0000000  12.0000000  12.0000000  12.0000000
 NucSpn=           0           0           0           0           0           0           0           0           0           0
 AtZEff=  -0.0000000  -0.0000000  -0.0000000  -0.0000000  -0.0000000  -0.0000000  -0.0000000  -0.0000000  -0.0000000  -0.0000000
 NQMom=    0.0000000   0.0000000   0.0000000   0.0000000   0.0000000   0.0000000   0.0000000   0.0000000   0.0000000   0.0000000
 NMagM=    0.0000000   0.0000000   0.0000000   0.0000000   0.0000000   0.0000000   0.0000000   0.0000000   0.0000000   0.0000000
 AtZNuc=   6.0000000   6.0000000   6.0000000   6.0000000   6.0000000   6.0000000   6.0000000   6.0000000   6.0000000   6.0000000

  Atom        61          62          63          64          65          66          67          68          69          70
 IAtWgt=          12          12          12          12          12          12           1           1           1           1
 AtmWgt=  12.0000000  12.0000000  12.0000000  12.0000000  12.0000000  12.0000000   1.0078250   1.0078250   1.0078250   1.0078250
 NucSpn=           0           0           0           0           0           0           1           1           1           1
 AtZEff=  -0.0000000  -0.0000000  -0.0000000  -0.0000000  -0.0000000  -0.0000000  -0.0000000  -0.0000000  -0.0000000  -0.0000000
 NQMom=    0.0000000   0.0000000   0.0000000   0.0000000   0.0000000   0.0000000   0.0000000   0.0000000   0.0000000   0.0000000
 NMagM=    0.0000000   0.0000000   0.0000000   0.0000000   0.0000000   0.0000000   2.7928460   2.7928460   2.7928460   2.7928460
 AtZNuc=   6.0000000   6.0000000   6.0000000   6.0000000   6.0000000   6.0000000   1.0000000   1.0000000   1.0000000   1.0000000

  Atom        71          72          73          74          75          76          77          78          79          80
 IAtWgt=           1           1           1           1           1           1           1           1           1           1
 AtmWgt=   1.0078250   1.0078250   1.0078250   1.0078250   1.0078250   1.0078250   1.0078250   1.0078250   1.0078250   1.0078250
 NucSpn=           1           1           1           1           1           1           1           1           1           1
 AtZEff=  -0.0000000  -0.0000000  -0.0000000  -0.0000000  -0.0000000  -0.0000000  -0.0000000  -0.0000000  -0.0000000  -0.0000000
 NQMom=    0.0000000   0.0000000   0.0000000   0.0000000   0.0000000   0.0000000   0.0000000   0.0000000   0.0000000   0.0000000
 NMagM=    2.7928460   2.7928460   2.7928460   2.7928460   2.7928460   2.7928460   2.7928460   2.7928460   2.7928460   2.7928460
 AtZNuc=   1.0000000   1.0000000   1.0000000   1.0000000   1.0000000   1.0000000   1.0000000   1.0000000   1.0000000   1.0000000

  Atom        81          82          83          84          85          86          87          88          89          90
 IAtWgt=           1           1           1           1           1           1           1           1           1           1
 AtmWgt=   1.0078250   1.0078250   1.0078250   1.0078250   1.0078250   1.0078250   1.0078250   1.0078250   1.0078250   1.0078250
 NucSpn=           1           1           1           1           1           1           1           1           1           1
 AtZEff=  -0.0000000  -0.0000000  -0.0000000  -0.0000000  -0.0000000  -0.0000000  -0.0000000  -0.0000000  -0.0000000  -0.0000000
 NQMom=    0.0000000   0.0000000   0.0000000   0.0000000   0.0000000   0.0000000   0.0000000   0.0000000   0.0000000   0.0000000
 NMagM=    2.7928460   2.7928460   2.7928460   2.7928460   2.7928460   2.7928460   2.7928460   2.7928460   2.7928460   2.7928460
 AtZNuc=   1.0000000   1.0000000   1.0000000   1.0000000   1.0000000   1.0000000   1.0000000   1.0000000   1.0000000   1.0000000

  Atom        91          92          93          94          95          96          97          98          99         100
 IAtWgt=           1           1           1           1           1           1           1           1           1           1
 AtmWgt=   1.0078250   1.0078250   1.0078250   1.0078250   1.0078250   1.0078250   1.0078250   1.0078250   1.0078250   1.0078250
 NucSpn=           1           1           1           1           1           1           1           1           1           1
 AtZEff=  -0.0000000  -0.0000000  -0.0000000  -0.0000000  -0.0000000  -0.0000000  -0.0000000  -0.0000000  -0.0000000  -0.0000000
 NQMom=    0.0000000   0.0000000   0.0000000   0.0000000   0.0000000   0.0000000   0.0000000   0.0000000   0.0000000   0.0000000
 NMagM=    2.7928460   2.7928460   2.7928460   2.7928460   2.7928460   2.7928460   2.7928460   2.7928460   2.7928460   2.7928460
 AtZNuc=   1.0000000   1.0000000   1.0000000   1.0000000   1.0000000   1.0000000   1.0000000   1.0000000   1.0000000   1.0000000

  Atom       101         102         103         104         105         106         107         108         109         110
 IAtWgt=           1           1           1           1           1           1           1           1           1           1
 AtmWgt=   1.0078250   1.0078250   1.0078250   1.0078250   1.0078250   1.0078250   1.0078250   1.0078250   1.0078250   1.0078250
 NucSpn=           1           1           1           1           1           1           1           1           1           1
 AtZEff=  -0.0000000  -0.0000000  -0.0000000  -0.0000000  -0.0000000  -0.0000000  -0.0000000  -0.0000000  -0.0000000  -0.0000000
 NQMom=    0.0000000   0.0000000   0.0000000   0.0000000   0.0000000   0.0000000   0.0000000   0.0000000   0.0000000   0.0000000
 NMagM=    2.7928460   2.7928460   2.7928460   2.7928460   2.7928460   2.7928460   2.7928460   2.7928460   2.7928460   2.7928460
 AtZNuc=   1.0000000   1.0000000   1.0000000   1.0000000   1.0000000   1.0000000   1.0000000   1.0000000   1.0000000   1.0000000

  Atom       111         112         113         114         115         116         117         118         119         120
 IAtWgt=           1           1           1           1           1           1           1           1           1           1
 AtmWgt=   1.0078250   1.0078250   1.0078250   1.0078250   1.0078250   1.0078250   1.0078250   1.0078250   1.0078250   1.0078250
 NucSpn=           1           1           1           1           1           1           1           1           1           1
 AtZEff=  -0.0000000  -0.0000000  -0.0000000  -0.0000000  -0.0000000  -0.0000000  -0.0000000  -0.0000000  -0.0000000  -0.0000000
 NQMom=    0.0000000   0.0000000   0.0000000   0.0000000   0.0000000   0.0000000   0.0000000   0.0000000   0.0000000   0.0000000
 NMagM=    2.7928460   2.7928460   2.7928460   2.7928460   2.7928460   2.7928460   2.7928460   2.7928460   2.7928460   2.7928460
 AtZNuc=   1.0000000   1.0000000   1.0000000   1.0000000   1.0000000   1.0000000   1.0000000   1.0000000   1.0000000   1.0000000

  Atom       121         122         123         124         125         126         127         128         129         130
 IAtWgt=           1           1           1           1           1           1           1           1           1           1
 AtmWgt=   1.0078250   1.0078250   1.0078250   1.0078250   1.0078250   1.0078250   1.0078250   1.0078250   1.0078250   1.0078250
 NucSpn=           1           1           1           1           1           1           1           1           1           1
 AtZEff=  -0.0000000  -0.0000000  -0.0000000  -0.0000000  -0.0000000  -0.0000000  -0.0000000  -0.0000000  -0.0000000  -0.0000000
 NQMom=    0.0000000   0.0000000   0.0000000   0.0000000   0.0000000   0.0000000   0.0000000   0.0000000   0.0000000   0.0000000
 NMagM=    2.7928460   2.7928460   2.7928460   2.7928460   2.7928460   2.7928460   2.7928460   2.7928460   2.7928460   2.7928460
 AtZNuc=   1.0000000   1.0000000   1.0000000   1.0000000   1.0000000   1.0000000   1.0000000   1.0000000   1.0000000   1.0000000

  Atom       131         132         133         134         135         136         137         138         139         140
 IAtWgt=           1           1           1           1           1           1           1           1           1           1
 AtmWgt=   1.0078250   1.0078250   1.0078250   1.0078250   1.0078250   1.0078250   1.0078250   1.0078250   1.0078250   1.0078250
 NucSpn=           1           1           1           1           1           1           1           1           1           1
 AtZEff=  -0.0000000  -0.0000000  -0.0000000  -0.0000000  -0.0000000  -0.0000000  -0.0000000  -0.0000000  -0.0000000  -0.0000000
 NQMom=    0.0000000   0.0000000   0.0000000   0.0000000   0.0000000   0.0000000   0.0000000   0.0000000   0.0000000   0.0000000
 NMagM=    2.7928460   2.7928460   2.7928460   2.7928460   2.7928460   2.7928460   2.7928460   2.7928460   2.7928460   2.7928460
 AtZNuc=   1.0000000   1.0000000   1.0000000   1.0000000   1.0000000   1.0000000   1.0000000   1.0000000   1.0000000   1.0000000
 Leave Link  101 at Sat Apr 30 17:32:02 2022, MaxMem= 10066329600 cpu:               2.8 elap:               0.1
 (Enter /sw/apps/gaussian-16.0/g16/l202.exe)
 Stoichiometry    C55H74MgN4O6
 Framework group  C1[X(C55H74MgN4O6)]
 Deg. of freedom   414
 Full point group                 C1      NOp   1
 Largest Abelian subgroup         C1      NOp   1
 Largest concise Abelian subgroup C1      NOp   1
                         Standard orientation:                         
 ---------------------------------------------------------------------
 Center     Atomic      Atomic             Coordinates (Angstroms)
 Number     Number       Type             X           Y           Z
 ---------------------------------------------------------------------
      1         12           0        5.380180    0.978078    0.079860
      2          6           0        4.063323   -2.268507    0.538926
      3          6           0        5.011639    0.511911   -3.297411
      4          6           0        5.683137    4.286301   -0.273593
      5          6           0        5.064835    1.459225    3.559849
      6          7           0        4.462834   -0.618303   -1.183211
      7          6           0        4.133619   -1.952891   -0.811740
      8          6           0        3.869791   -2.866191   -2.048000
      9          6           0        4.468527   -1.956386   -3.185500
     10          6           0        4.597990   -0.532819   -2.536949
     11          6           0        5.627531   -2.635891   -3.975381
     12          6           0        2.292863   -2.979377   -2.154090
     13          6           0        1.632876   -4.319038   -2.373440
     14          6           0        0.639695   -4.778075   -1.332224
     15          8           0        0.909924   -5.366130   -0.264553
     16          8           0       -0.626085   -4.252596   -1.672040
     17          7           0        5.411050    2.232508   -1.598308
     18          6           0        5.256980    1.864180   -2.851309
     19          6           0        5.371195    3.079524   -3.726675
     20          6           0        5.434410    4.233662   -2.886979
     21          6           0        5.518916    3.663371   -1.506873
     22          6           0        5.497735    3.002335   -5.210752
     23          6           0        5.439861    5.706388   -3.339915
     24          8           0        5.427761    6.046927   -4.518018
     25          6           0        5.505072    6.763093   -2.217743
     26          7           0        5.635625    2.675439    1.493761
     27          6           0        5.643952    3.901421    1.037884
     28          6           0        5.838750    4.870437    2.241516
     29          6           0        5.260579    4.019157    3.408443
     30          6           0        5.313567    2.613653    2.806745
     31          6           0        7.219638    5.468447    2.559876
     32          6           0        3.850506    4.429493    3.974726
     33          6           0        3.673574    5.868875    4.577996
     34          7           0        4.771681   -0.174646    1.707965
     35          6           0        4.708171    0.125278    3.046089
     36          6           0        4.230406   -1.041715    3.798428
     37          6           0        4.039175   -2.017541    2.814065
     38          6           0        4.324827   -1.415571    1.564578
     39          6           0        4.021257   -1.117219    5.245607
     40          6           0        3.701454   -3.400196    2.619615
     41          8           0        3.437759   -4.275788    3.390079
     42          6           0        3.767225   -3.664373    1.121985
     43          6           0        4.731488   -4.798903    0.936401
     44          8           0        5.913616   -4.852233    1.289534
     45          8           0        3.973136   -5.884684    0.482722
     46          6           0        4.740791   -7.099095    0.293343
     47          6           0       -1.536928   -4.423403   -0.574307
     48          6           0       -2.937083   -4.004561   -0.879991
     49          6           0       -3.943314   -3.659890   -0.009764
     50          6           0       -3.826158   -3.849480    1.526564
     51          6           0       -5.280673   -3.061605   -0.595208
     52          6           0       -5.145874   -1.536154   -0.749425
     53          6           0       -5.971939   -0.595426    0.223590
     54          6           0       -7.105162    0.189408   -0.536455
     55          6           0       -6.409761    1.375935   -1.496872
     56          6           0       -8.087128    0.651157    0.446528
     57          6           0       -9.210501    1.513000   -0.239756
     58          6           0      -10.382981    0.685818   -0.867016
     59          6           0      -11.675662    0.958491    0.008092
     60          6           0      -11.617693    0.384791    1.369378
     61          6           0      -12.932789    0.281803   -0.739769
     62          6           0      -14.139158    1.221437   -1.101749
     63          6           0      -15.283582    1.114302   -0.123492
     64          6           0      -15.730662    2.508747    0.453903
     65          6           0      -17.137237    2.978211   -0.018797
     66          6           0      -15.594965    2.585538    1.976152
     67          1           0        4.972776    0.239773   -4.354185
     68          1           0        5.918890    5.349884   -0.204417
     69          1           0        4.747172    1.682611    4.580236
     70          1           0        4.252758   -3.886366   -2.086984
     71          1           0        3.814827   -1.797267   -4.042963
     72          1           0        5.866491   -3.610158   -3.548735
     73          1           0        6.482493   -1.973064   -3.843235
     74          1           0        5.407791   -2.790055   -5.031633
     75          1           0        1.964068   -2.448142   -3.047432
     76          1           0        1.905574   -2.395966   -1.318319
     77          1           0        2.358922   -5.126935   -2.278296
     78          1           0        1.194852   -4.430596   -3.364902
     79          1           0        5.596190    1.970777   -5.548474
     80          1           0        6.274680    3.622395   -5.656613
     81          1           0        4.528984    3.302473   -5.611310
     82          1           0        6.481589    6.745393   -1.734277
     83          1           0        4.723759    6.537025   -1.492490
     84          1           0        5.361633    7.745924   -2.666600
     85          1           0        5.103805    5.675129    2.216089
     86          1           0        6.071699    4.040301    4.136318
     87          1           0        8.032090    4.970030    2.029893
     88          1           0        7.429953    5.563875    3.624805
     89          1           0        7.134208    6.448799    2.091788
     90          1           0        3.593257    3.623826    4.662648
     91          1           0        3.063395    4.376177    3.222489
     92          1           0        3.434607    5.775496    5.637030
     93          1           0        2.919349    6.377274    3.977507
     94          1           0        4.584044    6.458350    4.469011
     95          1           0        4.877445   -0.689272    5.767717
     96          1           0        3.809825   -2.129635    5.589201
     97          1           0        3.124596   -0.549098    5.496738
     98          1           0        2.773290   -4.005824    0.832003
     99          1           0        5.646415   -7.001955   -0.305255
    100          1           0        4.078435   -7.897750   -0.041367
    101          1           0        4.995668   -7.395052    1.311218
    102          1           0       -1.191798   -3.828088    0.270942
    103          1           0       -1.686086   -5.488319   -0.398017
    104          1           0       -3.116460   -3.753421   -1.925961
    105          1           0       -2.785135   -3.971805    1.823990
    106          1           0       -4.457262   -4.715932    1.722507
    107          1           0       -4.314626   -2.958356    1.921637
    108          1           0       -6.060528   -3.354753    0.107885
    109          1           0       -5.509232   -3.524524   -1.555585
    110          1           0       -5.489441   -1.288340   -1.753078
    111          1           0       -4.090811   -1.269063   -0.673511
    112          1           0       -5.313560    0.133482    0.694394
    113          1           0       -6.408897   -1.167066    1.042666
    114          1           0       -7.647695   -0.387329   -1.285044
    115          1           0       -6.618406    2.387166   -1.149406
    116          1           0       -6.793732    1.228692   -2.505909
    117          1           0       -5.333028    1.273869   -1.639869
    118          1           0       -7.626565    1.246618    1.234671
    119          1           0       -8.557434   -0.223455    0.895704
    120          1           0       -8.839186    2.065383   -1.101788
    121          1           0       -9.498777    2.238294    0.520506
    122          1           0      -10.384749   -0.403334   -0.832528
    123          1           0      -10.520934    0.898339   -1.926571
    124          1           0      -11.736308    2.040155    0.124923
    125          1           0      -10.838138   -0.377040    1.403101
    126          1           0      -12.573462   -0.045336    1.668695
    127          1           0      -11.467045    1.227197    2.044528
    128          1           0      -13.285035   -0.576533   -0.167658
    129          1           0      -12.638277   -0.229722   -1.655882
    130          1           0      -14.555384    0.905824   -2.058512
    131          1           0      -13.727027    2.224263   -1.211238
    132          1           0      -15.074402    0.329575    0.603384
    133          1           0      -16.068000    0.797648   -0.810262
    134          1           0      -15.009136    3.250643    0.112208
    135          1           0      -17.889973    2.917430    0.766569
    136          1           0      -17.515634    2.267643   -0.753863
    137          1           0      -17.234620    3.984454   -0.424984
    138          1           0      -14.541186    2.720462    2.218941
    139          1           0      -16.112421    1.706906    2.361880
    140          1           0      -16.191120    3.427606    2.327170
 ---------------------------------------------------------------------
 Rotational constants (GHZ):           0.0319795           0.0102991           0.0091869
 Leave Link  202 at Sat Apr 30 17:32:02 2022, MaxMem= 10066329600 cpu:               0.2 elap:               0.0
 (Enter /sw/apps/gaussian-16.0/g16/l301.exe)
 Standard basis: def2SVP (5D, 7F)
 Ernie: Thresh=  0.10000D-02 Tol=  0.10000D-05 Strict=F.
 There are  1364 symmetry adapted cartesian basis functions of A   symmetry.
 There are  1298 symmetry adapted basis functions of A   symmetry.
  1298 basis functions,  2180 primitive gaussians,  1364 cartesian basis functions
   246 alpha electrons      246 beta electrons
       nuclear repulsion energy      9500.8439263440 Hartrees.
 IExCor=  402 DFT=T Ex=B Corr=LYP ExCW=0 ScaHFX=  0.000000
 ScaDFX=  1.000000  1.000000  1.000000  1.000000 ScalE2=  1.000000  1.000000
 IRadAn=      5 IRanWt=     -1 IRanGd=            0 ICorTp=0 IEmpDi=  4
 NAtoms=  140 NActive=  140 NUniq=  140 SFac= 1.00D+00 NAtFMM=   60 NAOKFM=T Big=T
 Integral buffers will be    131072 words long.
 Regular integral format.
 Two-electron integral symmetry is turned on.
 Leave Link  301 at Sat Apr 30 17:32:02 2022, MaxMem= 10066329600 cpu:               1.3 elap:               0.1
 (Enter /sw/apps/gaussian-16.0/g16/l302.exe)
 NPDir=0 NMtPBC=     1 NCelOv=     1 NCel=       1 NClECP=     1 NCelD=      1
         NCelK=      1 NCelE2=     1 NClLst=     1 CellRange=     0.0.
 One-electron integrals computed using PRISM.
 One-electron integral symmetry used in STVInt
   1 Symmetry operations used in ECPInt.
 ECPInt:  NShTT=  192510 NPrTT=  683786 LenC2=   93387 LenP2D=  203585.
 LDataN:  DoStor=T MaxTD1= 4 Len=   56
 NBasis=  1298 RedAO= T EigKep=  2.17D-04  NBF=  1298
 NBsUse=  1298 1.00D-06 EigRej= -1.00D+00 NBFU=  1298
 Precomputing XC quadrature grid using
 IXCGrd= 4 IRadAn=           5 IRanWt=          -1 IRanGd=           0 AccXCQ= 0.00D+00.
 Generated NRdTot=       0 NPtTot=           0 NUsed=           0 NTot=          32
 NSgBfM=  1061  1016  1028  1053  1061 MxSgAt=   140 MxSgA2=   140.
 Leave Link  302 at Sat Apr 30 17:32:05 2022, MaxMem= 10066329600 cpu:              80.4 elap:               3.4
 (Enter /sw/apps/gaussian-16.0/g16/l303.exe)
 DipDrv:  MaxL=1.
 Leave Link  303 at Sat Apr 30 17:32:06 2022, MaxMem= 10066329600 cpu:               7.2 elap:               0.3
 (Enter /sw/apps/gaussian-16.0/g16/l308.exe)
 Leave Link  308 at Sat Apr 30 17:32:06 2022, MaxMem= 10066329600 cpu:               9.4 elap:               0.5
 (Enter /sw/apps/gaussian-16.0/g16/l401.exe)
 ExpMin= 3.36D-02 ExpMax= 4.95D+03 ExpMxC= 7.45D+02 IAcc=3 IRadAn=         5 AccDes= 0.00D+00
 Harris functional with IExCor=  402 and IRadAn=       5 diagonalized for initial guess.
 HarFok:  IExCor=  402 AccDes= 0.00D+00 IRadAn=         5 IDoV= 1 UseB2=F ITyADJ=14
 ICtDFT=  3500011 ScaDFX=  1.000000  1.000000  1.000000  1.000000
 FoFCou: FMM=F IPFlag=           0 FMFlag=      100000 FMFlg1=        2001
         NFxFlg=           0 DoJE=T BraDBF=F KetDBF=T FulRan=T
         wScrn=  0.000000 ICntrl=       500 IOpCl=  0 I1Cent=   200000004 NGrid=           0
         NMat0=    1 NMatS0=      1 NMatT0=    0 NMatD0=    1 NMtDS0=    0 NMtDT0=    0
 Petite list used in FoFCou.
 Harris En= -3008.74208901034    
 JPrj=0 DoOrth=F DoCkMO=F.
 Leave Link  401 at Sat Apr 30 17:32:12 2022, MaxMem= 10066329600 cpu:             127.1 elap:               5.3
 (Enter /sw/apps/gaussian-16.0/g16/l502.exe)
 Integral symmetry usage will be decided dynamically.
 Closed shell SCF:
 Using DIIS extrapolation, IDIIS=  1040.
 NGot= 10066329600 LenX= 10062561258 LenY= 10060699398
 Requested convergence on RMS density matrix=1.00D-08 within 128 cycles.
 Requested convergence on MAX density matrix=1.00D-06.
 Requested convergence on             energy=1.00D-06.
 No special actions if energy rises.
 Fock matrices will be formed incrementally for  20 cycles.

 Cycle   1  Pass 1  IDiag  1:
 FoFJK:  IHMeth= 1 ICntrl=     500 DoSepK=F KAlg= 0 I1Cent=           0 FoldK=F
 IRaf= 500000000 NMat=       1 IRICut=       1 DoRegI=T DoRafI=F ISym2E= 0 IDoP0=0 IntGTp=1.
 FoFCou: FMM=T IPFlag=           0 FMFlag=      100000 FMFlg1=        2001
         NFxFlg=           0 DoJE=T BraDBF=F KetDBF=F FulRan=T
         wScrn=  0.000000 ICntrl=       500 IOpCl=  0 I1Cent=           0 NGrid=           0
         NMat0=    1 NMatS0=      1 NMatT0=    0 NMatD0=    1 NMtDS0=    0 NMtDT0=    0
 Symmetry not used in FoFCou.
 FMM levels:  10  Number of levels for PrismC:   9
 E= -3005.64773297227    
 DIIS: error= 1.93D-02 at cycle   1 NSaved=   1.
 NSaved= 1 IEnMin= 1 EnMin= -3005.64773297227     IErMin= 1 ErrMin= 1.93D-02
 ErrMax= 1.93D-02  0.00D+00 EMaxC= 1.00D-01 BMatC= 1.54D+00 BMatP= 1.54D+00
 IDIUse=3 WtCom= 8.07D-01 WtEn= 1.93D-01
 Coeff-Com:  0.100D+01
 Coeff-En:   0.100D+01
 Coeff:      0.100D+01
 Gap=     0.050 Goal=   None    Shift=    0.000
 GapD=    0.050 DampG=0.500 DampE=0.500 DampFc=0.2500 IDamp=-1.
 Damping current iteration by 2.50D-01
 RMSDP=3.72D-03 MaxDP=4.75D-01              OVMax= 9.19D-01

 Cycle   2  Pass 1  IDiag  1:
 RMSU=  9.25D-04    CP:  9.89D-01
 E= -3006.14703354802     Delta-E=       -0.499300575750 Rises=F Damp=T
 DIIS: error= 6.92D-03 at cycle   2 NSaved=   2.
 NSaved= 2 IEnMin= 2 EnMin= -3006.14703354802     IErMin= 2 ErrMin= 6.92D-03
 ErrMax= 6.92D-03  0.00D+00 EMaxC= 1.00D-01 BMatC= 2.58D-01 BMatP= 1.54D+00
 IDIUse=3 WtCom= 9.31D-01 WtEn= 6.92D-02
 Coeff-Com: -0.287D+00 0.129D+01
 Coeff-En:   0.879D-01 0.912D+00
 Coeff:     -0.261D+00 0.126D+01
 Gap=     0.170 Goal=   None    Shift=    0.000
 RMSDP=1.65D-03 MaxDP=2.43D-01 DE=-4.99D-01 OVMax= 5.16D-01

 Cycle   3  Pass 1  IDiag  1:
 RMSU=  1.63D-03    CP:  9.65D-01  1.20D+00
 E= -3005.12860623546     Delta-E=        1.018427312551 Rises=F Damp=F
 DIIS: error= 4.25D-02 at cycle   3 NSaved=   3.
 NSaved= 3 IEnMin= 2 EnMin= -3006.14703354802     IErMin= 2 ErrMin= 6.92D-03
 ErrMax= 4.25D-02  0.00D+00 EMaxC= 1.00D-01 BMatC= 1.66D+00 BMatP= 2.58D-01
 IDIUse=2 WtCom= 0.00D+00 WtEn= 1.00D+00
 Coeff-En:   0.000D+00 0.688D+00 0.312D+00
 Coeff:      0.000D+00 0.688D+00 0.312D+00
 Gap=     0.084 Goal=   None    Shift=    0.000
 RMSDP=2.20D-03 MaxDP=3.37D-01 DE= 1.02D+00 OVMax= 7.83D-01

 Cycle   4  Pass 1  IDiag  1:
 RMSU=  9.87D-04    CP:  9.67D-01  2.03D+00 -1.11D-01
 E= -3004.59037013242     Delta-E=        0.538236103041 Rises=F Damp=F
 DIIS: error= 4.87D-02 at cycle   4 NSaved=   4.
 NSaved= 4 IEnMin= 2 EnMin= -3006.14703354802     IErMin= 2 ErrMin= 6.92D-03
 ErrMax= 4.87D-02  0.00D+00 EMaxC= 1.00D-01 BMatC= 1.77D+00 BMatP= 2.58D-01
 IDIUse=2 WtCom= 0.00D+00 WtEn= 1.00D+00
 EnCoef did     2 forward-backward iterations
 Coeff-En:   0.108D+00 0.000D+00 0.469D+00 0.424D+00
 Coeff:      0.108D+00 0.000D+00 0.469D+00 0.424D+00
 Gap=     0.122 Goal=   None    Shift=    0.000
 RMSDP=1.51D-03 MaxDP=2.47D-01 DE= 5.38D-01 OVMax= 6.31D-01

 Cycle   5  Pass 1  IDiag  1:
 RMSU=  6.85D-04    CP:  9.79D-01  1.11D+00  1.58D-01  4.75D-02
 E= -3007.10997016522     Delta-E=       -2.519600032794 Rises=F Damp=F
 DIIS: error= 1.90D-02 at cycle   5 NSaved=   5.
 NSaved= 5 IEnMin= 5 EnMin= -3007.10997016522     IErMin= 2 ErrMin= 6.92D-03
 ErrMax= 1.90D-02  0.00D+00 EMaxC= 1.00D-01 BMatC= 2.52D-01 BMatP= 2.58D-01
 IDIUse=3 WtCom= 8.10D-01 WtEn= 1.90D-01
 EnCoef did     7 forward-backward iterations
 Coeff-Com: -0.175D+00 0.687D+00 0.220D+00 0.753D-01 0.192D+00
 Coeff-En:   0.000D+00 0.000D+00 0.721D-01 0.101D+00 0.827D+00
 Coeff:     -0.141D+00 0.556D+00 0.192D+00 0.802D-01 0.313D+00
 Gap=     0.113 Goal=   None    Shift=    0.000
 RMSDP=8.28D-04 MaxDP=1.23D-01 DE=-2.52D+00 OVMax= 3.92D-01

 Cycle   6  Pass 1  IDiag  1:
 RMSU=  7.26D-04    CP:  9.74D-01  1.10D+00  2.72D-01  1.90D-01  5.35D-01
 E= -3007.13235596503     Delta-E=       -0.022385799808 Rises=F Damp=F
 DIIS: error= 1.77D-02 at cycle   6 NSaved=   6.
 NSaved= 6 IEnMin= 6 EnMin= -3007.13235596503     IErMin= 2 ErrMin= 6.92D-03
 ErrMax= 1.77D-02  0.00D+00 EMaxC= 1.00D-01 BMatC= 2.18D-01 BMatP= 2.52D-01
 IDIUse=3 WtCom= 8.23D-01 WtEn= 1.77D-01
 Coeff-Com: -0.207D+00 0.482D+00 0.521D-01-0.251D-01 0.299D+00 0.399D+00
 Coeff-En:   0.000D+00 0.000D+00 0.000D+00 0.000D+00 0.481D+00 0.519D+00
 Coeff:     -0.170D+00 0.396D+00 0.428D-01-0.206D-01 0.331D+00 0.420D+00
 Gap=     0.031 Goal=   None    Shift=    0.000
 RMSDP=7.31D-04 MaxDP=1.28D-01 DE=-2.24D-02 OVMax= 5.14D-01

 Cycle   7  Pass 1  IDiag  1:
 RMSU=  5.24D-04    CP:  9.77D-01  1.16D+00  2.39D-01 -8.78D-03  9.16D-01
                    CP:  4.75D-01
 E= -3007.23875807395     Delta-E=       -0.106402108922 Rises=F Damp=F
 DIIS: error= 8.70D-03 at cycle   7 NSaved=   7.
 NSaved= 7 IEnMin= 7 EnMin= -3007.23875807395     IErMin= 2 ErrMin= 6.92D-03
 ErrMax= 8.70D-03  0.00D+00 EMaxC= 1.00D-01 BMatC= 7.54D-02 BMatP= 2.18D-01
 IDIUse=3 WtCom= 9.13D-01 WtEn= 8.70D-02
 EnCoef did     6 forward-backward iterations
 Coeff-Com: -0.127D+00 0.256D+00 0.130D-01-0.121D-01 0.267D+00 0.355D+00
 Coeff-Com:  0.248D+00
 Coeff-En:   0.000D+00 0.000D+00 0.000D+00 0.000D+00 0.212D+00 0.352D+00
 Coeff-En:   0.436D+00
 Coeff:     -0.116D+00 0.234D+00 0.118D-01-0.111D-01 0.262D+00 0.355D+00
 Coeff:      0.264D+00
 Gap=     0.034 Goal=   None    Shift=    0.000
 RMSDP=4.88D-04 MaxDP=6.46D-02 DE=-1.06D-01 OVMax= 4.04D-01

 Cycle   8  Pass 1  IDiag  1:
 RMSU=  1.76D-04    CP:  9.77D-01  1.17D+00  2.03D-01  6.20D-02  8.32D-01
                    CP:  6.89D-01  2.10D-01
 E= -3007.33250987772     Delta-E=       -0.093751803772 Rises=F Damp=F
 DIIS: error= 3.55D-03 at cycle   8 NSaved=   8.
 NSaved= 8 IEnMin= 8 EnMin= -3007.33250987772     IErMin= 8 ErrMin= 3.55D-03
 ErrMax= 3.55D-03  0.00D+00 EMaxC= 1.00D-01 BMatC= 1.11D-02 BMatP= 7.54D-02
 IDIUse=3 WtCom= 9.65D-01 WtEn= 3.55D-02
 Coeff-Com: -0.589D-01 0.110D+00 0.149D-02-0.271D-02 0.162D+00 0.217D+00
 Coeff-Com:  0.241D+00 0.330D+00
 Coeff-En:   0.000D+00 0.000D+00 0.000D+00 0.000D+00 0.000D+00 0.000D+00
 Coeff-En:   0.211D+00 0.789D+00
 Coeff:     -0.568D-01 0.107D+00 0.144D-02-0.261D-02 0.156D+00 0.209D+00
 Coeff:      0.240D+00 0.346D+00
 Gap=     0.042 Goal=   None    Shift=    0.000
 RMSDP=1.71D-04 MaxDP=1.52D-02 DE=-9.38D-02 OVMax= 1.45D-01

 Cycle   9  Pass 1  IDiag  1:
 RMSU=  7.53D-05    CP:  9.77D-01  1.16D+00  2.06D-01  5.19D-02  8.56D-01
                    CP:  6.22D-01  4.06D-01  4.23D-01
 E= -3007.34664729498     Delta-E=       -0.014137417256 Rises=F Damp=F
 DIIS: error= 9.90D-04 at cycle   9 NSaved=   9.
 NSaved= 9 IEnMin= 9 EnMin= -3007.34664729498     IErMin= 9 ErrMin= 9.90D-04
 ErrMax= 9.90D-04  0.00D+00 EMaxC= 1.00D-01 BMatC= 1.43D-03 BMatP= 1.11D-02
 IDIUse=3 WtCom= 9.90D-01 WtEn= 9.90D-03
 Coeff-Com: -0.170D-01 0.317D-01-0.436D-02 0.646D-03 0.447D-01 0.648D-01
 Coeff-Com:  0.112D+00 0.270D+00 0.498D+00
 Coeff-En:   0.000D+00 0.000D+00 0.000D+00 0.000D+00 0.000D+00 0.000D+00
 Coeff-En:   0.000D+00 0.162D+00 0.838D+00
 Coeff:     -0.168D-01 0.314D-01-0.432D-02 0.640D-03 0.442D-01 0.642D-01
 Coeff:      0.111D+00 0.269D+00 0.501D+00
 Gap=     0.042 Goal=   None    Shift=    0.000
 RMSDP=7.64D-05 MaxDP=9.39D-03 DE=-1.41D-02 OVMax= 5.04D-02

 Cycle  10  Pass 1  IDiag  1:
 RMSU=  4.48D-05    CP:  9.77D-01  1.16D+00  2.02D-01  5.02D-02  8.66D-01
                    CP:  6.53D-01  3.87D-01  6.46D-01  4.71D-01
 E= -3007.34742319543     Delta-E=       -0.000775900449 Rises=F Damp=F
 DIIS: error= 1.10D-03 at cycle  10 NSaved=  10.
 NSaved=10 IEnMin=10 EnMin= -3007.34742319543     IErMin= 9 ErrMin= 9.90D-04
 ErrMax= 1.10D-03  0.00D+00 EMaxC= 1.00D-01 BMatC= 7.76D-04 BMatP= 1.43D-03
 IDIUse=3 WtCom= 9.90D-01 WtEn= 9.90D-03
 Coeff-Com: -0.293D-02 0.717D-02-0.378D-02 0.152D-02-0.209D-04 0.562D-02
 Coeff-Com:  0.393D-01 0.142D+00 0.452D+00 0.359D+00
 Coeff-En:   0.000D+00 0.000D+00 0.000D+00 0.000D+00 0.000D+00 0.000D+00
 Coeff-En:   0.000D+00 0.000D+00 0.400D+00 0.600D+00
 Coeff:     -0.290D-02 0.710D-02-0.374D-02 0.151D-02-0.207D-04 0.557D-02
 Coeff:      0.389D-01 0.141D+00 0.452D+00 0.361D+00
 Gap=     0.042 Goal=   None    Shift=    0.000
 RMSDP=4.73D-05 MaxDP=4.22D-03 DE=-7.76D-04 OVMax= 3.46D-02

 Cycle  11  Pass 1  IDiag  1:
 RMSU=  2.08D-05    CP:  9.77D-01  1.16D+00  2.03D-01  4.98D-02  8.64D-01
                    CP:  6.50D-01  3.94D-01  6.09D-01  7.35D-01  1.81D-01
 E= -3007.34820844542     Delta-E=       -0.000785249997 Rises=F Damp=F
 DIIS: error= 7.11D-04 at cycle  11 NSaved=  11.
 NSaved=11 IEnMin=11 EnMin= -3007.34820844542     IErMin=11 ErrMin= 7.11D-04
 ErrMax= 7.11D-04  0.00D+00 EMaxC= 1.00D-01 BMatC= 2.02D-04 BMatP= 7.76D-04
 IDIUse=3 WtCom= 9.93D-01 WtEn= 7.11D-03
 EnCoef did     5 forward-backward iterations
 Coeff-Com: -0.111D-02 0.402D-02-0.227D-02 0.120D-02-0.665D-02-0.421D-02
 Coeff-Com:  0.148D-01 0.644D-01 0.290D+00 0.322D+00 0.318D+00
 Coeff-En:   0.000D+00 0.000D+00 0.000D+00 0.000D+00 0.000D+00 0.000D+00
 Coeff-En:   0.000D+00 0.000D+00 0.337D-01 0.272D+00 0.694D+00
 Coeff:     -0.110D-02 0.400D-02-0.226D-02 0.119D-02-0.660D-02-0.418D-02
 Coeff:      0.147D-01 0.639D-01 0.288D+00 0.321D+00 0.321D+00
 Gap=     0.042 Goal=   None    Shift=    0.000
 RMSDP=2.10D-05 MaxDP=2.80D-03 DE=-7.85D-04 OVMax= 1.60D-02

 Cycle  12  Pass 1  IDiag  1:
 RMSU=  7.74D-06    CP:  9.77D-01  1.16D+00  2.02D-01  5.10D-02  8.65D-01
                    CP:  6.48D-01  3.95D-01  6.01D-01  6.93D-01  4.32D-01
                    CP:  2.68D-01
 E= -3007.34846415340     Delta-E=       -0.000255707977 Rises=F Damp=F
 DIIS: error= 1.77D-04 at cycle  12 NSaved=  12.
 NSaved=12 IEnMin=12 EnMin= -3007.34846415340     IErMin=12 ErrMin= 1.77D-04
 ErrMax= 1.77D-04  0.00D+00 EMaxC= 1.00D-01 BMatC= 2.45D-05 BMatP= 2.02D-04
 IDIUse=3 WtCom= 9.98D-01 WtEn= 1.77D-03
 Coeff-Com: -0.179D-02 0.500D-02-0.802D-03 0.243D-03-0.445D-02-0.218D-02
 Coeff-Com:  0.312D-02 0.818D-02 0.940D-01 0.162D+00 0.263D+00 0.474D+00
 Coeff-En:   0.000D+00 0.000D+00 0.000D+00 0.000D+00 0.000D+00 0.000D+00
 Coeff-En:   0.000D+00 0.000D+00 0.000D+00 0.000D+00 0.117D+00 0.883D+00
 Coeff:     -0.179D-02 0.499D-02-0.801D-03 0.243D-03-0.444D-02-0.217D-02
 Coeff:      0.312D-02 0.817D-02 0.938D-01 0.161D+00 0.262D+00 0.475D+00
 Gap=     0.042 Goal=   None    Shift=    0.000
 RMSDP=6.78D-06 MaxDP=6.49D-04 DE=-2.56D-04 OVMax= 3.48D-03

 Cycle  13  Pass 1  IDiag  1:
 RMSU=  3.59D-06    CP:  9.77D-01  1.16D+00  2.01D-01  5.08D-02  8.65D-01
                    CP:  6.50D-01  3.97D-01  6.05D-01  6.97D-01  4.19D-01
                    CP:  4.28D-01  4.48D-01
 E= -3007.34848755236     Delta-E=       -0.000023398959 Rises=F Damp=F
 DIIS: error= 6.02D-05 at cycle  13 NSaved=  13.
 NSaved=13 IEnMin=13 EnMin= -3007.34848755236     IErMin=13 ErrMin= 6.02D-05
 ErrMax= 6.02D-05  0.00D+00 EMaxC= 1.00D-01 BMatC= 5.86D-06 BMatP= 2.45D-05
 IDIUse=1 WtCom= 1.00D+00 WtEn= 0.00D+00
 Coeff-Com: -0.144D-02 0.352D-02-0.247D-03-0.166D-04-0.194D-02-0.482D-03
 Coeff-Com: -0.611D-03-0.117D-01 0.119D-03 0.542D-01 0.144D+00 0.376D+00
 Coeff-Com:  0.439D+00
 Coeff:     -0.144D-02 0.352D-02-0.247D-03-0.166D-04-0.194D-02-0.482D-03
 Coeff:     -0.611D-03-0.117D-01 0.119D-03 0.542D-01 0.144D+00 0.376D+00
 Coeff:      0.439D+00
 Gap=     0.042 Goal=   None    Shift=    0.000
 RMSDP=2.79D-06 MaxDP=3.12D-04 DE=-2.34D-05 OVMax= 9.59D-04

 Cycle  14  Pass 1  IDiag  1:
 RMSU=  1.63D-06    CP:  9.77D-01  1.16D+00  2.01D-01  5.06D-02  8.65D-01
                    CP:  6.51D-01  3.98D-01  6.05D-01  6.99D-01  4.34D-01
                    CP:  4.22D-01  5.71D-01  5.20D-01
 E= -3007.34849242728     Delta-E=       -0.000004874923 Rises=F Damp=F
 DIIS: error= 2.45D-05 at cycle  14 NSaved=  14.
 NSaved=14 IEnMin=14 EnMin= -3007.34849242728     IErMin=14 ErrMin= 2.45D-05
 ErrMax= 2.45D-05  0.00D+00 EMaxC= 1.00D-01 BMatC= 1.14D-06 BMatP= 5.86D-06
 IDIUse=1 WtCom= 1.00D+00 WtEn= 0.00D+00
 Coeff-Com: -0.898D-03 0.196D-02-0.993D-04-0.102D-04-0.549D-03 0.121D-03
 Coeff-Com: -0.859D-03-0.115D-01-0.212D-01 0.925D-02 0.635D-01 0.194D+00
 Coeff-Com:  0.325D+00 0.441D+00
 Coeff:     -0.898D-03 0.196D-02-0.993D-04-0.102D-04-0.549D-03 0.121D-03
 Coeff:     -0.859D-03-0.115D-01-0.212D-01 0.925D-02 0.635D-01 0.194D+00
 Coeff:      0.325D+00 0.441D+00
 Gap=     0.042 Goal=   None    Shift=    0.000
 RMSDP=1.33D-06 MaxDP=1.30D-04 DE=-4.87D-06 OVMax= 4.74D-04

 Cycle  15  Pass 1  IDiag  1:
 RMSU=  7.71D-07    CP:  9.77D-01  1.16D+00  2.01D-01  5.07D-02  8.65D-01
                    CP:  6.51D-01  3.99D-01  6.06D-01  7.00D-01  4.35D-01
                    CP:  4.40D-01  5.87D-01  6.19D-01  5.04D-01
 E= -3007.34849342053     Delta-E=       -0.000000993246 Rises=F Damp=F
 DIIS: error= 1.71D-05 at cycle  15 NSaved=  15.
 NSaved=15 IEnMin=15 EnMin= -3007.34849342053     IErMin=15 ErrMin= 1.71D-05
 ErrMax= 1.71D-05  0.00D+00 EMaxC= 1.00D-01 BMatC= 3.13D-07 BMatP= 1.14D-06
 IDIUse=1 WtCom= 1.00D+00 WtEn= 0.00D+00
 Coeff-Com: -0.454D-03 0.864D-03-0.327D-04-0.162D-04 0.758D-04 0.233D-03
 Coeff-Com: -0.559D-03-0.714D-02-0.212D-01-0.100D-01 0.122D-01 0.553D-01
 Coeff-Com:  0.148D+00 0.358D+00 0.465D+00
 Coeff:     -0.454D-03 0.864D-03-0.327D-04-0.162D-04 0.758D-04 0.233D-03
 Coeff:     -0.559D-03-0.714D-02-0.212D-01-0.100D-01 0.122D-01 0.553D-01
 Coeff:      0.148D+00 0.358D+00 0.465D+00
 Gap=     0.042 Goal=   None    Shift=    0.000
 RMSDP=6.68D-07 MaxDP=1.42D-04 DE=-9.93D-07 OVMax= 1.54D-04

 Cycle  16  Pass 1  IDiag  1:
 RMSU=  3.57D-07    CP:  9.77D-01  1.16D+00  2.01D-01  5.07D-02  8.65D-01
                    CP:  6.51D-01  3.99D-01  6.07D-01  7.01D-01  4.36D-01
                    CP:  4.50D-01  5.99D-01  6.24D-01  6.51D-01  5.95D-01
 E= -3007.34849367979     Delta-E=       -0.000000259264 Rises=F Damp=F
 DIIS: error= 4.73D-06 at cycle  16 NSaved=  16.
 NSaved=16 IEnMin=16 EnMin= -3007.34849367979     IErMin=16 ErrMin= 4.73D-06
 ErrMax= 4.73D-06  0.00D+00 EMaxC= 1.00D-01 BMatC= 5.43D-08 BMatP= 3.13D-07
 IDIUse=1 WtCom= 1.00D+00 WtEn= 0.00D+00
 Coeff-Com: -0.169D-03 0.263D-03-0.994D-05-0.844D-05 0.178D-03 0.125D-03
 Coeff-Com: -0.235D-03-0.299D-02-0.122D-01-0.105D-01-0.666D-02-0.568D-02
 Coeff-Com:  0.346D-01 0.168D+00 0.348D+00 0.487D+00
 Coeff:     -0.169D-03 0.263D-03-0.994D-05-0.844D-05 0.178D-03 0.125D-03
 Coeff:     -0.235D-03-0.299D-02-0.122D-01-0.105D-01-0.666D-02-0.568D-02
 Coeff:      0.346D-01 0.168D+00 0.348D+00 0.487D+00
 Gap=     0.042 Goal=   None    Shift=    0.000
 RMSDP=2.87D-07 MaxDP=4.98D-05 DE=-2.59D-07 OVMax= 8.09D-05

 Cycle  17  Pass 1  IDiag  1:
 RMSU=  1.47D-07    CP:  9.77D-01  1.16D+00  2.01D-01  5.07D-02  8.65D-01
                    CP:  6.51D-01  3.99D-01  6.07D-01  7.01D-01  4.37D-01
                    CP:  4.52D-01  6.08D-01  6.42D-01  6.68D-01  6.83D-01
                    CP:  5.81D-01
 E= -3007.34849372885     Delta-E=       -0.000000049058 Rises=F Damp=F
 DIIS: error= 1.95D-06 at cycle  17 NSaved=  17.
 NSaved=17 IEnMin=17 EnMin= -3007.34849372885     IErMin=17 ErrMin= 1.95D-06
 ErrMax= 1.95D-06  0.00D+00 EMaxC= 1.00D-01 BMatC= 8.03D-09 BMatP= 5.43D-08
 IDIUse=1 WtCom= 1.00D+00 WtEn= 0.00D+00
 Coeff-Com: -0.590D-04 0.722D-04-0.370D-05-0.134D-05 0.114D-03 0.549D-04
 Coeff-Com: -0.783D-04-0.114D-02-0.577D-02-0.610D-02-0.685D-02-0.123D-01
 Coeff-Com:  0.283D-02 0.639D-01 0.170D+00 0.344D+00 0.452D+00
 Coeff:     -0.590D-04 0.722D-04-0.370D-05-0.134D-05 0.114D-03 0.549D-04
 Coeff:     -0.783D-04-0.114D-02-0.577D-02-0.610D-02-0.685D-02-0.123D-01
 Coeff:      0.283D-02 0.639D-01 0.170D+00 0.344D+00 0.452D+00
 Gap=     0.042 Goal=   None    Shift=    0.000
 RMSDP=9.50D-08 MaxDP=1.27D-05 DE=-4.91D-08 OVMax= 2.32D-05

 Cycle  18  Pass 1  IDiag  1:
 RMSU=  5.39D-08    CP:  9.77D-01  1.16D+00  2.01D-01  5.07D-02  8.65D-01
                    CP:  6.51D-01  3.99D-01  6.07D-01  7.01D-01  4.37D-01
                    CP:  4.52D-01  6.06D-01  6.47D-01  6.78D-01  6.89D-01
                    CP:  6.41D-01  6.43D-01
 E= -3007.34849373620     Delta-E=       -0.000000007352 Rises=F Damp=F
 DIIS: error= 7.02D-07 at cycle  18 NSaved=  18.
 NSaved=18 IEnMin=18 EnMin= -3007.34849373620     IErMin=18 ErrMin= 7.02D-07
 ErrMax= 7.02D-07  0.00D+00 EMaxC= 1.00D-01 BMatC= 7.92D-10 BMatP= 8.03D-09
 IDIUse=1 WtCom= 1.00D+00 WtEn= 0.00D+00
 Coeff-Com: -0.141D-04 0.105D-04-0.947D-06-0.121D-05 0.440D-04 0.190D-04
 Coeff-Com: -0.223D-04-0.322D-03-0.207D-02-0.256D-02-0.380D-02-0.769D-02
 Coeff-Com: -0.370D-02 0.152D-01 0.561D-01 0.148D+00 0.290D+00 0.511D+00
 Coeff:     -0.141D-04 0.105D-04-0.947D-06-0.121D-05 0.440D-04 0.190D-04
 Coeff:     -0.223D-04-0.322D-03-0.207D-02-0.256D-02-0.380D-02-0.769D-02
 Coeff:     -0.370D-02 0.152D-01 0.561D-01 0.148D+00 0.290D+00 0.511D+00
 Gap=     0.042 Goal=   None    Shift=    0.000
 RMSDP=4.22D-08 MaxDP=9.23D-06 DE=-7.35D-09 OVMax= 1.09D-05

 Cycle  19  Pass 1  IDiag  1:
 RMSU=  2.19D-08    CP:  9.77D-01  1.16D+00  2.01D-01  5.07D-02  8.65D-01
                    CP:  6.51D-01  3.99D-01  6.07D-01  7.01D-01  4.37D-01
                    CP:  4.52D-01  6.07D-01  6.48D-01  6.84D-01  6.96D-01
                    CP:  6.47D-01  6.41D-01  6.03D-01
 E= -3007.34849373677     Delta-E=       -0.000000000569 Rises=F Damp=F
 DIIS: error= 2.75D-07 at cycle  19 NSaved=  19.
 NSaved=19 IEnMin=19 EnMin= -3007.34849373677     IErMin=19 ErrMin= 2.75D-07
 ErrMax= 2.75D-07  0.00D+00 EMaxC= 1.00D-01 BMatC= 1.36D-10 BMatP= 7.92D-10
 IDIUse=1 WtCom= 1.00D+00 WtEn= 0.00D+00
 Coeff-Com: -0.170D-05-0.289D-05-0.583D-06 0.341D-06 0.143D-04 0.587D-05
 Coeff-Com: -0.467D-05-0.888D-04-0.700D-03-0.972D-03-0.169D-02-0.362D-02
 Coeff-Com: -0.261D-02 0.273D-02 0.172D-01 0.584D-01 0.144D+00 0.361D+00
 Coeff-Com:  0.427D+00
 Coeff:     -0.170D-05-0.289D-05-0.583D-06 0.341D-06 0.143D-04 0.587D-05
 Coeff:     -0.467D-05-0.888D-04-0.700D-03-0.972D-03-0.169D-02-0.362D-02
 Coeff:     -0.261D-02 0.273D-02 0.172D-01 0.584D-01 0.144D+00 0.361D+00
 Coeff:      0.427D+00
 Gap=     0.042 Goal=   None    Shift=    0.000
 RMSDP=1.38D-08 MaxDP=2.13D-06 DE=-5.69D-10 OVMax= 4.02D-06

 Cycle  20  Pass 1  IDiag  1:
 RMSU=  7.12D-09    CP:  9.77D-01  1.16D+00  2.01D-01  5.07D-02  8.65D-01
                    CP:  6.51D-01  3.99D-01  6.07D-01  7.01D-01  4.37D-01
                    CP:  4.52D-01  6.07D-01  6.48D-01  6.82D-01  6.98D-01
                    CP:  6.51D-01  6.50D-01  6.16D-01  5.22D-01
 E= -3007.34849373676     Delta-E=        0.000000000016 Rises=F Damp=F
 DIIS: error= 1.42D-07 at cycle  20 NSaved=  20.
 NSaved=20 IEnMin=19 EnMin= -3007.34849373677     IErMin=20 ErrMin= 1.42D-07
 ErrMax= 1.42D-07  0.00D+00 EMaxC= 1.00D-01 BMatC= 2.15D-11 BMatP= 1.36D-10
 IDIUse=1 WtCom= 1.00D+00 WtEn= 0.00D+00
 Coeff-Com:  0.506D-06-0.350D-05-0.292D-06 0.268D-06 0.528D-05 0.234D-05
 Coeff-Com: -0.874D-06-0.261D-04-0.277D-03-0.433D-03-0.828D-03-0.186D-02
 Coeff-Com: -0.157D-02 0.291D-03 0.627D-02 0.263D-01 0.720D-01 0.204D+00
 Coeff-Com:  0.311D+00 0.384D+00
 Coeff:      0.506D-06-0.350D-05-0.292D-06 0.268D-06 0.528D-05 0.234D-05
 Coeff:     -0.874D-06-0.261D-04-0.277D-03-0.433D-03-0.828D-03-0.186D-02
 Coeff:     -0.157D-02 0.291D-03 0.627D-02 0.263D-01 0.720D-01 0.204D+00
 Coeff:      0.311D+00 0.384D+00
 Gap=     0.042 Goal=   None    Shift=    0.000
 RMSDP=5.23D-09 MaxDP=6.79D-07 DE= 1.64D-11 OVMax= 1.30D-06

 SCF Done:  E(RB-LYP) =  -3007.34849374     A.U. after   20 cycles
            NFock= 20  Conv=0.52D-08     -V/T= 2.0100
 KE= 2.977663918951D+03 PE=-2.599715656497D+04 EE= 1.051130022594D+04
 Leave Link  502 at Sat Apr 30 17:35:37 2022, MaxMem= 10066329600 cpu:            4912.8 elap:             205.5
 (Enter /sw/apps/gaussian-16.0/g16/l801.exe)
 DoSCS=F DFT=T ScalE2(SS,OS)=  1.000000  1.000000
 ExpMin= 3.36D-02 ExpMax= 4.95D+03 ExpMxC= 7.45D+02 IAcc=3 IRadAn=         5 AccDes= 0.00D+00
 HarFok:  IExCor=  205 AccDes= 0.00D+00 IRadAn=         5 IDoV=-2 UseB2=F ITyADJ=14
 ICtDFT= 12500011 ScaDFX=  1.000000  1.000000  1.000000  1.000000
 GSVD:  LWork=       -5460 too small for GESVD, short by       25550 words or       25550 for optimal perf.
 Largest valence mixing into a core orbital is  1.35D-04
 Largest core mixing into a valence orbital is  4.55D-05
 Range of M.O.s used for correlation:    71  1298
 NBasis=  1298 NAE=   246 NBE=   246 NFC=    70 NFV=     0
 NROrb=   1228 NOA=   176 NOB=   176 NVA=  1052 NVB=  1052

 **** Warning!!: The smallest alpha delta epsilon is  0.42351675D-01

 Leave Link  801 at Sat Apr 30 17:35:37 2022, MaxMem= 10066329600 cpu:               6.9 elap:               0.3
 (Enter /sw/apps/gaussian-16.0/g16/l914.exe)
 RHF ground state
 Two-electron integrals replicated using symmetry.
 MDV= 10066329600 DFT=T DoStab=F Mixed=F DoRPA=T DoScal=T NonHer=F
 Making orbital integer symmetry assigments:
 Orbital symmetries:
       Occupied  (A) (A) (A) (A) (A) (A) (A) (A) (A) (A) (A) (A)
                 (A) (A) (A) (A) (A) (A) (A) (A) (A) (A) (A) (A)
                 (A) (A) (A) (A) (A) (A) (A) (A) (A) (A) (A) (A)
                 (A) (A) (A) (A) (A) (A) (A) (A) (A) (A) (A) (A)
                 (A) (A) (A) (A) (A) (A) (A) (A) (A) (A) (A) (A)
                 (A) (A) (A) (A) (A) (A) (A) (A) (A) (A) (A) (A)
                 (A) (A) (A) (A) (A) (A) (A) (A) (A) (A) (A) (A)
                 (A) (A) (A) (A) (A) (A) (A) (A) (A) (A) (A) (A)
                 (A) (A) (A) (A) (A) (A) (A) (A) (A) (A) (A) (A)
                 (A) (A) (A) (A) (A) (A) (A) (A) (A) (A) (A) (A)
                 (A) (A) (A) (A) (A) (A) (A) (A) (A) (A) (A) (A)
                 (A) (A) (A) (A) (A) (A) (A) (A) (A) (A) (A) (A)
                 (A) (A) (A) (A) (A) (A) (A) (A) (A) (A) (A) (A)
                 (A) (A) (A) (A) (A) (A) (A) (A) (A) (A) (A) (A)
                 (A) (A) (A) (A) (A) (A) (A) (A) (A) (A) (A) (A)
                 (A) (A) (A) (A) (A) (A) (A) (A) (A) (A) (A) (A)
                 (A) (A) (A) (A) (A) (A) (A) (A) (A) (A) (A) (A)
                 (A) (A) (A) (A) (A) (A) (A) (A) (A) (A) (A) (A)
                 (A) (A) (A) (A) (A) (A) (A) (A) (A) (A) (A) (A)
                 (A) (A) (A) (A) (A) (A) (A) (A) (A) (A) (A) (A)
                 (A) (A) (A) (A) (A) (A)
       Virtual   (A) (A) (A) (A) (A) (A) (A) (A) (A) (A) (A) (A)
                 (A) (A) (A) (A) (A) (A) (A) (A) (A) (A) (A) (A)
                 (A) (A) (A) (A) (A) (A) (A) (A) (A) (A) (A) (A)
                 (A) (A) (A) (A) (A) (A) (A) (A) (A) (A) (A) (A)
                 (A) (A) (A) (A) (A) (A) (A) (A) (A) (A) (A) (A)
                 (A) (A) (A) (A) (A) (A) (A) (A) (A) (A) (A) (A)
                 (A) (A) (A) (A) (A) (A) (A) (A) (A) (A) (A) (A)
                 (A) (A) (A) (A) (A) (A) (A) (A) (A) (A) (A) (A)
                 (A) (A) (A) (A) (A) (A) (A) (A) (A) (A) (A) (A)
                 (A) (A) (A) (A) (A) (A) (A) (A) (A) (A) (A) (A)
                 (A) (A) (A) (A) (A) (A) (A) (A) (A) (A) (A) (A)
                 (A) (A) (A) (A) (A) (A) (A) (A) (A) (A) (A) (A)
                 (A) (A) (A) (A) (A) (A) (A) (A) (A) (A) (A) (A)
                 (A) (A) (A) (A) (A) (A) (A) (A) (A) (A) (A) (A)
                 (A) (A) (A) (A) (A) (A) (A) (A) (A) (A) (A) (A)
                 (A) (A) (A) (A) (A) (A) (A) (A) (A) (A) (A) (A)
                 (A) (A) (A) (A) (A) (A) (A) (A) (A) (A) (A) (A)
                 (A) (A) (A) (A) (A) (A) (A) (A) (A) (A) (A) (A)
                 (A) (A) (A) (A) (A) (A) (A) (A) (A) (A) (A) (A)
                 (A) (A) (A) (A) (A) (A) (A) (A) (A) (A) (A) (A)
                 (A) (A) (A) (A) (A) (A) (A) (A) (A) (A) (A) (A)
                 (A) (A) (A) (A) (A) (A) (A) (A) (A) (A) (A) (A)
                 (A) (A) (A) (A) (A) (A) (A) (A) (A) (A) (A) (A)
                 (A) (A) (A) (A) (A) (A) (A) (A) (A) (A) (A) (A)
                 (A) (A) (A) (A) (A) (A) (A) (A) (A) (A) (A) (A)
                 (A) (A) (A) (A) (A) (A) (A) (A) (A) (A) (A) (A)
                 (A) (A) (A) (A) (A) (A) (A) (A) (A) (A) (A) (A)
                 (A) (A) (A) (A) (A) (A) (A) (A) (A) (A) (A) (A)
                 (A) (A) (A) (A) (A) (A) (A) (A) (A) (A) (A) (A)
                 (A) (A) (A) (A) (A) (A) (A) (A) (A) (A) (A) (A)
                 (A) (A) (A) (A) (A) (A) (A) (A) (A) (A) (A) (A)
                 (A) (A) (A) (A) (A) (A) (A) (A) (A) (A) (A) (A)
                 (A) (A) (A) (A) (A) (A) (A) (A) (A) (A) (A) (A)
                 (A) (A) (A) (A) (A) (A) (A) (A) (A) (A) (A) (A)
                 (A) (A) (A) (A) (A) (A) (A) (A) (A) (A) (A) (A)
                 (A) (A) (A) (A) (A) (A) (A) (A) (A) (A) (A) (A)
                 (A) (A) (A) (A) (A) (A) (A) (A) (A) (A) (A) (A)
                 (A) (A) (A) (A) (A) (A) (A) (A) (A) (A) (A) (A)
                 (A) (A) (A) (A) (A) (A) (A) (A) (A) (A) (A) (A)
                 (A) (A) (A) (A) (A) (A) (A) (A) (A) (A) (A) (A)
                 (A) (A) (A) (A) (A) (A) (A) (A) (A) (A) (A) (A)
                 (A) (A) (A) (A) (A) (A) (A) (A) (A) (A) (A) (A)
                 (A) (A) (A) (A) (A) (A) (A) (A) (A) (A) (A) (A)
                 (A) (A) (A) (A) (A) (A) (A) (A) (A) (A) (A) (A)
                 (A) (A) (A) (A) (A) (A) (A) (A) (A) (A) (A) (A)
                 (A) (A) (A) (A) (A) (A) (A) (A) (A) (A) (A) (A)
                 (A) (A) (A) (A) (A) (A) (A) (A) (A) (A) (A) (A)
                 (A) (A) (A) (A) (A) (A) (A) (A) (A) (A) (A) (A)
                 (A) (A) (A) (A) (A) (A) (A) (A) (A) (A) (A) (A)
                 (A) (A) (A) (A) (A) (A) (A) (A) (A) (A) (A) (A)
                 (A) (A) (A) (A) (A) (A) (A) (A) (A) (A) (A) (A)
                 (A) (A) (A) (A) (A) (A) (A) (A) (A) (A) (A) (A)
                 (A) (A) (A) (A) (A) (A) (A) (A) (A) (A) (A) (A)
                 (A) (A) (A) (A) (A) (A) (A) (A) (A) (A) (A) (A)
                 (A) (A) (A) (A) (A) (A) (A) (A) (A) (A) (A) (A)
                 (A) (A) (A) (A) (A) (A) (A) (A) (A) (A) (A) (A)
                 (A) (A) (A) (A) (A) (A) (A) (A) (A) (A) (A) (A)
                 (A) (A) (A) (A) (A) (A) (A) (A) (A) (A) (A) (A)
                 (A) (A) (A) (A) (A) (A) (A) (A) (A) (A) (A) (A)
                 (A) (A) (A) (A) (A) (A) (A) (A) (A) (A) (A) (A)
                 (A) (A) (A) (A) (A) (A) (A) (A) (A) (A) (A) (A)
                 (A) (A) (A) (A) (A) (A) (A) (A) (A) (A) (A) (A)
                 (A) (A) (A) (A) (A) (A) (A) (A) (A) (A) (A) (A)
                 (A) (A) (A) (A) (A) (A) (A) (A) (A) (A) (A) (A)
                 (A) (A) (A) (A) (A) (A) (A) (A) (A) (A) (A) (A)
                 (A) (A) (A) (A) (A) (A) (A) (A) (A) (A) (A) (A)
                 (A) (A) (A) (A) (A) (A) (A) (A) (A) (A) (A) (A)
                 (A) (A) (A) (A) (A) (A) (A) (A) (A) (A) (A) (A)
                 (A) (A) (A) (A) (A) (A) (A) (A) (A) (A) (A) (A)
                 (A) (A) (A) (A) (A) (A) (A) (A) (A) (A) (A) (A)
                 (A) (A) (A) (A) (A) (A) (A) (A) (A) (A) (A) (A)
                 (A) (A) (A) (A) (A) (A) (A) (A) (A) (A) (A) (A)
                 (A) (A) (A) (A) (A) (A) (A) (A) (A) (A) (A) (A)
                 (A) (A) (A) (A) (A) (A) (A) (A) (A) (A) (A) (A)
                 (A) (A) (A) (A) (A) (A) (A) (A) (A) (A) (A) (A)
                 (A) (A) (A) (A) (A) (A) (A) (A) (A) (A) (A) (A)
                 (A) (A) (A) (A) (A) (A) (A) (A) (A) (A) (A) (A)
                 (A) (A) (A) (A) (A) (A) (A) (A) (A) (A) (A) (A)
                 (A) (A) (A) (A) (A) (A) (A) (A) (A) (A) (A) (A)
                 (A) (A) (A) (A) (A) (A) (A) (A) (A) (A) (A) (A)
                 (A) (A) (A) (A) (A) (A) (A) (A) (A) (A) (A) (A)
                 (A) (A) (A) (A) (A) (A) (A) (A) (A) (A) (A) (A)
                 (A) (A) (A) (A) (A) (A) (A) (A) (A) (A) (A) (A)
                 (A) (A) (A) (A) (A) (A) (A) (A) (A) (A) (A) (A)
                 (A) (A) (A) (A) (A) (A) (A) (A) (A) (A) (A) (A)
                 (A) (A) (A) (A) (A) (A) (A) (A) (A) (A) (A) (A)
                 (A) (A) (A) (A) (A) (A) (A) (A) (A) (A) (A) (A)
                 (A) (A) (A) (A) (A) (A) (A) (A)
    20 initial guesses have been made.
 Convergence on wavefunction:    0.001000000000000
 Davidson Disk Diagonalization:  ConvIn= 1.00D-03 SkipCon=T Conv= 1.00D-03.
 Max sub-space:  2000 roots to seek:    20 dimension of matrix:       370304
 Iteration     1 Dimension    20 NMult     0 NNew     20
 CISAX will form    20 AO SS matrices at one time.
 NMat=    20 NSing=    20 JSym2X= 0.
 FoFJK:  IHMeth= 1 ICntrl=     500 DoSepK=F KAlg= 0 I1Cent=           0 FoldK=F
 IRaf= 500000000 NMat=      20 IRICut=       1 DoRegI=T DoRafI=F ISym2E= 0 IDoP0=0 IntGTp=1.
 FoFCou: FMM=T IPFlag=           0 FMFlag=      100000 FMFlg1=        2001
         NFxFlg=           0 DoJE=F BraDBF=F KetDBF=F FulRan=T
         wScrn=  0.000000 ICntrl=       500 IOpCl=  0 I1Cent=           0 NGrid=           0
         NMat0=   20 NMatS0=     20 NMatT0=    0 NMatD0=   20 NMtDS0=    0 NMtDT0=    0
 Symmetry not used in FoFCou.
 FMM levels:  10  Number of levels for PrismC:   9
 New state      1 was old state      3
 New state      2 was old state      4
 New state      3 was old state      5
 New state      4 was old state      1
 New state      5 was old state      2
 Excitation Energies [eV] at current iteration:
 Root      1 :     1.860419675391660
 Root      2 :     2.015706961082242
 Root      3 :     2.090667930197644
 Root      4 :     2.166114563920802
 Root      5 :     2.381168455091483
 Root      6 :     2.736253935784864
 Root      7 :     2.835719621792442
 Root      8 :     2.888578735016448
 Root      9 :     2.976721455305536
 Root     10 :     2.997523697031707
 Root     11 :     3.034841070700357
 Root     12 :     3.132346012450070
 Root     13 :     3.185148356992642
 Root     14 :     3.224052717062394
 Root     15 :     3.319134205197383
 Root     16 :     3.381427409950104
 Root     17 :     3.704127696885215
 Root     18 :     3.987343871462351
 Root     19 :     4.118324165849626
 Root     20 :     4.391753636526068
 Iteration     2 Dimension    40 NMult    20 NNew     20
 CISAX will form    20 AO SS matrices at one time.
 NMat=    20 NSing=    20 JSym2X= 0.
 Root      1 not converged, maximum delta is    0.063031705322649
 New state      2 was old state      4
 Root      2 not converged, maximum delta is    0.072781760609637
 New state      3 was old state      2
 Root      3 not converged, maximum delta is    0.044053052320001
 New state      4 was old state      3
 Root      4 not converged, maximum delta is    0.083919211827209
 Root      5 not converged, maximum delta is    0.102561983241456
 Excitation Energies [eV] at current iteration:
 Root      1 :     1.851107458015731   Change is   -0.009312217375928
 Root      2 :     1.906131648362033   Change is   -0.259982915558769
 Root      3 :     2.015950142878632   Change is    0.000243181796390
 Root      4 :     2.085054721698188   Change is   -0.005613208499456
 Root      5 :     2.154519268810463   Change is   -0.226649186281020
 Root      6 :     2.626435374362772   Change is   -0.262143360653676
 Root      7 :     2.681850971699892   Change is   -0.054402964084973
 Root      8 :     2.730656865331168   Change is   -0.266866831700539
 Root      9 :     2.831633745761694   Change is   -0.004085876030748
 Root     10 :     2.922854794725330   Change is   -0.396279410472053
 Root     11 :     2.976754160797695   Change is    0.000032705492159
 Root     12 :     3.027033899498970   Change is   -0.007807171201387
 Root     13 :     3.084581085743272   Change is   -0.100567271249370
 Root     14 :     3.121480554217801   Change is   -0.010865458232269
 Root     15 :     3.224111410297623   Change is    0.000058693235229
 Root     16 :     3.286290496687986   Change is   -0.095136913262119
 Root     17 :     3.363979043627082   Change is   -0.340148653258133
 Root     18 :     3.582846291101647   Change is   -0.404497580360704
 Root     19 :     3.731413358897562   Change is   -0.386910806952064
 Root     20 :     3.785071237384351   Change is   -0.606682399141717
 Iteration     3 Dimension    45 NMult    40 NNew      5
 CISAX will form     5 AO SS matrices at one time.
 NMat=     5 NSing=     5 JSym2X= 0.
 Root      1 not converged, maximum delta is    0.307212837471971
 Root      2 not converged, maximum delta is    0.307475419395378
 Root      3 not converged, maximum delta is    0.007824921953929
 Root      4 not converged, maximum delta is    0.100165145821439
 Root      5 not converged, maximum delta is    0.115612582365751
 Excitation Energies [eV] at current iteration:
 Root      1 :     1.846014748219053   Change is   -0.005092709796679
 Root      2 :     1.857377028290423   Change is   -0.048754620071610
 Root      3 :     2.015886555825905   Change is   -0.000063587052727
 Root      4 :     2.081335384161418   Change is   -0.003719337536769
 Root      5 :     2.120700217030409   Change is   -0.033819051780054
 Iteration     4 Dimension    50 NMult    45 NNew      5
 CISAX will form     5 AO SS matrices at one time.
 NMat=     5 NSing=     5 JSym2X= 0.
 Root      1 not converged, maximum delta is    0.330190310069631
 Root      2 not converged, maximum delta is    0.322719711626970
 Root      3 not converged, maximum delta is    0.002007987257305
 Root      4 not converged, maximum delta is    0.087109129684955
 Root      5 not converged, maximum delta is    0.099475126315678
 Excitation Energies [eV] at current iteration:
 Root      1 :     1.834672202827352   Change is   -0.011342545391701
 Root      2 :     1.850417371500403   Change is   -0.006959656790020
 Root      3 :     2.015869869280952   Change is   -0.000016686544953
 Root      4 :     2.078154516128455   Change is   -0.003180868032963
 Root      5 :     2.108085480125238   Change is   -0.012614736905171
 Iteration     5 Dimension    55 NMult    50 NNew      5
 CISAX will form     5 AO SS matrices at one time.
 NMat=     5 NSing=     5 JSym2X= 0.
 Root      1 not converged, maximum delta is    0.058883255470881
 Root      2 not converged, maximum delta is    0.058231752744917
 Root      3 has converged.
 Root      4 not converged, maximum delta is    0.038522891810457
 Root      5 not converged, maximum delta is    0.044060851474221
 Excitation Energies [eV] at current iteration:
 Root      1 :     1.829437850100017   Change is   -0.005234352727335
 Root      2 :     1.849373359882864   Change is   -0.001044011617539
 Root      3 :     2.015863588138687   Change is   -0.000006281142265
 Root      4 :     2.076480019311331   Change is   -0.001674496817124
 Root      5 :     2.104208919192598   Change is   -0.003876560932640
 Iteration     6 Dimension    59 NMult    55 NNew      4
 CISAX will form     4 AO SS matrices at one time.
 NMat=     4 NSing=     4 JSym2X= 0.
 Root      1 not converged, maximum delta is    0.021409766052442
 Root      2 not converged, maximum delta is    0.021375149294384
 Root      3 has converged.
 Root      4 not converged, maximum delta is    0.016061360097239
 Root      5 not converged, maximum delta is    0.018636266125940
 Excitation Energies [eV] at current iteration:
 Root      1 :     1.826903287643588   Change is   -0.002534562456428
 Root      2 :     1.848862863671992   Change is   -0.000510496210872
 Root      3 :     2.015861218554666   Change is   -0.000002369584022
 Root      4 :     2.075668516361490   Change is   -0.000811502949841
 Root      5 :     2.102705058134277   Change is   -0.001503861058321
 Iteration     7 Dimension    63 NMult    59 NNew      4
 CISAX will form     4 AO SS matrices at one time.
 NMat=     4 NSing=     4 JSym2X= 0.
 Root      1 not converged, maximum delta is    0.008388641788902
 Root      2 not converged, maximum delta is    0.008437136942972
 Root      3 has converged.
 Root      4 not converged, maximum delta is    0.006435694466716
 Root      5 not converged, maximum delta is    0.007576412401046
 Excitation Energies [eV] at current iteration:
 Root      1 :     1.825811443224663   Change is   -0.001091844418925
 Root      2 :     1.848634173698842   Change is   -0.000228689973150
 Root      3 :     2.015860597579004   Change is   -0.000000620975662
 Root      4 :     2.075320635015599   Change is   -0.000347881345891
 Root      5 :     2.102115914045595   Change is   -0.000589144088682
 Iteration     8 Dimension    67 NMult    63 NNew      4
 CISAX will form     4 AO SS matrices at one time.
 NMat=     4 NSing=     4 JSym2X= 0.
 Root      1 not converged, maximum delta is    0.003402060296507
 Root      2 not converged, maximum delta is    0.003441088325812
 Root      3 has converged.
 Root      4 not converged, maximum delta is    0.002656881325458
 Root      5 not converged, maximum delta is    0.003215088616791
 Excitation Energies [eV] at current iteration:
 Root      1 :     1.825348982048454   Change is   -0.000462461176209
 Root      2 :     1.848542151239322   Change is   -0.000092022459521
 Root      3 :     2.015860410234726   Change is   -0.000000187344278
 Root      4 :     2.075177277108140   Change is   -0.000143357907460
 Root      5 :     2.101879457149181   Change is   -0.000236456896414
 Iteration     9 Dimension    71 NMult    67 NNew      4
 CISAX will form     4 AO SS matrices at one time.
 NMat=     4 NSing=     4 JSym2X= 0.
 Root      1 not converged, maximum delta is    0.001422619526095
 Root      2 not converged, maximum delta is    0.001448133288801
 Root      3 has converged.
 Root      4 not converged, maximum delta is    0.001131818420695
 Root      5 not converged, maximum delta is    0.001372857773879
 Excitation Energies [eV] at current iteration:
 Root      1 :     1.825155025529649   Change is   -0.000193956518805
 Root      2 :     1.848505378026375   Change is   -0.000036773212947
 Root      3 :     2.015860311765485   Change is   -0.000000098469241
 Root      4 :     2.075117125475429   Change is   -0.000060151632710
 Root      5 :     2.101779814386583   Change is   -0.000099642762599
 Iteration    10 Dimension    75 NMult    71 NNew      4
 CISAX will form     4 AO SS matrices at one time.
 NMat=     4 NSing=     4 JSym2X= 0.
 Root      1 has converged.
 Root      2 has converged.
 Root      3 has converged.
 Root      4 has converged.
 Root      5 has converged.
 Excitation Energies [eV] at current iteration:
 Root      1 :     1.825072229331562   Change is   -0.000082796198087
 Root      2 :     1.848490261206271   Change is   -0.000015116820105
 Root      3 :     2.015860271595317   Change is   -0.000000040170167
[...]
 Alpha virt. eigenvalues --    1.05442   1.06219   1.06582   1.07101   1.07396
 Alpha virt. eigenvalues --    1.07865   1.08377   1.08799   1.09169   1.09615
 Alpha virt. eigenvalues --    1.10151   1.10986   1.11372   1.11934   1.12540
 Alpha virt. eigenvalues --    1.12671   1.13315   1.13650   1.13799   1.14635
 Alpha virt. eigenvalues --    1.14763   1.15608   1.15909   1.16847   1.16994
 Alpha virt. eigenvalues --    1.17245   1.17705   1.18539   1.18731   1.18989
 Alpha virt. eigenvalues --    1.19412   1.19787   1.20542   1.21484   1.21691
 Alpha virt. eigenvalues --    1.21815   1.22689   1.23235   1.23632   1.24198
 Alpha virt. eigenvalues --    1.24389   1.25063   1.25101   1.25596   1.25875
 Alpha virt. eigenvalues --    1.26113   1.26905   1.27323   1.27548   1.27855
 Alpha virt. eigenvalues --    1.28197   1.28240   1.29098   1.29775   1.29790
 Alpha virt. eigenvalues --    1.30224   1.30600   1.31069   1.31292   1.31761
 Alpha virt. eigenvalues --    1.31934   1.32794   1.32826   1.33275   1.33614
 Alpha virt. eigenvalues --    1.33888   1.34086   1.34325   1.35087   1.35456
 Alpha virt. eigenvalues --    1.36124   1.36188   1.37511   1.37892   1.38104
 Alpha virt. eigenvalues --    1.38670   1.39094   1.39446   1.40258   1.40405
 Alpha virt. eigenvalues --    1.40738   1.41715   1.42122   1.42343   1.42637
 Alpha virt. eigenvalues --    1.43219   1.44091   1.44392   1.44956   1.45597
 Alpha virt. eigenvalues --    1.45771   1.46248   1.46267   1.46417   1.46528
 Alpha virt. eigenvalues --    1.46659   1.46833   1.46954   1.47276   1.47295
 Alpha virt. eigenvalues --    1.47405   1.48062   1.48152   1.48322   1.48582
 Alpha virt. eigenvalues --    1.48764   1.49115   1.49232   1.49409   1.49676
 Alpha virt. eigenvalues --    1.49698   1.49929   1.50281   1.50472   1.50976
 Alpha virt. eigenvalues --    1.51137   1.51422   1.51621   1.51798   1.52099
 Alpha virt. eigenvalues --    1.52274   1.52713   1.53084   1.53281   1.53545
 Alpha virt. eigenvalues --    1.54047   1.54320   1.54543   1.54694   1.55362
 Alpha virt. eigenvalues --    1.55604   1.56857   1.57422   1.57529   1.57968
 Alpha virt. eigenvalues --    1.58669   1.58934   1.59590   1.60080   1.60606
 Alpha virt. eigenvalues --    1.60783   1.61543   1.61630   1.62236   1.62412
 Alpha virt. eigenvalues --    1.63166   1.63204   1.63345   1.63656   1.64324
 Alpha virt. eigenvalues --    1.64400   1.64974   1.65035   1.65609   1.65806
 Alpha virt. eigenvalues --    1.66045   1.66487   1.66517   1.66925   1.67149
 Alpha virt. eigenvalues --    1.67309   1.67538   1.67580   1.67892   1.68105
 Alpha virt. eigenvalues --    1.68508   1.68607   1.68826   1.69000   1.69148
 Alpha virt. eigenvalues --    1.69362   1.69732   1.70002   1.70255   1.70430
 Alpha virt. eigenvalues --    1.70513   1.70562   1.70671   1.71013   1.71343
 Alpha virt. eigenvalues --    1.71535   1.71798   1.71926   1.72052   1.72553
 Alpha virt. eigenvalues --    1.72731   1.72777   1.72859   1.72996   1.73103
 Alpha virt. eigenvalues --    1.73224   1.73380   1.73568   1.73806   1.73985
 Alpha virt. eigenvalues --    1.74142   1.74157   1.74751   1.75014   1.75084
 Alpha virt. eigenvalues --    1.75310   1.75357   1.75410   1.75821   1.75956
 Alpha virt. eigenvalues --    1.76114   1.76341   1.76404   1.76641   1.76978
 Alpha virt. eigenvalues --    1.77133   1.77538   1.77748   1.77819   1.77957
 Alpha virt. eigenvalues --    1.78398   1.78580   1.78755   1.78797   1.79116
 Alpha virt. eigenvalues --    1.79589   1.79631   1.79719   1.80077   1.80124
 Alpha virt. eigenvalues --    1.80462   1.80665   1.80783   1.81039   1.81295
 Alpha virt. eigenvalues --    1.81370   1.81661   1.81788   1.82187   1.82316
 Alpha virt. eigenvalues --    1.82529   1.83180   1.83751   1.83963   1.84120
 Alpha virt. eigenvalues --    1.84522   1.84866   1.85243   1.85364   1.85693
 Alpha virt. eigenvalues --    1.86153   1.86178   1.86406   1.86867   1.86996
 Alpha virt. eigenvalues --    1.87154   1.87270   1.87635   1.87705   1.87858
 Alpha virt. eigenvalues --    1.88354   1.88704   1.88967   1.89197   1.89581
 Alpha virt. eigenvalues --    1.90165   1.90278   1.90614   1.90865   1.91276
 Alpha virt. eigenvalues --    1.91452   1.91764   1.91827   1.92424   1.92544
 Alpha virt. eigenvalues --    1.93025   1.93125   1.93503   1.93803   1.94211
 Alpha virt. eigenvalues --    1.94452   1.94482   1.94806   1.95086   1.95455
 Alpha virt. eigenvalues --    1.95530   1.95769   1.96034   1.96552   1.97021
 Alpha virt. eigenvalues --    1.97174   1.97580   1.98023   1.98484   1.98866
 Alpha virt. eigenvalues --    1.99076   1.99193   1.99464   1.99769   1.99968
 Alpha virt. eigenvalues --    2.00065   2.00265   2.00899   2.01223   2.01393
 Alpha virt. eigenvalues --    2.01697   2.02297   2.02377   2.02510   2.02731
 Alpha virt. eigenvalues --    2.02867   2.03448   2.03598   2.03765   2.03937
 Alpha virt. eigenvalues --    2.04072   2.04595   2.04709   2.05008   2.05134
 Alpha virt. eigenvalues --    2.05325   2.05918   2.05964   2.06739   2.07119
 Alpha virt. eigenvalues --    2.07538   2.08019   2.08130   2.08595   2.08968
 Alpha virt. eigenvalues --    2.09021   2.09309   2.09442   2.10352   2.10376
 Alpha virt. eigenvalues --    2.10998   2.11072   2.11844   2.12247   2.12881
 Alpha virt. eigenvalues --    2.13015   2.13085   2.13835   2.14138   2.15186
 Alpha virt. eigenvalues --    2.15562   2.15996   2.16208   2.16258   2.16726
 Alpha virt. eigenvalues --    2.18005   2.18237   2.19026   2.19534   2.20176
 Alpha virt. eigenvalues --    2.20626   2.21077   2.21344   2.21502   2.22034
 Alpha virt. eigenvalues --    2.22388   2.22715   2.22886   2.22935   2.23139
 Alpha virt. eigenvalues --    2.23507   2.23864   2.24269   2.24359   2.24670
 Alpha virt. eigenvalues --    2.24842   2.25280   2.25379   2.25697   2.25931
 Alpha virt. eigenvalues --    2.26423   2.26762   2.27240   2.27384   2.27816
 Alpha virt. eigenvalues --    2.27907   2.28271   2.28550   2.29066   2.29374
 Alpha virt. eigenvalues --    2.29668   2.29752   2.30284   2.31026   2.31130
 Alpha virt. eigenvalues --    2.31606   2.31892   2.32387   2.33045   2.33127
 Alpha virt. eigenvalues --    2.33494   2.33959   2.34586   2.35161   2.35395
 Alpha virt. eigenvalues --    2.36146   2.36200   2.36351   2.36645   2.37094
 Alpha virt. eigenvalues --    2.37242   2.37632   2.38144   2.38767   2.39498
 Alpha virt. eigenvalues --    2.39779   2.40006   2.40228   2.40375   2.40813
 Alpha virt. eigenvalues --    2.41275   2.41742   2.42117   2.42703   2.43300
 Alpha virt. eigenvalues --    2.43644   2.44441   2.44727   2.44975   2.45646
 Alpha virt. eigenvalues --    2.45730   2.46691   2.46759   2.47043   2.47334
 Alpha virt. eigenvalues --    2.47881   2.48288   2.48370   2.48955   2.49253
 Alpha virt. eigenvalues --    2.49790   2.50473   2.50570   2.50848   2.51485
 Alpha virt. eigenvalues --    2.52362   2.52448   2.52833   2.52940   2.53413
 Alpha virt. eigenvalues --    2.53685   2.54116   2.54386   2.54855   2.55236
 Alpha virt. eigenvalues --    2.55625   2.55961   2.56924   2.56973   2.57544
 Alpha virt. eigenvalues --    2.57862   2.58086   2.58531   2.59068   2.59378
 Alpha virt. eigenvalues --    2.59795   2.59901   2.60086   2.60478   2.61068
 Alpha virt. eigenvalues --    2.61273   2.62132   2.62530   2.62777   2.62968
 Alpha virt. eigenvalues --    2.63592   2.63853   2.64060   2.64417   2.64907
 Alpha virt. eigenvalues --    2.65000   2.65074   2.66349   2.67111   2.67393
 Alpha virt. eigenvalues --    2.67872   2.68390   2.68689   2.69324   2.69512
 Alpha virt. eigenvalues --    2.69972   2.70801   2.71384   2.72089   2.72562
 Alpha virt. eigenvalues --    2.72730   2.73084   2.73622   2.73758   2.74010
 Alpha virt. eigenvalues --    2.74486   2.74804   2.76148   2.76655   2.76840
 Alpha virt. eigenvalues --    2.77712   2.77911   2.78140   2.78754   2.79045
 Alpha virt. eigenvalues --    2.79976   2.80177   2.80666   2.80848   2.80909
 Alpha virt. eigenvalues --    2.81314   2.81819   2.82312   2.82514   2.82731
 Alpha virt. eigenvalues --    2.83138   2.83269   2.83536   2.83845   2.83994
 Alpha virt. eigenvalues --    2.84476   2.84813   2.85272   2.85318   2.85404
 Alpha virt. eigenvalues --    2.85788   2.86315   2.86728   2.86787   2.87304
 Alpha virt. eigenvalues --    2.87614   2.87782   2.87868   2.88367   2.88771
 Alpha virt. eigenvalues --    2.88854   2.89288   2.89401   2.89432   2.89764
 Alpha virt. eigenvalues --    2.90257   2.90575   2.90806   2.90972   2.91056
 Alpha virt. eigenvalues --    2.91477   2.91636   2.91892   2.91938   2.92639
 Alpha virt. eigenvalues --    2.93165   2.93431   2.93702   2.94284   2.94552
 Alpha virt. eigenvalues --    2.94807   2.95211   2.95429   2.95950   2.96608
 Alpha virt. eigenvalues --    2.97205   2.97215   2.98174   2.99011   2.99648
 Alpha virt. eigenvalues --    3.00241   3.00712   3.01647   3.01977   3.02214
 Alpha virt. eigenvalues --    3.02463   3.03076   3.04128   3.04420   3.05506
 Alpha virt. eigenvalues --    3.05886   3.06166   3.06359   3.07256   3.08548
 Alpha virt. eigenvalues --    3.09339   3.10129   3.10364   3.12076   3.14122
 Alpha virt. eigenvalues --    3.15258   3.18660   3.26225   3.27648   3.29844
 Alpha virt. eigenvalues --    3.31600   3.35164   3.37094   3.41309   3.41809
 Alpha virt. eigenvalues --    3.48958   3.50318   3.50654   3.52319   3.52617
 Alpha virt. eigenvalues --    3.54369   3.62874
          Condensed to atoms (all electrons):
 Mulliken charges:
               1
     1  Mg   0.701698
     2  C   -0.044325
     3  C   -0.066038
     4  C    0.005739
     5  C   -0.045055
     6  N   -0.236088
     7  C   -0.097612
     8  C    0.020968
     9  C   -0.013888
    10  C    0.042170
    11  C    0.119566
    12  C    0.126398
    13  C    0.164669
    14  C    0.086300
    15  O   -0.200103
    16  O   -0.287766
    17  N   -0.289475
    18  C    0.147680
    19  C   -0.161020
    20  C    0.034532
    21  C    0.149074
    22  C    0.194575
    23  C   -0.071160
    24  O   -0.152668
    25  C    0.115740
    26  N   -0.175063
    27  C   -0.094431
    28  C   -0.001184
    29  C    0.029488
    30  C   -0.008951
    31  C    0.151164
    32  C    0.083460
    33  C    0.075235
    34  N   -0.223125
    35  C    0.060480
    36  C   -0.187653
    37  C    0.091272
    38  C    0.148132
    39  C    0.180897
    40  C   -0.108290
    41  O   -0.096468
    42  C    0.104387
    43  C    0.120445
    44  O   -0.188014
    45  O   -0.270273
    46  C    0.230901
    47  C    0.323581
    48  C   -0.104552
    49  C   -0.228824
    50  C    0.155374
    51  C    0.141386
    52  C    0.091823
    53  C    0.100827
    54  C   -0.087887
    55  C    0.060428
    56  C    0.118909
    57  C    0.104253
    58  C    0.064265
    59  C   -0.107680
    60  C    0.138811
    61  C    0.087942
    62  C    0.063462
    63  C    0.132750
    64  C   -0.092605
    65  C    0.100381
    66  C    0.103711
    67  H   -0.062198
    68  H   -0.082282
    69  H   -0.049081
    70  H   -0.016898
    71  H   -0.032534
    72  H   -0.008633
    73  H   -0.008029
    74  H   -0.005232
    75  H   -0.020991
    76  H    0.000878
    77  H   -0.013344
    78  H   -0.009689
    79  H   -0.028458
    80  H    0.016632
    81  H    0.000490
    82  H    0.024657
    83  H    0.012658
    84  H   -0.010428
    85  H   -0.044123
    86  H   -0.040070
    87  H   -0.004693
    88  H    0.004146
    89  H   -0.008726
    90  H   -0.023907
    91  H   -0.024893
    92  H    0.004435
    93  H   -0.000367
    94  H   -0.009232
    95  H    0.001738
    96  H    0.004041
    97  H   -0.003489
    98  H    0.005153
    99  H    0.011357
   100  H    0.009094
   101  H    0.005951
   102  H    0.011546
   103  H    0.007728
   104  H   -0.041344
   105  H    0.003449
   106  H    0.011110
   107  H   -0.004712
   108  H   -0.036730
   109  H   -0.023701
   110  H   -0.028893
   111  H   -0.022277
   112  H   -0.031874
   113  H   -0.038538
   114  H   -0.036247
   115  H   -0.000405
   116  H   -0.016646
   117  H   -0.014811
   118  H   -0.041275
   119  H   -0.027919
   120  H   -0.035600
   121  H   -0.030154
   122  H   -0.028604
   123  H   -0.028315
   124  H   -0.034564
   125  H   -0.014746
   126  H   -0.014580
   127  H   -0.022825
   128  H   -0.050037
   129  H   -0.052674
   130  H   -0.039996
   131  H   -0.024239
   132  H   -0.025463
   133  H   -0.042353
   134  H   -0.037005
   135  H   -0.028897
   136  H   -0.029972
   137  H   -0.009968
   138  H   -0.005541
   139  H   -0.014431
   140  H   -0.025103
 Sum of Mulliken charges =  -0.00000
 Mulliken charges with hydrogens summed into heavy atoms:
               1
     1  Mg   0.701698
     2  C   -0.044325
     3  C   -0.128236
     4  C   -0.076543
     5  C   -0.094135
     6  N   -0.236088
     7  C   -0.097612
     8  C    0.004070
     9  C   -0.046422
    10  C    0.042170
    11  C    0.097673
    12  C    0.106286
    13  C    0.141635
    14  C    0.086300
    15  O   -0.200103
    16  O   -0.287766
    17  N   -0.289475
    18  C    0.147680
    19  C   -0.161020
    20  C    0.034532
    21  C    0.149074
    22  C    0.183239
    23  C   -0.071160
    24  O   -0.152668
    25  C    0.142628
    26  N   -0.175063
    27  C   -0.094431
    28  C   -0.045307
    29  C   -0.010582
    30  C   -0.008951
    31  C    0.141892
    32  C    0.034659
    33  C    0.070070
    34  N   -0.223125
    35  C    0.060480
    36  C   -0.187653
    37  C    0.091272
    38  C    0.148132
    39  C    0.183187
    40  C   -0.108290
    41  O   -0.096468
    42  C    0.109540
    43  C    0.120445
    44  O   -0.188014
    45  O   -0.270273
    46  C    0.257304
    47  C    0.342855
    48  C   -0.145896
    49  C   -0.228824
    50  C    0.165221
    51  C    0.080955
    52  C    0.040653
    53  C    0.030415
    54  C   -0.124134
    55  C    0.028566
    56  C    0.049715
    57  C    0.038499
    58  C    0.007345
    59  C   -0.142243
    60  C    0.086661
    61  C   -0.014769
    62  C   -0.000774
    63  C    0.064933
    64  C   -0.129610
    65  C    0.031544
    66  C    0.058635
 Electronic spatial extent (au):  <R**2>=         120466.6879
 Charge=             -0.0000 electrons
 Dipole moment (field-independent basis, Debye):
    X=             -1.2244    Y=              2.4224    Z=             -0.5635  Tot=              2.7721
 Quadrupole moment (field-independent basis, Debye-Ang):
   XX=           -399.8411   YY=           -415.6415   ZZ=           -408.6273
   XY=             12.9588   XZ=              2.7878   YZ=             52.9241
 Traceless Quadrupole moment (field-independent basis, Debye-Ang):
   XX=              8.1955   YY=             -7.6048   ZZ=             -0.5907
   XY=             12.9588   XZ=              2.7878   YZ=             52.9241
 Octapole moment (field-independent basis, Debye-Ang**2):
  XXX=             81.5213  YYY=           -113.8173  ZZZ=             50.6797  XYY=             -2.2137
  XXY=             30.3180  XXZ=            -17.2366  XZZ=             22.0075  YZZ=            -85.2979
  YYZ=             54.4730  XYZ=            254.1980
 Hexadecapole moment (field-independent basis, Debye-Ang**3):
 XXXX=        -125608.1631 YYYY=         -28401.0984 ZZZZ=         -13852.6374 XXXY=            847.6972
 XXXZ=            719.4435 YYYX=           -566.3871 YYYZ=           1351.8594 ZZZX=            491.4474
 ZZZY=            801.2312 XXYY=         -25532.3800 XXZZ=         -23567.1998 YYZZ=          -7944.5164
 XXYZ=           1154.7453 YYXZ=            406.0503 ZZXY=           -341.8306
 N-N= 9.500843926344D+03 E-N=-2.599715655481D+04  KE= 2.977663918951D+03
 Leave Link  601 at Sat Apr 30 17:44:48 2022, MaxMem= 10066329600 cpu:              15.6 elap:               0.7
 (Enter /sw/apps/gaussian-16.0/g16/l9999.exe)
 1\1\GINC-BP1-COMPUTE102\SP\RBLYP TD-FC\def2SVP\C55H74Mg1N4O6\OF15641\3
 0-Apr-2022\0\\#p blyp/Def2SVP td=(nstates=5)\\step_801_chromophore_8 T
 DDFT with blyp functional\\0,1\Mg,0,46.131,2.988,47.469\C,0,43.615,5.3
 6,46.742\C,0,43.718,0.559,47.278\C,0,48.596,0.751,47.185\C,0,48.507,5.
 549,46.982\N,0,43.976,2.973,46.885\C,0,43.083,4.078,46.79\C,0,41.59,3.
 632,46.726\C,0,41.739,2.132,47.182\C,0,43.27,1.817,47.038\C,0,40.921,1
 .791,48.464\C,0,41.186,3.745,45.198\C,0,39.889,4.403,44.794\C,0,39.978
 ,5.596,43.872\O,0,40.182,6.779,44.215\O,0,39.993,5.122,42.542\N,0,46.1
 45,0.898,47.319\C,0,45.092,0.112,47.266\C,0,45.56,-1.313,47.184\C,0,46
 .979,-1.311,47.018\C,0,47.351,0.13,47.167\C,0,44.647,-2.479,47.361\C,0
 ,47.882,-2.535,46.772\O,0,47.458,-3.685,46.73\C,0,49.39,-2.248,46.618\
 N,0,48.349,3.122,47.38\C,0,49.055,2.039,47.181\C,0,50.562,2.432,47.168
 \C,0,50.48,3.92,46.721\C,0,49.02,4.247,47.04\C,0,51.444,2.225,48.411\C
 ,0,50.913,4.258,45.246\C,0,52.381,3.923,44.799\N,0,46.076,5.027,47.034
 \C,0,47.09,5.94,46.883\C,0,46.53,7.268,46.602\C,0,45.147,7.056,46.614\
 C,0,44.936,5.671,46.82\C,0,47.287,8.5,46.372\C,0,43.882,7.732,46.534\O
 ,0,43.598,8.887,46.411\C,0,42.803,6.669,46.685\C,0,41.948,7.098,47.841
 \O,0,42.302,7.315,49.004\O,0,40.699,7.427,47.301\C,0,39.747,7.916,48.2
 78\C,0,40.357,6.186,41.648\C,0,40.286,5.813,40.204\C,0,40.91,6.401,39.
 13\C,0,41.681,7.744,39.239\C,0,40.827,5.692,37.723\C,0,41.968,4.668,37
 .587\C,0,43.154,4.977,36.581\C,0,43.149,4.001,35.346\C,0,43.637,2.475,
 35.843\C,0,43.936,4.61,34.272\C,0,44.037,3.648,33.031\C,0,42.825,3.721
 ,32.042\C,0,43.349,4.379,30.699\C,0,43.703,5.809,30.823\C,0,42.172,4.2
 74,29.603\C,0,42.512,3.536,28.258\C,0,42.819,4.486,27.126\C,0,44.193,4
 .179,26.422\C,0,44.063,3.642,24.967\C,0,45.17,5.354,26.502\H,0,42.875,
 -0.134,47.316\H,0,49.518,0.168,47.225\H,0,49.233,6.271,46.603\H,0,40.8
 19,4.162,47.286\H,0,41.257,1.401,46.533\H,0,40.437,2.683,48.862\H,0,41
 .661,1.44,49.183\H,0,40.143,1.045,48.303\H,0,41.03,2.741,44.803\H,0,42
 .078,4.114,44.691\H,0,39.42,4.889,45.65\H,0,39.148,3.703,44.409\H,0,43
 .646,-2.16,47.651\H,0,45.001,-3.266,48.026\H,0,44.495,-2.896,46.365\H,
 0,49.816,-1.929,47.569\H,0,49.512,-1.464,45.871\H,0,49.883,-3.171,46.3
 13\H,0,51.068,2.005,46.302\H,0,51.054,4.428,47.496\H,0,50.867,2.018,49
 .313\H,0,52.179,3.013,48.573\H,0,51.933,1.283,48.164\H,0,50.637,5.305,
 45.119\H,0,50.303,3.747,44.501\H,0,52.891,4.854,44.553\H,0,52.311,3.20
 5,43.982\H,0,52.93,3.415,45.592\H,0,48.07,8.601,47.124\H,0,46.652,9.38
 5,46.336\H,0,47.742,8.448,45.382\H,0,42.203,6.717,45.776\H,0,39.617,7.
 299,49.167\H,0,38.811,8.166,47.778\H,0,40.151,8.89,48.555\H,0,41.381,6
 .494,41.859\H,0,39.592,6.961,41.687\H,0,39.842,4.836,40.01\H,0,41.925,
 7.968,40.277\H,0,41.008,8.46,38.768\H,0,42.542,7.586,38.589\H,0,40.883
 ,6.497,36.99\H,0,39.859,5.204,37.606\H,0,41.52,3.741,37.231\H,0,42.393
 ,4.485,38.575\H,0,44.114,4.878,37.086\H,0,43.112,6.009,36.232\H,0,42.1
 65,3.777,34.935\H,0,44.61,2.185,35.448\H,0,42.866,1.777,35.518\H,0,43.
 644,2.328,36.924\H,0,44.945,4.862,34.598\H,0,43.431,5.522,33.954\H,0,4
 4.028,2.598,33.32\H,0,45.013,3.865,32.598\H,0,41.981,4.383,32.234\H,0,
 42.349,2.752,31.896\H,0,44.266,3.849,30.443\H,0,43.243,6.214,31.725\H,
 0,43.385,6.382,29.952\H,0,44.792,5.852,30.803\H,0,41.771,5.266,29.395\
 H,0,41.275,3.806,30.008\H,0,41.633,2.981,27.93\H,0,43.309,2.829,28.487
 \H,0,42.657,5.513,27.453\H,0,42.039,4.181,26.429\H,0,44.696,3.41,27.00
 8\H,0,44.356,4.376,24.217\H,0,43.007,3.493,24.741\H,0,44.607,2.736,24.
 702\H,0,45.588,5.383,27.508\H,0,44.617,6.221,26.14\H,0,45.949,5.198,25
 .756\\Version=ES64L-G16RevA.03\State=1-A\HF=-3007.3484937\RMSD=5.227e-
 09\PG=C01 [X(C55H74Mg1N4O6)]\\@


 THE NUMBERS ARE MEANINGLESS, BUT THE TRENDS ARE IMPORTANT.
     -- LARRY BURGGRAF
 Job cpu time:       0 days  5 hours  5 minutes 30.5 seconds.
 Elapsed time:       0 days  0 hours 12 minutes 46.6 seconds.
 File lengths (MBytes):  RWF=   8025 Int=      0 D2E=      0 Chk=    390 Scr=      1
 Normal termination of Gaussian 16 at Sat Apr 30 17:44:49 2022.
