 Entering Gaussian System, Link 0=g16
 Initial command:
 /sw/apps/gaussian-16.0/g16/l1.exe "/tmp/Gau-113480.inp" -scrdir="/tmp/"
 Entering Link 1 = /sw/apps/gaussian-16.0/g16/l1.exe PID=    113481.
  
 Copyright (c) 1988,1990,1992,1993,1995,1998,2003,2009,2016,
            Gaussian, Inc.  All Rights Reserved.
  
 This is part of the Gaussian(R) 16 program.  It is based on
 the Gaussian(R) 09 system (copyright 2009, Gaussian, Inc.),
 the Gaussian(R) 03 system (copyright 2003, Gaussian, Inc.),
 the Gaussian(R) 98 system (copyright 1998, Gaussian, Inc.),
 the Gaussian(R) 94 system (copyright 1995, Gaussian, Inc.),
 the Gaussian 92(TM) system (copyright 1992, Gaussian, Inc.),
 the Gaussian 90(TM) system (copyright 1990, Gaussian, Inc.),
 the Gaussian 88(TM) system (copyright 1988, Gaussian, Inc.),
 the Gaussian 86(TM) system (copyright 1986, Carnegie Mellon
 University), and the Gaussian 82(TM) system (copyright 1983,
 Carnegie Mellon University). Gaussian is a federally registered
 trademark of Gaussian, Inc.
  
 This software contains proprietary and confidential information,
 including trade secrets, belonging to Gaussian, Inc.
  
 This software is provided under written license and may be
 used, copied, transmitted, or stored only in accord with that
 written license.
  
 The following legend is applicable only to US Government
 contracts under FAR:
  
                    RESTRICTED RIGHTS LEGEND
  
 Use, reproduction and disclosure by the US Government is
 subject to restrictions as set forth in subparagraphs (a)
 and (c) of the Commercial Computer Software - Restricted
 Rights clause in FAR 52.227-19.
  
 Gaussian, Inc.
 340 Quinnipiac St., Bldg. 40, Wallingford CT 06492
  
  
 ---------------------------------------------------------------
 Warning -- This program may not be used in any manner that
 competes with the business of Gaussian, Inc. or will provide
 assistance to any competitor of Gaussian, Inc.  The licensee
 of this program is prohibited from giving any competitor of
 Gaussian, Inc. access to this program.  By using this program,
 the user acknowledges that Gaussian, Inc. is engaged in the
 business of creating and licensing software in the field of
 computational chemistry and represents and warrants to the
 licensee that it is not a competitor of Gaussian, Inc. and that
 it will not use this program in any manner prohibited above.
 ---------------------------------------------------------------
  

 Cite this work as:
 Gaussian 16, Revision A.03,
 M. J. Frisch, G. W. Trucks, H. B. Schlegel, G. E. Scuseria, 
 M. A. Robb, J. R. Cheeseman, G. Scalmani, V. Barone, 
 G. A. Petersson, H. Nakatsuji, X. Li, M. Caricato, A. V. Marenich, 
 J. Bloino, B. G. Janesko, R. Gomperts, B. Mennucci, H. P. Hratchian, 
 J. V. Ortiz, A. F. Izmaylov, J. L. Sonnenberg, D. Williams-Young, 
 F. Ding, F. Lipparini, F. Egidi, J. Goings, B. Peng, A. Petrone, 
 T. Henderson, D. Ranasinghe, V. G. Zakrzewski, J. Gao, N. Rega, 
 G. Zheng, W. Liang, M. Hada, M. Ehara, K. Toyota, R. Fukuda, 
 J. Hasegawa, M. Ishida, T. Nakajima, Y. Honda, O. Kitao, H. Nakai, 
 T. Vreven, K. Throssell, J. A. Montgomery, Jr., J. E. Peralta, 
 F. Ogliaro, M. J. Bearpark, J. J. Heyd, E. N. Brothers, K. N. Kudin, 
 V. N. Staroverov, T. A. Keith, R. Kobayashi, J. Normand, 
 K. Raghavachari, A. P. Rendell, J. C. Burant, S. S. Iyengar, 
 J. Tomasi, M. Cossi, J. M. Millam, M. Klene, C. Adamo, R. Cammi, 
 J. W. Ochterski, R. L. Martin, K. Morokuma, O. Farkas, 
 J. B. Foresman, and D. J. Fox, Gaussian, Inc., Wallingford CT, 2016.
 
 ******************************************
 Gaussian 16:  ES64L-G16RevA.03 25-Dec-2016
                 4-May-2022 
 ******************************************
 %nproc=24
 Will use up to   24 processors via shared memory.
 %mem=75GB
 -----------------------------------
 #p cam-b3lyp/Def2SVP td=(nstates=5)
 -----------------------------------
 1/38=1,172=1/1;
 2/12=2,17=6,18=5,40=1/2;
 3/5=43,7=101,11=9,25=1,30=1,74=-40/1,2,3,8;
 4//1;
 5/5=2,38=5/2;
 8/6=1,10=1,108=5/1;
 9/41=5,42=1,70=2/14;
 6/7=2,8=2,9=2,10=2/1;
 99/5=1,9=1/99;
 Leave Link    1 at Wed May  4 07:36:36 2022, MaxMem= 10066329600 cpu:               1.1 elap:               0.1
 (Enter /sw/apps/gaussian-16.0/g16/l101.exe)
 -------------------------------------------------------
 step_151_chromophore_13 TDDFT with cam-b3lyp functional
 -------------------------------------------------------
 Symbolic Z-matrix:
 Charge =  0 Multiplicity = 1
 Mg                    46.583    24.927    28.56 
 C                     47.462    27.334    30.951 
 C                     45.855    22.868    31.069 
 C                     46.91     22.356    26.36 
 C                     47.682    27.178    26.106 
 N                     46.78     25.104    30.829 
 C                     46.902    26.201    31.568 
 C                     46.518    26.038    33.025 
 C                     46.205    24.487    33.034 
 C                     46.199    24.168    31.547 
 C                     47.223    23.678    33.905 
 C                     45.324    26.942    33.54 
 C                     45.478    27.347    35.06 
 C                     44.501    26.835    36.1 
 O                     43.546    26.114    35.84 
 O                     44.808    27.27     37.35 
 N                     46.262    22.884    28.688 
 C                     45.793    22.276    29.764 
 C                     45.478    20.925    29.448 
 C                     46.028    20.651    28.092 
 C                     46.436    21.996    27.655 
 C                     44.727    19.919    30.419 
 C                     46.205    19.352    27.325 
 O                     46.694    19.265    26.201 
 C                     45.704    18.02     27.886 
 N                     47.258    24.784    26.621 
 C                     47.284    23.647    25.876 
 C                     47.62     23.89     24.359 
 C                     47.589    25.422    24.315 
 C                     47.496    25.846    25.763 
 C                     48.992    23.257    23.834 
 C                     46.438    25.955    23.407 
 C                     45.175    26.285    24.239 
 N                     47.257    26.868    28.505 
 C                     47.695    27.642    27.425 
 C                     48.062    28.955    27.856 
 C                     48.106    28.818    29.257 
 C                     47.591    27.588    29.578 
 C                     48.344    30.071    27.042 
 C                     48.434    29.535    30.459 
 O                     48.998    30.601    30.542 
 C                     47.897    28.648    31.597 
 C                     48.908    28.319    32.638 
 O                     50.035    27.92     32.51 
 O                     48.445    28.504    33.901 
 C                     49.296    28.462    35.085 
 C                     43.915    27.081    38.5 
 C                     44.006    25.67     39.117 
 C                     43.958    25.359    40.452 
 C                     43.621    26.374    41.521 
 C                     43.902    23.898    40.873 
 C                     42.486    23.379    41.167 
 C                     42.287    23.043    42.727 
 C                     40.806    22.802    43.033 
 C                     40.206    21.623    42.195 
 C                     39.898    24.094    43.095 
 C                     39.084    24.218    44.409 
 C                     39.813    24.973    45.532 
 C                     40.012    23.981    46.667 
 C                     38.729    23.496    47.364 
 C                     40.976    24.587    47.765 
 C                     42.029    23.571    48.164 
 C                     43.445    24.15     48.391 
 C                     44.64     23.391    47.647 
 C                     46.008    23.934    48.212 
 C                     44.517    23.608    46.053 
 H                     45.508    22.15     31.816 
 H                     46.942    21.553    25.62 
 H                     47.944    27.896    25.326 
 H                     47.307    26.217    33.756 
 H                     45.251    24.34     33.541 
 H                     47.89     24.3      34.502 
 H                     47.912    23.167    33.232 
 H                     46.788    22.897    34.528 
 H                     44.385    26.39     33.551 
 H                     45.261    27.919    33.061 
 H                     45.322    28.423    35.137 
 H                     46.442    27.18     35.539 
 H                     43.828    19.565    29.915 
 H                     44.534    20.379    31.388 
 H                     45.381    19.052    30.51 
 H                     44.828    18.361    28.438 
 H                     46.496    17.646    28.535 
 H                     45.392    17.318    27.113 
 H                     46.731    23.453    23.903 
 H                     48.562    25.708    23.915 
 H                     49.398    22.748    24.708 
 H                     49.758    23.824    23.305 
 H                     48.688    22.43     23.192 
 H                     46.094    25.327    22.585 
 H                     46.841    26.879    22.991 
 H                     45.171    25.833    25.23 
 H                     44.336    25.896    23.661 
 H                     45.01     27.363    24.266 
 H                     47.628    30.31     26.255 
 H                     49.328    30.026    26.576 
 H                     48.413    30.894    27.753 
 H                     47.031    29.136    32.045 
 H                     49.366    29.308    35.768 
 H                     50.335    28.301    34.798 
 H                     48.949    27.577    35.618 
 H                     42.857    27.187    38.263 
 H                     44.104    27.928    39.16 
 H                     44.432    24.878    38.501 
 H                     43.549    27.387    41.124 
 H                     44.382    26.273    42.296 
 H                     42.596    26.369    41.892 
 H                     44.429    23.911    41.828 
 H                     44.378    23.254    40.132 
 H                     42.293    22.475    40.589 
 H                     41.71     24.034    40.772 
 H                     42.711    23.861    43.309 
 H                     42.897    22.256    43.171 
 H                     40.687    22.401    44.039 
 H                     41.016    20.999    41.819 
 H                     39.687    22.03     41.327 
 H                     39.522    20.96     42.726 
 H                     39.143    24.109    42.31 
 H                     40.535    24.963    42.923 
 H                     38.659    23.249    44.669 
 H                     38.175    24.752    44.129 
 H                     39.282    25.848    45.906 
 H                     40.833    25.302    45.333 
 H                     40.465    23.129    46.161 
 H                     38.383    22.538    46.976 
 H                     37.98     24.288    47.343 
 H                     38.947    23.259    48.405 
 H                     40.362    24.843    48.628 
 H                     41.405    25.556    47.507 
 H                     41.954    22.715    47.495 
 H                     41.646    23.246    49.131 
 H                     43.755    24.007    49.426 
 H                     43.519    25.208    48.14 
 H                     44.432    22.331    47.797 
 H                     46.743    23.95     47.407 
 H                     46.404    23.377    49.06 
 H                     45.902    24.97     48.534 
 H                     45.275    24.275    45.642 
 H                     43.544    23.892    45.652 
 H                     44.585    22.62     45.598 
 
 ITRead=  0  0  0  0  0  0  0  0  0  0  0  0  0  0  0  0  0  0  0  0
 ITRead=  0  0  0  0  0  0  0  0  0  0  0  0  0  0  0  0  0  0  0  0
 ITRead=  0  0  0  0  0  0  0  0  0  0  0  0  0  0  0  0  0  0  0  0
 ITRead=  0  0  0  0  0  0  0  0  0  0  0  0  0  0  0  0  0  0  0  0
 ITRead=  0  0  0  0  0  0  0  0  0  0  0  0  0  0  0  0  0  0  0  0
 ITRead=  0  0  0  0  0  0  0  0  0  0  0  0  0  0  0  0  0  0  0  0
 ITRead=  0  0  0  0  0  0  0  0  0  0  0  0  0  0  0  0  0  0  0  0
 MicOpt= -1 -1 -1 -1 -1 -1 -1 -1 -1 -1 -1 -1 -1 -1 -1 -1 -1 -1 -1 -1
 MicOpt= -1 -1 -1 -1 -1 -1 -1 -1 -1 -1 -1 -1 -1 -1 -1 -1 -1 -1 -1 -1
 MicOpt= -1 -1 -1 -1 -1 -1 -1 -1 -1 -1 -1 -1 -1 -1 -1 -1 -1 -1 -1 -1
 MicOpt= -1 -1 -1 -1 -1 -1 -1 -1 -1 -1 -1 -1 -1 -1 -1 -1 -1 -1 -1 -1
 MicOpt= -1 -1 -1 -1 -1 -1 -1 -1 -1 -1 -1 -1 -1 -1 -1 -1 -1 -1 -1 -1
 MicOpt= -1 -1 -1 -1 -1 -1 -1 -1 -1 -1 -1 -1 -1 -1 -1 -1 -1 -1 -1 -1
 MicOpt= -1 -1 -1 -1 -1 -1 -1 -1 -1 -1 -1 -1 -1 -1 -1 -1 -1 -1 -1 -1
 NAtoms=    140 NQM=      140 NQMF=       0 NMMI=      0 NMMIF=      0
                NMic=       0 NMicF=      0.
                    Isotopes and Nuclear Properties:
 (Nuclear quadrupole moments (NQMom) in fm**2, nuclear magnetic moments (NMagM)
  in nuclear magnetons)

  Atom         1           2           3           4           5           6           7           8           9          10
 IAtWgt=          24          12          12          12          12          14          12          12          12          12
 AtmWgt=  23.9850450  12.0000000  12.0000000  12.0000000  12.0000000  14.0030740  12.0000000  12.0000000  12.0000000  12.0000000
 NucSpn=           0           0           0           0           0           2           0           0           0           0
 AtZEff=  -0.0000000  -0.0000000  -0.0000000  -0.0000000  -0.0000000  -0.0000000  -0.0000000  -0.0000000  -0.0000000  -0.0000000
 NQMom=    0.0000000   0.0000000   0.0000000   0.0000000   0.0000000   2.0440000   0.0000000   0.0000000   0.0000000   0.0000000
 NMagM=    0.0000000   0.0000000   0.0000000   0.0000000   0.0000000   0.4037610   0.0000000   0.0000000   0.0000000   0.0000000
 AtZNuc=  12.0000000   6.0000000   6.0000000   6.0000000   6.0000000   7.0000000   6.0000000   6.0000000   6.0000000   6.0000000

  Atom        11          12          13          14          15          16          17          18          19          20
 IAtWgt=          12          12          12          12          16          16          14          12          12          12
 AtmWgt=  12.0000000  12.0000000  12.0000000  12.0000000  15.9949146  15.9949146  14.0030740  12.0000000  12.0000000  12.0000000
 NucSpn=           0           0           0           0           0           0           2           0           0           0
 AtZEff=  -0.0000000  -0.0000000  -0.0000000  -0.0000000  -0.0000000  -0.0000000  -0.0000000  -0.0000000  -0.0000000  -0.0000000
 NQMom=    0.0000000   0.0000000   0.0000000   0.0000000   0.0000000   0.0000000   2.0440000   0.0000000   0.0000000   0.0000000
 NMagM=    0.0000000   0.0000000   0.0000000   0.0000000   0.0000000   0.0000000   0.4037610   0.0000000   0.0000000   0.0000000
 AtZNuc=   6.0000000   6.0000000   6.0000000   6.0000000   8.0000000   8.0000000   7.0000000   6.0000000   6.0000000   6.0000000

  Atom        21          22          23          24          25          26          27          28          29          30
 IAtWgt=          12          12          12          16          12          14          12          12          12          12
 AtmWgt=  12.0000000  12.0000000  12.0000000  15.9949146  12.0000000  14.0030740  12.0000000  12.0000000  12.0000000  12.0000000
 NucSpn=           0           0           0           0           0           2           0           0           0           0
 AtZEff=  -0.0000000  -0.0000000  -0.0000000  -0.0000000  -0.0000000  -0.0000000  -0.0000000  -0.0000000  -0.0000000  -0.0000000
 NQMom=    0.0000000   0.0000000   0.0000000   0.0000000   0.0000000   2.0440000   0.0000000   0.0000000   0.0000000   0.0000000
 NMagM=    0.0000000   0.0000000   0.0000000   0.0000000   0.0000000   0.4037610   0.0000000   0.0000000   0.0000000   0.0000000
 AtZNuc=   6.0000000   6.0000000   6.0000000   8.0000000   6.0000000   7.0000000   6.0000000   6.0000000   6.0000000   6.0000000

  Atom        31          32          33          34          35          36          37          38          39          40
 IAtWgt=          12          12          12          14          12          12          12          12          12          12
 AtmWgt=  12.0000000  12.0000000  12.0000000  14.0030740  12.0000000  12.0000000  12.0000000  12.0000000  12.0000000  12.0000000
 NucSpn=           0           0           0           2           0           0           0           0           0           0
 AtZEff=  -0.0000000  -0.0000000  -0.0000000  -0.0000000  -0.0000000  -0.0000000  -0.0000000  -0.0000000  -0.0000000  -0.0000000
 NQMom=    0.0000000   0.0000000   0.0000000   2.0440000   0.0000000   0.0000000   0.0000000   0.0000000   0.0000000   0.0000000
 NMagM=    0.0000000   0.0000000   0.0000000   0.4037610   0.0000000   0.0000000   0.0000000   0.0000000   0.0000000   0.0000000
 AtZNuc=   6.0000000   6.0000000   6.0000000   7.0000000   6.0000000   6.0000000   6.0000000   6.0000000   6.0000000   6.0000000

  Atom        41          42          43          44          45          46          47          48          49          50
 IAtWgt=          16          12          12          16          16          12          12          12          12          12
 AtmWgt=  15.9949146  12.0000000  12.0000000  15.9949146  15.9949146  12.0000000  12.0000000  12.0000000  12.0000000  12.0000000
 NucSpn=           0           0           0           0           0           0           0           0           0           0
 AtZEff=  -0.0000000  -0.0000000  -0.0000000  -0.0000000  -0.0000000  -0.0000000  -0.0000000  -0.0000000  -0.0000000  -0.0000000
 NQMom=    0.0000000   0.0000000   0.0000000   0.0000000   0.0000000   0.0000000   0.0000000   0.0000000   0.0000000   0.0000000
 NMagM=    0.0000000   0.0000000   0.0000000   0.0000000   0.0000000   0.0000000   0.0000000   0.0000000   0.0000000   0.0000000
 AtZNuc=   8.0000000   6.0000000   6.0000000   8.0000000   8.0000000   6.0000000   6.0000000   6.0000000   6.0000000   6.0000000

  Atom        51          52          53          54          55          56          57          58          59          60
 IAtWgt=          12          12          12          12          12          12          12          12          12          12
 AtmWgt=  12.0000000  12.0000000  12.0000000  12.0000000  12.0000000  12.0000000  12.0000000  12.0000000  12.0000000  12.0000000
 NucSpn=           0           0           0           0           0           0           0           0           0           0
 AtZEff=  -0.0000000  -0.0000000  -0.0000000  -0.0000000  -0.0000000  -0.0000000  -0.0000000  -0.0000000  -0.0000000  -0.0000000
 NQMom=    0.0000000   0.0000000   0.0000000   0.0000000   0.0000000   0.0000000   0.0000000   0.0000000   0.0000000   0.0000000
 NMagM=    0.0000000   0.0000000   0.0000000   0.0000000   0.0000000   0.0000000   0.0000000   0.0000000   0.0000000   0.0000000
 AtZNuc=   6.0000000   6.0000000   6.0000000   6.0000000   6.0000000   6.0000000   6.0000000   6.0000000   6.0000000   6.0000000

  Atom        61          62          63          64          65          66          67          68          69          70
 IAtWgt=          12          12          12          12          12          12           1           1           1           1
 AtmWgt=  12.0000000  12.0000000  12.0000000  12.0000000  12.0000000  12.0000000   1.0078250   1.0078250   1.0078250   1.0078250
 NucSpn=           0           0           0           0           0           0           1           1           1           1
 AtZEff=  -0.0000000  -0.0000000  -0.0000000  -0.0000000  -0.0000000  -0.0000000  -0.0000000  -0.0000000  -0.0000000  -0.0000000
 NQMom=    0.0000000   0.0000000   0.0000000   0.0000000   0.0000000   0.0000000   0.0000000   0.0000000   0.0000000   0.0000000
 NMagM=    0.0000000   0.0000000   0.0000000   0.0000000   0.0000000   0.0000000   2.7928460   2.7928460   2.7928460   2.7928460
 AtZNuc=   6.0000000   6.0000000   6.0000000   6.0000000   6.0000000   6.0000000   1.0000000   1.0000000   1.0000000   1.0000000

  Atom        71          72          73          74          75          76          77          78          79          80
 IAtWgt=           1           1           1           1           1           1           1           1           1           1
 AtmWgt=   1.0078250   1.0078250   1.0078250   1.0078250   1.0078250   1.0078250   1.0078250   1.0078250   1.0078250   1.0078250
 NucSpn=           1           1           1           1           1           1           1           1           1           1
 AtZEff=  -0.0000000  -0.0000000  -0.0000000  -0.0000000  -0.0000000  -0.0000000  -0.0000000  -0.0000000  -0.0000000  -0.0000000
 NQMom=    0.0000000   0.0000000   0.0000000   0.0000000   0.0000000   0.0000000   0.0000000   0.0000000   0.0000000   0.0000000
 NMagM=    2.7928460   2.7928460   2.7928460   2.7928460   2.7928460   2.7928460   2.7928460   2.7928460   2.7928460   2.7928460
 AtZNuc=   1.0000000   1.0000000   1.0000000   1.0000000   1.0000000   1.0000000   1.0000000   1.0000000   1.0000000   1.0000000

  Atom        81          82          83          84          85          86          87          88          89          90
 IAtWgt=           1           1           1           1           1           1           1           1           1           1
 AtmWgt=   1.0078250   1.0078250   1.0078250   1.0078250   1.0078250   1.0078250   1.0078250   1.0078250   1.0078250   1.0078250
 NucSpn=           1           1           1           1           1           1           1           1           1           1
 AtZEff=  -0.0000000  -0.0000000  -0.0000000  -0.0000000  -0.0000000  -0.0000000  -0.0000000  -0.0000000  -0.0000000  -0.0000000
 NQMom=    0.0000000   0.0000000   0.0000000   0.0000000   0.0000000   0.0000000   0.0000000   0.0000000   0.0000000   0.0000000
 NMagM=    2.7928460   2.7928460   2.7928460   2.7928460   2.7928460   2.7928460   2.7928460   2.7928460   2.7928460   2.7928460
 AtZNuc=   1.0000000   1.0000000   1.0000000   1.0000000   1.0000000   1.0000000   1.0000000   1.0000000   1.0000000   1.0000000

  Atom        91          92          93          94          95          96          97          98          99         100
 IAtWgt=           1           1           1           1           1           1           1           1           1           1
 AtmWgt=   1.0078250   1.0078250   1.0078250   1.0078250   1.0078250   1.0078250   1.0078250   1.0078250   1.0078250   1.0078250
 NucSpn=           1           1           1           1           1           1           1           1           1           1
 AtZEff=  -0.0000000  -0.0000000  -0.0000000  -0.0000000  -0.0000000  -0.0000000  -0.0000000  -0.0000000  -0.0000000  -0.0000000
 NQMom=    0.0000000   0.0000000   0.0000000   0.0000000   0.0000000   0.0000000   0.0000000   0.0000000   0.0000000   0.0000000
 NMagM=    2.7928460   2.7928460   2.7928460   2.7928460   2.7928460   2.7928460   2.7928460   2.7928460   2.7928460   2.7928460
 AtZNuc=   1.0000000   1.0000000   1.0000000   1.0000000   1.0000000   1.0000000   1.0000000   1.0000000   1.0000000   1.0000000

  Atom       101         102         103         104         105         106         107         108         109         110
 IAtWgt=           1           1           1           1           1           1           1           1           1           1
 AtmWgt=   1.0078250   1.0078250   1.0078250   1.0078250   1.0078250   1.0078250   1.0078250   1.0078250   1.0078250   1.0078250
 NucSpn=           1           1           1           1           1           1           1           1           1           1
 AtZEff=  -0.0000000  -0.0000000  -0.0000000  -0.0000000  -0.0000000  -0.0000000  -0.0000000  -0.0000000  -0.0000000  -0.0000000
 NQMom=    0.0000000   0.0000000   0.0000000   0.0000000   0.0000000   0.0000000   0.0000000   0.0000000   0.0000000   0.0000000
 NMagM=    2.7928460   2.7928460   2.7928460   2.7928460   2.7928460   2.7928460   2.7928460   2.7928460   2.7928460   2.7928460
 AtZNuc=   1.0000000   1.0000000   1.0000000   1.0000000   1.0000000   1.0000000   1.0000000   1.0000000   1.0000000   1.0000000

  Atom       111         112         113         114         115         116         117         118         119         120
 IAtWgt=           1           1           1           1           1           1           1           1           1           1
 AtmWgt=   1.0078250   1.0078250   1.0078250   1.0078250   1.0078250   1.0078250   1.0078250   1.0078250   1.0078250   1.0078250
 NucSpn=           1           1           1           1           1           1           1           1           1           1
 AtZEff=  -0.0000000  -0.0000000  -0.0000000  -0.0000000  -0.0000000  -0.0000000  -0.0000000  -0.0000000  -0.0000000  -0.0000000
 NQMom=    0.0000000   0.0000000   0.0000000   0.0000000   0.0000000   0.0000000   0.0000000   0.0000000   0.0000000   0.0000000
 NMagM=    2.7928460   2.7928460   2.7928460   2.7928460   2.7928460   2.7928460   2.7928460   2.7928460   2.7928460   2.7928460
 AtZNuc=   1.0000000   1.0000000   1.0000000   1.0000000   1.0000000   1.0000000   1.0000000   1.0000000   1.0000000   1.0000000

  Atom       121         122         123         124         125         126         127         128         129         130
 IAtWgt=           1           1           1           1           1           1           1           1           1           1
 AtmWgt=   1.0078250   1.0078250   1.0078250   1.0078250   1.0078250   1.0078250   1.0078250   1.0078250   1.0078250   1.0078250
 NucSpn=           1           1           1           1           1           1           1           1           1           1
 AtZEff=  -0.0000000  -0.0000000  -0.0000000  -0.0000000  -0.0000000  -0.0000000  -0.0000000  -0.0000000  -0.0000000  -0.0000000
 NQMom=    0.0000000   0.0000000   0.0000000   0.0000000   0.0000000   0.0000000   0.0000000   0.0000000   0.0000000   0.0000000
 NMagM=    2.7928460   2.7928460   2.7928460   2.7928460   2.7928460   2.7928460   2.7928460   2.7928460   2.7928460   2.7928460
 AtZNuc=   1.0000000   1.0000000   1.0000000   1.0000000   1.0000000   1.0000000   1.0000000   1.0000000   1.0000000   1.0000000

  Atom       131         132         133         134         135         136         137         138         139         140
 IAtWgt=           1           1           1           1           1           1           1           1           1           1
 AtmWgt=   1.0078250   1.0078250   1.0078250   1.0078250   1.0078250   1.0078250   1.0078250   1.0078250   1.0078250   1.0078250
 NucSpn=           1           1           1           1           1           1           1           1           1           1
 AtZEff=  -0.0000000  -0.0000000  -0.0000000  -0.0000000  -0.0000000  -0.0000000  -0.0000000  -0.0000000  -0.0000000  -0.0000000
 NQMom=    0.0000000   0.0000000   0.0000000   0.0000000   0.0000000   0.0000000   0.0000000   0.0000000   0.0000000   0.0000000
 NMagM=    2.7928460   2.7928460   2.7928460   2.7928460   2.7928460   2.7928460   2.7928460   2.7928460   2.7928460   2.7928460
 AtZNuc=   1.0000000   1.0000000   1.0000000   1.0000000   1.0000000   1.0000000   1.0000000   1.0000000   1.0000000   1.0000000
 Leave Link  101 at Wed May  4 07:36:36 2022, MaxMem= 10066329600 cpu:               2.8 elap:               0.1
 (Enter /sw/apps/gaussian-16.0/g16/l202.exe)
 Stoichiometry    C55H74MgN4O6
 Framework group  C1[X(C55H74MgN4O6)]
 Deg. of freedom   414
 Full point group                 C1      NOp   1
 Largest Abelian subgroup         C1      NOp   1
 Largest concise Abelian subgroup C1      NOp   1
                         Standard orientation:                         
 ---------------------------------------------------------------------
 Center     Atomic      Atomic             Coordinates (Angstroms)
 Number     Number       Type             X           Y           Z
 ---------------------------------------------------------------------
      1         12           0       -5.934173    0.449291   -0.322013
      2          6           0       -3.996991   -2.444872    0.070821
      3          6           0       -3.228165    2.225319    0.444662
      4          6           0       -8.015528    3.019417    0.464994
      5          6           0       -8.699488   -1.648136   -0.822765
      6          7           0       -3.820145   -0.129945    0.321314
      7          6           0       -3.196346   -1.292870    0.170004
      8          6           0       -1.684055   -1.222620    0.240106
      9          6           0       -1.515838    0.313621    0.579689
     10          6           0       -2.925980    0.833877    0.347744
     11          6           0       -0.925131    0.547223    2.010053
     12          6           0       -0.900468   -1.688568   -1.054869
     13          6           0        0.496186   -2.347339   -0.717945
     14          6           0        1.789490   -1.674842   -1.134341
     15          8           0        1.839144   -0.621648   -1.757064
     16          8           0        2.883167   -2.376669   -0.737752
     17          7           0       -5.626523    2.421516    0.233824
     18          6           0       -4.435342    2.988944    0.314527
     19          6           0       -4.587762    4.391859    0.495854
     20          6           0       -6.028814    4.645633    0.770223
     21          6           0       -6.624442    3.328097    0.494931
     22          6           0       -3.400334    5.444267    0.459368
     23          6           0       -6.753105    5.887573    1.260128
     24          8           0       -7.963363    5.957236    1.461346
     25          6           0       -6.013269    7.208728    1.477241
     26          7           0       -7.975467    0.625231   -0.127186
     27          6           0       -8.644275    1.771078    0.169803
     28          6           0      -10.204543    1.654312    0.011166
     29          6           0      -10.309865    0.267852   -0.634247
     30          6           0       -8.914549   -0.306190   -0.540989
     31          6           0      -11.059872    1.807573    1.354156
     32          6           0      -10.886195    0.342030   -2.081898
     33          6           0       -9.752409    0.379740   -3.135180
     34          7           0       -6.265094   -1.570867   -0.507037
     35          6           0       -7.459271   -2.278433   -0.682003
     36          6           0       -7.209181   -3.683159   -0.774841
     37          6           0       -5.870766   -3.786330   -0.348805
     38          6           0       -5.362089   -2.517113   -0.241545
     39          6           0       -8.120799   -4.687015   -1.160589
     40          6           0       -4.842180   -4.747178   -0.056812
     41          8           0       -4.969166   -5.945416    0.040348
     42          6           0       -3.559555   -3.908244    0.088943
     43          6           0       -2.826263   -4.137923    1.363139
     44          8           0       -3.243556   -4.168935    2.490356
     45          8           0       -1.494450   -4.328124    1.179126
     46          6           0       -0.592929   -4.783532    2.231592
     47          6           0        4.243551   -2.048018   -1.181614
     48          6           0        4.876317   -0.881577   -0.394904
     49          6           0        6.185117   -0.781228    0.002870
     50          6           0        7.256924   -1.749506   -0.444592
     51          6           0        6.673013    0.515080    0.632505
     52          6           0        7.372858    1.469300   -0.347563
     53          6           0        8.940669    1.614208   -0.020349
     54          6           0        9.657076    2.335736   -1.165442
     55          6           0        9.074949    3.765403   -1.429007
     56          6           0        9.908385    1.477146   -2.468223
     57          6           0       11.389519    1.464773   -2.927196
     58          6           0       12.229101    0.332964   -2.313432
     59          6           0       13.309251    0.996787   -1.474085
     60          6           0       14.357218    1.809579   -2.253993
     61          6           0       14.066522   -0.081416   -0.598782
     62          6           0       14.204321    0.400644    0.832615
     63          6           0       14.001554   -0.687619    1.912613
     64          6           0       12.991181   -0.320243    3.096599
     65          6           0       13.127741   -1.409045    4.228570
     66          6           0       11.485793   -0.231964    2.522954
     67          1           0       -2.381402    2.898447    0.599042
     68          1           0       -8.696842    3.856068    0.636053
     69          1           0       -9.554294   -2.284865   -1.060358
     70          1           0       -1.210295   -1.789030    1.042387
     71          1           0       -0.757414    0.723834   -0.087613
     72          1           0       -0.566780   -0.359956    2.496666
     73          1           0       -1.738390    0.863340    2.663851
     74          1           0       -0.169942    1.329424    2.081932
     75          1           0       -0.603153   -0.837337   -1.666062
     76          1           0       -1.388289   -2.488381   -1.611887
     77          1           0        0.563042   -3.287912   -1.264657
     78          1           0        0.695728   -2.622933    0.316877
     79          1           0       -3.617535    6.177315   -0.317162
     80          1           0       -2.438506    4.946815    0.335926
     81          1           0       -3.454161    5.983807    1.404717
     82          1           0       -5.256188    7.135894    0.696291
     83          1           0       -5.593133    7.160656    2.481987
     84          1           0       -6.635387    8.084837    1.295362
     85          1           0      -10.374581    2.452482   -0.712186
     86          1           0      -10.977411   -0.293049    0.020196
     87          1           0      -10.310275    1.991707    2.123566
     88          1           0      -11.806827    1.085064    1.682979
     89          1           0      -11.552669    2.775459    1.260045
     90          1           0      -11.549899    1.169545   -2.333133
     91          1           0      -11.440575   -0.590859   -2.189701
     92          1           0       -8.779296    0.645294   -2.724167
     93          1           0      -10.055644    1.133942   -3.862197
     94          1           0       -9.731120   -0.551758   -3.702539
     95          1           0       -8.688142   -4.522307   -2.077180
     96          1           0       -8.839232   -4.938497   -0.380815
     97          1           0       -7.496312   -5.574906   -1.256900
     98          1           0       -2.911920   -4.103770   -0.766125
     99          1           0        0.003339   -5.688632    2.120399
    100          1           0       -1.149468   -4.976128    3.148643
    101          1           0        0.056324   -3.924830    2.401374
    102          1           0        4.305178   -1.718491   -2.218138
    103          1           0        4.784638   -2.994498   -1.193139
    104          1           0        4.203984   -0.219341    0.150630
    105          1           0        6.848595   -2.591439   -1.004394
    106          1           0        7.793789   -2.055536    0.454334
    107          1           0        7.897940   -1.422629   -1.263458
    108          1           0        7.442268    0.163651    1.321466
    109          1           0        5.859922    1.042120    1.134009
    110          1           0        6.914229    2.457077   -0.297511
    111          1           0        7.178828    1.215303   -1.389227
    112          1           0        9.342974    0.619355    0.169496
    113          1           0        9.234019    2.043105    0.938086
    114          1           0       10.674149    2.594731   -0.873069
    115          1           0        8.518323    4.095378   -0.552573
    116          1           0        8.367283    3.715611   -2.256754
    117          1           0        9.805531    4.545338   -1.646573
    118          1           0        9.364284    1.861325   -3.330102
    119          1           0        9.525670    0.471243   -2.288768
    120          1           0       11.802440    2.470709   -2.858105
    121          1           0       11.348449    1.353389   -4.011514
    122          1           0       12.694532   -0.329878   -3.042457
    123          1           0       11.739336   -0.315211   -1.586630
    124          1           0       12.737766    1.687374   -0.854695
    125          1           0       14.125931    2.874551   -2.273087
    126          1           0       14.508116    1.363270   -3.237225
    127          1           0       15.306554    1.788437   -1.719494
    128          1           0       15.053179   -0.220264   -1.039839
    129          1           0       13.654409   -1.089133   -0.663852
    130          1           0       13.623343    1.314635    0.946664
    131          1           0       15.253774    0.693381    0.851480
    132          1           0       14.915168   -0.828012    2.489997
    133          1           0       13.690634   -1.646881    1.499108
    134          1           0       13.242522    0.705665    3.368084
    135          1           0       12.150378   -1.573063    4.682847
    136          1           0       13.857417   -1.173266    5.001972
    137          1           0       13.417647   -2.368577    3.800238
    138          1           0       10.849598   -1.061102    2.833052
    139          1           0       11.358114   -0.072148    1.452280
    140          1           0       11.076588    0.717770    2.866972
 ---------------------------------------------------------------------
 Rotational constants (GHZ):           0.0538671           0.0087762           0.0079957
 Leave Link  202 at Wed May  4 07:36:36 2022, MaxMem= 10066329600 cpu:               0.3 elap:               0.0
 (Enter /sw/apps/gaussian-16.0/g16/l301.exe)
 Standard basis: def2SVP (5D, 7F)
 Ernie: Thresh=  0.10000D-02 Tol=  0.10000D-05 Strict=F.
 There are  1364 symmetry adapted cartesian basis functions of A   symmetry.
 There are  1298 symmetry adapted basis functions of A   symmetry.
  1298 basis functions,  2180 primitive gaussians,  1364 cartesian basis functions
   246 alpha electrons      246 beta electrons
       nuclear repulsion energy      9497.6327717221 Hartrees.
 IExCor=20419 DFT=T Ex+Corr=CAM-B3LYP ExCW=0 ScaHFX=  1.000000
 ScaDFX=  1.000000  1.000000  1.000000  0.810000 ScalE2=  1.000000  1.000000
 IRadAn=      5 IRanWt=     -1 IRanGd=            0 ICorTp=0 IEmpDi=  4
 HFx  wShort=  0.000000 wLong=  0.330000 cFull=  0.190000 cShort=  0.000000 cLong=  0.460000
 DFx  wShort=  0.000000 wLong=  0.330000 cFull=  0.190000 cShort=  0.000000 cLong=  0.460000
 NAtoms=  140 NActive=  140 NUniq=  140 SFac= 1.00D+00 NAtFMM=   60 NAOKFM=T Big=T
 Integral buffers will be    131072 words long.
 Raffenetti 1 integral format.
 Two-electron integral symmetry is turned on.
 Leave Link  301 at Wed May  4 07:36:37 2022, MaxMem= 10066329600 cpu:               1.3 elap:               0.1
 (Enter /sw/apps/gaussian-16.0/g16/l302.exe)
 NPDir=0 NMtPBC=     1 NCelOv=     1 NCel=       1 NClECP=     1 NCelD=      1
         NCelK=      1 NCelE2=     1 NClLst=     1 CellRange=     0.0.
 One-electron integrals computed using PRISM.
 One-electron integral symmetry used in STVInt
   1 Symmetry operations used in ECPInt.
 ECPInt:  NShTT=  192510 NPrTT=  683786 LenC2=   92565 LenP2D=  205248.
 LDataN:  DoStor=T MaxTD1= 4 Len=   56
 NBasis=  1298 RedAO= T EigKep=  2.82D-04  NBF=  1298
 NBsUse=  1298 1.00D-06 EigRej= -1.00D+00 NBFU=  1298
 Precomputing XC quadrature grid using
 IXCGrd= 4 IRadAn=           5 IRanWt=          -1 IRanGd=           0 AccXCQ= 0.00D+00.
 Generated NRdTot=       0 NPtTot=           0 NUsed=           0 NTot=          32
 NSgBfM=  1015  1015  1015  1015  1015 MxSgAt=   140 MxSgA2=   140.
 Leave Link  302 at Wed May  4 07:36:40 2022, MaxMem= 10066329600 cpu:              78.6 elap:               3.3
 (Enter /sw/apps/gaussian-16.0/g16/l303.exe)
 DipDrv:  MaxL=1.
 Leave Link  303 at Wed May  4 07:36:40 2022, MaxMem= 10066329600 cpu:               6.9 elap:               0.3
 (Enter /sw/apps/gaussian-16.0/g16/l308.exe)
 Leave Link  308 at Wed May  4 07:36:41 2022, MaxMem= 10066329600 cpu:              10.1 elap:               0.5
 (Enter /sw/apps/gaussian-16.0/g16/l401.exe)
 ExpMin= 3.36D-02 ExpMax= 4.95D+03 ExpMxC= 7.45D+02 IAcc=3 IRadAn=         5 AccDes= 0.00D+00
 Harris functional with IExCor=20419 and IRadAn=       5 diagonalized for initial guess.
 HarFok:  IExCor=20419 AccDes= 0.00D+00 IRadAn=         5 IDoV= 1 UseB2=F ITyADJ=14
 ICtDFT=  3500011 ScaDFX=  1.000000  1.000000  1.000000  1.000000
 FoFCou: FMM=F IPFlag=           0 FMFlag=      100000 FMFlg1=        2001
         NFxFlg=           0 DoJE=T BraDBF=F KetDBF=T FulRan=T
         wScrn=  0.000000 ICntrl=       500 IOpCl=  0 I1Cent=   200000004 NGrid=           0
         NMat0=    1 NMatS0=      1 NMatT0=    0 NMatD0=    1 NMtDS0=    0 NMtDT0=    0
 Petite list used in FoFCou.
 Harris En= -2890.83945669194    
 JPrj=0 DoOrth=F DoCkMO=F.
 Leave Link  401 at Wed May  4 07:36:46 2022, MaxMem= 10066329600 cpu:             130.9 elap:               5.5
 (Enter /sw/apps/gaussian-16.0/g16/l502.exe)
 Integral symmetry usage will be decided dynamically.
 Closed shell SCF:
 Using DIIS extrapolation, IDIIS=  1040.
 NGot= 10066329600 LenX= 10062561258 LenY= 10060699398
 Requested convergence on RMS density matrix=1.00D-08 within 128 cycles.
 Requested convergence on MAX density matrix=1.00D-06.
 Requested convergence on             energy=1.00D-06.
 No special actions if energy rises.
 Fock matrices will be formed incrementally for  20 cycles.

 Cycle   1  Pass 1  IDiag  1:
 FoFJK:  IHMeth= 1 ICntrl=       0 DoSepK=T KAlg= 0 I1Cent=           0 FoldK=F
 IRaf=         1 NMat=       1 IRICut=       1 DoRegI=T DoRafI=F ISym2E= 0 IDoP0=0 IntGTp=1.
 FoFCou: FMM=T IPFlag=           0 FMFlag=      100000 FMFlg1=        2001
         NFxFlg=           0 DoJE=T BraDBF=F KetDBF=F FulRan=T
         wScrn=  0.000000 ICntrl=       500 IOpCl=  0 I1Cent=           0 NGrid=           0
         NMat0=    1 NMatS0=      1 NMatT0=    0 NMatD0=    1 NMtDS0=    0 NMtDT0=    0
 Symmetry not used in FoFCou.
 FMM levels:  10  Number of levels for PrismC:   9
 E= -3006.52430516159    
 DIIS: error= 1.90D-02 at cycle   1 NSaved=   1.
 NSaved= 1 IEnMin= 1 EnMin= -3006.52430516159     IErMin= 1 ErrMin= 1.90D-02
 ErrMax= 1.90D-02  0.00D+00 EMaxC= 1.00D-01 BMatC= 1.23D+00 BMatP= 1.23D+00
 IDIUse=3 WtCom= 8.10D-01 WtEn= 1.90D-01
 Coeff-Com:  0.100D+01
 Coeff-En:   0.100D+01
 Coeff:      0.100D+01
 Gap=     0.122 Goal=   None    Shift=    0.000
 GapD=    0.122 DampG=1.000 DampE=0.500 DampFc=0.5000 IDamp=-1.
 Damping current iteration by 5.00D-01
 RMSDP=1.54D-03 MaxDP=1.31D-01              OVMax= 2.40D-01

 Cycle   2  Pass 1  IDiag  1:
 RMSU=  7.58D-04    CP:  9.84D-01
 E= -3006.81815033337     Delta-E=       -0.293845171778 Rises=F Damp=T
 DIIS: error= 1.01D-02 at cycle   2 NSaved=   2.
 NSaved= 2 IEnMin= 2 EnMin= -3006.81815033337     IErMin= 2 ErrMin= 1.01D-02
 ErrMax= 1.01D-02  0.00D+00 EMaxC= 1.00D-01 BMatC= 2.30D-01 BMatP= 1.23D+00
 IDIUse=3 WtCom= 8.99D-01 WtEn= 1.01D-01
 Coeff-Com: -0.239D+00 0.124D+01
 Coeff-En:   0.000D+00 0.100D+01
 Coeff:     -0.215D+00 0.121D+01
 Gap=     0.145 Goal=   None    Shift=    0.000
 RMSDP=7.42D-04 MaxDP=8.84D-02 DE=-2.94D-01 OVMax= 2.07D-01

 Cycle   3  Pass 1  IDiag  1:
 RMSU=  7.24D-04    CP:  9.73D-01  1.17D+00
 E= -3007.03098409402     Delta-E=       -0.212833760652 Rises=F Damp=F
 DIIS: error= 1.45D-02 at cycle   3 NSaved=   3.
 NSaved= 3 IEnMin= 3 EnMin= -3007.03098409402     IErMin= 2 ErrMin= 1.01D-02
 ErrMax= 1.45D-02  0.00D+00 EMaxC= 1.00D-01 BMatC= 1.45D-01 BMatP= 2.30D-01
 IDIUse=3 WtCom= 8.55D-01 WtEn= 1.45D-01
 Coeff-Com: -0.277D+00 0.662D+00 0.615D+00
 Coeff-En:   0.000D+00 0.000D+00 0.100D+01
 Coeff:     -0.237D+00 0.566D+00 0.671D+00
 Gap=     0.129 Goal=   None    Shift=    0.000
 RMSDP=5.23D-04 MaxDP=4.74D-02 DE=-2.13D-01 OVMax= 1.88D-01

 Cycle   4  Pass 1  IDiag  1:
 RMSU=  2.70D-04    CP:  9.70D-01  1.52D+00  5.04D-01
 E= -3007.13056886495     Delta-E=       -0.099584770931 Rises=F Damp=F
 DIIS: error= 5.26D-03 at cycle   4 NSaved=   4.
 NSaved= 4 IEnMin= 4 EnMin= -3007.13056886495     IErMin= 4 ErrMin= 5.26D-03
 ErrMax= 5.26D-03  0.00D+00 EMaxC= 1.00D-01 BMatC= 3.43D-02 BMatP= 1.45D-01
 IDIUse=3 WtCom= 9.47D-01 WtEn= 5.26D-02
 Coeff-Com: -0.114D+00 0.233D+00 0.403D+00 0.478D+00
 Coeff-En:   0.000D+00 0.000D+00 0.213D+00 0.787D+00
 Coeff:     -0.108D+00 0.221D+00 0.393D+00 0.494D+00
 Gap=     0.126 Goal=   None    Shift=    0.000
 RMSDP=2.04D-04 MaxDP=1.90D-02 DE=-9.96D-02 OVMax= 7.86D-02

 Cycle   5  Pass 1  IDiag  1:
 RMSU=  7.17D-05    CP:  9.70D-01  1.45D+00  6.93D-01  5.45D-01
 E= -3007.16253619435     Delta-E=       -0.031967329400 Rises=F Damp=F
 DIIS: error= 5.32D-04 at cycle   5 NSaved=   5.
 NSaved= 5 IEnMin= 5 EnMin= -3007.16253619435     IErMin= 5 ErrMin= 5.32D-04
 ErrMax= 5.32D-04  0.00D+00 EMaxC= 1.00D-01 BMatC= 6.63D-04 BMatP= 3.43D-02
 IDIUse=3 WtCom= 9.95D-01 WtEn= 5.32D-03
 Coeff-Com: -0.389D-01 0.763D-01 0.161D+00 0.237D+00 0.564D+00
 Coeff-En:   0.000D+00 0.000D+00 0.000D+00 0.000D+00 0.100D+01
 Coeff:     -0.387D-01 0.759D-01 0.160D+00 0.236D+00 0.566D+00
 Gap=     0.124 Goal=   None    Shift=    0.000
 RMSDP=4.10D-05 MaxDP=4.35D-03 DE=-3.20D-02 OVMax= 2.05D-02

 Cycle   6  Pass 1  IDiag  1:
 RMSU=  2.97D-05    CP:  9.70D-01  1.46D+00  6.82D-01  6.13D-01  7.34D-01
 E= -3007.16313589382     Delta-E=       -0.000599699473 Rises=F Damp=F
 DIIS: error= 2.67D-04 at cycle   6 NSaved=   6.
 NSaved= 6 IEnMin= 6 EnMin= -3007.16313589382     IErMin= 6 ErrMin= 2.67D-04
 ErrMax= 2.67D-04  0.00D+00 EMaxC= 1.00D-01 BMatC= 1.27D-04 BMatP= 6.63D-04
 IDIUse=3 WtCom= 9.97D-01 WtEn= 2.67D-03
 Coeff-Com:  0.258D-02-0.701D-02 0.610D-02 0.299D-01 0.322D+00 0.647D+00
 Coeff-En:   0.000D+00 0.000D+00 0.000D+00 0.000D+00 0.161D+00 0.839D+00
 Coeff:      0.257D-02-0.699D-02 0.608D-02 0.298D-01 0.321D+00 0.647D+00
 Gap=     0.126 Goal=   None    Shift=    0.000
 RMSDP=1.76D-05 MaxDP=1.31D-03 DE=-6.00D-04 OVMax= 9.41D-03

 Cycle   7  Pass 1  IDiag  1:
 RMSU=  1.06D-05    CP:  9.70D-01  1.46D+00  6.90D-01  6.08D-01  8.66D-01
                    CP:  7.03D-01
 E= -3007.16328586267     Delta-E=       -0.000149968846 Rises=F Damp=F
 DIIS: error= 9.01D-05 at cycle   7 NSaved=   7.
 NSaved= 7 IEnMin= 7 EnMin= -3007.16328586267     IErMin= 7 ErrMin= 9.01D-05
 ErrMax= 9.01D-05  0.00D+00 EMaxC= 1.00D-01 BMatC= 1.67D-05 BMatP= 1.27D-04
 IDIUse=1 WtCom= 1.00D+00 WtEn= 0.00D+00
 Coeff-Com:  0.488D-02-0.105D-01-0.110D-01-0.712D-02 0.114D+00 0.350D+00
 Coeff-Com:  0.559D+00
 Coeff:      0.488D-02-0.105D-01-0.110D-01-0.712D-02 0.114D+00 0.350D+00
 Coeff:      0.559D+00
 Gap=     0.126 Goal=   None    Shift=    0.000
 RMSDP=6.08D-06 MaxDP=1.07D-03 DE=-1.50D-04 OVMax= 2.69D-03

 Cycle   8  Pass 1  IDiag  1:
 RMSU=  4.06D-06    CP:  9.70D-01  1.46D+00  6.90D-01  6.13D-01  8.67D-01
                    CP:  8.24D-01  7.98D-01
 E= -3007.16330532681     Delta-E=       -0.000019464143 Rises=F Damp=F
 DIIS: error= 2.56D-05 at cycle   8 NSaved=   8.
 NSaved= 8 IEnMin= 8 EnMin= -3007.16330532681     IErMin= 8 ErrMin= 2.56D-05
 ErrMax= 2.56D-05  0.00D+00 EMaxC= 1.00D-01 BMatC= 1.88D-06 BMatP= 1.67D-05
 IDIUse=1 WtCom= 1.00D+00 WtEn= 0.00D+00
 Coeff-Com:  0.212D-02-0.418D-02-0.715D-02-0.109D-01-0.105D-01 0.431D-01
 Coeff-Com:  0.268D+00 0.720D+00
 Coeff:      0.212D-02-0.418D-02-0.715D-02-0.109D-01-0.105D-01 0.431D-01
 Coeff:      0.268D+00 0.720D+00
 Gap=     0.126 Goal=   None    Shift=    0.000
 RMSDP=2.49D-06 MaxDP=2.48D-04 DE=-1.95D-05 OVMax= 9.77D-04

 Cycle   9  Pass 1  IDiag  1:
 RMSU=  1.54D-06    CP:  9.70D-01  1.46D+00  6.91D-01  6.14D-01  8.81D-01
                    CP:  8.47D-01  9.38D-01  9.85D-01
 E= -3007.16330805034     Delta-E=       -0.000002723522 Rises=F Damp=F
 DIIS: error= 1.22D-05 at cycle   9 NSaved=   9.
 NSaved= 9 IEnMin= 9 EnMin= -3007.16330805034     IErMin= 9 ErrMin= 1.22D-05
 ErrMax= 1.22D-05  0.00D+00 EMaxC= 1.00D-01 BMatC= 2.83D-07 BMatP= 1.88D-06
 IDIUse=1 WtCom= 1.00D+00 WtEn= 0.00D+00
 Coeff-Com:  0.488D-03-0.861D-03-0.220D-02-0.471D-02-0.187D-01-0.204D-01
 Coeff-Com:  0.701D-01 0.355D+00 0.621D+00
 Coeff:      0.488D-03-0.861D-03-0.220D-02-0.471D-02-0.187D-01-0.204D-01
 Coeff:      0.701D-01 0.355D+00 0.621D+00
 Gap=     0.126 Goal=   None    Shift=    0.000
 RMSDP=9.64D-07 MaxDP=1.50D-04 DE=-2.72D-06 OVMax= 3.79D-04

 Cycle  10  Pass 1  IDiag  1:
 RMSU=  6.59D-07    CP:  9.70D-01  1.46D+00  6.91D-01  6.14D-01  8.84D-01
                    CP:  8.55D-01  9.65D-01  1.12D+00  9.26D-01
 E= -3007.16330846772     Delta-E=       -0.000000417380 Rises=F Damp=F
 DIIS: error= 6.35D-06 at cycle  10 NSaved=  10.
 NSaved=10 IEnMin=10 EnMin= -3007.16330846772     IErMin=10 ErrMin= 6.35D-06
 ErrMax= 6.35D-06  0.00D+00 EMaxC= 1.00D-01 BMatC= 4.48D-08 BMatP= 2.83D-07
 IDIUse=1 WtCom= 1.00D+00 WtEn= 0.00D+00
 Coeff-Com: -0.269D-03 0.571D-03 0.669D-03 0.282D-03-0.658D-02-0.216D-01
 Coeff-Com: -0.302D-01-0.111D-02 0.269D+00 0.789D+00
 Coeff:     -0.269D-03 0.571D-03 0.669D-03 0.282D-03-0.658D-02-0.216D-01
 Coeff:     -0.302D-01-0.111D-02 0.269D+00 0.789D+00
 Gap=     0.126 Goal=   None    Shift=    0.000
 RMSDP=5.64D-07 MaxDP=6.33D-05 DE=-4.17D-07 OVMax= 2.86D-04

 Cycle  11  Pass 1  IDiag  1:
 RMSU=  3.20D-07    CP:  9.70D-01  1.46D+00  6.91D-01  6.14D-01  8.85D-01
                    CP:  8.61D-01  9.88D-01  1.16D+00  1.11D+00  1.02D+00
 E= -3007.16330857578     Delta-E=       -0.000000108061 Rises=F Damp=F
 DIIS: error= 2.74D-06 at cycle  11 NSaved=  11.
 NSaved=11 IEnMin=11 EnMin= -3007.16330857578     IErMin=11 ErrMin= 2.74D-06
 ErrMax= 2.74D-06  0.00D+00 EMaxC= 1.00D-01 BMatC= 1.47D-08 BMatP= 4.48D-08
 IDIUse=1 WtCom= 1.00D+00 WtEn= 0.00D+00
 Coeff-Com: -0.224D-03 0.446D-03 0.749D-03 0.978D-03 0.142D-03-0.786D-02
 Coeff-Com: -0.265D-01-0.639D-01 0.159D-01 0.438D+00 0.643D+00
 Coeff:     -0.224D-03 0.446D-03 0.749D-03 0.978D-03 0.142D-03-0.786D-02
 Coeff:     -0.265D-01-0.639D-01 0.159D-01 0.438D+00 0.643D+00
 Gap=     0.126 Goal=   None    Shift=    0.000
 RMSDP=2.80D-07 MaxDP=5.11D-05 DE=-1.08D-07 OVMax= 1.37D-04

 Cycle  12  Pass 1  IDiag  1:
 RMSU=  1.53D-07    CP:  9.70D-01  1.46D+00  6.91D-01  6.14D-01  8.86D-01
                    CP:  8.63D-01  9.94D-01  1.19D+00  1.16D+00  1.25D+00
                    CP:  9.65D-01
 E= -3007.16330860399     Delta-E=       -0.000000028214 Rises=F Damp=F
 DIIS: error= 1.59D-06 at cycle  12 NSaved=  12.
 NSaved=12 IEnMin=12 EnMin= -3007.16330860399     IErMin=12 ErrMin= 1.59D-06
 ErrMax= 1.59D-06  0.00D+00 EMaxC= 1.00D-01 BMatC= 2.32D-09 BMatP= 1.47D-08
 IDIUse=1 WtCom= 1.00D+00 WtEn= 0.00D+00
 Coeff-Com: -0.649D-04 0.125D-03 0.264D-03 0.433D-03 0.127D-02-0.640D-03
 Coeff-Com: -0.638D-02-0.305D-01-0.388D-01 0.104D+00 0.292D+00 0.678D+00
 Coeff:     -0.649D-04 0.125D-03 0.264D-03 0.433D-03 0.127D-02-0.640D-03
 Coeff:     -0.638D-02-0.305D-01-0.388D-01 0.104D+00 0.292D+00 0.678D+00
 Gap=     0.126 Goal=   None    Shift=    0.000
 RMSDP=1.17D-07 MaxDP=1.05D-05 DE=-2.82D-08 OVMax= 8.36D-05

 Cycle  13  Pass 1  IDiag  1:
 RMSU=  7.70D-08    CP:  9.70D-01  1.46D+00  6.91D-01  6.14D-01  8.86D-01
                    CP:  8.62D-01  9.95D-01  1.20D+00  1.19D+00  1.29D+00
                    CP:  1.18D+00  1.10D+00
 E= -3007.16330861123     Delta-E=       -0.000000007240 Rises=F Damp=F
 DIIS: error= 9.67D-07 at cycle  13 NSaved=  13.
 NSaved=13 IEnMin=13 EnMin= -3007.16330861123     IErMin=13 ErrMin= 9.67D-07
 ErrMax= 9.67D-07  0.00D+00 EMaxC= 1.00D-01 BMatC= 9.60D-10 BMatP= 2.32D-09
 IDIUse=1 WtCom= 1.00D+00 WtEn= 0.00D+00
 Coeff-Com:  0.451D-04-0.929D-04-0.122D-03-0.114D-03 0.723D-03 0.213D-02
 Coeff-Com:  0.731D-02 0.593D-02-0.323D-01-0.100D+00-0.102D+00 0.364D+00
 Coeff-Com:  0.854D+00
 Coeff:      0.451D-04-0.929D-04-0.122D-03-0.114D-03 0.723D-03 0.213D-02
 Coeff:      0.731D-02 0.593D-02-0.323D-01-0.100D+00-0.102D+00 0.364D+00
 Coeff:      0.854D+00
 Gap=     0.126 Goal=   None    Shift=    0.000
 RMSDP=1.15D-07 MaxDP=7.84D-06 DE=-7.24D-09 OVMax= 6.35D-05

 Cycle  14  Pass 1  IDiag  1:
 RMSU=  3.98D-08    CP:  9.70D-01  1.46D+00  6.91D-01  6.14D-01  8.86D-01
                    CP:  8.62D-01  9.96D-01  1.20D+00  1.20D+00  1.37D+00
                    CP:  1.33D+00  1.54D+00  1.32D+00
 E= -3007.16330861522     Delta-E=       -0.000000003985 Rises=F Damp=F
 DIIS: error= 4.10D-07 at cycle  14 NSaved=  14.
 NSaved=14 IEnMin=14 EnMin= -3007.16330861522     IErMin=14 ErrMin= 4.10D-07
 ErrMax= 4.10D-07  0.00D+00 EMaxC= 1.00D-01 BMatC= 1.99D-10 BMatP= 9.60D-10
 IDIUse=1 WtCom= 1.00D+00 WtEn= 0.00D+00
 Coeff-Com:  0.419D-04-0.832D-04-0.138D-03-0.191D-03-0.323D-04 0.879D-03
 Coeff-Com:  0.584D-02 0.119D-01-0.274D-02-0.633D-01-0.131D+00-0.337D-01
 Coeff-Com:  0.349D+00 0.864D+00
 Coeff:      0.419D-04-0.832D-04-0.138D-03-0.191D-03-0.323D-04 0.879D-03
 Coeff:      0.584D-02 0.119D-01-0.274D-02-0.633D-01-0.131D+00-0.337D-01
 Coeff:      0.349D+00 0.864D+00
 Gap=     0.126 Goal=   None    Shift=    0.000
 RMSDP=6.36D-08 MaxDP=5.40D-06 DE=-3.99D-09 OVMax= 4.19D-05

 Cycle  15  Pass 1  IDiag  1:
 RMSU=  1.97D-08    CP:  9.70D-01  1.46D+00  6.91D-01  6.14D-01  8.86D-01
                    CP:  8.62D-01  9.96D-01  1.20D+00  1.21D+00  1.40D+00
                    CP:  1.43D+00  1.75D+00  1.75D+00  1.24D+00
 E= -3007.16330861643     Delta-E=       -0.000000001211 Rises=F Damp=F
 DIIS: error= 2.16D-07 at cycle  15 NSaved=  15.
 NSaved=15 IEnMin=15 EnMin= -3007.16330861643     IErMin=15 ErrMin= 2.16D-07
 ErrMax= 2.16D-07  0.00D+00 EMaxC= 1.00D-01 BMatC= 5.90D-11 BMatP= 1.99D-10
 IDIUse=1 WtCom= 1.00D+00 WtEn= 0.00D+00
 Coeff-Com:  0.414D-05-0.726D-05-0.193D-04-0.436D-04-0.190D-03-0.338D-03
 Coeff-Com:  0.475D-03 0.245D-02 0.575D-02 0.133D-02-0.271D-01-0.111D+00
 Coeff-Com: -0.123D+00 0.376D+00 0.876D+00
 Coeff:      0.414D-05-0.726D-05-0.193D-04-0.436D-04-0.190D-03-0.338D-03
 Coeff:      0.475D-03 0.245D-02 0.575D-02 0.133D-02-0.271D-01-0.111D+00
 Coeff:     -0.123D+00 0.376D+00 0.876D+00
 Gap=     0.126 Goal=   None    Shift=    0.000
 RMSDP=3.83D-08 MaxDP=2.84D-06 DE=-1.21D-09 OVMax= 2.13D-05

 Cycle  16  Pass 1  IDiag  1:
 RMSU=  8.70D-09    CP:  9.70D-01  1.46D+00  6.91D-01  6.14D-01  8.86D-01
                    CP:  8.62D-01  9.97D-01  1.21D+00  1.21D+00  1.42D+00
                    CP:  1.48D+00  1.88D+00  1.96D+00  1.60D+00  1.19D+00
 E= -3007.16330861658     Delta-E=       -0.000000000156 Rises=F Damp=F
 DIIS: error= 5.05D-08 at cycle  16 NSaved=  16.
 NSaved=16 IEnMin=16 EnMin= -3007.16330861658     IErMin=16 ErrMin= 5.05D-08
 ErrMax= 5.05D-08  0.00D+00 EMaxC= 1.00D-01 BMatC= 9.95D-12 BMatP= 5.90D-11
 IDIUse=1 WtCom= 1.00D+00 WtEn= 0.00D+00
 Coeff-Com: -0.660D-05 0.136D-04 0.197D-04 0.174D-04-0.858D-04-0.380D-03
 Coeff-Com: -0.923D-03-0.146D-02 0.351D-02 0.152D-01 0.164D-01-0.460D-01
 Coeff-Com: -0.137D+00 0.123D-01 0.410D+00 0.729D+00
 Coeff:     -0.660D-05 0.136D-04 0.197D-04 0.174D-04-0.858D-04-0.380D-03
 Coeff:     -0.923D-03-0.146D-02 0.351D-02 0.152D-01 0.164D-01-0.460D-01
 Coeff:     -0.137D+00 0.123D-01 0.410D+00 0.729D+00
 Gap=     0.126 Goal=   None    Shift=    0.000
 RMSDP=1.11D-08 MaxDP=9.78D-07 DE=-1.56D-10 OVMax= 6.81D-06

 Cycle  17  Pass 1  IDiag  1:
 RMSU=  3.88D-09    CP:  9.70D-01  1.46D+00  6.91D-01  6.14D-01  8.86D-01
                    CP:  8.62D-01  9.97D-01  1.21D+00  1.22D+00  1.42D+00
                    CP:  1.49D+00  1.91D+00  2.03D+00  1.69D+00  1.37D+00
                    CP:  9.76D-01
 E= -3007.16330861673     Delta-E=       -0.000000000149 Rises=F Damp=F
 DIIS: error= 2.69D-08 at cycle  17 NSaved=  17.
 NSaved=17 IEnMin=17 EnMin= -3007.16330861673     IErMin=17 ErrMin= 2.69D-08
 ErrMax= 2.69D-08  0.00D+00 EMaxC= 1.00D-01 BMatC= 1.64D-12 BMatP= 9.95D-12
 IDIUse=1 WtCom= 1.00D+00 WtEn= 0.00D+00
 Coeff-Com: -0.356D-05 0.709D-05 0.121D-04 0.143D-04-0.475D-05-0.115D-03
 Coeff-Com: -0.446D-03-0.110D-02 0.604D-03 0.656D-02 0.120D-01-0.289D-02
 Coeff-Com: -0.404D-01-0.521D-01 0.344D-01 0.326D+00 0.717D+00
 Coeff:     -0.356D-05 0.709D-05 0.121D-04 0.143D-04-0.475D-05-0.115D-03
 Coeff:     -0.446D-03-0.110D-02 0.604D-03 0.656D-02 0.120D-01-0.289D-02
 Coeff:     -0.404D-01-0.521D-01 0.344D-01 0.326D+00 0.717D+00
 Gap=     0.126 Goal=   None    Shift=    0.000
 RMSDP=3.35D-09 MaxDP=2.43D-07 DE=-1.49D-10 OVMax= 1.94D-06

 SCF Done:  E(RCAM-B3LYP) =  -3007.16330862     A.U. after   17 cycles
            NFock= 17  Conv=0.34D-08     -V/T= 2.0106
 KE= 2.975581518880D+03 PE=-2.598706383047D+04 EE= 1.050668623125D+04
 Leave Link  502 at Wed May  4 07:43:01 2022, MaxMem= 10066329600 cpu:            8565.4 elap:             375.0
 (Enter /sw/apps/gaussian-16.0/g16/l801.exe)
 DoSCS=F DFT=T ScalE2(SS,OS)=  1.000000  1.000000
 ExpMin= 3.36D-02 ExpMax= 4.95D+03 ExpMxC= 7.45D+02 IAcc=3 IRadAn=         5 AccDes= 0.00D+00
 HarFok:  IExCor=  205 AccDes= 0.00D+00 IRadAn=         5 IDoV=-2 UseB2=F ITyADJ=14
 ICtDFT= 12500011 ScaDFX=  1.000000  1.000000  1.000000  1.000000
 GSVD:  LWork=       -5460 too small for GESVD, short by       25550 words or       25550 for optimal perf.
 Largest valence mixing into a core orbital is  1.73D-04
 Largest core mixing into a valence orbital is  5.17D-05
 Range of M.O.s used for correlation:    71  1298
 NBasis=  1298 NAE=   246 NBE=   246 NFC=    70 NFV=     0
 NROrb=   1228 NOA=   176 NOB=   176 NVA=  1052 NVB=  1052
 Leave Link  801 at Wed May  4 07:43:02 2022, MaxMem= 10066329600 cpu:               6.3 elap:               0.3
 (Enter /sw/apps/gaussian-16.0/g16/l914.exe)
 RHF ground state
 Two-electron integrals replicated using symmetry.
 MDV= 10066329600 DFT=T DoStab=F Mixed=T DoRPA=T DoScal=F NonHer=T
 Making orbital integer symmetry assigments:
 Orbital symmetries:
       Occupied  (A) (A) (A) (A) (A) (A) (A) (A) (A) (A) (A) (A)
                 (A) (A) (A) (A) (A) (A) (A) (A) (A) (A) (A) (A)
                 (A) (A) (A) (A) (A) (A) (A) (A) (A) (A) (A) (A)
                 (A) (A) (A) (A) (A) (A) (A) (A) (A) (A) (A) (A)
                 (A) (A) (A) (A) (A) (A) (A) (A) (A) (A) (A) (A)
                 (A) (A) (A) (A) (A) (A) (A) (A) (A) (A) (A) (A)
                 (A) (A) (A) (A) (A) (A) (A) (A) (A) (A) (A) (A)
                 (A) (A) (A) (A) (A) (A) (A) (A) (A) (A) (A) (A)
                 (A) (A) (A) (A) (A) (A) (A) (A) (A) (A) (A) (A)
                 (A) (A) (A) (A) (A) (A) (A) (A) (A) (A) (A) (A)
                 (A) (A) (A) (A) (A) (A) (A) (A) (A) (A) (A) (A)
                 (A) (A) (A) (A) (A) (A) (A) (A) (A) (A) (A) (A)
                 (A) (A) (A) (A) (A) (A) (A) (A) (A) (A) (A) (A)
                 (A) (A) (A) (A) (A) (A) (A) (A) (A) (A) (A) (A)
                 (A) (A) (A) (A) (A) (A) (A) (A) (A) (A) (A) (A)
                 (A) (A) (A) (A) (A) (A) (A) (A) (A) (A) (A) (A)
                 (A) (A) (A) (A) (A) (A) (A) (A) (A) (A) (A) (A)
                 (A) (A) (A) (A) (A) (A) (A) (A) (A) (A) (A) (A)
                 (A) (A) (A) (A) (A) (A) (A) (A) (A) (A) (A) (A)
                 (A) (A) (A) (A) (A) (A) (A) (A) (A) (A) (A) (A)
                 (A) (A) (A) (A) (A) (A)
       Virtual   (A) (A) (A) (A) (A) (A) (A) (A) (A) (A) (A) (A)
                 (A) (A) (A) (A) (A) (A) (A) (A) (A) (A) (A) (A)
                 (A) (A) (A) (A) (A) (A) (A) (A) (A) (A) (A) (A)
                 (A) (A) (A) (A) (A) (A) (A) (A) (A) (A) (A) (A)
                 (A) (A) (A) (A) (A) (A) (A) (A) (A) (A) (A) (A)
                 (A) (A) (A) (A) (A) (A) (A) (A) (A) (A) (A) (A)
                 (A) (A) (A) (A) (A) (A) (A) (A) (A) (A) (A) (A)
                 (A) (A) (A) (A) (A) (A) (A) (A) (A) (A) (A) (A)
                 (A) (A) (A) (A) (A) (A) (A) (A) (A) (A) (A) (A)
                 (A) (A) (A) (A) (A) (A) (A) (A) (A) (A) (A) (A)
                 (A) (A) (A) (A) (A) (A) (A) (A) (A) (A) (A) (A)
                 (A) (A) (A) (A) (A) (A) (A) (A) (A) (A) (A) (A)
                 (A) (A) (A) (A) (A) (A) (A) (A) (A) (A) (A) (A)
                 (A) (A) (A) (A) (A) (A) (A) (A) (A) (A) (A) (A)
                 (A) (A) (A) (A) (A) (A) (A) (A) (A) (A) (A) (A)
                 (A) (A) (A) (A) (A) (A) (A) (A) (A) (A) (A) (A)
                 (A) (A) (A) (A) (A) (A) (A) (A) (A) (A) (A) (A)
                 (A) (A) (A) (A) (A) (A) (A) (A) (A) (A) (A) (A)
                 (A) (A) (A) (A) (A) (A) (A) (A) (A) (A) (A) (A)
                 (A) (A) (A) (A) (A) (A) (A) (A) (A) (A) (A) (A)
                 (A) (A) (A) (A) (A) (A) (A) (A) (A) (A) (A) (A)
                 (A) (A) (A) (A) (A) (A) (A) (A) (A) (A) (A) (A)
                 (A) (A) (A) (A) (A) (A) (A) (A) (A) (A) (A) (A)
                 (A) (A) (A) (A) (A) (A) (A) (A) (A) (A) (A) (A)
                 (A) (A) (A) (A) (A) (A) (A) (A) (A) (A) (A) (A)
                 (A) (A) (A) (A) (A) (A) (A) (A) (A) (A) (A) (A)
                 (A) (A) (A) (A) (A) (A) (A) (A) (A) (A) (A) (A)
                 (A) (A) (A) (A) (A) (A) (A) (A) (A) (A) (A) (A)
                 (A) (A) (A) (A) (A) (A) (A) (A) (A) (A) (A) (A)
                 (A) (A) (A) (A) (A) (A) (A) (A) (A) (A) (A) (A)
                 (A) (A) (A) (A) (A) (A) (A) (A) (A) (A) (A) (A)
                 (A) (A) (A) (A) (A) (A) (A) (A) (A) (A) (A) (A)
                 (A) (A) (A) (A) (A) (A) (A) (A) (A) (A) (A) (A)
                 (A) (A) (A) (A) (A) (A) (A) (A) (A) (A) (A) (A)
                 (A) (A) (A) (A) (A) (A) (A) (A) (A) (A) (A) (A)
                 (A) (A) (A) (A) (A) (A) (A) (A) (A) (A) (A) (A)
                 (A) (A) (A) (A) (A) (A) (A) (A) (A) (A) (A) (A)
                 (A) (A) (A) (A) (A) (A) (A) (A) (A) (A) (A) (A)
                 (A) (A) (A) (A) (A) (A) (A) (A) (A) (A) (A) (A)
                 (A) (A) (A) (A) (A) (A) (A) (A) (A) (A) (A) (A)
                 (A) (A) (A) (A) (A) (A) (A) (A) (A) (A) (A) (A)
                 (A) (A) (A) (A) (A) (A) (A) (A) (A) (A) (A) (A)
                 (A) (A) (A) (A) (A) (A) (A) (A) (A) (A) (A) (A)
                 (A) (A) (A) (A) (A) (A) (A) (A) (A) (A) (A) (A)
                 (A) (A) (A) (A) (A) (A) (A) (A) (A) (A) (A) (A)
                 (A) (A) (A) (A) (A) (A) (A) (A) (A) (A) (A) (A)
                 (A) (A) (A) (A) (A) (A) (A) (A) (A) (A) (A) (A)
                 (A) (A) (A) (A) (A) (A) (A) (A) (A) (A) (A) (A)
                 (A) (A) (A) (A) (A) (A) (A) (A) (A) (A) (A) (A)
                 (A) (A) (A) (A) (A) (A) (A) (A) (A) (A) (A) (A)
                 (A) (A) (A) (A) (A) (A) (A) (A) (A) (A) (A) (A)
                 (A) (A) (A) (A) (A) (A) (A) (A) (A) (A) (A) (A)
                 (A) (A) (A) (A) (A) (A) (A) (A) (A) (A) (A) (A)
                 (A) (A) (A) (A) (A) (A) (A) (A) (A) (A) (A) (A)
                 (A) (A) (A) (A) (A) (A) (A) (A) (A) (A) (A) (A)
                 (A) (A) (A) (A) (A) (A) (A) (A) (A) (A) (A) (A)
                 (A) (A) (A) (A) (A) (A) (A) (A) (A) (A) (A) (A)
                 (A) (A) (A) (A) (A) (A) (A) (A) (A) (A) (A) (A)
                 (A) (A) (A) (A) (A) (A) (A) (A) (A) (A) (A) (A)
                 (A) (A) (A) (A) (A) (A) (A) (A) (A) (A) (A) (A)
                 (A) (A) (A) (A) (A) (A) (A) (A) (A) (A) (A) (A)
                 (A) (A) (A) (A) (A) (A) (A) (A) (A) (A) (A) (A)
                 (A) (A) (A) (A) (A) (A) (A) (A) (A) (A) (A) (A)
                 (A) (A) (A) (A) (A) (A) (A) (A) (A) (A) (A) (A)
                 (A) (A) (A) (A) (A) (A) (A) (A) (A) (A) (A) (A)
                 (A) (A) (A) (A) (A) (A) (A) (A) (A) (A) (A) (A)
                 (A) (A) (A) (A) (A) (A) (A) (A) (A) (A) (A) (A)
                 (A) (A) (A) (A) (A) (A) (A) (A) (A) (A) (A) (A)
                 (A) (A) (A) (A) (A) (A) (A) (A) (A) (A) (A) (A)
                 (A) (A) (A) (A) (A) (A) (A) (A) (A) (A) (A) (A)
                 (A) (A) (A) (A) (A) (A) (A) (A) (A) (A) (A) (A)
                 (A) (A) (A) (A) (A) (A) (A) (A) (A) (A) (A) (A)
                 (A) (A) (A) (A) (A) (A) (A) (A) (A) (A) (A) (A)
                 (A) (A) (A) (A) (A) (A) (A) (A) (A) (A) (A) (A)
                 (A) (A) (A) (A) (A) (A) (A) (A) (A) (A) (A) (A)
                 (A) (A) (A) (A) (A) (A) (A) (A) (A) (A) (A) (A)
                 (A) (A) (A) (A) (A) (A) (A) (A) (A) (A) (A) (A)
                 (A) (A) (A) (A) (A) (A) (A) (A) (A) (A) (A) (A)
                 (A) (A) (A) (A) (A) (A) (A) (A) (A) (A) (A) (A)
                 (A) (A) (A) (A) (A) (A) (A) (A) (A) (A) (A) (A)
                 (A) (A) (A) (A) (A) (A) (A) (A) (A) (A) (A) (A)
                 (A) (A) (A) (A) (A) (A) (A) (A) (A) (A) (A) (A)
                 (A) (A) (A) (A) (A) (A) (A) (A) (A) (A) (A) (A)
                 (A) (A) (A) (A) (A) (A) (A) (A) (A) (A) (A) (A)
                 (A) (A) (A) (A) (A) (A) (A) (A) (A) (A) (A) (A)
                 (A) (A) (A) (A) (A) (A) (A) (A) (A) (A) (A) (A)
                 (A) (A) (A) (A) (A) (A) (A) (A) (A) (A) (A) (A)
                 (A) (A) (A) (A) (A) (A) (A) (A)
    20 initial guesses have been made.
 Convergence on wavefunction:    0.001000000000000
 Davidson Disk Diagonalization:  ConvIn= 1.00D-03 SkipCon=T Conv= 1.00D-03.
 Max sub-space:  2000 roots to seek:    20 dimension of matrix:       370304
 Iteration     1 Dimension    20 NMult     0 NNew     20
 CISAX will form    20 AO SS matrices at one time.
 NMat=    20 NSing=    20 JSym2X= 0.
 FoFJK:  IHMeth= 1 ICntrl=       0 DoSepK=T KAlg= 0 I1Cent=           0 FoldK=F
 IRaf=         1 NMat=      40 IRICut=       1 DoRegI=T DoRafI=F ISym2E= 0 IDoP0=3 IntGTp=3.
 FoFCou: FMM=T IPFlag=           0 FMFlag=      100000 FMFlg1=        2001
         NFxFlg=           0 DoJE=F BraDBF=F KetDBF=F FulRan=T
         wScrn=  0.000000 ICntrl=       500 IOpCl=  0 I1Cent=           0 NGrid=           0
         NMat0=   20 NMatS0=     20 NMatT0=    0 NMatD0=   20 NMtDS0=    0 NMtDT0=    0
 Symmetry not used in FoFCou.
 FMM levels:  10  Number of levels for PrismC:   9
 New state      3 was old state      4
 New state      4 was old state      5
 New state      5 was old state      7
 Excitation Energies [eV] at current iteration:
 Root      1 :     2.209174944213534
 Root      2 :     2.599306421310523
 Root      3 :     3.674568248304476
 Root      4 :     3.827774456747596
 Root      5 :     3.992330851726987
 Root      6 :     3.999969236648998
 Root      7 :     4.157153856151362
 Root      8 :     4.263033886735860
 Root      9 :     4.377504403517997
 Root     10 :     4.510225966762621
 Root     11 :     4.559676221900388
 Root     12 :     4.564328846494677
 Root     13 :     4.958735127314433
 Root     14 :     4.966285659353305
 Root     15 :     4.998905583601180
 Root     16 :     5.111230289793890
 Root     17 :     5.316812987545451
 Root     18 :     5.396876640000651
 Root     19 :     5.692969594035371
 Root     20 :     6.272612473854586
 Iteration     2 Dimension    30 NMult    20 NNew     10
 CISAX will form    10 AO SS matrices at one time.
 NMat=    10 NSing=    10 JSym2X= 0.
 Root      1 not converged, maximum delta is    0.070439470071450
 Root      2 not converged, maximum delta is    0.065585299611806
 Root      3 not converged, maximum delta is    0.172214865077054
 Root      4 not converged, maximum delta is    0.172629816129653
 Root      5 not converged, maximum delta is    0.235906102667861
 Excitation Energies [eV] at current iteration:
 Root      1 :     1.753164782138118   Change is   -0.456010162075415
 Root      2 :     2.201216695755424   Change is   -0.398089725555099
 Root      3 :     3.342435128371797   Change is   -0.332133119932679
 Root      4 :     3.455699452620304   Change is   -0.372075004127293
 Root      5 :     3.619458617986392   Change is   -0.372872233740595
 Iteration     3 Dimension    40 NMult    30 NNew     10
 CISAX will form    10 AO SS matrices at one time.
 NMat=    10 NSing=    10 JSym2X= 0.
 Root      1 not converged, maximum delta is    0.015387721128204
 Root      2 not converged, maximum delta is    0.012673641342800
 Root      3 not converged, maximum delta is    0.011129196617512
 Root      4 not converged, maximum delta is    0.051117108752155
 Root      5 not converged, maximum delta is    0.114280673095731
 Excitation Energies [eV] at current iteration:
 Root      1 :     1.720536757016834   Change is   -0.032628025121284
 Root      2 :     2.179276887893056   Change is   -0.021939807862368
 Root      3 :     3.328054323128702   Change is   -0.014380805243095
 Root      4 :     3.437621220476133   Change is   -0.018078232144170
 Root      5 :     3.465081378966517   Change is   -0.154377239019875
 Iteration     4 Dimension    50 NMult    40 NNew     10
 CISAX will form    10 AO SS matrices at one time.
 NMat=    10 NSing=    10 JSym2X= 0.
 Root      1 not converged, maximum delta is    0.002583275197138
 Root      2 not converged, maximum delta is    0.002475473996727
 Root      3 not converged, maximum delta is    0.005869344643187
 Root      4 not converged, maximum delta is    0.067832280522658
 Root      5 not converged, maximum delta is    0.086179278392548
 Excitation Energies [eV] at current iteration:
 Root      1 :     1.716538707021932   Change is   -0.003998049994903
 Root      2 :     2.176319508261235   Change is   -0.002957379631821
 Root      3 :     3.324700630336743   Change is   -0.003353692791959
 Root      4 :     3.432993895150725   Change is   -0.004627325325408
 Root      5 :     3.450739065267600   Change is   -0.014342313698917
 Iteration     5 Dimension    60 NMult    50 NNew     10
 CISAX will form    10 AO SS matrices at one time.
 NMat=    10 NSing=    10 JSym2X= 0.
 Root      1 not converged, maximum delta is    0.001110099232396
 Root      2 has converged.
 Root      3 not converged, maximum delta is    0.002302809451758
 Root      4 not converged, maximum delta is    0.020901211787976
 Root      5 not converged, maximum delta is    0.028722505585067
 Excitation Energies [eV] at current iteration:
 Root      1 :     1.716206952226095   Change is   -0.000331754795836
 Root      2 :     2.176123852116575   Change is   -0.000195656144660
 Root      3 :     3.324389059174318   Change is   -0.000311571162425
 Root      4 :     3.432159619668328   Change is   -0.000834275482398
 Root      5 :     3.449207557308034   Change is   -0.001531507959566
 Iteration     6 Dimension    68 NMult    60 NNew      8
 CISAX will form     8 AO SS matrices at one time.
 NMat=     8 NSing=     8 JSym2X= 0.
 Root      1 has converged.
 Root      2 has converged.
 Root      3 has converged.
 Root      4 not converged, maximum delta is    0.005844970319000
 Root      5 not converged, maximum delta is    0.008385882606321
 Excitation Energies [eV] at current iteration:
 Root      1 :     1.716177956660601   Change is   -0.000028995565495
 Root      2 :     2.176122314941376   Change is   -0.000001537175199
 Root      3 :     3.324355420548140   Change is   -0.000033638626178
 Root      4 :     3.431944062173975   Change is   -0.000215557494353
 Root      5 :     3.448955125155739   Change is   -0.000252432152295
 Iteration     7 Dimension    72 NMult    68 NNew      4
 CISAX will form     4 AO SS matrices at one time.
 NMat=     4 NSing=     4 JSym2X= 0.
 Root      1 has converged.
 Root      2 has converged.
 Root      3 has converged.
 Root      4 not converged, maximum delta is    0.002553818737228
 Root      5 not converged, maximum delta is    0.001674336358586
 Excitation Energies [eV] at current iteration:
 Root      1 :     1.716177896901071   Change is   -0.000000059759530
 Root      2 :     2.176122088823374   Change is   -0.000000226118001
 Root      3 :     3.324355142147298   Change is   -0.000000278400842
 Root      4 :     3.431889990065597   Change is   -0.000054072108378
 Root      5 :     3.448913755515646   Change is   -0.000041369640094
 Iteration     8 Dimension    76 NMult    72 NNew      4
 CISAX will form     4 AO SS matrices at one time.
 NMat=     4 NSing=     4 JSym2X= 0.
 Root      1 has converged.
 Root      2 has converged.
 Root      3 has converged.
 Root      4 not converged, maximum delta is    0.002732012038522
 Root      5 has converged.
 Excitation Energies [eV] at current iteration:
 Root      1 :     1.716177866175699   Change is   -0.000000030725371
 Root      2 :     2.176121487513811   Change is   -0.000000601309564
 Root      3 :     3.324354840350850   Change is   -0.000000301796448
 Root      4 :     3.431862658623031   Change is   -0.000027331442566
 Root      5 :     3.448906354346924   Change is   -0.000007401168722
 Iteration     9 Dimension    78 NMult    76 NNew      2
 CISAX will form     2 AO SS matrices at one time.
 NMat=     2 NSing=     2 JSym2X= 0.
 Root      1 has converged.
 Root      2 has converged.
 Root      3 has converged.
 Root      4 not converged, maximum delta is    0.001855831705674
 Root      5 has converged.
 Excitation Energies [eV] at current iteration:
 Root      1 :     1.716177838739006   Change is   -0.000000027436693
 Root      2 :     2.176121288428816   Change is   -0.000000199084995
 Root      3 :     3.324354476183255   Change is   -0.000000364167595
 Root      4 :     3.431848063480758   Change is   -0.000014595142272
 Root      5 :     3.448906028818092   Change is   -0.000000325528831
 Iteration    10 Dimension    80 NMult    78 NNew      2
 CISAX will form     2 AO SS matrices at one time.
 NMat=     2 NSing=     2 JSym2X= 0.
 Root      1 has converged.
 Root      2 has converged.
 Root      3 has converged.
 Root      4 has converged.
 Root      5 has converged.
 Excitation Energies [eV] at current iteration:
 Root      1 :     1.716177818536064   Change is   -0.000000020202942
 Root      2 :     2.176121212968977   Change is   -0.000000075459839
 Root      3 :     3.324354369183553   Change is   -0.000000106999702
 Root      4 :     3.431843561882917   Change is   -0.000004501597842
 Root      5 :     3.448905812208799   Change is   -0.000000216609294
 Convergence achieved on expansion vectors.
 ***********************************************************************
 Excited states from <AA,BB:AA,BB> singles matrix:
 ***********************************************************************
 
 1PDM for each excited state written to RWF  633
 Ground to excited state transition densities written to RWF  633
 Ground to excited state transition electric dipole moments (Au):
       state          X           Y           Z        Dip. S.      Osc.
         1         0.3594      2.9148      0.4969      8.8721      0.3730
         2        -1.5247      0.4303     -0.1757      2.5409      0.1355
         3         0.2031      0.0889      0.1375      0.0681      0.0055
         4        -0.3469     -0.0617     -0.0679      0.1288      0.0108
         5        -0.4123      0.0866     -0.0144      0.1777      0.0150
 Ground to excited state transition velocity dipole moments (Au):
       state          X           Y           Z        Dip. S.      Osc.
         1        -0.0212     -0.1785     -0.0313      0.0333      0.3520
         2         0.1153     -0.0329      0.0139      0.0146      0.1214
         3        -0.0267     -0.0102     -0.0163      0.0011      0.0059
         4         0.0406      0.0052      0.0058      0.0017      0.0090
         5         0.0483     -0.0113      0.0037      0.0025      0.0130
 Ground to excited state transition magnetic dipole moments (Au):
       state          X           Y           Z
         1         0.0226     -0.3724      1.7463
         2        -0.0591      0.1285      0.1358
         3        -0.0174     -0.0333     -0.8817
         4         0.3794     -0.0950     -0.2511
         5        -0.5923      0.1010      0.3164
 Ground to excited state transition velocity quadrupole moments (Au):
       state          XX          YY          ZZ          XY          XZ          YZ
         1         0.5758     -0.3045      0.0163      1.9929      0.4495     -0.1019
         2        -2.3355     -0.0290     -0.0126      0.3716     -0.1369     -0.0944
         3         0.6146     -0.3168     -0.0169      0.4693      0.1937     -0.0843
         4        -0.7647      0.1078      0.0321     -0.0055     -0.1095      0.2307
         5        -0.9443      0.1021     -0.0143      0.1506     -0.0464      0.0490
 <0|del|b> * <b|rxdel|0> + <0|del|b> * <b|delr+rdel|0>
 Rotatory Strengths (R) in cgs (10**-40 erg-esu-cm/Gauss)
       state          XX          YY          ZZ    R(velocity)    E-M Angle
         1       167.1194     52.6566    -92.0112     42.5883       88.00
         2        -7.3400    -92.7461     19.1895    -26.9655      112.75
         3        26.1894     71.6144     -9.9125     29.2971       58.48
         4        -3.9912     65.4078     13.9297     25.1154       45.63
         5         0.1837    -71.4403    -88.0778    -53.1115      147.78
 1/2[<0|r|b>*<b|rxdel|0> + (<0|rxdel|b>*<b|r|0>)*]
 Rotatory Strengths (R) in cgs (10**-40 erg-esu-cm/Gauss)
       state          XX          YY          ZZ     R(length)
         1        -5.7513    767.5831   -613.5948     49.4123
         2       -63.7466    -39.0964     16.8683    -28.6582
         3         2.5034      2.0960     85.7604     30.1199
         4        93.0788     -4.1465    -12.0561     25.6254
         5      -172.7011     -6.1828      3.2168    -58.5557
  1/2[<0|del|b>*<b|r|0> + (<0|r|b>*<b|del|0>)*] (Au)
       state          X           Y           Z        Dip. S.   Osc.(frdel)
         1        -0.0076     -0.5204     -0.0155      0.5436      0.3624
         2        -0.1758     -0.0142     -0.0024      0.1924      0.1282
         3        -0.0054     -0.0009     -0.0022      0.0086      0.0057
         4        -0.0141     -0.0003     -0.0004      0.0148      0.0099
         5        -0.0199     -0.0010     -0.0001      0.0209      0.0140

 Excitation energies and oscillator strengths:
 
 Excited State   1:      Singlet-A      1.7162 eV  722.44 nm  f=0.3730  <S**2>=0.000
     245 -> 248       -0.18969
     246 -> 247        0.68307
     245 <- 248       -0.10938
 This state for optimization and/or second-order correction.
 Total Energy, E(TD-HF/TD-DFT) =  -3007.10024024    
 Copying the excited state density for this state as the 1-particle RhoCI density.
 
 Excited State   2:      Singlet-A      2.1761 eV  569.75 nm  f=0.1355  <S**2>=0.000
     245 -> 247        0.65080
     246 -> 248        0.26477
 
 Excited State   3:      Singlet-A      3.3244 eV  372.96 nm  f=0.0055  <S**2>=0.000
     243 -> 247       -0.13971
     244 -> 247        0.67010
     246 -> 248        0.10780
 
 Excited State   4:      Singlet-A      3.4318 eV  361.28 nm  f=0.0108  <S**2>=0.000
     241 -> 247       -0.12727
     243 -> 247        0.61144
     244 -> 247        0.16047
     246 -> 248       -0.22766
 
 Excited State   5:      Singlet-A      3.4489 eV  359.49 nm  f=0.0150  <S**2>=0.000
     241 -> 247        0.53518
     241 -> 248        0.13102
     241 -> 249       -0.29870
     241 -> 251        0.18142
     243 -> 247        0.11439
     246 -> 248       -0.15242
 SavETr:  write IOETrn=   770 NScale= 10 NData=  16 NLR=1 NState=    5 LETran=     100.
 Leave Link  914 at Wed May  4 08:03:13 2022, MaxMem= 10066329600 cpu:           28725.5 elap:            1211.1
 (Enter /sw/apps/gaussian-16.0/g16/l601.exe)
 Copying SCF densities to generalized density rwf, IOpCl= 0 IROHF=0.
 Hyperfine terms turned off by default for NAtoms > 100.

 **********************************************************************

            Population analysis using the SCF density.

 **********************************************************************

 Orbital symmetries:
       Occupied  (A) (A) (A) (A) (A) (A) (A) (A) (A) (A) (A) (A)
[...]
 Alpha virt. eigenvalues --    1.19629   1.20415   1.20682   1.21535   1.21746
 Alpha virt. eigenvalues --    1.22193   1.22434   1.22648   1.22860   1.23119
 Alpha virt. eigenvalues --    1.23312   1.24368   1.25183   1.25290   1.25449
 Alpha virt. eigenvalues --    1.26942   1.27413   1.27563   1.28385   1.28969
 Alpha virt. eigenvalues --    1.29346   1.29730   1.29877   1.30588   1.31318
 Alpha virt. eigenvalues --    1.31458   1.32194   1.32256   1.33429   1.34035
 Alpha virt. eigenvalues --    1.34278   1.34423   1.35190   1.35588   1.36422
 Alpha virt. eigenvalues --    1.36739   1.36811   1.37104   1.37883   1.37890
 Alpha virt. eigenvalues --    1.38079   1.38327   1.38586   1.39135   1.39236
 Alpha virt. eigenvalues --    1.40163   1.40754   1.40952   1.41900   1.42013
 Alpha virt. eigenvalues --    1.42497   1.42581   1.42905   1.43022   1.43530
 Alpha virt. eigenvalues --    1.44002   1.44437   1.44593   1.44784   1.45642
 Alpha virt. eigenvalues --    1.46036   1.46331   1.46481   1.47348   1.47519
 Alpha virt. eigenvalues --    1.47725   1.48195   1.48231   1.48836   1.49350
 Alpha virt. eigenvalues --    1.49889   1.50589   1.50852   1.51587   1.52663
 Alpha virt. eigenvalues --    1.53135   1.53844   1.53952   1.54436   1.54544
 Alpha virt. eigenvalues --    1.55306   1.55347   1.55885   1.56372   1.56818
 Alpha virt. eigenvalues --    1.56975   1.57303   1.57517   1.57725   1.57790
 Alpha virt. eigenvalues --    1.58389   1.58657   1.60177   1.60326   1.60369
 Alpha virt. eigenvalues --    1.60625   1.60901   1.61072   1.61115   1.61480
 Alpha virt. eigenvalues --    1.61601   1.62418   1.62539   1.62640   1.62732
 Alpha virt. eigenvalues --    1.62891   1.63198   1.63329   1.63536   1.63841
 Alpha virt. eigenvalues --    1.64248   1.64334   1.64733   1.64940   1.65359
 Alpha virt. eigenvalues --    1.65461   1.65762   1.65937   1.66633   1.67033
 Alpha virt. eigenvalues --    1.67293   1.67407   1.68100   1.68490   1.69064
 Alpha virt. eigenvalues --    1.69398   1.69963   1.70139   1.70483   1.70492
 Alpha virt. eigenvalues --    1.71018   1.71837   1.72027   1.72865   1.73204
 Alpha virt. eigenvalues --    1.73938   1.74190   1.74436   1.74803   1.74865
 Alpha virt. eigenvalues --    1.75185   1.75592   1.75879   1.75929   1.76300
 Alpha virt. eigenvalues --    1.76353   1.77763   1.78007   1.78336   1.78847
 Alpha virt. eigenvalues --    1.79194   1.79449   1.79499   1.79649   1.80393
 Alpha virt. eigenvalues --    1.80524   1.80671   1.80785   1.80916   1.81100
 Alpha virt. eigenvalues --    1.81474   1.81669   1.81901   1.82055   1.82469
 Alpha virt. eigenvalues --    1.82906   1.82969   1.83121   1.83555   1.83761
 Alpha virt. eigenvalues --    1.83964   1.84272   1.84394   1.84433   1.84659
 Alpha virt. eigenvalues --    1.84808   1.84952   1.85136   1.85231   1.85436
 Alpha virt. eigenvalues --    1.85611   1.85805   1.85951   1.86317   1.86628
 Alpha virt. eigenvalues --    1.86686   1.86785   1.86940   1.87379   1.87451
 Alpha virt. eigenvalues --    1.87641   1.87750   1.88266   1.88353   1.88541
 Alpha virt. eigenvalues --    1.88647   1.88923   1.89085   1.89179   1.89422
 Alpha virt. eigenvalues --    1.89492   1.89718   1.89951   1.90336   1.90438
 Alpha virt. eigenvalues --    1.90633   1.90813   1.90938   1.91046   1.91192
 Alpha virt. eigenvalues --    1.92033   1.92146   1.92259   1.92398   1.92548
 Alpha virt. eigenvalues --    1.92626   1.92962   1.93275   1.93715   1.93740
 Alpha virt. eigenvalues --    1.93825   1.93997   1.94229   1.94401   1.94769
 Alpha virt. eigenvalues --    1.95085   1.95191   1.95226   1.95719   1.95986
 Alpha virt. eigenvalues --    1.96143   1.96222   1.96574   1.97025   1.97216
 Alpha virt. eigenvalues --    1.97442   1.97820   1.97890   1.98255   1.98575
 Alpha virt. eigenvalues --    1.98780   1.99055   1.99304   1.99558   1.99693
 Alpha virt. eigenvalues --    1.99816   1.99936   2.00463   2.01045   2.01334
 Alpha virt. eigenvalues --    2.01687   2.02170   2.02288   2.02663   2.03039
 Alpha virt. eigenvalues --    2.03607   2.03784   2.04009   2.04197   2.04286
 Alpha virt. eigenvalues --    2.04453   2.05168   2.05377   2.06099   2.06170
 Alpha virt. eigenvalues --    2.06369   2.06599   2.06728   2.07190   2.07429
 Alpha virt. eigenvalues --    2.08108   2.08271   2.08609   2.08680   2.08770
 Alpha virt. eigenvalues --    2.09080   2.09765   2.09921   2.10381   2.10552
 Alpha virt. eigenvalues --    2.10756   2.11104   2.11135   2.11958   2.12177
 Alpha virt. eigenvalues --    2.12357   2.12429   2.12587   2.13168   2.13482
 Alpha virt. eigenvalues --    2.14021   2.14191   2.14560   2.15037   2.15330
 Alpha virt. eigenvalues --    2.15778   2.15815   2.16073   2.16229   2.16574
 Alpha virt. eigenvalues --    2.16593   2.16988   2.17342   2.17385   2.17682
 Alpha virt. eigenvalues --    2.17947   2.18358   2.18504   2.19207   2.19600
 Alpha virt. eigenvalues --    2.19865   2.20350   2.20735   2.21167   2.21471
 Alpha virt. eigenvalues --    2.21817   2.22316   2.22501   2.22723   2.23376
 Alpha virt. eigenvalues --    2.23546   2.24288   2.24547   2.25090   2.25881
 Alpha virt. eigenvalues --    2.26041   2.26186   2.26845   2.27160   2.28375
 Alpha virt. eigenvalues --    2.28439   2.29000   2.29205   2.29725   2.29858
 Alpha virt. eigenvalues --    2.30325   2.30636   2.30763   2.30866   2.31416
 Alpha virt. eigenvalues --    2.31768   2.31914   2.32464   2.32795   2.32975
 Alpha virt. eigenvalues --    2.33419   2.34264   2.34420   2.34542   2.34831
 Alpha virt. eigenvalues --    2.35079   2.35642   2.35759   2.35926   2.36504
 Alpha virt. eigenvalues --    2.36773   2.37019   2.37376   2.37577   2.37796
 Alpha virt. eigenvalues --    2.38328   2.39146   2.39580   2.39978   2.40399
 Alpha virt. eigenvalues --    2.40813   2.41436   2.41563   2.42046   2.42555
 Alpha virt. eigenvalues --    2.42791   2.43076   2.43170   2.43969   2.44335
 Alpha virt. eigenvalues --    2.44594   2.44807   2.45274   2.45524   2.45665
 Alpha virt. eigenvalues --    2.45896   2.46072   2.46914   2.47203   2.47350
 Alpha virt. eigenvalues --    2.47692   2.48612   2.49075   2.49194   2.49668
 Alpha virt. eigenvalues --    2.49744   2.50139   2.50458   2.51023   2.51807
 Alpha virt. eigenvalues --    2.51826   2.52459   2.52846   2.53059   2.53142
 Alpha virt. eigenvalues --    2.53469   2.53794   2.54870   2.55685   2.55917
 Alpha virt. eigenvalues --    2.56236   2.56453   2.56766   2.57029   2.57601
 Alpha virt. eigenvalues --    2.57683   2.58506   2.58676   2.59864   2.60185
 Alpha virt. eigenvalues --    2.60594   2.61076   2.61583   2.61793   2.61951
 Alpha virt. eigenvalues --    2.62050   2.62774   2.63011   2.63344   2.63924
 Alpha virt. eigenvalues --    2.64116   2.64602   2.64988   2.65398   2.66045
 Alpha virt. eigenvalues --    2.66214   2.66771   2.66813   2.67149   2.67191
 Alpha virt. eigenvalues --    2.67516   2.68473   2.68748   2.69024   2.69511
 Alpha virt. eigenvalues --    2.69868   2.70573   2.70765   2.71290   2.71360
 Alpha virt. eigenvalues --    2.71511   2.71957   2.72411   2.72734   2.73634
 Alpha virt. eigenvalues --    2.74175   2.74218   2.75096   2.75443   2.75606
 Alpha virt. eigenvalues --    2.76230   2.76578   2.77002   2.77397   2.78070
 Alpha virt. eigenvalues --    2.78930   2.79122   2.79501   2.80094   2.80273
 Alpha virt. eigenvalues --    2.80899   2.81216   2.81428   2.81526   2.81756
 Alpha virt. eigenvalues --    2.82402   2.82608   2.82779   2.83223   2.83346
 Alpha virt. eigenvalues --    2.83805   2.84456   2.84678   2.85441   2.86098
 Alpha virt. eigenvalues --    2.87182   2.87534   2.87706   2.88730   2.88818
 Alpha virt. eigenvalues --    2.90042   2.90162   2.90632   2.90914   2.91425
 Alpha virt. eigenvalues --    2.92795   2.93584   2.94002   2.94361   2.94557
 Alpha virt. eigenvalues --    2.94998   2.96121   2.96661   2.96831   2.96933
 Alpha virt. eigenvalues --    2.97590   2.97801   2.97968   2.98302   2.98345
 Alpha virt. eigenvalues --    2.98538   2.98657   2.98836   2.99019   2.99230
 Alpha virt. eigenvalues --    2.99918   3.00211   3.00556   3.01185   3.01243
 Alpha virt. eigenvalues --    3.01545   3.01865   3.02427   3.02775   3.02951
 Alpha virt. eigenvalues --    3.03333   3.03379   3.03532   3.03984   3.04093
 Alpha virt. eigenvalues --    3.04483   3.04615   3.04883   3.05107   3.05517
 Alpha virt. eigenvalues --    3.05703   3.06032   3.06131   3.06411   3.06840
 Alpha virt. eigenvalues --    3.06924   3.07009   3.07336   3.07536   3.08144
 Alpha virt. eigenvalues --    3.08385   3.08464   3.09081   3.09133   3.09676
 Alpha virt. eigenvalues --    3.10303   3.10694   3.10893   3.10918   3.11673
 Alpha virt. eigenvalues --    3.12353   3.12762   3.13130   3.13303   3.13409
 Alpha virt. eigenvalues --    3.14820   3.15329   3.15993   3.16326   3.17583
 Alpha virt. eigenvalues --    3.17685   3.18147   3.20418   3.21938   3.22413
 Alpha virt. eigenvalues --    3.22882   3.23142   3.23983   3.24952   3.26075
 Alpha virt. eigenvalues --    3.27119   3.28091   3.28685   3.30223   3.30973
 Alpha virt. eigenvalues --    3.31932   3.33324   3.46698   3.47957   3.48548
 Alpha virt. eigenvalues --    3.50778   3.51934   3.53911   3.56022   3.58076
 Alpha virt. eigenvalues --    3.63769   3.66207   3.68967   3.70351   3.71521
 Alpha virt. eigenvalues --    3.72943   3.77228
          Condensed to atoms (all electrons):
 Mulliken charges:
               1
     1  Mg   0.840529
     2  C   -0.071053
     3  C   -0.055656
     4  C   -0.061346
     5  C   -0.102680
     6  N   -0.207818
     7  C   -0.039749
     8  C   -0.035248
     9  C   -0.056789
    10  C    0.053377
    11  C    0.058891
    12  C    0.109876
    13  C    0.002191
    14  C    0.145260
    15  O   -0.242390
    16  O   -0.337991
    17  N   -0.364869
    18  C    0.119266
    19  C   -0.167419
    20  C   -0.044858
    21  C    0.115389
    22  C    0.103346
    23  C   -0.008456
    24  O   -0.213621
    25  C    0.061487
    26  N   -0.316316
    27  C    0.019148
    28  C   -0.032862
    29  C    0.001092
    30  C    0.040025
    31  C    0.065748
    32  C    0.020932
    33  C    0.002090
    34  N   -0.345033
    35  C    0.143520
    36  C   -0.158581
    37  C   -0.014253
    38  C    0.153936
    39  C    0.113716
    40  C    0.048305
    41  O   -0.146901
    42  C    0.011382
    43  C    0.159241
    44  O   -0.187009
    45  O   -0.345544
    46  C    0.171301
    47  C    0.276777
    48  C   -0.096106
    49  C   -0.192656
    50  C    0.067818
    51  C    0.117235
    52  C    0.012165
    53  C    0.023128
    54  C   -0.112520
    55  C    0.027452
    56  C    0.065093
    57  C    0.013166
    58  C    0.090637
    59  C   -0.202652
    60  C    0.072860
    61  C    0.040959
    62  C    0.049855
    63  C    0.026212
    64  C   -0.143655
    65  C    0.045278
    66  C    0.005145
    67  H   -0.039345
    68  H   -0.006429
    69  H   -0.027464
    70  H    0.022522
    71  H    0.017812
    72  H    0.013152
    73  H    0.015292
    74  H    0.022505
    75  H    0.032403
    76  H    0.011914
    77  H    0.032935
    78  H    0.023804
    79  H    0.048878
    80  H    0.022953
    81  H    0.029683
    82  H   -0.002135
    83  H    0.048719
    84  H    0.036302
    85  H    0.014559
    86  H    0.000303
    87  H    0.022076
    88  H    0.035119
    89  H    0.016555
    90  H    0.016915
    91  H    0.003654
    92  H    0.037839
    93  H    0.002593
    94  H    0.015013
    95  H    0.021959
    96  H    0.027602
    97  H    0.028290
    98  H    0.042206
    99  H    0.044701
   100  H    0.043656
   101  H    0.026732
   102  H    0.032148
   103  H    0.034440
   104  H    0.006945
   105  H   -0.013576
   106  H    0.032304
   107  H    0.029649
   108  H   -0.005114
   109  H    0.001862
   110  H   -0.001766
   111  H    0.006178
   112  H   -0.004920
   113  H   -0.002335
   114  H   -0.011080
   115  H    0.007517
   116  H    0.006632
   117  H    0.010832
   118  H   -0.013893
   119  H   -0.011517
   120  H   -0.002691
   121  H   -0.018038
   122  H   -0.009005
   123  H   -0.002630
   124  H    0.001300
   125  H    0.005982
   126  H    0.009793
   127  H   -0.001084
   128  H   -0.014865
   129  H   -0.014861
   130  H   -0.000419
   131  H   -0.007488
   132  H   -0.004502
   133  H    0.001784
   134  H    0.002828
   135  H    0.006470
   136  H    0.017999
   137  H    0.008940
   138  H    0.013236
   139  H    0.007044
   140  H    0.002830
 Sum of Mulliken charges =  -0.00000
 Mulliken charges with hydrogens summed into heavy atoms:
               1
     1  Mg   0.840529
     2  C   -0.071053
     3  C   -0.095001
     4  C   -0.067774
     5  C   -0.130144
     6  N   -0.207818
     7  C   -0.039749
     8  C   -0.012726
     9  C   -0.038977
    10  C    0.053377
    11  C    0.109840
    12  C    0.154192
    13  C    0.058930
    14  C    0.145260
    15  O   -0.242390
    16  O   -0.337991
    17  N   -0.364869
    18  C    0.119266
    19  C   -0.167419
    20  C   -0.044858
    21  C    0.115389
    22  C    0.204859
    23  C   -0.008456
    24  O   -0.213621
    25  C    0.144373
    26  N   -0.316316
    27  C    0.019148
    28  C   -0.018303
    29  C    0.001395
    30  C    0.040025
    31  C    0.139499
    32  C    0.041500
    33  C    0.057535
    34  N   -0.345033
    35  C    0.143520
    36  C   -0.158581
    37  C   -0.014253
    38  C    0.153936
    39  C    0.191567
    40  C    0.048305
    41  O   -0.146901
    42  C    0.053588
    43  C    0.159241
    44  O   -0.187009
    45  O   -0.345544
    46  C    0.286390
    47  C    0.343365
    48  C   -0.089161
    49  C   -0.192656
    50  C    0.116195
    51  C    0.113983
    52  C    0.016578
    53  C    0.015873
    54  C   -0.123600
    55  C    0.052432
    56  C    0.039683
    57  C   -0.007563
    58  C    0.079003
    59  C   -0.201352
    60  C    0.087551
    61  C    0.011232
    62  C    0.041948
    63  C    0.023494
    64  C   -0.140827
    65  C    0.078687
    66  C    0.028256
 Electronic spatial extent (au):  <R**2>=         130422.6634
 Charge=             -0.0000 electrons
 Dipole moment (field-independent basis, Debye):
    X=              4.8412    Y=              1.8388    Z=             -2.5028  Tot=              5.7517
 Quadrupole moment (field-independent basis, Debye-Ang):
   XX=           -374.5615   YY=           -425.2526   ZZ=           -408.4274
   XY=             -5.8658   XZ=             29.1366   YZ=              5.8904
 Traceless Quadrupole moment (field-independent basis, Debye-Ang):
   XX=             28.1857   YY=            -22.5054   ZZ=             -5.6803
   XY=             -5.8658   XZ=             29.1366   YZ=              5.8904
 Octapole moment (field-independent basis, Debye-Ang**2):
  XXX=           -100.6341  YYY=            125.2261  ZZZ=             -2.3303  XYY=            267.0151
  XXY=           -164.9701  XXZ=           -202.4984  XZZ=              9.8622  YZZ=            -24.2438
  YYZ=            -37.8244  XYZ=              6.9788
 Hexadecapole moment (field-independent basis, Debye-Ang**3):
 XXXX=        -148186.9529 YYYY=         -20881.1714 ZZZZ=          -5840.8112 XXXY=           2360.1451
 XXXZ=           1773.7373 YYYX=           -570.2740 YYYZ=            -38.8376 ZZZX=             10.5137
 ZZZY=             24.3525 XXYY=         -30956.8491 XXZZ=         -26977.1321 YYZZ=          -4284.4821
 XXYZ=           -138.1321 YYXZ=            450.2202 ZZXY=            -90.4577
 N-N= 9.497632771722D+03 E-N=-2.598706384282D+04  KE= 2.975581518880D+03
 Leave Link  601 at Wed May  4 08:03:13 2022, MaxMem= 10066329600 cpu:              10.3 elap:               0.5
 (Enter /sw/apps/gaussian-16.0/g16/l9999.exe)
 1\1\GINC-BP1-COMPUTE128\SP\RCAM-B3LYP TD-FC\def2SVP\C55H74Mg1N4O6\OF15
 641\04-May-2022\0\\#p cam-b3lyp/Def2SVP td=(nstates=5)\\step_151_chrom
 ophore_13 TDDFT with cam-b3lyp functional\\0,1\Mg,0,46.583,24.927,28.5
 6\C,0,47.462,27.334,30.951\C,0,45.855,22.868,31.069\C,0,46.91,22.356,2
 6.36\C,0,47.682,27.178,26.106\N,0,46.78,25.104,30.829\C,0,46.902,26.20
 1,31.568\C,0,46.518,26.038,33.025\C,0,46.205,24.487,33.034\C,0,46.199,
 24.168,31.547\C,0,47.223,23.678,33.905\C,0,45.324,26.942,33.54\C,0,45.
 478,27.347,35.06\C,0,44.501,26.835,36.1\O,0,43.546,26.114,35.84\O,0,44
 .808,27.27,37.35\N,0,46.262,22.884,28.688\C,0,45.793,22.276,29.764\C,0
 ,45.478,20.925,29.448\C,0,46.028,20.651,28.092\C,0,46.436,21.996,27.65
 5\C,0,44.727,19.919,30.419\C,0,46.205,19.352,27.325\O,0,46.694,19.265,
 26.201\C,0,45.704,18.02,27.886\N,0,47.258,24.784,26.621\C,0,47.284,23.
 647,25.876\C,0,47.62,23.89,24.359\C,0,47.589,25.422,24.315\C,0,47.496,
 25.846,25.763\C,0,48.992,23.257,23.834\C,0,46.438,25.955,23.407\C,0,45
 .175,26.285,24.239\N,0,47.257,26.868,28.505\C,0,47.695,27.642,27.425\C
 ,0,48.062,28.955,27.856\C,0,48.106,28.818,29.257\C,0,47.591,27.588,29.
 578\C,0,48.344,30.071,27.042\C,0,48.434,29.535,30.459\O,0,48.998,30.60
 1,30.542\C,0,47.897,28.648,31.597\C,0,48.908,28.319,32.638\O,0,50.035,
 27.92,32.51\O,0,48.445,28.504,33.901\C,0,49.296,28.462,35.085\C,0,43.9
 15,27.081,38.5\C,0,44.006,25.67,39.117\C,0,43.958,25.359,40.452\C,0,43
 .621,26.374,41.521\C,0,43.902,23.898,40.873\C,0,42.486,23.379,41.167\C
 ,0,42.287,23.043,42.727\C,0,40.806,22.802,43.033\C,0,40.206,21.623,42.
 195\C,0,39.898,24.094,43.095\C,0,39.084,24.218,44.409\C,0,39.813,24.97
 3,45.532\C,0,40.012,23.981,46.667\C,0,38.729,23.496,47.364\C,0,40.976,
 24.587,47.765\C,0,42.029,23.571,48.164\C,0,43.445,24.15,48.391\C,0,44.
 64,23.391,47.647\C,0,46.008,23.934,48.212\C,0,44.517,23.608,46.053\H,0
 ,45.508,22.15,31.816\H,0,46.942,21.553,25.62\H,0,47.944,27.896,25.326\
 H,0,47.307,26.217,33.756\H,0,45.251,24.34,33.541\H,0,47.89,24.3,34.502
 \H,0,47.912,23.167,33.232\H,0,46.788,22.897,34.528\H,0,44.385,26.39,33
 .551\H,0,45.261,27.919,33.061\H,0,45.322,28.423,35.137\H,0,46.442,27.1
 8,35.539\H,0,43.828,19.565,29.915\H,0,44.534,20.379,31.388\H,0,45.381,
 19.052,30.51\H,0,44.828,18.361,28.438\H,0,46.496,17.646,28.535\H,0,45.
 392,17.318,27.113\H,0,46.731,23.453,23.903\H,0,48.562,25.708,23.915\H,
 0,49.398,22.748,24.708\H,0,49.758,23.824,23.305\H,0,48.688,22.43,23.19
 2\H,0,46.094,25.327,22.585\H,0,46.841,26.879,22.991\H,0,45.171,25.833,
 25.23\H,0,44.336,25.896,23.661\H,0,45.01,27.363,24.266\H,0,47.628,30.3
 1,26.255\H,0,49.328,30.026,26.576\H,0,48.413,30.894,27.753\H,0,47.031,
 29.136,32.045\H,0,49.366,29.308,35.768\H,0,50.335,28.301,34.798\H,0,48
 .949,27.577,35.618\H,0,42.857,27.187,38.263\H,0,44.104,27.928,39.16\H,
 0,44.432,24.878,38.501\H,0,43.549,27.387,41.124\H,0,44.382,26.273,42.2
 96\H,0,42.596,26.369,41.892\H,0,44.429,23.911,41.828\H,0,44.378,23.254
 ,40.132\H,0,42.293,22.475,40.589\H,0,41.71,24.034,40.772\H,0,42.711,23
 .861,43.309\H,0,42.897,22.256,43.171\H,0,40.687,22.401,44.039\H,0,41.0
 16,20.999,41.819\H,0,39.687,22.03,41.327\H,0,39.522,20.96,42.726\H,0,3
 9.143,24.109,42.31\H,0,40.535,24.963,42.923\H,0,38.659,23.249,44.669\H
 ,0,38.175,24.752,44.129\H,0,39.282,25.848,45.906\H,0,40.833,25.302,45.
 333\H,0,40.465,23.129,46.161\H,0,38.383,22.538,46.976\H,0,37.98,24.288
 ,47.343\H,0,38.947,23.259,48.405\H,0,40.362,24.843,48.628\H,0,41.405,2
 5.556,47.507\H,0,41.954,22.715,47.495\H,0,41.646,23.246,49.131\H,0,43.
 755,24.007,49.426\H,0,43.519,25.208,48.14\H,0,44.432,22.331,47.797\H,0
 ,46.743,23.95,47.407\H,0,46.404,23.377,49.06\H,0,45.902,24.97,48.534\H
 ,0,45.275,24.275,45.642\H,0,43.544,23.892,45.652\H,0,44.585,22.62,45.5
 98\\Version=ES64L-G16RevA.03\State=1-A\HF=-3007.1633086\RMSD=3.355e-09
 \PG=C01 [X(C55H74Mg1N4O6)]\\@


 THOSE WITH THE GOLD MAKE THE RULES.

             -- PETER'S GOLDEN RULE
 Job cpu time:       0 days 10 hours 25 minutes 47.5 seconds.
 Elapsed time:       0 days  0 hours 26 minutes 37.2 seconds.
 File lengths (MBytes):  RWF=   8929 Int=      0 D2E=      0 Chk=    390 Scr=      1
 Normal termination of Gaussian 16 at Wed May  4 08:03:14 2022.
