 Entering Gaussian System, Link 0=g16
 Initial command:
 /sw/apps/gaussian-16.0/g16/l1.exe "/tmp/Gau-14657.inp" -scrdir="/tmp/"
 Entering Link 1 = /sw/apps/gaussian-16.0/g16/l1.exe PID=     14658.
  
 Copyright (c) 1988,1990,1992,1993,1995,1998,2003,2009,2016,
            Gaussian, Inc.  All Rights Reserved.
  
 This is part of the Gaussian(R) 16 program.  It is based on
 the Gaussian(R) 09 system (copyright 2009, Gaussian, Inc.),
 the Gaussian(R) 03 system (copyright 2003, Gaussian, Inc.),
 the Gaussian(R) 98 system (copyright 1998, Gaussian, Inc.),
 the Gaussian(R) 94 system (copyright 1995, Gaussian, Inc.),
 the Gaussian 92(TM) system (copyright 1992, Gaussian, Inc.),
 the Gaussian 90(TM) system (copyright 1990, Gaussian, Inc.),
 the Gaussian 88(TM) system (copyright 1988, Gaussian, Inc.),
 the Gaussian 86(TM) system (copyright 1986, Carnegie Mellon
 University), and the Gaussian 82(TM) system (copyright 1983,
 Carnegie Mellon University). Gaussian is a federally registered
 trademark of Gaussian, Inc.
  
 This software contains proprietary and confidential information,
 including trade secrets, belonging to Gaussian, Inc.
  
 This software is provided under written license and may be
 used, copied, transmitted, or stored only in accord with that
 written license.
  
 The following legend is applicable only to US Government
 contracts under FAR:
  
                    RESTRICTED RIGHTS LEGEND
  
 Use, reproduction and disclosure by the US Government is
 subject to restrictions as set forth in subparagraphs (a)
 and (c) of the Commercial Computer Software - Restricted
 Rights clause in FAR 52.227-19.
  
 Gaussian, Inc.
 340 Quinnipiac St., Bldg. 40, Wallingford CT 06492
  
  
 ---------------------------------------------------------------
 Warning -- This program may not be used in any manner that
 competes with the business of Gaussian, Inc. or will provide
 assistance to any competitor of Gaussian, Inc.  The licensee
 of this program is prohibited from giving any competitor of
 Gaussian, Inc. access to this program.  By using this program,
 the user acknowledges that Gaussian, Inc. is engaged in the
 business of creating and licensing software in the field of
 computational chemistry and represents and warrants to the
 licensee that it is not a competitor of Gaussian, Inc. and that
 it will not use this program in any manner prohibited above.
 ---------------------------------------------------------------
  

 Cite this work as:
 Gaussian 16, Revision A.03,
 M. J. Frisch, G. W. Trucks, H. B. Schlegel, G. E. Scuseria, 
 M. A. Robb, J. R. Cheeseman, G. Scalmani, V. Barone, 
 G. A. Petersson, H. Nakatsuji, X. Li, M. Caricato, A. V. Marenich, 
 J. Bloino, B. G. Janesko, R. Gomperts, B. Mennucci, H. P. Hratchian, 
 J. V. Ortiz, A. F. Izmaylov, J. L. Sonnenberg, D. Williams-Young, 
 F. Ding, F. Lipparini, F. Egidi, J. Goings, B. Peng, A. Petrone, 
 T. Henderson, D. Ranasinghe, V. G. Zakrzewski, J. Gao, N. Rega, 
 G. Zheng, W. Liang, M. Hada, M. Ehara, K. Toyota, R. Fukuda, 
 J. Hasegawa, M. Ishida, T. Nakajima, Y. Honda, O. Kitao, H. Nakai, 
 T. Vreven, K. Throssell, J. A. Montgomery, Jr., J. E. Peralta, 
 F. Ogliaro, M. J. Bearpark, J. J. Heyd, E. N. Brothers, K. N. Kudin, 
 V. N. Staroverov, T. A. Keith, R. Kobayashi, J. Normand, 
 K. Raghavachari, A. P. Rendell, J. C. Burant, S. S. Iyengar, 
 J. Tomasi, M. Cossi, J. M. Millam, M. Klene, C. Adamo, R. Cammi, 
 J. W. Ochterski, R. L. Martin, K. Morokuma, O. Farkas, 
 J. B. Foresman, and D. J. Fox, Gaussian, Inc., Wallingford CT, 2016.
 
 ******************************************
 Gaussian 16:  ES64L-G16RevA.03 25-Dec-2016
                27-Apr-2022 
 ******************************************
 %nproc=24
 Will use up to   24 processors via shared memory.
 %mem=50gb
 --------------------
 #p ZINDO=(nstates=5)
 --------------------
 1/38=1,172=1/1;
 2/12=2,17=6,18=5,40=1/2;
 3/5=2,25=1,41=400000/1,2,3,8;
 4/5=3,35=1/1;
 5/5=2,35=1,38=5/2;
 8/6=1,108=5/1;
 9/41=5,42=1,49=10/14;
 6/7=2,8=2,9=2,10=2/1;
 99/5=1,9=1/99;
 Leave Link    1 at Wed Apr 27 21:25:53 2022, MaxMem=  6710886400 cpu:               2.5 elap:               0.1
 (Enter /sw/apps/gaussian-16.0/g16/l101.exe)
 ------------------------------
 step_1301_chromophore_21 ZINDO
 ------------------------------
 Symbolic Z-matrix:
 Charge =  0 Multiplicity = 1
 Mg                    15.957    53.276    24.993 
 C                     17.459    51.96     27.799 
 C                     13.345    54.344    26.895 
 C                     14.426    54.213    22.143 
 C                     18.345    51.45     23.111 
 N                     15.433    53.014    27.065 
 C                     16.249    52.701    28.083 
 C                     15.707    53.119    29.425 
 C                     14.214    53.582    29.092 
 C                     14.254    53.575    27.548 
 C                     13.124    52.497    29.606 
 C                     16.649    54.212    30.06 
 C                     16.988    53.998    31.532 
 C                     16.035    53.22     32.46 
 O                     16.177    52.102    32.888 
 O                     14.848    53.876    32.69 
 N                     14.191    54.375    24.634 
 C                     13.255    54.737    25.55 
 C                     12.209    55.414    24.849 
 C                     12.544    55.395    23.47 
 C                     13.799    54.658    23.33 
 C                     11.008    55.929    25.63 
 C                     11.789    55.885    22.247 
 O                     12.165    55.774    21.067 
 C                     10.452    56.467    22.428 
 N                     16.288    52.82     22.908 
 C                     15.481    53.302    21.925 
 C                     16.121    53.039    20.551 
 C                     17.467    52.205    20.888 
 C                     17.407    52.216    22.392 
 C                     15.269    52.315    19.482 
 C                     18.779    52.839    20.227 
 C                     19.301    52.188    18.932 
 N                     17.484    51.975    25.332 
 C                     18.431    51.395    24.514 
 C                     19.401    50.671    25.172 
 C                     19.086    50.955    26.501 
 C                     17.857    51.651    26.529 
 C                     20.514    49.829    24.575 
 C                     19.586    50.794    27.803 
 O                     20.688    50.362    28.136 
 C                     18.509    51.408    28.778 
 C                     18.093    50.428    29.724 
 O                     17.14     49.625    29.546 
 O                     18.91     50.59     30.849 
 C                     18.436    49.882    32.035 
 C                     13.848    53.209    33.422 
 C                     12.531    53.906    33.222 
 C                     11.299    53.433    33.344 
 C                     10.944    52.091    33.866 
 C                     10.227    54.44     33.314 
 C                     9.677     54.864    34.641 
 C                     9.709     56.408    34.797 
 C                     8.363     57.082    35.044 
 C                     8.575     58.612    34.831 
 C                     7.706     56.852    36.388 
 C                     6.141     56.961    36.381 
 C                     5.672     57.386    37.702 
 C                     4.422     58.331    37.499 
 C                     4.894     59.775    37.093 
 C                     3.467     58.193    38.704 
 C                     2.007     57.886    38.324 
 C                     0.987     58.398    39.325 
 C                    -0.019     59.418    38.595 
 C                    -0.688     60.595    39.534 
 C                    -1.186     58.698    37.858 
 H                     12.63     54.781    27.595 
 H                     14.004    54.507    21.18 
 H                     19.078    50.927    22.494 
 H                     15.59     52.217    30.026 
 H                     13.936    54.555    29.497 
 H                     12.625    52.682    30.557 
 H                     13.532    51.492    29.717 
 H                     12.422    52.566    28.775 
 H                     16.243    55.223    30.056 
 H                     17.615    54.239    29.554 
 H                     17.21     54.992    31.921 
 H                     17.99     53.571    31.566 
 H                     10.277    55.131    25.763 
 H                     10.537    56.739    25.073 
 H                     11.275    56.379    26.585 
 H                     10.12     56.664    21.409 
 H                     10.554    57.427    22.935 
 H                     9.662     55.899    22.92 
 H                     16.455    54.016    20.201 
 H                     17.262    51.176    20.595 
 H                     15.751    51.718    18.708 
 H                     14.964    53.185    18.899 
 H                     14.428    51.811    19.959 
 H                     19.545    52.899    20.999 
 H                     18.543    53.853    19.905 
 H                     18.576    51.555    18.42 
 H                     20.125    51.555    19.263 
 H                     19.636    52.948    18.226 
 H                     20.328    49.315    23.632 
 H                     20.466    49.132    25.411 
 H                     21.41     50.442    24.48 
 H                     18.984    52.196    29.363 
 H                     18.689    48.833    31.88 
 H                     17.368    49.876    32.252 
 H                     18.912    50.299    32.922 
 H                     14.138    53.386    34.458 
 H                     13.768    52.158    33.145 
 H                     12.549    54.894    32.762 
 H                     10.949    51.411    33.014 
 H                     9.944     51.978    34.286 
 H                     11.681    51.723    34.579 
 H                     9.457     53.903    32.759 
 H                     10.568    55.217    32.63 
 H                     10.301    54.428    35.422 
 H                     8.706     54.399    34.809 
 H                     10.114    56.954    33.945 
 H                     10.374    56.719    35.603 
 H                     7.702     56.736    34.249 
 H                     7.632     59.154    34.903 
 H                     8.952     58.807    33.827 
 H                     9.341     59.068    35.457 
 H                     8.14      57.474    37.17 
 H                     7.818     55.83     36.751 
 H                     5.698     55.978    36.226 
 H                     5.903     57.722    35.638 
 H                     6.41      58.017    38.199 
 H                     5.348     56.517    38.274 
 H                     3.918     57.801    36.69 
 H                     5.969     59.88     37.245 
 H                     4.293     60.483    37.663 
 H                     4.593     59.927    36.057 
 H                     3.573     59.074    39.338 
 H                     3.643     57.406    39.437 
 H                     1.872     56.805    38.317 
 H                     1.795     58.269    37.326 
 H                     1.587     58.943    40.054 
 H                     0.507     57.542    39.8 
 H                     0.606     60.031    37.945 
 H                    -0.58      61.589    39.101 
 H                    -0.28      60.52     40.542 
 H                    -1.753     60.447    39.713 
 H                    -1.502     59.328    37.027 
 H                    -2.008     58.36     38.489 
 H                    -0.808     57.857    37.278 
 
 ITRead=  0  0  0  0  0  0  0  0  0  0  0  0  0  0  0  0  0  0  0  0
 ITRead=  0  0  0  0  0  0  0  0  0  0  0  0  0  0  0  0  0  0  0  0
 ITRead=  0  0  0  0  0  0  0  0  0  0  0  0  0  0  0  0  0  0  0  0
 ITRead=  0  0  0  0  0  0  0  0  0  0  0  0  0  0  0  0  0  0  0  0
 ITRead=  0  0  0  0  0  0  0  0  0  0  0  0  0  0  0  0  0  0  0  0
 ITRead=  0  0  0  0  0  0  0  0  0  0  0  0  0  0  0  0  0  0  0  0
 ITRead=  0  0  0  0  0  0  0  0  0  0  0  0  0  0  0  0  0  0  0  0
 MicOpt= -1 -1 -1 -1 -1 -1 -1 -1 -1 -1 -1 -1 -1 -1 -1 -1 -1 -1 -1 -1
 MicOpt= -1 -1 -1 -1 -1 -1 -1 -1 -1 -1 -1 -1 -1 -1 -1 -1 -1 -1 -1 -1
 MicOpt= -1 -1 -1 -1 -1 -1 -1 -1 -1 -1 -1 -1 -1 -1 -1 -1 -1 -1 -1 -1
 MicOpt= -1 -1 -1 -1 -1 -1 -1 -1 -1 -1 -1 -1 -1 -1 -1 -1 -1 -1 -1 -1
 MicOpt= -1 -1 -1 -1 -1 -1 -1 -1 -1 -1 -1 -1 -1 -1 -1 -1 -1 -1 -1 -1
 MicOpt= -1 -1 -1 -1 -1 -1 -1 -1 -1 -1 -1 -1 -1 -1 -1 -1 -1 -1 -1 -1
 MicOpt= -1 -1 -1 -1 -1 -1 -1 -1 -1 -1 -1 -1 -1 -1 -1 -1 -1 -1 -1 -1
 NAtoms=    140 NQM=      140 NQMF=       0 NMMI=      0 NMMIF=      0
                NMic=       0 NMicF=      0.
                    Isotopes and Nuclear Properties:
 (Nuclear quadrupole moments (NQMom) in fm**2, nuclear magnetic moments (NMagM)
  in nuclear magnetons)

  Atom         1           2           3           4           5           6           7           8           9          10
 IAtWgt=          24          12          12          12          12          14          12          12          12          12
 AtmWgt=  23.9850450  12.0000000  12.0000000  12.0000000  12.0000000  14.0030740  12.0000000  12.0000000  12.0000000  12.0000000
 NucSpn=           0           0           0           0           0           2           0           0           0           0
 AtZEff=  -0.0000000  -0.0000000  -0.0000000  -0.0000000  -0.0000000  -0.0000000  -0.0000000  -0.0000000  -0.0000000  -0.0000000
 NQMom=    0.0000000   0.0000000   0.0000000   0.0000000   0.0000000   2.0440000   0.0000000   0.0000000   0.0000000   0.0000000
 NMagM=    0.0000000   0.0000000   0.0000000   0.0000000   0.0000000   0.4037610   0.0000000   0.0000000   0.0000000   0.0000000
 AtZNuc=  12.0000000   6.0000000   6.0000000   6.0000000   6.0000000   7.0000000   6.0000000   6.0000000   6.0000000   6.0000000

  Atom        11          12          13          14          15          16          17          18          19          20
 IAtWgt=          12          12          12          12          16          16          14          12          12          12
 AtmWgt=  12.0000000  12.0000000  12.0000000  12.0000000  15.9949146  15.9949146  14.0030740  12.0000000  12.0000000  12.0000000
 NucSpn=           0           0           0           0           0           0           2           0           0           0
 AtZEff=  -0.0000000  -0.0000000  -0.0000000  -0.0000000  -0.0000000  -0.0000000  -0.0000000  -0.0000000  -0.0000000  -0.0000000
 NQMom=    0.0000000   0.0000000   0.0000000   0.0000000   0.0000000   0.0000000   2.0440000   0.0000000   0.0000000   0.0000000
 NMagM=    0.0000000   0.0000000   0.0000000   0.0000000   0.0000000   0.0000000   0.4037610   0.0000000   0.0000000   0.0000000
 AtZNuc=   6.0000000   6.0000000   6.0000000   6.0000000   8.0000000   8.0000000   7.0000000   6.0000000   6.0000000   6.0000000

  Atom        21          22          23          24          25          26          27          28          29          30
 IAtWgt=          12          12          12          16          12          14          12          12          12          12
 AtmWgt=  12.0000000  12.0000000  12.0000000  15.9949146  12.0000000  14.0030740  12.0000000  12.0000000  12.0000000  12.0000000
 NucSpn=           0           0           0           0           0           2           0           0           0           0
 AtZEff=  -0.0000000  -0.0000000  -0.0000000  -0.0000000  -0.0000000  -0.0000000  -0.0000000  -0.0000000  -0.0000000  -0.0000000
 NQMom=    0.0000000   0.0000000   0.0000000   0.0000000   0.0000000   2.0440000   0.0000000   0.0000000   0.0000000   0.0000000
 NMagM=    0.0000000   0.0000000   0.0000000   0.0000000   0.0000000   0.4037610   0.0000000   0.0000000   0.0000000   0.0000000
 AtZNuc=   6.0000000   6.0000000   6.0000000   8.0000000   6.0000000   7.0000000   6.0000000   6.0000000   6.0000000   6.0000000

  Atom        31          32          33          34          35          36          37          38          39          40
 IAtWgt=          12          12          12          14          12          12          12          12          12          12
 AtmWgt=  12.0000000  12.0000000  12.0000000  14.0030740  12.0000000  12.0000000  12.0000000  12.0000000  12.0000000  12.0000000
 NucSpn=           0           0           0           2           0           0           0           0           0           0
 AtZEff=  -0.0000000  -0.0000000  -0.0000000  -0.0000000  -0.0000000  -0.0000000  -0.0000000  -0.0000000  -0.0000000  -0.0000000
 NQMom=    0.0000000   0.0000000   0.0000000   2.0440000   0.0000000   0.0000000   0.0000000   0.0000000   0.0000000   0.0000000
 NMagM=    0.0000000   0.0000000   0.0000000   0.4037610   0.0000000   0.0000000   0.0000000   0.0000000   0.0000000   0.0000000
 AtZNuc=   6.0000000   6.0000000   6.0000000   7.0000000   6.0000000   6.0000000   6.0000000   6.0000000   6.0000000   6.0000000

  Atom        41          42          43          44          45          46          47          48          49          50
 IAtWgt=          16          12          12          16          16          12          12          12          12          12
 AtmWgt=  15.9949146  12.0000000  12.0000000  15.9949146  15.9949146  12.0000000  12.0000000  12.0000000  12.0000000  12.0000000
 NucSpn=           0           0           0           0           0           0           0           0           0           0
 AtZEff=  -0.0000000  -0.0000000  -0.0000000  -0.0000000  -0.0000000  -0.0000000  -0.0000000  -0.0000000  -0.0000000  -0.0000000
 NQMom=    0.0000000   0.0000000   0.0000000   0.0000000   0.0000000   0.0000000   0.0000000   0.0000000   0.0000000   0.0000000
 NMagM=    0.0000000   0.0000000   0.0000000   0.0000000   0.0000000   0.0000000   0.0000000   0.0000000   0.0000000   0.0000000
 AtZNuc=   8.0000000   6.0000000   6.0000000   8.0000000   8.0000000   6.0000000   6.0000000   6.0000000   6.0000000   6.0000000

  Atom        51          52          53          54          55          56          57          58          59          60
 IAtWgt=          12          12          12          12          12          12          12          12          12          12
 AtmWgt=  12.0000000  12.0000000  12.0000000  12.0000000  12.0000000  12.0000000  12.0000000  12.0000000  12.0000000  12.0000000
 NucSpn=           0           0           0           0           0           0           0           0           0           0
 AtZEff=  -0.0000000  -0.0000000  -0.0000000  -0.0000000  -0.0000000  -0.0000000  -0.0000000  -0.0000000  -0.0000000  -0.0000000
 NQMom=    0.0000000   0.0000000   0.0000000   0.0000000   0.0000000   0.0000000   0.0000000   0.0000000   0.0000000   0.0000000
 NMagM=    0.0000000   0.0000000   0.0000000   0.0000000   0.0000000   0.0000000   0.0000000   0.0000000   0.0000000   0.0000000
 AtZNuc=   6.0000000   6.0000000   6.0000000   6.0000000   6.0000000   6.0000000   6.0000000   6.0000000   6.0000000   6.0000000

  Atom        61          62          63          64          65          66          67          68          69          70
 IAtWgt=          12          12          12          12          12          12           1           1           1           1
 AtmWgt=  12.0000000  12.0000000  12.0000000  12.0000000  12.0000000  12.0000000   1.0078250   1.0078250   1.0078250   1.0078250
 NucSpn=           0           0           0           0           0           0           1           1           1           1
 AtZEff=  -0.0000000  -0.0000000  -0.0000000  -0.0000000  -0.0000000  -0.0000000  -0.0000000  -0.0000000  -0.0000000  -0.0000000
 NQMom=    0.0000000   0.0000000   0.0000000   0.0000000   0.0000000   0.0000000   0.0000000   0.0000000   0.0000000   0.0000000
 NMagM=    0.0000000   0.0000000   0.0000000   0.0000000   0.0000000   0.0000000   2.7928460   2.7928460   2.7928460   2.7928460
 AtZNuc=   6.0000000   6.0000000   6.0000000   6.0000000   6.0000000   6.0000000   1.0000000   1.0000000   1.0000000   1.0000000

  Atom        71          72          73          74          75          76          77          78          79          80
 IAtWgt=           1           1           1           1           1           1           1           1           1           1
 AtmWgt=   1.0078250   1.0078250   1.0078250   1.0078250   1.0078250   1.0078250   1.0078250   1.0078250   1.0078250   1.0078250
 NucSpn=           1           1           1           1           1           1           1           1           1           1
 AtZEff=  -0.0000000  -0.0000000  -0.0000000  -0.0000000  -0.0000000  -0.0000000  -0.0000000  -0.0000000  -0.0000000  -0.0000000
 NQMom=    0.0000000   0.0000000   0.0000000   0.0000000   0.0000000   0.0000000   0.0000000   0.0000000   0.0000000   0.0000000
 NMagM=    2.7928460   2.7928460   2.7928460   2.7928460   2.7928460   2.7928460   2.7928460   2.7928460   2.7928460   2.7928460
 AtZNuc=   1.0000000   1.0000000   1.0000000   1.0000000   1.0000000   1.0000000   1.0000000   1.0000000   1.0000000   1.0000000

  Atom        81          82          83          84          85          86          87          88          89          90
 IAtWgt=           1           1           1           1           1           1           1           1           1           1
 AtmWgt=   1.0078250   1.0078250   1.0078250   1.0078250   1.0078250   1.0078250   1.0078250   1.0078250   1.0078250   1.0078250
 NucSpn=           1           1           1           1           1           1           1           1           1           1
 AtZEff=  -0.0000000  -0.0000000  -0.0000000  -0.0000000  -0.0000000  -0.0000000  -0.0000000  -0.0000000  -0.0000000  -0.0000000
 NQMom=    0.0000000   0.0000000   0.0000000   0.0000000   0.0000000   0.0000000   0.0000000   0.0000000   0.0000000   0.0000000
 NMagM=    2.7928460   2.7928460   2.7928460   2.7928460   2.7928460   2.7928460   2.7928460   2.7928460   2.7928460   2.7928460
 AtZNuc=   1.0000000   1.0000000   1.0000000   1.0000000   1.0000000   1.0000000   1.0000000   1.0000000   1.0000000   1.0000000

  Atom        91          92          93          94          95          96          97          98          99         100
 IAtWgt=           1           1           1           1           1           1           1           1           1           1
 AtmWgt=   1.0078250   1.0078250   1.0078250   1.0078250   1.0078250   1.0078250   1.0078250   1.0078250   1.0078250   1.0078250
 NucSpn=           1           1           1           1           1           1           1           1           1           1
 AtZEff=  -0.0000000  -0.0000000  -0.0000000  -0.0000000  -0.0000000  -0.0000000  -0.0000000  -0.0000000  -0.0000000  -0.0000000
 NQMom=    0.0000000   0.0000000   0.0000000   0.0000000   0.0000000   0.0000000   0.0000000   0.0000000   0.0000000   0.0000000
 NMagM=    2.7928460   2.7928460   2.7928460   2.7928460   2.7928460   2.7928460   2.7928460   2.7928460   2.7928460   2.7928460
 AtZNuc=   1.0000000   1.0000000   1.0000000   1.0000000   1.0000000   1.0000000   1.0000000   1.0000000   1.0000000   1.0000000

  Atom       101         102         103         104         105         106         107         108         109         110
 IAtWgt=           1           1           1           1           1           1           1           1           1           1
 AtmWgt=   1.0078250   1.0078250   1.0078250   1.0078250   1.0078250   1.0078250   1.0078250   1.0078250   1.0078250   1.0078250
 NucSpn=           1           1           1           1           1           1           1           1           1           1
 AtZEff=  -0.0000000  -0.0000000  -0.0000000  -0.0000000  -0.0000000  -0.0000000  -0.0000000  -0.0000000  -0.0000000  -0.0000000
 NQMom=    0.0000000   0.0000000   0.0000000   0.0000000   0.0000000   0.0000000   0.0000000   0.0000000   0.0000000   0.0000000
 NMagM=    2.7928460   2.7928460   2.7928460   2.7928460   2.7928460   2.7928460   2.7928460   2.7928460   2.7928460   2.7928460
 AtZNuc=   1.0000000   1.0000000   1.0000000   1.0000000   1.0000000   1.0000000   1.0000000   1.0000000   1.0000000   1.0000000

  Atom       111         112         113         114         115         116         117         118         119         120
 IAtWgt=           1           1           1           1           1           1           1           1           1           1
 AtmWgt=   1.0078250   1.0078250   1.0078250   1.0078250   1.0078250   1.0078250   1.0078250   1.0078250   1.0078250   1.0078250
 NucSpn=           1           1           1           1           1           1           1           1           1           1
 AtZEff=  -0.0000000  -0.0000000  -0.0000000  -0.0000000  -0.0000000  -0.0000000  -0.0000000  -0.0000000  -0.0000000  -0.0000000
 NQMom=    0.0000000   0.0000000   0.0000000   0.0000000   0.0000000   0.0000000   0.0000000   0.0000000   0.0000000   0.0000000
 NMagM=    2.7928460   2.7928460   2.7928460   2.7928460   2.7928460   2.7928460   2.7928460   2.7928460   2.7928460   2.7928460
 AtZNuc=   1.0000000   1.0000000   1.0000000   1.0000000   1.0000000   1.0000000   1.0000000   1.0000000   1.0000000   1.0000000

  Atom       121         122         123         124         125         126         127         128         129         130
 IAtWgt=           1           1           1           1           1           1           1           1           1           1
 AtmWgt=   1.0078250   1.0078250   1.0078250   1.0078250   1.0078250   1.0078250   1.0078250   1.0078250   1.0078250   1.0078250
 NucSpn=           1           1           1           1           1           1           1           1           1           1
 AtZEff=  -0.0000000  -0.0000000  -0.0000000  -0.0000000  -0.0000000  -0.0000000  -0.0000000  -0.0000000  -0.0000000  -0.0000000
 NQMom=    0.0000000   0.0000000   0.0000000   0.0000000   0.0000000   0.0000000   0.0000000   0.0000000   0.0000000   0.0000000
 NMagM=    2.7928460   2.7928460   2.7928460   2.7928460   2.7928460   2.7928460   2.7928460   2.7928460   2.7928460   2.7928460
 AtZNuc=   1.0000000   1.0000000   1.0000000   1.0000000   1.0000000   1.0000000   1.0000000   1.0000000   1.0000000   1.0000000

  Atom       131         132         133         134         135         136         137         138         139         140
 IAtWgt=           1           1           1           1           1           1           1           1           1           1
 AtmWgt=   1.0078250   1.0078250   1.0078250   1.0078250   1.0078250   1.0078250   1.0078250   1.0078250   1.0078250   1.0078250
 NucSpn=           1           1           1           1           1           1           1           1           1           1
 AtZEff=  -0.0000000  -0.0000000  -0.0000000  -0.0000000  -0.0000000  -0.0000000  -0.0000000  -0.0000000  -0.0000000  -0.0000000
 NQMom=    0.0000000   0.0000000   0.0000000   0.0000000   0.0000000   0.0000000   0.0000000   0.0000000   0.0000000   0.0000000
 NMagM=    2.7928460   2.7928460   2.7928460   2.7928460   2.7928460   2.7928460   2.7928460   2.7928460   2.7928460   2.7928460
 AtZNuc=   1.0000000   1.0000000   1.0000000   1.0000000   1.0000000   1.0000000   1.0000000   1.0000000   1.0000000   1.0000000
 Leave Link  101 at Wed Apr 27 21:25:54 2022, MaxMem=  6710886400 cpu:               2.7 elap:               0.1
 (Enter /sw/apps/gaussian-16.0/g16/l202.exe)
 Stoichiometry    C55H74MgN4O6
 Framework group  C1[X(C55H74MgN4O6)]
 Deg. of freedom   414
 Full point group                 C1      NOp   1
 Largest Abelian subgroup         C1      NOp   1
 Largest concise Abelian subgroup C1      NOp   1
                         Standard orientation:                         
 ---------------------------------------------------------------------
 Center     Atomic      Atomic             Coordinates (Angstroms)
 Number     Number       Type             X           Y           Z
 ---------------------------------------------------------------------
      1         12           0        5.218337    1.097537    0.254403
      2          6           0        4.711127   -2.305634    0.103856
      3          6           0        1.855174    1.601863    0.129676
      4          6           0        5.846210    4.400686    0.055875
      5          6           0        8.637590    0.408020   -0.387484
      6          7           0        3.535557   -0.218112   -0.017117
      7          6           0        3.486505   -1.541009    0.201255
      8          6           0        2.088780   -2.048984    0.441625
      9          6           0        1.172802   -0.784781    0.099454
     10          6           0        2.249265    0.313751   -0.042112
     11          6           0        0.404866   -0.969979   -1.316702
     12          6           0        1.975082   -2.613623    1.909104
     13          6           0        1.267465   -3.959649    2.031547
     14          6           0        0.221675   -4.403121    0.990233
     15          8           0        0.352691   -5.232269    0.125005
     16          8           0       -0.926046   -3.645418    1.019015
     17          7           0        3.950637    2.783352    0.334412
     18          6           0        2.592459    2.785340    0.295102
     19          6           0        2.165315    4.149504    0.316355
     20          6           0        3.332318    4.957156    0.321709
     21          6           0        4.488440    4.063952    0.263705
     22          6           0        0.675418    4.458846    0.270532
     23          6           0        3.510040    6.464211    0.266447
     24          8           0        4.596490    7.067922    0.230995
     25          6           0        2.315934    7.313060    0.154099
     26          7           0        6.988855    2.250219   -0.194275
     27          6           0        6.971016    3.608736   -0.257328
     28          6           0        8.411412    4.145509   -0.318805
     29          6           0        9.333568    2.815914   -0.370273
     30          6           0        8.269586    1.759322   -0.238770
     31          6           0        8.772779    5.119821   -1.464654
     32          6           0       10.482312    2.806556    0.743514
     33          6           0       11.902518    3.200367    0.294916
     34          7           0        6.397225   -0.518243   -0.118064
     35          6           0        7.759826   -0.683098   -0.253980
     36          6           0        8.178565   -1.991575   -0.356856
     37          6           0        6.981798   -2.670351   -0.126350
     38          6           0        5.931135   -1.726318   -0.102930
     39          6           0        9.579511   -2.513313   -0.620072
     40          6           0        6.482670   -3.962539    0.102223
     41          8           0        7.125886   -4.994470    0.284732
     42          6           0        4.915972   -3.825454    0.221452
     43          6           0        4.279012   -4.663443   -0.737938
     44          8           0        3.990809   -4.311704   -1.911787
     45          8           0        4.019715   -5.878825   -0.093758
     46          6           0        3.101605   -6.752357   -0.819397
     47          6           0       -1.902897   -3.876315    0.032527
     48          6           0       -2.858535   -2.716396   -0.008028
     49          6           0       -3.634550   -2.296741   -0.997031
     50          6           0       -3.837301   -3.002185   -2.285718
     51          6           0       -4.630538   -1.277132   -0.632974
     52          6           0       -6.025231   -1.767337   -0.392689
     53          6           0       -6.559126   -1.294439    0.985940
     54          6           0       -7.830869   -0.452544    0.956206
     55          6           0       -7.988948    0.182106    2.371637
     56          6           0       -9.118807   -1.150914    0.576230
     57          6           0      -10.201414   -0.222039   -0.076693
     58          6           0      -11.537692   -0.753088    0.202546
     59          6           0      -12.518325    0.468381    0.410163
     60          6           0      -12.345054    1.063455    1.855368
     61          6           0      -13.939763    0.074975   -0.045733
     62          6           0      -14.577355    1.053362   -1.048970
     63          6           0      -16.093539    1.099499   -0.988953
     64          6           0      -16.573918    2.596531   -0.652102
     65          6           0      -18.004952    2.750519    0.149796
     66          6           0      -16.651415    3.508112   -1.911654
     67          1           0        0.770755    1.666003    0.239749
     68          1           0        6.129241    5.454288    0.014578
     69          1           0        9.702889    0.239667   -0.555720
     70          1           0        1.864831   -2.773670   -0.341428
     71          1           0        0.427176   -0.542124    0.856552
     72          1           0       -0.630747   -1.308793   -1.298319
     73          1           0        0.897446   -1.673923   -1.987998
     74          1           0        0.475011    0.057105   -1.674898
     75          1           0        1.409515   -1.986336    2.597303
     76          1           0        2.962066   -2.778629    2.343334
     77          1           0        0.863833   -3.978630    3.044148
     78          1           0        2.044614   -4.715696    2.140734
     79          1           0        0.324520    4.461195   -0.761805
     80          1           0        0.499697    5.446539    0.696884
     81          1           0        0.076594    3.789601    0.886433
     82          1           0        2.725910    8.318776    0.065506
     83          1           0        1.761212    7.262444    1.091528
     84          1           0        1.614714    7.177371   -0.669714
     85          1           0        8.589612    4.594694    0.658468
     86          1           0        9.693733    2.741748   -1.395697
     87          1           0        9.796834    5.178084   -1.833065
     88          1           0        8.709193    6.056467   -0.909258
     89          1           0        8.028696    5.048819   -2.258459
     90          1           0       10.457794    1.836885    1.238969
     91          1           0       10.246269    3.570762    1.483683
     92          1           0       11.945180    3.733392   -0.655095
     93          1           0       12.418112    2.247719    0.169016
     94          1           0       12.386096    3.823149    1.047615
     95          1           0       10.243469   -1.923461   -1.251954
     96          1           0        9.182979   -3.367635   -1.167709
     97          1           0       10.069802   -2.708641    0.333381
     98          1           0        4.610019   -4.210180    1.194680
     99          1           0        3.682902   -7.192654   -1.629748
    100          1           0        2.235761   -6.311356   -1.312936
    101          1           0        2.699495   -7.502697   -0.139301
    102          1           0       -2.461654   -4.724341    0.429222
    103          1           0       -1.462866   -4.041115   -0.950806
    104          1           0       -2.822061   -2.004931    0.816930
    105          1           0       -3.057903   -2.651088   -2.962177
    106          1           0       -4.763832   -2.789110   -2.819861
    107          1           0       -3.716711   -4.080144   -2.183611
    108          1           0       -4.617016   -0.649890   -1.524983
    109          1           0       -4.162788   -0.667085    0.139631
    110          1           0       -6.007188   -2.857790   -0.397095
    111          1           0       -6.658734   -1.524975   -1.245464
    112          1           0       -5.866964   -0.688581    1.570656
    113          1           0       -6.747933   -2.133730    1.655660
    114          1           0       -7.636634    0.362786    0.258947
    115          1           0       -8.831701    0.872805    2.401617
    116          1           0       -7.110335    0.776948    2.621383
    117          1           0       -8.029745   -0.526271    3.198139
    118          1           0       -9.537715   -1.720929    1.404700
    119          1           0       -8.991888   -1.878280   -0.226034
    120          1           0      -10.108798   -0.244643   -1.161808
    121          1           0      -10.079521    0.750669    0.399539
    122          1           0      -11.560827   -1.283299    1.155518
    123          1           0      -11.891202   -1.327204   -0.653457
    124          1           0      -12.155108    1.133475   -0.374133
    125          1           0      -11.753648    0.388695    2.475603
    126          1           0      -13.343309    1.264125    2.243420
    127          1           0      -11.889530    2.046474    1.740598
    128          1           0      -14.554936   -0.101256    0.837362
    129          1           0      -14.089119   -0.865726   -0.575268
    130          1           0      -14.348852    0.711264   -2.057727
    131          1           0      -14.154851    2.049049   -0.915798
    132          1           0      -16.342099    0.444456   -0.153727
    133          1           0      -16.490255    0.688903   -1.917817
    134          1           0      -15.889911    2.957732    0.116378
    135          1           0      -17.927836    3.394010    1.025674
    136          1           0      -18.391732    1.757782    0.380073
    137          1           0      -18.801640    3.161898   -0.470063
    138          1           0      -16.484286    4.537499   -1.595828
    139          1           0      -17.535499    3.379312   -2.536071
    140          1           0      -15.758060    3.388203   -2.523294
 ---------------------------------------------------------------------
 Rotational constants (GHZ):           0.0459442           0.0091148           0.0077793
 Leave Link  202 at Wed Apr 27 21:25:54 2022, MaxMem=  6710886400 cpu:               1.4 elap:               0.1
 (Enter /sw/apps/gaussian-16.0/g16/l301.exe)
 Standard basis: VSTO-6G (5D, 7F)
 Ernie: Thresh=  0.10000D-02 Tol=  0.10000D-05 Strict=F.
 There are   338 symmetry adapted cartesian basis functions of A   symmetry.
 There are   338 symmetry adapted basis functions of A   symmetry.
   338 basis functions,  2028 primitive gaussians,   338 cartesian basis functions
   176 alpha electrons      176 beta electrons
       nuclear repulsion energy      4784.4529732444 Hartrees.
 IExCor=    0 DFT=F Ex=HF Corr=None ExCW=0 ScaHFX=  1.000000
 ScaDFX=  1.000000  1.000000  1.000000  1.000000 ScalE2=  1.000000  1.000000
 IRadAn=      5 IRanWt=     -1 IRanGd=            0 ICorTp=0 IEmpDi=  4
 Integral buffers will be    131072 words long.
 Regular integral format.
 Two-electron integral symmetry is turned off.
 Leave Link  301 at Wed Apr 27 21:25:54 2022, MaxMem=  6710886400 cpu:               2.4 elap:               0.1
 (Enter /sw/apps/gaussian-16.0/g16/l302.exe)
 Do NDO integrals.
 NPDir=0 NMtPBC=     1 NCelOv=     1 NCel=       1 NClECP=     1 NCelD=      1
         NCelK=      1 NCelE2=     1 NClLst=     1 CellRange=     0.0.
 One-electron integrals computed using PRISM.
 Generate ZINDO/S integrals.
 NDO Nuclear repulsion=  4293.656182498184 Hartrees.
 NBasis=   338 RedAO= F EigKep=  0.00D+00  NBF=   338
 NBsUse=   338 1.00D-04 EigRej=  0.00D+00 NBFU=   338
 Leave Link  302 at Wed Apr 27 21:25:54 2022, MaxMem=  6710886400 cpu:              10.1 elap:               0.5
 (Enter /sw/apps/gaussian-16.0/g16/l303.exe)
 DipDrv:  MaxL=1.
 DipDrv:  will hold  3 matrices at once.
 Leave Link  303 at Wed Apr 27 21:25:54 2022, MaxMem=  6710886400 cpu:               0.6 elap:               0.0
 (Enter /sw/apps/gaussian-16.0/g16/l308.exe)
 Leave Link  308 at Wed Apr 27 21:25:55 2022, MaxMem=  6710886400 cpu:               4.9 elap:               0.2
 (Enter /sw/apps/gaussian-16.0/g16/l401.exe)
 Simple Huckel Guess.
 JPrj=0 DoOrth=F DoCkMO=F.
 Leave Link  401 at Wed Apr 27 21:25:55 2022, MaxMem=  6710886400 cpu:               3.1 elap:               0.1
 (Enter /sw/apps/gaussian-16.0/g16/l502.exe)
 Two-electron integral symmetry not used.
 Closed shell SCF:
 Using DIIS extrapolation, IDIIS=  1040.
 Overlap will be assumed to be unity.
 NGot=  6710886400 LenX=  6710643598 LenY=  6710528913
 Requested convergence on RMS density matrix=1.00D-08 within 128 cycles.
 Requested convergence on MAX density matrix=1.00D-06.
 Requested convergence on             energy=1.00D-06.
 No special actions if energy rises.
 Fock matrices will be formed incrementally for  20 cycles.

 Cycle   1  Pass 1  IDiag  1:
 E= -472.647181544220    
 DIIS: error= 5.65D-02 at cycle   1 NSaved=   1.
 NSaved= 1 IEnMin= 1 EnMin= -472.647181544220     IErMin= 1 ErrMin= 5.65D-02
 ErrMax= 5.65D-02  0.00D+00 EMaxC= 1.00D-01 BMatC= 8.31D-01 BMatP= 8.31D-01
 IDIUse=3 WtCom= 4.35D-01 WtEn= 5.65D-01
 Coeff-Com:  0.100D+01
 Coeff-En:   0.100D+01
 Coeff:      0.100D+01
 GapD=    2.000 DampG=2.000 DampE=0.500 DampFc=1.0000 IDamp=-1.
 RMSDP=4.02D-03 MaxDP=1.79D-01              OVMax= 0.00D+00

 Cycle   2  Pass 1  IDiag  1:
 RMSU=  4.01D-03    CP:  9.95D-01
 E= -474.479696719118     Delta-E=       -1.832515174898 Rises=F Damp=F
 DIIS: error= 2.04D-02 at cycle   2 NSaved=   2.
 NSaved= 2 IEnMin= 2 EnMin= -474.479696719118     IErMin= 2 ErrMin= 2.04D-02
 ErrMax= 2.04D-02  0.00D+00 EMaxC= 1.00D-01 BMatC= 5.18D-02 BMatP= 8.31D-01
 IDIUse=3 WtCom= 7.96D-01 WtEn= 2.04D-01
 Coeff-Com: -0.727D-01 0.107D+01
 Coeff-En:   0.000D+00 0.100D+01
 Coeff:     -0.579D-01 0.106D+01
 RMSDP=1.12D-03 MaxDP=6.00D-02 DE=-1.83D+00 OVMax= 0.00D+00

 Cycle   3  Pass 1  IDiag  1:
 RMSU=  1.05D-03    CP:  9.93D-01  1.09D+00
 E= -474.582048791613     Delta-E=       -0.102352072496 Rises=F Damp=F
 DIIS: error= 8.97D-03 at cycle   3 NSaved=   3.
 NSaved= 3 IEnMin= 3 EnMin= -474.582048791613     IErMin= 3 ErrMin= 8.97D-03
 ErrMax= 8.97D-03  0.00D+00 EMaxC= 1.00D-01 BMatC= 6.99D-03 BMatP= 5.18D-02
 IDIUse=3 WtCom= 9.10D-01 WtEn= 8.97D-02
 Coeff-Com: -0.673D-01 0.237D+00 0.831D+00
 Coeff-En:   0.000D+00 0.000D+00 0.100D+01
 Coeff:     -0.612D-01 0.215D+00 0.846D+00
 RMSDP=3.72D-04 MaxDP=2.03D-02 DE=-1.02D-01 OVMax= 0.00D+00

 Cycle   4  Pass 1  IDiag  1:
 RMSU=  2.42D-04    CP:  9.93D-01  1.16D+00  9.31D-01
 E= -474.594746418484     Delta-E=       -0.012697626870 Rises=F Damp=F
 DIIS: error= 1.44D-03 at cycle   4 NSaved=   4.
 NSaved= 4 IEnMin= 4 EnMin= -474.594746418484     IErMin= 4 ErrMin= 1.44D-03
 ErrMax= 1.44D-03  0.00D+00 EMaxC= 1.00D-01 BMatC= 2.87D-04 BMatP= 6.99D-03
 IDIUse=3 WtCom= 9.86D-01 WtEn= 1.44D-02
 Coeff-Com:  0.150D-02-0.393D-01 0.757D-02 0.103D+01
 Coeff-En:   0.000D+00 0.000D+00 0.000D+00 0.100D+01
 Coeff:      0.148D-02-0.387D-01 0.746D-02 0.103D+01
 RMSDP=1.47D-04 MaxDP=7.25D-03 DE=-1.27D-02 OVMax= 0.00D+00

 Cycle   5  Pass 1  IDiag  1:
 RMSU=  1.00D-04    CP:  9.92D-01  1.17D+00  1.03D+00  1.08D+00
 E= -474.595837517591     Delta-E=       -0.001091099107 Rises=F Damp=F
 DIIS: error= 5.74D-04 at cycle   5 NSaved=   5.
 NSaved= 5 IEnMin= 5 EnMin= -474.595837517591     IErMin= 5 ErrMin= 5.74D-04
 ErrMax= 5.74D-04  0.00D+00 EMaxC= 1.00D-01 BMatC= 6.52D-05 BMatP= 2.87D-04
 IDIUse=3 WtCom= 9.94D-01 WtEn= 5.74D-03
 Coeff-Com:  0.639D-02-0.266D-01-0.988D-01 0.224D+00 0.895D+00
 Coeff-En:   0.000D+00 0.000D+00 0.000D+00 0.000D+00 0.100D+01
 Coeff:      0.635D-02-0.265D-01-0.982D-01 0.223D+00 0.896D+00
 RMSDP=6.35D-05 MaxDP=3.60D-03 DE=-1.09D-03 OVMax= 0.00D+00

 Cycle   6  Pass 1  IDiag  1:
 RMSU=  3.64D-05    CP:  9.92D-01  1.17D+00  1.05D+00  1.27D+00  1.15D+00
 E= -474.596077654688     Delta-E=       -0.000240137098 Rises=F Damp=F
 DIIS: error= 2.25D-04 at cycle   6 NSaved=   6.
 NSaved= 6 IEnMin= 6 EnMin= -474.596077654688     IErMin= 6 ErrMin= 2.25D-04
 ErrMax= 2.25D-04  0.00D+00 EMaxC= 1.00D-01 BMatC= 8.54D-06 BMatP= 6.52D-05
 IDIUse=3 WtCom= 9.98D-01 WtEn= 2.25D-03
 Coeff-Com: -0.349D-03 0.659D-02-0.117D-01-0.108D+00-0.148D-01 0.113D+01
 Coeff-En:   0.000D+00 0.000D+00 0.000D+00 0.000D+00 0.000D+00 0.100D+01
 Coeff:     -0.348D-03 0.657D-02-0.117D-01-0.107D+00-0.148D-01 0.113D+01
 RMSDP=5.08D-05 MaxDP=2.28D-03 DE=-2.40D-04 OVMax= 0.00D+00

 Cycle   7  Pass 1  IDiag  1:
 RMSU=  2.19D-05    CP:  9.92D-01  1.17D+00  1.06D+00  1.31D+00  1.51D+00
                    CP:  1.59D+00
 E= -474.596158864531     Delta-E=       -0.000081209843 Rises=F Damp=F
 DIIS: error= 1.32D-04 at cycle   7 NSaved=   7.
 NSaved= 7 IEnMin= 7 EnMin= -474.596158864531     IErMin= 7 ErrMin= 1.32D-04
 ErrMax= 1.32D-04  0.00D+00 EMaxC= 1.00D-01 BMatC= 3.42D-06 BMatP= 8.54D-06
 IDIUse=3 WtCom= 9.99D-01 WtEn= 1.32D-03
 Coeff-Com: -0.909D-03 0.405D-02 0.118D-01-0.232D-01-0.172D+00 0.134D+00
 Coeff-Com:  0.105D+01
 Coeff-En:   0.000D+00 0.000D+00 0.000D+00 0.000D+00 0.000D+00 0.000D+00
 Coeff-En:   0.100D+01
 Coeff:     -0.907D-03 0.404D-02 0.118D-01-0.231D-01-0.172D+00 0.133D+00
 Coeff:      0.105D+01
 RMSDP=3.53D-05 MaxDP=1.72D-03 DE=-8.12D-05 OVMax= 0.00D+00

 Cycle   8  Pass 1  IDiag  1:
 RMSU=  7.12D-06    CP:  9.92D-01  1.17D+00  1.06D+00  1.34D+00  1.71D+00
                    CP:  2.16D+00  1.79D+00
 E= -474.596201516786     Delta-E=       -0.000042652255 Rises=F Damp=F
 DIIS: error= 9.47D-05 at cycle   8 NSaved=   8.
 NSaved= 8 IEnMin= 8 EnMin= -474.596201516786     IErMin= 8 ErrMin= 9.47D-05
 ErrMax= 9.47D-05  0.00D+00 EMaxC= 1.00D-01 BMatC= 1.67D-06 BMatP= 3.42D-06
 IDIUse=1 WtCom= 1.00D+00 WtEn= 0.00D+00
 Coeff-Com:  0.404D-03-0.366D-02 0.112D-02 0.541D-01-0.704D-03-0.271D+00
 Coeff-Com: -0.786D+00 0.201D+01
 Coeff:      0.404D-03-0.366D-02 0.112D-02 0.541D-01-0.704D-03-0.271D+00
 Coeff:     -0.786D+00 0.201D+01
 RMSDP=5.90D-05 MaxDP=2.77D-03 DE=-4.27D-05 OVMax= 0.00D+00

 Cycle   9  Pass 1  IDiag  1:
 RMSU=  1.09D-05    CP:  9.92D-01  1.17D+00  1.07D+00  1.36D+00  2.04D+00
                    CP:  3.00D+00  3.00D+00  2.46D+00
 E= -474.596249942269     Delta-E=       -0.000048425483 Rises=F Damp=F
 DIIS: error= 7.04D-05 at cycle   9 NSaved=   9.
 NSaved= 9 IEnMin= 9 EnMin= -474.596249942269     IErMin= 9 ErrMin= 7.04D-05
 ErrMax= 7.04D-05  0.00D+00 EMaxC= 1.00D-01 BMatC= 9.61D-07 BMatP= 1.67D-06
 IDIUse=1 WtCom= 1.00D+00 WtEn= 0.00D+00
 Coeff-Com:  0.529D-03-0.201D-02-0.800D-02 0.689D-02 0.826D-01 0.106D+00
 Coeff-Com: -0.116D+01 0.440D+00 0.153D+01
 Coeff:      0.529D-03-0.201D-02-0.800D-02 0.689D-02 0.826D-01 0.106D+00
 Coeff:     -0.116D+01 0.440D+00 0.153D+01
 RMSDP=6.08D-05 MaxDP=2.85D-03 DE=-4.84D-05 OVMax= 0.00D+00

 Cycle  10  Pass 1  IDiag  1:
 RMSU=  3.85D-05    CP:  9.92D-01  1.17D+00  1.08D+00  1.38D+00  2.35D+00
                    CP:  3.00D+00  3.00D+00  3.00D+00  3.00D+00
 E= -474.596278009296     Delta-E=       -0.000028067027 Rises=F Damp=F
 DIIS: error= 3.57D-05 at cycle  10 NSaved=  10.
 NSaved=10 IEnMin=10 EnMin= -474.596278009296     IErMin=10 ErrMin= 3.57D-05
 ErrMax= 3.57D-05  0.00D+00 EMaxC= 1.00D-01 BMatC= 1.73D-07 BMatP= 9.61D-07
 IDIUse=1 WtCom= 1.00D+00 WtEn= 0.00D+00
 Coeff-Com: -0.170D-03 0.135D-02 0.325D-04-0.182D-01-0.747D-02 0.133D+00
 Coeff-Com:  0.173D+00-0.332D+00-0.495D+00 0.155D+01
 Coeff:     -0.170D-03 0.135D-02 0.325D-04-0.182D-01-0.747D-02 0.133D+00
 Coeff:      0.173D+00-0.332D+00-0.495D+00 0.155D+01
 RMSDP=2.66D-05 MaxDP=1.14D-03 DE=-2.81D-05 OVMax= 0.00D+00

 Cycle  11  Pass 1  IDiag  1:
 RMSU=  1.26D-05    CP:  9.92D-01  1.17D+00  1.08D+00  1.39D+00  2.49D+00
                    CP:  3.00D+00  3.00D+00  3.00D+00  3.00D+00  1.50D+00
 E= -474.596283243922     Delta-E=       -0.000005234626 Rises=F Damp=F
 DIIS: error= 1.68D-05 at cycle  11 NSaved=  11.
 NSaved=11 IEnMin=11 EnMin= -474.596283243922     IErMin=11 ErrMin= 1.68D-05
 ErrMax= 1.68D-05  0.00D+00 EMaxC= 1.00D-01 BMatC= 4.65D-08 BMatP= 1.73D-07
 IDIUse=1 WtCom= 1.00D+00 WtEn= 0.00D+00
 Coeff-Com: -0.780D-04 0.269D-03 0.146D-02-0.643D-03-0.161D-01-0.135D-01
 Coeff-Com:  0.134D+00 0.357D-01-0.415D+00 0.684D-01 0.121D+01
 Coeff:     -0.780D-04 0.269D-03 0.146D-02-0.643D-03-0.161D-01-0.135D-01
 Coeff:      0.134D+00 0.357D-01-0.415D+00 0.684D-01 0.121D+01
 RMSDP=1.28D-05 MaxDP=5.45D-04 DE=-5.23D-06 OVMax= 0.00D+00

 Cycle  12  Pass 1  IDiag  1:
 RMSU=  1.62D-06    CP:  9.92D-01  1.17D+00  1.08D+00  1.39D+00  2.55D+00
                    CP:  3.00D+00  3.00D+00  3.00D+00  3.00D+00  1.73D+00
                    CP:  1.50D+00
 E= -474.596284265795     Delta-E=       -0.000001021873 Rises=F Damp=F
 DIIS: error= 9.61D-06 at cycle  12 NSaved=  12.
 NSaved=12 IEnMin=12 EnMin= -474.596284265795     IErMin=12 ErrMin= 9.61D-06
 ErrMax= 9.61D-06  0.00D+00 EMaxC= 1.00D-01 BMatC= 1.20D-08 BMatP= 4.65D-08
 IDIUse=1 WtCom= 1.00D+00 WtEn= 0.00D+00
 Coeff-Com:  0.456D-04-0.360D-03 0.127D-04 0.536D-02-0.693D-03-0.264D-01
 Coeff-Com: -0.663D-01 0.144D+00 0.981D-01-0.406D+00-0.833D-01 0.134D+01
 Coeff:      0.456D-04-0.360D-03 0.127D-04 0.536D-02-0.693D-03-0.264D-01
 Coeff:     -0.663D-01 0.144D+00 0.981D-01-0.406D+00-0.833D-01 0.134D+01
 RMSDP=3.54D-06 MaxDP=2.14D-04 DE=-1.02D-06 OVMax= 0.00D+00

 Cycle  13  Pass 1  IDiag  1:
 RMSU=  9.99D-07    CP:  9.92D-01  1.17D+00  1.08D+00  1.39D+00  2.56D+00
                    CP:  3.00D+00  3.00D+00  3.00D+00  3.00D+00  1.76D+00
                    CP:  1.68D+00  2.22D+00
 E= -474.596284467334     Delta-E=       -0.000000201539 Rises=F Damp=F
 DIIS: error= 5.41D-06 at cycle  13 NSaved=  13.
 NSaved=13 IEnMin=13 EnMin= -474.596284467334     IErMin=13 ErrMin= 5.41D-06
 ErrMax= 5.41D-06  0.00D+00 EMaxC= 1.00D-01 BMatC= 4.41D-09 BMatP= 1.20D-08
 IDIUse=1 WtCom= 1.00D+00 WtEn= 0.00D+00
 Coeff-Com:  0.181D-04-0.541D-04-0.467D-03 0.533D-03 0.226D-02 0.958D-02
 Coeff-Com: -0.445D-01-0.137D-01 0.102D+00 0.293D-01-0.346D+00-0.545D-01
 Coeff-Com:  0.132D+01
 Coeff:      0.181D-04-0.541D-04-0.467D-03 0.533D-03 0.226D-02 0.958D-02
 Coeff:     -0.445D-01-0.137D-01 0.102D+00 0.293D-01-0.346D+00-0.545D-01
 Coeff:      0.132D+01
 RMSDP=2.45D-06 MaxDP=1.19D-04 DE=-2.02D-07 OVMax= 0.00D+00

 Cycle  14  Pass 1  IDiag  1:
 RMSU=  4.90D-07    CP:  9.92D-01  1.17D+00  1.08D+00  1.39D+00  2.57D+00
                    CP:  3.00D+00  3.00D+00  3.00D+00  3.00D+00  1.79D+00
                    CP:  1.78D+00  3.00D+00  1.68D+00
 E= -474.596284547676     Delta-E=       -0.000000080342 Rises=F Damp=F
 DIIS: error= 2.92D-06 at cycle  14 NSaved=  14.
 NSaved=14 IEnMin=14 EnMin= -474.596284547676     IErMin=14 ErrMin= 2.92D-06
 ErrMax= 2.92D-06  0.00D+00 EMaxC= 1.00D-01 BMatC= 1.71D-09 BMatP= 4.41D-09
 IDIUse=1 WtCom= 1.00D+00 WtEn= 0.00D+00
 Coeff-Com: -0.322D-04 0.222D-03 0.768D-04-0.253D-02-0.321D-02 0.170D-01
 Coeff-Com:  0.462D-01-0.764D-01-0.658D-01 0.204D+00 0.854D-01-0.627D+00
 Coeff-Com: -0.327D+00 0.175D+01
 Coeff:     -0.322D-04 0.222D-03 0.768D-04-0.253D-02-0.321D-02 0.170D-01
 Coeff:      0.462D-01-0.764D-01-0.658D-01 0.204D+00 0.854D-01-0.627D+00
 Coeff:     -0.327D+00 0.175D+01
 RMSDP=2.03D-06 MaxDP=9.59D-05 DE=-8.03D-08 OVMax= 0.00D+00

 Cycle  15  Pass 1  IDiag  1:
 RMSU=  1.17D-06    CP:  9.92D-01  1.17D+00  1.08D+00  1.39D+00  2.57D+00
                    CP:  3.00D+00  3.00D+00  3.00D+00  3.00D+00  1.79D+00
                    CP:  1.84D+00  3.00D+00  2.57D+00  3.00D+00
 E= -474.596284586686     Delta-E=       -0.000000039010 Rises=F Damp=F
 DIIS: error= 1.17D-06 at cycle  15 NSaved=  15.
 NSaved=15 IEnMin=15 EnMin= -474.596284586686     IErMin=15 ErrMin= 1.17D-06
 ErrMax= 1.17D-06  0.00D+00 EMaxC= 1.00D-01 BMatC= 2.96D-10 BMatP= 1.71D-09
 IDIUse=1 WtCom= 1.00D+00 WtEn= 0.00D+00
 Coeff-Com: -0.589D-05 0.219D-04 0.138D-03-0.891D-04-0.176D-02-0.400D-04
 Coeff-Com:  0.149D-01-0.451D-02-0.263D-01-0.156D-02 0.921D-01 0.187D-02
 Coeff-Com: -0.388D+00 0.116D+00 0.120D+01
 Coeff:     -0.589D-05 0.219D-04 0.138D-03-0.891D-04-0.176D-02-0.400D-04
 Coeff:      0.149D-01-0.451D-02-0.263D-01-0.156D-02 0.921D-01 0.187D-02
 Coeff:     -0.388D+00 0.116D+00 0.120D+01
 RMSDP=7.83D-07 MaxDP=4.13D-05 DE=-3.90D-08 OVMax= 0.00D+00

 Cycle  16  Pass 1  IDiag  1:
 RMSU=  4.31D-07    CP:  9.92D-01  1.17D+00  1.08D+00  1.39D+00  2.57D+00
                    CP:  3.00D+00  3.00D+00  3.00D+00  3.00D+00  1.79D+00
                    CP:  1.87D+00  3.00D+00  2.88D+00  3.00D+00  1.36D+00
 E= -474.596284591658     Delta-E=       -0.000000004972 Rises=F Damp=F
 DIIS: error= 3.91D-07 at cycle  16 NSaved=  16.
 NSaved=16 IEnMin=16 EnMin= -474.596284591658     IErMin=16 ErrMin= 3.91D-07
 ErrMax= 3.91D-07  0.00D+00 EMaxC= 1.00D-01 BMatC= 3.44D-11 BMatP= 2.96D-10
 IDIUse=1 WtCom= 1.00D+00 WtEn= 0.00D+00
 Coeff-Com:  0.630D-05-0.417D-04-0.140D-04 0.488D-03 0.336D-03-0.239D-02
 Coeff-Com: -0.938D-02 0.129D-01 0.144D-01-0.366D-01-0.164D-01 0.108D+00
 Coeff-Com:  0.629D-01-0.315D+00-0.402D-01 0.122D+01
 Coeff:      0.630D-05-0.417D-04-0.140D-04 0.488D-03 0.336D-03-0.239D-02
 Coeff:     -0.938D-02 0.129D-01 0.144D-01-0.366D-01-0.164D-01 0.108D+00
 Coeff:      0.629D-01-0.315D+00-0.402D-01 0.122D+01
 RMSDP=2.30D-07 MaxDP=1.19D-05 DE=-4.97D-09 OVMax= 0.00D+00

 Cycle  17  Pass 1  IDiag  1:
 RMSU=  4.70D-08    CP:  9.92D-01  1.17D+00  1.08D+00  1.39D+00  2.57D+00
                    CP:  3.00D+00  3.00D+00  3.00D+00  3.00D+00  1.79D+00
                    CP:  1.87D+00  3.00D+00  2.97D+00  3.00D+00  1.46D+00
                    CP:  1.31D+00
 E= -474.596284592070     Delta-E=       -0.000000000412 Rises=F Damp=F
 DIIS: error= 1.90D-07 at cycle  17 NSaved=  17.
 NSaved=17 IEnMin=17 EnMin= -474.596284592070     IErMin=17 ErrMin= 1.90D-07
 ErrMax= 1.90D-07  0.00D+00 EMaxC= 1.00D-01 BMatC= 3.19D-12 BMatP= 3.44D-11
 IDIUse=1 WtCom= 1.00D+00 WtEn= 0.00D+00
 Coeff-Com:  0.359D-06-0.999D-06-0.152D-04 0.525D-05 0.124D-03 0.153D-03
 Coeff-Com: -0.136D-02 0.428D-03 0.199D-02 0.366D-03-0.631D-02-0.587D-02
 Coeff-Com:  0.374D-01 0.117D-02-0.101D+00-0.483D-01 0.112D+01
 Coeff:      0.359D-06-0.999D-06-0.152D-04 0.525D-05 0.124D-03 0.153D-03
 Coeff:     -0.136D-02 0.428D-03 0.199D-02 0.366D-03-0.631D-02-0.587D-02
 Coeff:      0.374D-01 0.117D-02-0.101D+00-0.483D-01 0.112D+01
 RMSDP=2.68D-08 MaxDP=1.33D-06 DE=-4.12D-10 OVMax= 0.00D+00

 Cycle  18  Pass 1  IDiag  1:
 RMSU=  1.37D-08    CP:  9.92D-01  1.17D+00  1.08D+00  1.39D+00  2.57D+00
                    CP:  3.00D+00  3.00D+00  3.00D+00  3.00D+00  1.79D+00
                    CP:  1.87D+00  3.00D+00  2.97D+00  3.00D+00  1.46D+00
                    CP:  1.34D+00  1.38D+00
 E= -474.596284592094     Delta-E=       -0.000000000024 Rises=F Damp=F
 DIIS: error= 1.17D-07 at cycle  18 NSaved=  18.
 NSaved=18 IEnMin=18 EnMin= -474.596284592094     IErMin=18 ErrMin= 1.17D-07
 ErrMax= 1.17D-07  0.00D+00 EMaxC= 1.00D-01 BMatC= 6.55D-13 BMatP= 3.19D-12
 IDIUse=1 WtCom= 1.00D+00 WtEn= 0.00D+00
 Coeff-Com: -0.132D-05 0.876D-05 0.225D-05-0.101D-03-0.639D-04 0.498D-03
 Coeff-Com:  0.174D-02-0.250D-02-0.298D-02 0.722D-02 0.437D-02-0.232D-01
 Coeff-Com: -0.118D-01 0.597D-01 0.106D-01-0.241D+00-0.464D-01 0.124D+01
 Coeff:     -0.132D-05 0.876D-05 0.225D-05-0.101D-03-0.639D-04 0.498D-03
 Coeff:      0.174D-02-0.250D-02-0.298D-02 0.722D-02 0.437D-02-0.232D-01
 Coeff:     -0.118D-01 0.597D-01 0.106D-01-0.241D+00-0.464D-01 0.124D+01
 RMSDP=2.01D-08 MaxDP=1.04D-06 DE=-2.36D-11 OVMax= 0.00D+00

 Cycle  19  Pass 1  IDiag  1:
 RMSU=  5.32D-09    CP:  9.92D-01  1.17D+00  1.08D+00  1.39D+00  2.57D+00
                    CP:  3.00D+00  3.00D+00  3.00D+00  3.00D+00  1.79D+00
                    CP:  1.87D+00  3.00D+00  2.97D+00  3.00D+00  1.47D+00
                    CP:  1.36D+00  1.62D+00  1.53D+00
 E= -474.596284592119     Delta-E=       -0.000000000025 Rises=F Damp=F
 DIIS: error= 5.43D-08 at cycle  19 NSaved=  19.
 NSaved=19 IEnMin=19 EnMin= -474.596284592119     IErMin=19 ErrMin= 5.43D-08
 ErrMax= 5.43D-08  0.00D+00 EMaxC= 1.00D-01 BMatC= 9.90D-14 BMatP= 6.55D-13
 IDIUse=1 WtCom= 1.00D+00 WtEn= 0.00D+00
 Coeff-Com:  0.810D-07-0.689D-06 0.254D-05 0.805D-05-0.880D-05-0.758D-04
 Coeff-Com:  0.547D-05 0.221D-03 0.363D-04-0.848D-03 0.556D-03 0.317D-02
 Coeff-Com: -0.404D-02-0.758D-02 0.149D-01 0.380D-01-0.183D+00-0.131D+00
 Coeff-Com:  0.127D+01
 Coeff:      0.810D-07-0.689D-06 0.254D-05 0.805D-05-0.880D-05-0.758D-04
 Coeff:      0.547D-05 0.221D-03 0.363D-04-0.848D-03 0.556D-03 0.317D-02
 Coeff:     -0.404D-02-0.758D-02 0.149D-01 0.380D-01-0.183D+00-0.131D+00
 Coeff:      0.127D+01
 RMSDP=6.45D-09 MaxDP=5.19D-07 DE=-2.46D-11 OVMax= 0.00D+00

 SCF Done:  E(RZINDO/S) =  -474.596284592     A.U. after   19 cycles
            NFock= 19  Conv=0.65D-08     -V/T= 0.9488
 KE=-9.261914714390D+03 PE=-6.886311894050D-07 EE= 4.493662247989D+03
 Leave Link  502 at Wed Apr 27 21:25:56 2022, MaxMem=  6710886400 cpu:              18.3 elap:               0.8
 (Enter /sw/apps/gaussian-16.0/g16/l801.exe)
 Range of M.O.s used for correlation:     1   338
 NBasis=   338 NAE=   176 NBE=   176 NFC=     0 NFV=     0
 NROrb=    338 NOA=   176 NOB=   176 NVA=   162 NVB=   162
 Leave Link  801 at Wed Apr 27 21:25:56 2022, MaxMem=  6710886400 cpu:               0.4 elap:               0.0
 (Enter /sw/apps/gaussian-16.0/g16/l914.exe)
 RHF ground state
 Two-electron integral symmetry not used.
 MDV=  6710886400 DFT=F DoStab=F Mixed=F DoRPA=F DoScal=F NonHer=F
 Making orbital integer symmetry assigments:
 Orbital symmetries:
       Occupied  (A) (A) (A) (A) (A) (A) (A) (A) (A) (A) (A) (A)
                 (A) (A) (A) (A) (A) (A) (A) (A) (A) (A) (A) (A)
                 (A) (A) (A) (A) (A) (A) (A) (A) (A) (A) (A) (A)
                 (A) (A) (A) (A) (A) (A) (A) (A) (A) (A) (A) (A)
                 (A) (A) (A) (A) (A) (A) (A) (A) (A) (A) (A) (A)
                 (A) (A) (A) (A) (A) (A) (A) (A) (A) (A) (A) (A)
                 (A) (A) (A) (A) (A) (A) (A) (A) (A) (A) (A) (A)
                 (A) (A) (A) (A) (A) (A) (A) (A) (A) (A) (A) (A)
                 (A) (A) (A) (A) (A) (A) (A) (A) (A) (A) (A) (A)
                 (A) (A) (A) (A) (A) (A) (A) (A) (A) (A) (A) (A)
                 (A) (A) (A) (A) (A) (A) (A) (A) (A) (A) (A) (A)
                 (A) (A) (A) (A) (A) (A) (A) (A) (A) (A) (A) (A)
                 (A) (A) (A) (A) (A) (A) (A) (A) (A) (A) (A) (A)
                 (A) (A) (A) (A) (A) (A) (A) (A) (A) (A) (A) (A)
                 (A) (A) (A) (A) (A) (A) (A) (A)
       Virtual   (A) (A) (A) (A) (A) (A) (A) (A) (A) (A) (A) (A)
                 (A) (A) (A) (A) (A) (A) (A) (A) (A) (A) (A) (A)
                 (A) (A) (A) (A) (A) (A) (A) (A) (A) (A) (A) (A)
                 (A) (A) (A) (A) (A) (A) (A) (A) (A) (A) (A) (A)
                 (A) (A) (A) (A) (A) (A) (A) (A) (A) (A) (A) (A)
                 (A) (A) (A) (A) (A) (A) (A) (A) (A) (A) (A) (A)
                 (A) (A) (A) (A) (A) (A) (A) (A) (A) (A) (A) (A)
                 (A) (A) (A) (A) (A) (A) (A) (A) (A) (A) (A) (A)
                 (A) (A) (A) (A) (A) (A) (A) (A) (A) (A) (A) (A)
                 (A) (A) (A) (A) (A) (A) (A) (A) (A) (A) (A) (A)
                 (A) (A) (A) (A) (A) (A) (A) (A) (A) (A) (A) (A)
                 (A) (A) (A) (A) (A) (A) (A) (A) (A) (A) (A) (A)
                 (A) (A) (A) (A) (A) (A) (A) (A) (A) (A) (A) (A)
                 (A) (A) (A) (A) (A) (A)
    20 initial guesses have been made.
 Convergence on wavefunction:    0.001000000000000
 Davidson Disk Diagonalization:  ConvIn= 1.00D-03 SkipCon=T Conv= 1.00D-03.
 Max sub-space:  2000 roots to seek:    20 dimension of matrix:        57024
 Iteration     1 Dimension    20 NMult     0 NNew     20
 CISAX will form    20 AO SS matrices at one time.
 NMat=    20 NSing=    20 JSym2X= 0.
 New state      3 was old state      4
 New state      4 was old state     10
 New state      5 was old state      3
 Excitation Energies [eV] at current iteration:
 Root      1 :     1.630134525303317
 Root      2 :     2.133489798428393
 Root      3 :     3.327296516232749
 Root      4 :     3.402298463450816
 Root      5 :     3.464095884218132
 Root      6 :     3.531715563775021
 Root      7 :     3.741174478718445
 Root      8 :     3.747955935913080
 Root      9 :     3.901761950045973
 Root     10 :     4.027105676950787
 Root     11 :     4.091040546757520
 Root     12 :     4.145615401287110
 Root     13 :     4.250480344179119
 Root     14 :     4.359134312317991
 Root     15 :     4.450167314398170
 Root     16 :     4.564184907792899
 Root     17 :     4.584959368322015
 Root     18 :     4.775610993182839
 Root     19 :     4.865449706627679
 Root     20 :     5.723547748789458
 Iteration     2 Dimension    40 NMult    20 NNew     20
 CISAX will form    20 AO SS matrices at one time.
 NMat=    20 NSing=    20 JSym2X= 0.
 Root      1 not converged, maximum delta is    0.040083113772006
 Root      2 not converged, maximum delta is    0.032008073243440
 Root      3 not converged, maximum delta is    0.408524922950346
 Root      4 not converged, maximum delta is    0.347289606457252
 New state      5 was old state     12
 Root      5 not converged, maximum delta is    0.472916311013339
 Excitation Energies [eV] at current iteration:
 Root      1 :     1.306464783362307   Change is   -0.323669741941011
 Root      2 :     1.927885901892572   Change is   -0.205603896535821
 Root      3 :     3.023384393304374   Change is   -0.303912122928375
 Root      4 :     3.132570779356566   Change is   -0.269727684094250
 Root      5 :     3.228004411939178   Change is   -0.917610989347932
 Root      6 :     3.328947222582546   Change is   -0.202768341192474
 Root      7 :     3.407361745932957   Change is   -0.056734138285176
 Root      8 :     3.491702490270698   Change is   -0.249471988447746
 Root      9 :     3.553020114774984   Change is   -0.194935821138096
 Root     10 :     3.655893970957080   Change is   -0.371211705993706
 Root     11 :     3.726241001060117   Change is   -0.175520948985856
 Root     12 :     3.762253688558096   Change is   -0.328786858199423
 Root     13 :     3.857498621461315   Change is   -0.706686286331583
 Root     14 :     4.034220060020127   Change is   -0.324914252297864
 Root     15 :     4.157169160256057   Change is   -0.093311183923062
 Root     16 :     4.224957426451456   Change is   -0.225209887946714
 Root     17 :     4.498607853529844   Change is   -0.086351514792171
 Root     18 :     4.558067714865575   Change is   -0.217543278317264
 Root     19 :     4.854024369196094   Change is   -0.011425337431585
 Root     20 :     5.667708445058401
 Iteration     3 Dimension    45 NMult    40 NNew      5
 CISAX will form     5 AO SS matrices at one time.
 NMat=     5 NSing=     5 JSym2X= 0.
 Root      1 not converged, maximum delta is    0.013749339111757
 Root      2 not converged, maximum delta is    0.019675774726058
 New state      3 was old state      5
 Root      3 not converged, maximum delta is    0.169876231628753
 New state      4 was old state      3
 Root      4 not converged, maximum delta is    0.104927859217732
 New state      5 was old state      4
 Root      5 not converged, maximum delta is    0.058097318680906
 Excitation Energies [eV] at current iteration:
 Root      1 :     1.290331325650112   Change is   -0.016133457712194
 Root      2 :     1.903177679889975   Change is   -0.024708222002596
 Root      3 :     2.911247601743246   Change is   -0.316756810195932
 Root      4 :     3.006148790075509   Change is   -0.017235603228865
 Root      5 :     3.097062051184117   Change is   -0.035508728172448
 Iteration     4 Dimension    50 NMult    45 NNew      5
 CISAX will form     5 AO SS matrices at one time.
 NMat=     5 NSing=     5 JSym2X= 0.
 Root      1 not converged, maximum delta is    0.002275974762741
 Root      2 not converged, maximum delta is    0.001785530629691
 Root      3 not converged, maximum delta is    0.069048253033556
 Root      4 not converged, maximum delta is    0.036888581621594
 Root      5 not converged, maximum delta is    0.008708661437139
 Excitation Energies [eV] at current iteration:
 Root      1 :     1.289619861452908   Change is   -0.000711464197204
 Root      2 :     1.902625895134756   Change is   -0.000551784755220
 Root      3 :     2.839726142435211   Change is   -0.071521459308034
 Root      4 :     3.002012396282581   Change is   -0.004136393792928
 Root      5 :     3.093782832488209   Change is   -0.003279218695908
 Iteration     5 Dimension    55 NMult    50 NNew      5
 CISAX will form     5 AO SS matrices at one time.
 NMat=     5 NSing=     5 JSym2X= 0.
 Root      1 has converged.
 Root      2 has converged.
 Root      3 not converged, maximum delta is    0.020190169045948
 Root      4 not converged, maximum delta is    0.006162780135244
 Root      5 not converged, maximum delta is    0.003945152532067
 Excitation Energies [eV] at current iteration:
 Root      1 :     1.289575612370649   Change is   -0.000044249082260
 Root      2 :     1.902595032724131   Change is   -0.000030862410624
 Root      3 :     2.831315655647776   Change is   -0.008410486787436
 Root      4 :     3.001228291424735   Change is   -0.000784104857846
 Root      5 :     3.093276750940095   Change is   -0.000506081548114
 Iteration     6 Dimension    58 NMult    55 NNew      3
 CISAX will form     3 AO SS matrices at one time.
 NMat=     3 NSing=     3 JSym2X= 0.
 Root      1 has converged.
 Root      2 has converged.
 Root      3 not converged, maximum delta is    0.008966120570234
 Root      4 not converged, maximum delta is    0.013076943882785
 Root      5 not converged, maximum delta is    0.009716271353058
 Excitation Energies [eV] at current iteration:
 Root      1 :     1.289575574604994   Change is   -0.000000037765655
 Root      2 :     1.902594894989800   Change is   -0.000000137734332
 Root      3 :     2.829933250368056   Change is   -0.001382405279720
 Root      4 :     3.000570532259325   Change is   -0.000657759165410
 Root      5 :     3.093015198042166   Change is   -0.000261552897929
 Iteration     7 Dimension    61 NMult    58 NNew      3
 CISAX will form     3 AO SS matrices at one time.
 NMat=     3 NSing=     3 JSym2X= 0.
 Root      1 has converged.
 Root      2 has converged.
 Root      3 not converged, maximum delta is    0.014623291724811
 Root      4 not converged, maximum delta is    0.221958185920409
 No map to state      5
 Excitation Energies [eV] at current iteration:
 Root      1 :     1.289575553582439   Change is   -0.000000021022555
 Root      2 :     1.902594757781944   Change is   -0.000000137207856
 Root      3 :     2.829252246250348   Change is   -0.000681004117708
 Root      4 :     2.989435761189553   Change is   -0.011134771069773
 Root      5 :     3.014307428025637
 Iteration     8 Dimension    64 NMult    61 NNew      3
 CISAX will form     3 AO SS matrices at one time.
 NMat=     3 NSing=     3 JSym2X= 0.
 Root      1 has converged.
 Root      2 has converged.
 Root      3 not converged, maximum delta is    0.008808369609532
 Root      4 not converged, maximum delta is    0.267510345373363
 Root      5 not converged, maximum delta is    0.168763343564346
 Excitation Energies [eV] at current iteration:
 Root      1 :     1.289575111129898   Change is   -0.000000442452541
 Root      2 :     1.902594712729667   Change is   -0.000000045052278
 Root      3 :     2.828982801648691   Change is   -0.000269444601657
 Root      4 :     2.953373505772628   Change is   -0.036062255416925
 Root      5 :     3.004039162315609   Change is   -0.010268265710028
 Iteration     9 Dimension    67 NMult    64 NNew      3
 CISAX will form     3 AO SS matrices at one time.
 NMat=     3 NSing=     3 JSym2X= 0.
 Root      1 has converged.
 Root      2 has converged.
 Root      3 not converged, maximum delta is    0.003984068950982
 Root      4 not converged, maximum delta is    0.032313907037946
 Root      5 not converged, maximum delta is    0.021677573082589
 Excitation Energies [eV] at current iteration:
 Root      1 :     1.289574988967814   Change is   -0.000000122162084
 Root      2 :     1.902594666946525   Change is   -0.000000045783141
 Root      3 :     2.828874566915988   Change is   -0.000108234732703
 Root      4 :     2.938950682102403   Change is   -0.014422823670225
 Root      5 :     3.003171026214142   Change is   -0.000868136101467
 Iteration    10 Dimension    70 NMult    67 NNew      3
 CISAX will form     3 AO SS matrices at one time.
 NMat=     3 NSing=     3 JSym2X= 0.
 Root      1 has converged.
 Root      2 has converged.
 Root      3 not converged, maximum delta is    0.001107392919836
 Root      4 not converged, maximum delta is    0.013316948724205
 Root      5 not converged, maximum delta is    0.004952853839397
 Excitation Energies [eV] at current iteration:
 Root      1 :     1.289574902004967   Change is   -0.000000086962847
 Root      2 :     1.902594660960075   Change is   -0.000000005986451
 Root      3 :     2.828843972281885   Change is   -0.000030594634103
 Root      4 :     2.935019066540839   Change is   -0.003931615561564
 Root      5 :     3.002975408424689   Change is   -0.000195617789453
 Iteration    11 Dimension    73 NMult    70 NNew      3
 CISAX will form     3 AO SS matrices at one time.
 NMat=     3 NSing=     3 JSym2X= 0.
 Root      1 has converged.
 Root      2 has converged.
 Root      3 has converged.
 Root      4 not converged, maximum delta is    0.002978780213097
 Root      5 has converged.
 Excitation Energies [eV] at current iteration:
 Root      1 :     1.289574896417515   Change is   -0.000000005587452
 Root      2 :     1.902594649927010   Change is   -0.000000011033065
 Root      3 :     2.828839355542778   Change is   -0.000004616739107
 Root      4 :     2.934412125989666   Change is   -0.000606940551172
 Root      5 :     3.002944823173186   Change is   -0.000030585251503
 Iteration    12 Dimension    74 NMult    73 NNew      1
 CISAX will form     1 AO SS matrices at one time.
 NMat=     1 NSing=     1 JSym2X= 0.
 Root      1 has converged.
 Root      2 has converged.
 Root      3 has converged.
 Root      4 has converged.
 Root      5 has converged.
 Excitation Energies [eV] at current iteration:
 Root      1 :     1.289574874346812   Change is   -0.000000022070703
 Root      2 :     1.902594639566037   Change is   -0.000000010360973
 Root      3 :     2.828838843719151   Change is   -0.000000511823627
 Root      4 :     2.934336819902228   Change is   -0.000075306087438
 Root      5 :     3.002940961037080   Change is   -0.000003862136106
 Convergence achieved on expansion vectors.
 ***********************************************************************
 Excited states from <AA,BB:AA,BB> singles matrix:
 ***********************************************************************
 
 1PDM for each excited state written to RWF  633
 Ground to excited state transition densities written to RWF  633
 Ground to excited state transition electric dipole moments (Au):
       state          X           Y           Z        Dip. S.      Osc.
         1        -2.5383      3.4999      0.1192     18.7067      0.5910
         2         0.7873      0.8437     -0.0538      1.3345      0.0622
         3         0.1472      0.0394      0.0528      0.0260      0.0018
         4        -0.2374     -0.2592      0.0280      0.1243      0.0089
         5         2.9262      2.2220     -0.1836     13.5336      0.9957
 Ground to excited state transition velocity dipole moments (Au):
       state          X           Y           Z        Dip. S.      Osc.
         1        -0.0491      0.0252      0.0143      0.0033      0.0458
         2        -0.0074     -0.0149     -0.0012      0.0003      0.0026
         3        -0.0034      0.0004      0.0036      0.0000      0.0002
         4         0.0046      0.0100      0.0036      0.0001      0.0008
         5        -0.1011     -0.0686      0.0049      0.0149      0.0903
 Ground to excited state transition magnetic dipole moments (Au):
       state          X           Y           Z
         1         0.0381     -0.1557     -0.2014
         2        -0.0289      0.0094     -0.8215
         3         0.2873     -0.6535      0.2407
         4        -0.5663     -0.4638      0.1380
         5        -0.0200     -0.0975     -0.2130
 Ground to excited state transition velocity quadrupole moments (Au):
       state          XX          YY          ZZ          XY          XZ          YZ
         1        -0.9566      0.0307      0.0238      0.3012      0.1297      0.0430
         2        -0.0808     -0.0222      0.0112     -0.1357     -0.0203     -0.0152
         3        -0.0208     -0.0828      0.0187      0.0389     -0.0064     -0.0799
         4         0.0929      0.0698     -0.0022      0.0452     -0.0011      0.0743
         5        -1.6105     -0.0305      0.0571     -0.7237      0.0317      0.0045
 <0|del|b> * <b|rxdel|0> + <0|del|b> * <b|delr+rdel|0>
 Rotatory Strengths (R) in cgs (10**-40 erg-esu-cm/Gauss)
       state          XX          YY          ZZ    R(velocity)    E-M Angle
         1       -43.0944    -83.3475     -3.1117    -43.1846      126.24
         2         3.5298      5.7780      1.3313      3.5463       85.59
         3         2.4998      0.0434     -5.2461     -0.9010       96.05
         4       -12.9260     -6.2610    -24.7658    -14.6510      141.25
         5        13.7857     13.0008     22.3917     16.3927       74.52
 1/2[<0|r|b>*<b|rxdel|0> + (<0|rxdel|b>*<b|r|0>)*]
 Rotatory Strengths (R) in cgs (10**-40 erg-esu-cm/Gauss)
       state          XX          YY          ZZ     R(length)
         1        68.4032    385.3562     16.9708    156.9101
         2        16.0916     -5.6202    -31.2756     -6.9347
         3       -29.9000     18.1895     -8.9787     -6.8964
         4       -95.0809    -85.0195     -2.7308    -60.9437
         5        41.3769    153.2603    -27.6532     55.6613
  1/2[<0|del|b>*<b|r|0> + (<0|r|b>*<b|del|0>)*] (Au)
       state          X           Y           Z        Dip. S.   Osc.(frdel)
         1         0.1247      0.0883      0.0017     -0.2147     -0.1432
         2        -0.0058     -0.0125      0.0001      0.0183      0.0122
         3        -0.0005      0.0000      0.0002      0.0003      0.0002
         4        -0.0011     -0.0026      0.0001      0.0036      0.0024
         5        -0.2957     -0.1524     -0.0009      0.4491      0.2994

 Excitation energies and oscillator strengths:
 
 Excited State   1:      Singlet-A      1.2896 eV  961.43 nm  f=0.5910  <S**2>=0.000
     175 ->178         0.19175
     176 ->177         0.66390
 This state for optimization and/or second-order correction.
 Total Energy, E(CIS/TDA) =  -474.548893587    
 Copying the excited state density for this state as the 1-particle RhoCI density.
 
 Excited State   2:      Singlet-A      1.9026 eV  651.66 nm  f=0.0622  <S**2>=0.000
     175 ->177         0.56331
     176 ->178        -0.39911
 
 Excited State   3:      Singlet-A      2.8288 eV  438.29 nm  f=0.0018  <S**2>=0.000
     169 ->177         0.40583
     169 ->178        -0.10364
     169 ->179        -0.36085
     169 ->180         0.13067
     169 ->183        -0.15923
     169 ->186        -0.17593
     171 ->177         0.14481
 
 Excited State   4:      Singlet-A      2.9343 eV  422.53 nm  f=0.0089  <S**2>=0.000
     170 ->177         0.25715
     170 ->178        -0.10392
     170 ->179         0.29227
     170 ->180         0.36024
     170 ->183        -0.20758
     170 ->186         0.20794
     170 ->187         0.17298
 
 Excited State   5:      Singlet-A      3.0029 eV  412.88 nm  f=0.9957  <S**2>=0.000
     171 ->177         0.14495
     175 ->177         0.34926
     176 ->178         0.53150
     176 ->179         0.11206
 SavETr:  write IOETrn=   770 NScale= 10 NData=  16 NLR=1 NState=    5 LETran=     100.
 Leave Link  914 at Wed Apr 27 21:26:00 2022, MaxMem=  6710886400 cpu:              94.6 elap:               4.0
 (Enter /sw/apps/gaussian-16.0/g16/l601.exe)
 Copying SCF densities to generalized density rwf, IOpCl= 0 IROHF=0.

 **********************************************************************

            Population analysis using the SCF density.

 **********************************************************************

 Orbital symmetries:
       Occupied  (A) (A) (A) (A) (A) (A) (A) (A) (A) (A) (A) (A)
                 (A) (A) (A) (A) (A) (A) (A) (A) (A) (A) (A) (A)
                 (A) (A) (A) (A) (A) (A) (A) (A) (A) (A) (A) (A)
                 (A) (A) (A) (A) (A) (A) (A) (A) (A) (A) (A) (A)
                 (A) (A) (A) (A) (A) (A) (A) (A) (A) (A) (A) (A)
                 (A) (A) (A) (A) (A) (A) (A) (A) (A) (A) (A) (A)
                 (A) (A) (A) (A) (A) (A) (A) (A) (A) (A) (A) (A)
                 (A) (A) (A) (A) (A) (A) (A) (A) (A) (A) (A) (A)
                 (A) (A) (A) (A) (A) (A) (A) (A) (A) (A) (A) (A)
                 (A) (A) (A) (A) (A) (A) (A) (A) (A) (A) (A) (A)
                 (A) (A) (A) (A) (A) (A) (A) (A) (A) (A) (A) (A)
                 (A) (A) (A) (A) (A) (A) (A) (A) (A) (A) (A) (A)
                 (A) (A) (A) (A) (A) (A) (A) (A) (A) (A) (A) (A)
                 (A) (A) (A) (A) (A) (A) (A) (A) (A) (A) (A) (A)
                 (A) (A) (A) (A) (A) (A) (A) (A)
       Virtual   (A) (A) (A) (A) (A) (A) (A) (A) (A) (A) (A) (A)
                 (A) (A) (A) (A) (A) (A) (A) (A) (A) (A) (A) (A)
                 (A) (A) (A) (A) (A) (A) (A) (A) (A) (A) (A) (A)
                 (A) (A) (A) (A) (A) (A) (A) (A) (A) (A) (A) (A)
                 (A) (A) (A) (A) (A) (A) (A) (A) (A) (A) (A) (A)
                 (A) (A) (A) (A) (A) (A) (A) (A) (A) (A) (A) (A)
                 (A) (A) (A) (A) (A) (A) (A) (A) (A) (A) (A) (A)
                 (A) (A) (A) (A) (A) (A) (A) (A) (A) (A) (A) (A)
                 (A) (A) (A) (A) (A) (A) (A) (A) (A) (A) (A) (A)
                 (A) (A) (A) (A) (A) (A) (A) (A) (A) (A) (A) (A)
                 (A) (A) (A) (A) (A) (A) (A) (A) (A) (A) (A) (A)
                 (A) (A) (A) (A) (A) (A) (A) (A) (A) (A) (A) (A)
                 (A) (A) (A) (A) (A) (A) (A) (A) (A) (A) (A) (A)
                 (A) (A) (A) (A) (A) (A)
 The electronic state is 1-A.
 Alpha  occ. eigenvalues --   -1.89721  -1.80723  -1.79321  -1.76098  -1.71761
 Alpha  occ. eigenvalues --   -1.70855  -1.67227  -1.62395  -1.58731  -1.58333
 Alpha  occ. eigenvalues --   -1.57006  -1.51613  -1.49735  -1.48960  -1.46069
 Alpha  occ. eigenvalues --   -1.44941  -1.43692  -1.39580  -1.39514  -1.38498
 Alpha  occ. eigenvalues --   -1.36429  -1.35011  -1.33041  -1.32015  -1.28786
 Alpha  occ. eigenvalues --   -1.28061  -1.24997  -1.21443  -1.20564  -1.19243
 Alpha  occ. eigenvalues --   -1.18408  -1.16370  -1.15424  -1.14568  -1.13990
 Alpha  occ. eigenvalues --   -1.13142  -1.10832  -1.10620  -1.05221  -1.04148
 Alpha  occ. eigenvalues --   -1.02925  -1.01373  -0.99164  -0.98398  -0.96423
 Alpha  occ. eigenvalues --   -0.95578  -0.95003  -0.93930  -0.93066  -0.92051
 Alpha  occ. eigenvalues --   -0.90863  -0.90569  -0.89570  -0.88346  -0.85690
 Alpha  occ. eigenvalues --   -0.85180  -0.83998  -0.83615  -0.82437  -0.80768
 Alpha  occ. eigenvalues --   -0.79913  -0.79618  -0.78843  -0.77056  -0.75769
 Alpha  occ. eigenvalues --   -0.75086  -0.74999  -0.74769  -0.73811  -0.73261
 Alpha  occ. eigenvalues --   -0.72565  -0.72240  -0.71509  -0.70852  -0.70479
 Alpha  occ. eigenvalues --   -0.69986  -0.69900  -0.69254  -0.69092  -0.68374
 Alpha  occ. eigenvalues --   -0.67943  -0.67581  -0.66745  -0.65796  -0.65613
 Alpha  occ. eigenvalues --   -0.65019  -0.64956  -0.64571  -0.64210  -0.64101
 Alpha  occ. eigenvalues --   -0.63627  -0.62664  -0.62483  -0.62130  -0.61605
 Alpha  occ. eigenvalues --   -0.60991  -0.60898  -0.60463  -0.59904  -0.59477
 Alpha  occ. eigenvalues --   -0.59437  -0.59123  -0.58923  -0.58796  -0.58563
 Alpha  occ. eigenvalues --   -0.58032  -0.57790  -0.57214  -0.57000  -0.56646
 Alpha  occ. eigenvalues --   -0.56439  -0.55422  -0.55084  -0.54994  -0.54670
 Alpha  occ. eigenvalues --   -0.54397  -0.53559  -0.53486  -0.53164  -0.52918
 Alpha  occ. eigenvalues --   -0.52311  -0.51832  -0.51660  -0.51414  -0.51211
 Alpha  occ. eigenvalues --   -0.50890  -0.50738  -0.50460  -0.50379  -0.50203
 Alpha  occ. eigenvalues --   -0.50118  -0.49811  -0.49658  -0.49372  -0.48749
 Alpha  occ. eigenvalues --   -0.48583  -0.48169  -0.48057  -0.47873  -0.47795
 Alpha  occ. eigenvalues --   -0.47428  -0.47404  -0.47186  -0.46858  -0.46520
 Alpha  occ. eigenvalues --   -0.46015  -0.45903  -0.45648  -0.45232  -0.45202
 Alpha  occ. eigenvalues --   -0.45119  -0.44851  -0.44709  -0.44288  -0.43962
 Alpha  occ. eigenvalues --   -0.43590  -0.43370  -0.43279  -0.42115  -0.41907
 Alpha  occ. eigenvalues --   -0.41448  -0.41413  -0.40030  -0.39226  -0.39129
 Alpha  occ. eigenvalues --   -0.38501  -0.36939  -0.35170  -0.35030  -0.34182
 Alpha  occ. eigenvalues --   -0.33481  -0.32464  -0.32237  -0.32004  -0.26496
 Alpha  occ. eigenvalues --   -0.22047
 Alpha virt. eigenvalues --   -0.08538  -0.02105  -0.00692   0.01203   0.01620
 Alpha virt. eigenvalues --    0.02045   0.02268   0.03030   0.04857   0.04992
 Alpha virt. eigenvalues --    0.06396   0.07076   0.07836   0.08185   0.08279
 Alpha virt. eigenvalues --    0.08673   0.08903   0.09093   0.09558   0.09921
 Alpha virt. eigenvalues --    0.10033   0.10183   0.10559   0.10614   0.10718
 Alpha virt. eigenvalues --    0.11067   0.11460   0.11516   0.11801   0.12631
 Alpha virt. eigenvalues --    0.12685   0.12736   0.13266   0.13551   0.13632
 Alpha virt. eigenvalues --    0.13791   0.14042   0.14121   0.14508   0.14801
 Alpha virt. eigenvalues --    0.15383   0.15637   0.15648   0.15782   0.15867
 Alpha virt. eigenvalues --    0.15944   0.16255   0.16480   0.16901   0.17126
 Alpha virt. eigenvalues --    0.17207   0.17692   0.17841   0.17976   0.18099
 Alpha virt. eigenvalues --    0.18484   0.18725   0.19266   0.19303   0.19505
 Alpha virt. eigenvalues --    0.19659   0.19761   0.19911   0.20535   0.21259
 Alpha virt. eigenvalues --    0.21631   0.21725   0.22289   0.22898   0.23531
 Alpha virt. eigenvalues --    0.23992   0.24115   0.24239   0.24247   0.24299
 Alpha virt. eigenvalues --    0.24516   0.24524   0.24607   0.24680   0.24833
 Alpha virt. eigenvalues --    0.24876   0.24963   0.25019   0.25088   0.25157
 Alpha virt. eigenvalues --    0.25190   0.25241   0.25436   0.25443   0.25526
 Alpha virt. eigenvalues --    0.25644   0.25758   0.25762   0.25783   0.25812
 Alpha virt. eigenvalues --    0.25825   0.25848   0.25984   0.26111   0.26185
 Alpha virt. eigenvalues --    0.26196   0.26232   0.26325   0.26574   0.26585
 Alpha virt. eigenvalues --    0.26676   0.26901   0.27007   0.27110   0.27200
 Alpha virt. eigenvalues --    0.27254   0.27302   0.27306   0.27316   0.27880
 Alpha virt. eigenvalues --    0.28497   0.28657   0.28915   0.29600   0.30142
 Alpha virt. eigenvalues --    0.30178   0.30184   0.30509   0.30875   0.31142
 Alpha virt. eigenvalues --    0.31392   0.32471   0.32722   0.33830   0.34596
 Alpha virt. eigenvalues --    0.34698   0.34913   0.35112   0.35314   0.35618
 Alpha virt. eigenvalues --    0.35896   0.36413   0.36773   0.36781   0.38336
 Alpha virt. eigenvalues --    0.39551   0.40440   0.40751   0.41136   0.41337
 Alpha virt. eigenvalues --    0.41565   0.41853   0.42144   0.42722   0.42796
 Alpha virt. eigenvalues --    0.43835   0.44987   0.45485   0.45555   0.46966
 Alpha virt. eigenvalues --    0.48171   0.48260   0.48411   0.50757   0.53296
 Alpha virt. eigenvalues --    0.55572   0.56620
          Condensed to atoms (all electrons):
 Mulliken charges:
               1
     1  Mg   0.423887
     2  C   -0.073861
     3  C   -0.056426
     4  C   -0.042912
     5  C   -0.073456
     6  N   -0.282313
     7  C    0.170341
     8  C    0.007105
     9  C   -0.010137
    10  C    0.097340
    11  C   -0.064217
    12  C   -0.014355
    13  C    0.003109
    14  C    0.470620
    15  O   -0.507275
    16  O   -0.278911
    17  N   -0.319988
    18  C    0.088477
    19  C   -0.008178
    20  C   -0.049430
    21  C    0.110849
    22  C   -0.044334
    23  C    0.330123
    24  O   -0.538662
    25  C   -0.033301
    26  N   -0.261370
    27  C    0.104079
    28  C   -0.000255
    29  C   -0.013404
    30  C    0.139014
    31  C   -0.057378
    32  C   -0.030003
    33  C   -0.055975
    34  N   -0.327107
    35  C    0.117807
    36  C    0.056304
    37  C   -0.048372
    38  C    0.155524
    39  C   -0.046043
    40  C    0.330863
    41  O   -0.527743
    42  C    0.058432
    43  C    0.495588
    44  O   -0.534274
    45  O   -0.262329
    46  C    0.071709
    47  C    0.113238
    48  C   -0.099329
    49  C   -0.003474
    50  C   -0.041371
    51  C   -0.014411
    52  C   -0.018472
    53  C   -0.032946
    54  C   -0.003929
    55  C   -0.060492
    56  C   -0.039099
    57  C   -0.036454
    58  C   -0.039085
    59  C   -0.026599
    60  C   -0.054637
    61  C   -0.038334
    62  C   -0.035841
    63  C   -0.035311
    64  C   -0.020353
    65  C   -0.073013
    66  C   -0.054117
    67  H    0.018351
    68  H    0.049876
    69  H    0.031744
    70  H    0.052527
    71  H    0.035145
    72  H    0.025464
    73  H    0.030773
    74  H    0.022486
    75  H    0.029650
    76  H    0.026417
    77  H    0.030894
    78  H    0.031001
    79  H    0.033500
    80  H    0.015356
    81  H    0.025980
    82  H    0.029478
    83  H    0.034241
    84  H    0.038332
    85  H    0.033076
    86  H    0.038122
    87  H    0.026813
    88  H    0.015858
    89  H    0.032825
    90  H    0.024567
    91  H    0.020808
    92  H    0.023039
    93  H    0.016818
    94  H    0.023548
    95  H    0.032541
    96  H    0.046987
    97  H    0.044484
    98  H    0.053301
    99  H    0.038612
   100  H    0.052258
   101  H    0.033510
   102  H    0.047056
   103  H    0.057956
   104  H    0.026601
   105  H    0.025941
   106  H    0.021658
   107  H    0.024935
   108  H    0.007275
   109  H    0.022467
   110  H    0.016584
   111  H    0.024993
   112  H    0.018854
   113  H    0.014534
   114  H    0.017123
   115  H    0.015159
   116  H    0.007500
   117  H    0.022409
   118  H    0.023190
   119  H    0.006629
   120  H    0.025459
   121  H    0.024147
   122  H    0.021267
   123  H    0.020069
   124  H    0.017256
   125  H    0.032094
   126  H    0.020698
   127  H    0.019370
   128  H    0.013701
   129  H    0.016452
   130  H    0.013484
   131  H    0.019661
   132  H    0.018699
   133  H    0.025432
   134  H    0.024343
   135  H    0.024946
   136  H    0.016876
   137  H    0.015262
   138  H    0.015470
   139  H    0.032608
   140  H    0.008326
 Sum of Mulliken charges =  -0.00000
 Mulliken charges with hydrogens summed into heavy atoms:
               1
     1  Mg   0.423887
     2  C   -0.073861
     3  C   -0.038075
     4  C    0.006964
     5  C   -0.041712
     6  N   -0.282313
     7  C    0.170341
     8  C    0.059632
     9  C    0.025008
    10  C    0.097340
    11  C    0.014505
    12  C    0.041712
    13  C    0.065004
    14  C    0.470620
    15  O   -0.507275
    16  O   -0.278911
    17  N   -0.319988
    18  C    0.088477
    19  C   -0.008178
    20  C   -0.049430
    21  C    0.110849
    22  C    0.030502
    23  C    0.330123
    24  O   -0.538662
    25  C    0.068750
    26  N   -0.261370
    27  C    0.104079
    28  C    0.032820
    29  C    0.024718
    30  C    0.139014
    31  C    0.018118
    32  C    0.015372
    33  C    0.007429
    34  N   -0.327107
    35  C    0.117807
    36  C    0.056304
    37  C   -0.048372
    38  C    0.155524
    39  C    0.077969
    40  C    0.330863
    41  O   -0.527743
    42  C    0.111733
    43  C    0.495588
    44  O   -0.534274
    45  O   -0.262329
    46  C    0.196089
    47  C    0.218251
    48  C   -0.072728
    49  C   -0.003474
    50  C    0.031163
    51  C    0.015331
    52  C    0.023105
    53  C    0.000442
    54  C    0.013194
    55  C   -0.015423
    56  C   -0.009280
    57  C    0.013151
    58  C    0.002251
    59  C   -0.009343
    60  C    0.017525
    61  C   -0.008181
    62  C   -0.002695
    63  C    0.008820
    64  C    0.003990
    65  C   -0.015930
    66  C    0.002287
 Charge=              0.0000 electrons
 Dipole moment (field-independent basis, Debye):
    X=             -4.0709    Y=              1.0940    Z=              3.6254  Tot=              5.5599
 N-N= 4.293656182498D+03 E-N= 0.000000000000D+00  KE=-9.261914714390D+03
 Leave Link  601 at Wed Apr 27 21:26:00 2022, MaxMem=  6710886400 cpu:               0.7 elap:               0.0
 (Enter /sw/apps/gaussian-16.0/g16/l9999.exe)
 1\1\GINC-BP1-COMPUTE175\SP\RZINDO CIS\STO-3G\C55H74Mg1N4O6\OF15641\27-
 Apr-2022\0\\#p ZINDO=(nstates=5)\\step_1301_chromophore_21 ZINDO\\0,1\
 Mg,0,15.957,53.276,24.993\C,0,17.459,51.96,27.799\C,0,13.345,54.344,26
 .895\C,0,14.426,54.213,22.143\C,0,18.345,51.45,23.111\N,0,15.433,53.01
 4,27.065\C,0,16.249,52.701,28.083\C,0,15.707,53.119,29.425\C,0,14.214,
 53.582,29.092\C,0,14.254,53.575,27.548\C,0,13.124,52.497,29.606\C,0,16
 .649,54.212,30.06\C,0,16.988,53.998,31.532\C,0,16.035,53.22,32.46\O,0,
 16.177,52.102,32.888\O,0,14.848,53.876,32.69\N,0,14.191,54.375,24.634\
 C,0,13.255,54.737,25.55\C,0,12.209,55.414,24.849\C,0,12.544,55.395,23.
 47\C,0,13.799,54.658,23.33\C,0,11.008,55.929,25.63\C,0,11.789,55.885,2
 2.247\O,0,12.165,55.774,21.067\C,0,10.452,56.467,22.428\N,0,16.288,52.
 82,22.908\C,0,15.481,53.302,21.925\C,0,16.121,53.039,20.551\C,0,17.467
 ,52.205,20.888\C,0,17.407,52.216,22.392\C,0,15.269,52.315,19.482\C,0,1
 8.779,52.839,20.227\C,0,19.301,52.188,18.932\N,0,17.484,51.975,25.332\
 C,0,18.431,51.395,24.514\C,0,19.401,50.671,25.172\C,0,19.086,50.955,26
 .501\C,0,17.857,51.651,26.529\C,0,20.514,49.829,24.575\C,0,19.586,50.7
 94,27.803\O,0,20.688,50.362,28.136\C,0,18.509,51.408,28.778\C,0,18.093
 ,50.428,29.724\O,0,17.14,49.625,29.546\O,0,18.91,50.59,30.849\C,0,18.4
 36,49.882,32.035\C,0,13.848,53.209,33.422\C,0,12.531,53.906,33.222\C,0
 ,11.299,53.433,33.344\C,0,10.944,52.091,33.866\C,0,10.227,54.44,33.314
 \C,0,9.677,54.864,34.641\C,0,9.709,56.408,34.797\C,0,8.363,57.082,35.0
 44\C,0,8.575,58.612,34.831\C,0,7.706,56.852,36.388\C,0,6.141,56.961,36
 .381\C,0,5.672,57.386,37.702\C,0,4.422,58.331,37.499\C,0,4.894,59.775,
 37.093\C,0,3.467,58.193,38.704\C,0,2.007,57.886,38.324\C,0,0.987,58.39
 8,39.325\C,0,-0.019,59.418,38.595\C,0,-0.688,60.595,39.534\C,0,-1.186,
 58.698,37.858\H,0,12.63,54.781,27.595\H,0,14.004,54.507,21.18\H,0,19.0
 78,50.927,22.494\H,0,15.59,52.217,30.026\H,0,13.936,54.555,29.497\H,0,
 12.625,52.682,30.557\H,0,13.532,51.492,29.717\H,0,12.422,52.566,28.775
 \H,0,16.243,55.223,30.056\H,0,17.615,54.239,29.554\H,0,17.21,54.992,31
 .921\H,0,17.99,53.571,31.566\H,0,10.277,55.131,25.763\H,0,10.537,56.73
 9,25.073\H,0,11.275,56.379,26.585\H,0,10.12,56.664,21.409\H,0,10.554,5
 7.427,22.935\H,0,9.662,55.899,22.92\H,0,16.455,54.016,20.201\H,0,17.26
 2,51.176,20.595\H,0,15.751,51.718,18.708\H,0,14.964,53.185,18.899\H,0,
 14.428,51.811,19.959\H,0,19.545,52.899,20.999\H,0,18.543,53.853,19.905
 \H,0,18.576,51.555,18.42\H,0,20.125,51.555,19.263\H,0,19.636,52.948,18
 .226\H,0,20.328,49.315,23.632\H,0,20.466,49.132,25.411\H,0,21.41,50.44
 2,24.48\H,0,18.984,52.196,29.363\H,0,18.689,48.833,31.88\H,0,17.368,49
 .876,32.252\H,0,18.912,50.299,32.922\H,0,14.138,53.386,34.458\H,0,13.7
 68,52.158,33.145\H,0,12.549,54.894,32.762\H,0,10.949,51.411,33.014\H,0
 ,9.944,51.978,34.286\H,0,11.681,51.723,34.579\H,0,9.457,53.903,32.759\
 H,0,10.568,55.217,32.63\H,0,10.301,54.428,35.422\H,0,8.706,54.399,34.8
 09\H,0,10.114,56.954,33.945\H,0,10.374,56.719,35.603\H,0,7.702,56.736,
 34.249\H,0,7.632,59.154,34.903\H,0,8.952,58.807,33.827\H,0,9.341,59.06
 8,35.457\H,0,8.14,57.474,37.17\H,0,7.818,55.83,36.751\H,0,5.698,55.978
 ,36.226\H,0,5.903,57.722,35.638\H,0,6.41,58.017,38.199\H,0,5.348,56.51
 7,38.274\H,0,3.918,57.801,36.69\H,0,5.969,59.88,37.245\H,0,4.293,60.48
 3,37.663\H,0,4.593,59.927,36.057\H,0,3.573,59.074,39.338\H,0,3.643,57.
 406,39.437\H,0,1.872,56.805,38.317\H,0,1.795,58.269,37.326\H,0,1.587,5
 8.943,40.054\H,0,0.507,57.542,39.8\H,0,0.606,60.031,37.945\H,0,-0.58,6
 1.589,39.101\H,0,-0.28,60.52,40.542\H,0,-1.753,60.447,39.713\H,0,-1.50
 2,59.328,37.027\H,0,-2.008,58.36,38.489\H,0,-0.808,57.857,37.278\\Vers
 ion=ES64L-G16RevA.03\State=1-A\HF=-474.5962846\RMSD=6.454e-09\PG=C01 [
 X(C55H74Mg1N4O6)]\\@


                                                                                    A
                                                                                  AA
                                                                                 AAA
                                                                                AAAA
                                                                               AAAAA
                                                                              AAAAAA   KKKKKKKK
                                                                             AAAAAAA   KKKKKKKK
                                                                            AAAAAAAA   KKKKKKKK
                                       ZZZZZZZZZZZZZZZZZZZZ                AAAA  AAA   KKKKKKKK
                                       ZZZZZZZZZZZZZZZZZZZ                AAAA   AAA   KKKKKKKK          K
                                       ZZZZZZZZZZZZZZZZZZ                AAAA    AAA   KKKKKKKK         KKK
                                       ZZZZZZZZZZZZZZZZZ                AAAA     AAA   KKKKKKKK        KKKKK
                                       ZZZZZZZZZZZZZZZZ                AAAA      AAA   KKKKKKKK       KKKKKKK
                                                ZZZZZZ                AAAA       AAA   KKKKKKKK      KKKKKKK
                                               ZZZZZZ                AAAA        AAA   KKKKKKKK     KKKKKKK
                                              ZZZZZZ                AAAA         AAA   KKKKKKKK    KKKKKKK
                                             ZZZZZZ                AAAA          AAA   KKKKKKKK   KKKKKKK
                                            ZZZZZZ                AAAAAAAAAAAAAAAAAA   KKKKKKKK  KKKKKKK
                                           ZZZZZZ                AAAAAAAAAAAAAAAAAAA   KKKKKKKK KKKKKKK
                                          ZZZZZZ                AAAAAAAAAAAAAAAAAAAA   KKKKKKKKKKKKKKK
                                         ZZZZZZ                AAAAAAAAAAAAAAAAAAAAA   KKKKKKKKKKKKKK
                                        ZZZZZZ                AAAAAA        AAAAAAAA   KKKKKKKKKKKKK
                                       ZZZZZZ                AAAAAA         AAAAAAAA   KKKKKKKKKKKK
                                      ZZZZZZ                AAAAAA          AAAAAAAA   KKKKKKKKKKK
                                     ZZZZZZ                AAAAAA           AAAAAAAA   KKKKKKKKKKKK
                                    ZZZZZZ                AAAAAA            AAAAAAAA   KKKKKKKKKKKKK
                                   ZZZZZZ                AAAAAA             AAAAAAAA   KKKKKKKKKKKKKK
                                  ZZZZZZ                AAAAAA              AAAAAAAA   KKKKKKKKKKKKKKK
                                 ZZZZZZ                AAAAAA               AAAAAAAA   KKKKK KKKKKKKKKK
                                ZZZZZZ                AAAAAA                AAAAAAAA   KKKKK  KKKKKKKKKK
                               ZZZZZZ                AAAAAA                            KKKKK   KKKKKKKKKK
                              ZZZZZZ                AAAAAA                             KKKKK    KKKKKKKKKK
                             ZZZZZZ                                                    KKKKK     KKKKKKKKKK
                            ZZZZZZ                                                     KKKKK      KKKKKKKKKK
                           ZZZZZZ                                                      KKKKK       KKKKKKKKKK
                          ZZZZZZ                                                       KKKKK        KKKKKKKKKK
                         ZZZZZZZZZZZZZZZZZZZZZZZZZZZZZZZZZZZZZZZZ                      KKKKK         KKKKKKKKKK
                        ZZZZZZZZZZZZZZZZZZZZZZZZZZZZZZZZZZZZZZZZZ                      KKKKK          KKKKKKKKKK
                       ZZZZZZZZZZZZZZZZZZZZZZZZZZZZZZZZZZZZZZZZZZ                      KKKKK           KKKKKKKKKK
                       ZZZZZZZZZZZZZZZZZZZZZZZZZZZZZZZZZZZZZZZZZZ                      KKKKK            KKKKKKKKKK
                       ZZZZZZZZZZZZZZZZZZZZZZZZZZZZZZZZZZZZZZZZZZ                      KKKKK             KKKKKKKKKK
                       ZZZZZZZZZZZZZZZZZZZZZZZZZZZZZZZZZZZZZZZZZZ                      KKKKK              KKKKKKKKKK
                       ZZZZZZZZZZZZZZZZZZZZZZZZZZZZZZZZZZZZZZZZZZ                      KKKKK               KKKKKKKKKK
                       ZZZZZZZZZZZZZZZZZZZZZZZZZZZZZZZZZZZZZZZZZZ                      KKKKK                KKKKKKKKKK
                       ZZZZZZZZZZZZZZZZZZZZZZZZZZZZZZZZZZZZZZZZZZ                      KKKKK
                                                                                       KKKKK
                                                                                          (J.P.)
 Job cpu time:       0 days  0 hours  2 minutes 29.9 seconds.
 Elapsed time:       0 days  0 hours  0 minutes  6.6 seconds.
 File lengths (MBytes):  RWF=   1263 Int=      0 D2E=      0 Chk=     38 Scr=      1
 Normal termination of Gaussian 16 at Wed Apr 27 21:26:00 2022.
