 Entering Gaussian System, Link 0=g16
 Initial command:
 /sw/apps/gaussian-16.0/g16/l1.exe "/tmp/Gau-247639.inp" -scrdir="/tmp/"
 Entering Link 1 = /sw/apps/gaussian-16.0/g16/l1.exe PID=    247640.
  
 Copyright (c) 1988,1990,1992,1993,1995,1998,2003,2009,2016,
            Gaussian, Inc.  All Rights Reserved.
  
 This is part of the Gaussian(R) 16 program.  It is based on
 the Gaussian(R) 09 system (copyright 2009, Gaussian, Inc.),
 the Gaussian(R) 03 system (copyright 2003, Gaussian, Inc.),
 the Gaussian(R) 98 system (copyright 1998, Gaussian, Inc.),
 the Gaussian(R) 94 system (copyright 1995, Gaussian, Inc.),
 the Gaussian 92(TM) system (copyright 1992, Gaussian, Inc.),
 the Gaussian 90(TM) system (copyright 1990, Gaussian, Inc.),
 the Gaussian 88(TM) system (copyright 1988, Gaussian, Inc.),
 the Gaussian 86(TM) system (copyright 1986, Carnegie Mellon
 University), and the Gaussian 82(TM) system (copyright 1983,
 Carnegie Mellon University). Gaussian is a federally registered
 trademark of Gaussian, Inc.
  
 This software contains proprietary and confidential information,
 including trade secrets, belonging to Gaussian, Inc.
  
 This software is provided under written license and may be
 used, copied, transmitted, or stored only in accord with that
 written license.
  
 The following legend is applicable only to US Government
 contracts under FAR:
  
                    RESTRICTED RIGHTS LEGEND
  
 Use, reproduction and disclosure by the US Government is
 subject to restrictions as set forth in subparagraphs (a)
 and (c) of the Commercial Computer Software - Restricted
 Rights clause in FAR 52.227-19.
  
 Gaussian, Inc.
 340 Quinnipiac St., Bldg. 40, Wallingford CT 06492
  
  
 ---------------------------------------------------------------
 Warning -- This program may not be used in any manner that
 competes with the business of Gaussian, Inc. or will provide
 assistance to any competitor of Gaussian, Inc.  The licensee
 of this program is prohibited from giving any competitor of
 Gaussian, Inc. access to this program.  By using this program,
 the user acknowledges that Gaussian, Inc. is engaged in the
 business of creating and licensing software in the field of
 computational chemistry and represents and warrants to the
 licensee that it is not a competitor of Gaussian, Inc. and that
 it will not use this program in any manner prohibited above.
 ---------------------------------------------------------------
  

 Cite this work as:
 Gaussian 16, Revision A.03,
 M. J. Frisch, G. W. Trucks, H. B. Schlegel, G. E. Scuseria, 
 M. A. Robb, J. R. Cheeseman, G. Scalmani, V. Barone, 
 G. A. Petersson, H. Nakatsuji, X. Li, M. Caricato, A. V. Marenich, 
 J. Bloino, B. G. Janesko, R. Gomperts, B. Mennucci, H. P. Hratchian, 
 J. V. Ortiz, A. F. Izmaylov, J. L. Sonnenberg, D. Williams-Young, 
 F. Ding, F. Lipparini, F. Egidi, J. Goings, B. Peng, A. Petrone, 
 T. Henderson, D. Ranasinghe, V. G. Zakrzewski, J. Gao, N. Rega, 
 G. Zheng, W. Liang, M. Hada, M. Ehara, K. Toyota, R. Fukuda, 
 J. Hasegawa, M. Ishida, T. Nakajima, Y. Honda, O. Kitao, H. Nakai, 
 T. Vreven, K. Throssell, J. A. Montgomery, Jr., J. E. Peralta, 
 F. Ogliaro, M. J. Bearpark, J. J. Heyd, E. N. Brothers, K. N. Kudin, 
 V. N. Staroverov, T. A. Keith, R. Kobayashi, J. Normand, 
 K. Raghavachari, A. P. Rendell, J. C. Burant, S. S. Iyengar, 
 J. Tomasi, M. Cossi, J. M. Millam, M. Klene, C. Adamo, R. Cammi, 
 J. W. Ochterski, R. L. Martin, K. Morokuma, O. Farkas, 
 J. B. Foresman, and D. J. Fox, Gaussian, Inc., Wallingford CT, 2016.
 
 ******************************************
 Gaussian 16:  ES64L-G16RevA.03 25-Dec-2016
                27-Apr-2022 
 ******************************************
 %nproc=24
 Will use up to   24 processors via shared memory.
 %mem=50gb
 --------------------
 #p ZINDO=(nstates=5)
 --------------------
 1/38=1,172=1/1;
 2/12=2,17=6,18=5,40=1/2;
 3/5=2,25=1,41=400000/1,2,3,8;
 4/5=3,35=1/1;
 5/5=2,35=1,38=5/2;
 8/6=1,108=5/1;
 9/41=5,42=1,49=10/14;
 6/7=2,8=2,9=2,10=2/1;
 99/5=1,9=1/99;
 Leave Link    1 at Wed Apr 27 06:49:26 2022, MaxMem=  6710886400 cpu:               0.6 elap:               0.0
 (Enter /sw/apps/gaussian-16.0/g16/l101.exe)
 ------------------------------
 step_1101_chromophore_17 ZINDO
 ------------------------------
 Symbolic Z-matrix:
 Charge =  0 Multiplicity = 1
 Mg                    28.869    59.549    41.4 
 C                     25.737    58.261    40.461 
 C                     30.394    56.839    40.01 
 C                     31.792    61.252    41.563 
 C                     27.127    62.613    42.211 
 N                     28.165    57.815    40.325 
 C                     26.882    57.408    40.149 
 C                     26.786    56.22     39.23 
 C                     28.173    55.582    39.416 
 C                     28.994    56.759    39.913 
 C                     28.234    54.366    40.43 
 C                     26.409    56.51     37.862 
 C                     25.976    55.217    37.116 
 C                     25.202    55.57     35.906 
 O                     24.09     56.109    35.924 
 O                     25.936    55.151    34.773 
 N                     30.857    59.108    40.871 
 C                     31.266    57.944    40.365 
 C                     32.695    57.968    40.262 
 C                     33.144    59.161    40.811 
 C                     31.941    59.917    41.052 
 C                     33.581    56.83     39.754 
 C                     34.572    59.477    41.044 
 O                     35.429    58.616    40.865 
 C                     35.14     60.817    41.498 
 N                     29.326    61.551    41.737 
 C                     30.665    61.942    41.853 
 C                     30.784    63.421    42.189 
 C                     29.352    63.911    42.306 
 C                     28.54     62.687    42.033 
 C                     31.69     63.885    43.422 
 C                     28.848    65.203    41.514 
 C                     27.941    66.114    42.269 
 N                     26.816    60.289    41.531 
 C                     26.321    61.49     41.811 
 C                     24.868    61.513    41.633 
 C                     24.596    60.235    41.099 
 C                     25.8      59.56     41.075 
 C                     23.977    62.619    42.018 
 C                     23.534    59.366    40.68 
 O                     22.342    59.523    40.573 
 C                     24.239    57.982    40.268 
 C                     23.707    56.97     41.205 
 O                     23.493    57.164    42.434 
 O                     23.466    55.795    40.611 
 C                     23.482    54.651    41.588 
 C                     25.474    55.602    33.501 
 C                     26.517    55.275    32.398 
 C                     26.662    55.693    31.117 
 C                     25.513    56.422    30.344 
 C                     27.759    55.059    30.215 
 C                     29.128    54.624    30.83 
 C                     30.158    55.817    30.987 
 C                     31.341    55.912    29.87 
 C                     31.315    57.266    29.066 
 C                     32.719    55.529    30.473 
 C                     33.945    55.9      29.648 
 C                     35.207    55.139    30.073 
 C                     35.905    54.386    28.962 
 C                     37.14     53.648    29.451 
 C                     36.289    55.251    27.726 
 C                     35.472    54.854    26.411 
 C                     36.4      54.12     25.384 
 C                     36.775    54.914    24.065 
 C                     36.707    53.996    22.862 
 C                     38.158    55.626    24.304 
 H                     30.933    55.955    39.662 
 H                     32.685    61.837    41.79 
 H                     26.674    63.592    42.385 
 H                     25.945    55.687    39.674 
 H                     28.631    55.399    38.443 
 H                     27.225    53.954    40.463 
 H                     28.806    54.698    41.296 
 H                     28.872    53.655    39.905 
 H                     27.282    56.945    37.375 
 H                     25.652    57.275    37.688 
 H                     25.576    54.46     37.789 
 H                     26.97     54.796    36.966 
 H                     33.915    56.379    40.688 
 H                     34.366    57.17     39.077 
 H                     32.975    56.202    39.101 
 H                     34.615    61.635    41.005 
 H                     36.174    60.976    41.192 
 H                     34.977    60.878    42.574 
 H                     31.218    63.934    41.331 
 H                     29.277    64.019    43.388 
 H                     32.581    63.268    43.544 
 H                     31.109    64.016    44.334 
 H                     32.117    64.855    43.167 
 H                     28.396    64.89     40.574 
 H                     29.767    65.776    41.387 
 H                     27.326    66.736    41.619 
 H                     28.601    66.775    42.83 
 H                     27.306    65.625    43.008 
 H                     23.794    63.233    41.136 
 H                     24.471    63.218    42.783 
 H                     22.973    62.304    42.305 
 H                     24.022    57.754    39.225 
 H                     22.599    54.802    42.209 
 H                     24.423    54.564    42.132 
 H                     23.359    53.726    41.025 
 H                     25.21     56.659    33.536 
 H                     24.474    55.205    33.327 
 H                     27.233    54.549    32.782 
 H                     24.62     56.342    30.964 
 H                     25.289    56.011    29.36 
 H                     25.823    57.465    30.402 
 H                     27.929    55.955    29.619 
 H                     27.348    54.208    29.671 
 H                     29.476    53.815    30.189 
 H                     29.096    54.129    31.801 
 H                     30.609    55.799    31.98 
 H                     29.663    56.781    30.868 
 H                     30.993    55.126    29.2 
 H                     31.511    57.115    28.004 
 H                     32.146    57.864    29.438 
 H                     30.403    57.827    29.274 
 H                     32.742    54.48     30.769 
 H                     32.719    56.21     31.324 
 H                     34.065    56.955    29.896 
 H                     33.77     55.844    28.574 
 H                     35.003    54.521    30.947 
 H                     35.976    55.862    30.346 
 H                     35.28     53.537    28.684 
 H                     37.157    52.76     28.82 
 H                     36.958    53.261    30.454 
 H                     38.107    54.14     29.552 
 H                     37.349    55.141    27.497 
 H                     36.209    56.314    27.95 
 H                     34.993    55.739    25.991 
 H                     34.775    54.044    26.63 
 H                     35.8      53.261    25.084 
 H                     37.206    53.745    26.015 
 H                     36.022    55.696    23.97 
 H                     37.431    53.182    22.907 
 H                     37.074    54.618    22.046 
 H                     35.72     53.56     22.711 
 H                     38.063    56.7      24.147 
 H                     38.957    55.134    23.75 
 H                     38.583    55.569    25.306 
 
 ITRead=  0  0  0  0  0  0  0  0  0  0  0  0  0  0  0  0  0  0  0  0
 ITRead=  0  0  0  0  0  0  0  0  0  0  0  0  0  0  0  0  0  0  0  0
 ITRead=  0  0  0  0  0  0  0  0  0  0  0  0  0  0  0  0  0  0  0  0
 ITRead=  0  0  0  0  0  0  0  0  0  0  0  0  0  0  0  0  0  0  0  0
 ITRead=  0  0  0  0  0  0  0  0  0  0  0  0  0  0  0  0  0  0  0  0
 ITRead=  0  0  0  0  0  0  0  0  0  0  0  0  0  0  0  0  0  0  0  0
 ITRead=  0  0  0  0  0  0  0  0  0  0  0  0  0  0  0  0  0  0  0  0
 MicOpt= -1 -1 -1 -1 -1 -1 -1 -1 -1 -1 -1 -1 -1 -1 -1 -1 -1 -1 -1 -1
 MicOpt= -1 -1 -1 -1 -1 -1 -1 -1 -1 -1 -1 -1 -1 -1 -1 -1 -1 -1 -1 -1
 MicOpt= -1 -1 -1 -1 -1 -1 -1 -1 -1 -1 -1 -1 -1 -1 -1 -1 -1 -1 -1 -1
 MicOpt= -1 -1 -1 -1 -1 -1 -1 -1 -1 -1 -1 -1 -1 -1 -1 -1 -1 -1 -1 -1
 MicOpt= -1 -1 -1 -1 -1 -1 -1 -1 -1 -1 -1 -1 -1 -1 -1 -1 -1 -1 -1 -1
 MicOpt= -1 -1 -1 -1 -1 -1 -1 -1 -1 -1 -1 -1 -1 -1 -1 -1 -1 -1 -1 -1
 MicOpt= -1 -1 -1 -1 -1 -1 -1 -1 -1 -1 -1 -1 -1 -1 -1 -1 -1 -1 -1 -1
 NAtoms=    140 NQM=      140 NQMF=       0 NMMI=      0 NMMIF=      0
                NMic=       0 NMicF=      0.
                    Isotopes and Nuclear Properties:
 (Nuclear quadrupole moments (NQMom) in fm**2, nuclear magnetic moments (NMagM)
  in nuclear magnetons)

  Atom         1           2           3           4           5           6           7           8           9          10
 IAtWgt=          24          12          12          12          12          14          12          12          12          12
 AtmWgt=  23.9850450  12.0000000  12.0000000  12.0000000  12.0000000  14.0030740  12.0000000  12.0000000  12.0000000  12.0000000
 NucSpn=           0           0           0           0           0           2           0           0           0           0
 AtZEff=  -0.0000000  -0.0000000  -0.0000000  -0.0000000  -0.0000000  -0.0000000  -0.0000000  -0.0000000  -0.0000000  -0.0000000
 NQMom=    0.0000000   0.0000000   0.0000000   0.0000000   0.0000000   2.0440000   0.0000000   0.0000000   0.0000000   0.0000000
 NMagM=    0.0000000   0.0000000   0.0000000   0.0000000   0.0000000   0.4037610   0.0000000   0.0000000   0.0000000   0.0000000
 AtZNuc=  12.0000000   6.0000000   6.0000000   6.0000000   6.0000000   7.0000000   6.0000000   6.0000000   6.0000000   6.0000000

  Atom        11          12          13          14          15          16          17          18          19          20
 IAtWgt=          12          12          12          12          16          16          14          12          12          12
 AtmWgt=  12.0000000  12.0000000  12.0000000  12.0000000  15.9949146  15.9949146  14.0030740  12.0000000  12.0000000  12.0000000
 NucSpn=           0           0           0           0           0           0           2           0           0           0
 AtZEff=  -0.0000000  -0.0000000  -0.0000000  -0.0000000  -0.0000000  -0.0000000  -0.0000000  -0.0000000  -0.0000000  -0.0000000
 NQMom=    0.0000000   0.0000000   0.0000000   0.0000000   0.0000000   0.0000000   2.0440000   0.0000000   0.0000000   0.0000000
 NMagM=    0.0000000   0.0000000   0.0000000   0.0000000   0.0000000   0.0000000   0.4037610   0.0000000   0.0000000   0.0000000
 AtZNuc=   6.0000000   6.0000000   6.0000000   6.0000000   8.0000000   8.0000000   7.0000000   6.0000000   6.0000000   6.0000000

  Atom        21          22          23          24          25          26          27          28          29          30
 IAtWgt=          12          12          12          16          12          14          12          12          12          12
 AtmWgt=  12.0000000  12.0000000  12.0000000  15.9949146  12.0000000  14.0030740  12.0000000  12.0000000  12.0000000  12.0000000
 NucSpn=           0           0           0           0           0           2           0           0           0           0
 AtZEff=  -0.0000000  -0.0000000  -0.0000000  -0.0000000  -0.0000000  -0.0000000  -0.0000000  -0.0000000  -0.0000000  -0.0000000
 NQMom=    0.0000000   0.0000000   0.0000000   0.0000000   0.0000000   2.0440000   0.0000000   0.0000000   0.0000000   0.0000000
 NMagM=    0.0000000   0.0000000   0.0000000   0.0000000   0.0000000   0.4037610   0.0000000   0.0000000   0.0000000   0.0000000
 AtZNuc=   6.0000000   6.0000000   6.0000000   8.0000000   6.0000000   7.0000000   6.0000000   6.0000000   6.0000000   6.0000000

  Atom        31          32          33          34          35          36          37          38          39          40
 IAtWgt=          12          12          12          14          12          12          12          12          12          12
 AtmWgt=  12.0000000  12.0000000  12.0000000  14.0030740  12.0000000  12.0000000  12.0000000  12.0000000  12.0000000  12.0000000
 NucSpn=           0           0           0           2           0           0           0           0           0           0
 AtZEff=  -0.0000000  -0.0000000  -0.0000000  -0.0000000  -0.0000000  -0.0000000  -0.0000000  -0.0000000  -0.0000000  -0.0000000
 NQMom=    0.0000000   0.0000000   0.0000000   2.0440000   0.0000000   0.0000000   0.0000000   0.0000000   0.0000000   0.0000000
 NMagM=    0.0000000   0.0000000   0.0000000   0.4037610   0.0000000   0.0000000   0.0000000   0.0000000   0.0000000   0.0000000
 AtZNuc=   6.0000000   6.0000000   6.0000000   7.0000000   6.0000000   6.0000000   6.0000000   6.0000000   6.0000000   6.0000000

  Atom        41          42          43          44          45          46          47          48          49          50
 IAtWgt=          16          12          12          16          16          12          12          12          12          12
 AtmWgt=  15.9949146  12.0000000  12.0000000  15.9949146  15.9949146  12.0000000  12.0000000  12.0000000  12.0000000  12.0000000
 NucSpn=           0           0           0           0           0           0           0           0           0           0
 AtZEff=  -0.0000000  -0.0000000  -0.0000000  -0.0000000  -0.0000000  -0.0000000  -0.0000000  -0.0000000  -0.0000000  -0.0000000
 NQMom=    0.0000000   0.0000000   0.0000000   0.0000000   0.0000000   0.0000000   0.0000000   0.0000000   0.0000000   0.0000000
 NMagM=    0.0000000   0.0000000   0.0000000   0.0000000   0.0000000   0.0000000   0.0000000   0.0000000   0.0000000   0.0000000
 AtZNuc=   8.0000000   6.0000000   6.0000000   8.0000000   8.0000000   6.0000000   6.0000000   6.0000000   6.0000000   6.0000000

  Atom        51          52          53          54          55          56          57          58          59          60
 IAtWgt=          12          12          12          12          12          12          12          12          12          12
 AtmWgt=  12.0000000  12.0000000  12.0000000  12.0000000  12.0000000  12.0000000  12.0000000  12.0000000  12.0000000  12.0000000
 NucSpn=           0           0           0           0           0           0           0           0           0           0
 AtZEff=  -0.0000000  -0.0000000  -0.0000000  -0.0000000  -0.0000000  -0.0000000  -0.0000000  -0.0000000  -0.0000000  -0.0000000
 NQMom=    0.0000000   0.0000000   0.0000000   0.0000000   0.0000000   0.0000000   0.0000000   0.0000000   0.0000000   0.0000000
 NMagM=    0.0000000   0.0000000   0.0000000   0.0000000   0.0000000   0.0000000   0.0000000   0.0000000   0.0000000   0.0000000
 AtZNuc=   6.0000000   6.0000000   6.0000000   6.0000000   6.0000000   6.0000000   6.0000000   6.0000000   6.0000000   6.0000000

  Atom        61          62          63          64          65          66          67          68          69          70
 IAtWgt=          12          12          12          12          12          12           1           1           1           1
 AtmWgt=  12.0000000  12.0000000  12.0000000  12.0000000  12.0000000  12.0000000   1.0078250   1.0078250   1.0078250   1.0078250
 NucSpn=           0           0           0           0           0           0           1           1           1           1
 AtZEff=  -0.0000000  -0.0000000  -0.0000000  -0.0000000  -0.0000000  -0.0000000  -0.0000000  -0.0000000  -0.0000000  -0.0000000
 NQMom=    0.0000000   0.0000000   0.0000000   0.0000000   0.0000000   0.0000000   0.0000000   0.0000000   0.0000000   0.0000000
 NMagM=    0.0000000   0.0000000   0.0000000   0.0000000   0.0000000   0.0000000   2.7928460   2.7928460   2.7928460   2.7928460
 AtZNuc=   6.0000000   6.0000000   6.0000000   6.0000000   6.0000000   6.0000000   1.0000000   1.0000000   1.0000000   1.0000000

  Atom        71          72          73          74          75          76          77          78          79          80
 IAtWgt=           1           1           1           1           1           1           1           1           1           1
 AtmWgt=   1.0078250   1.0078250   1.0078250   1.0078250   1.0078250   1.0078250   1.0078250   1.0078250   1.0078250   1.0078250
 NucSpn=           1           1           1           1           1           1           1           1           1           1
 AtZEff=  -0.0000000  -0.0000000  -0.0000000  -0.0000000  -0.0000000  -0.0000000  -0.0000000  -0.0000000  -0.0000000  -0.0000000
 NQMom=    0.0000000   0.0000000   0.0000000   0.0000000   0.0000000   0.0000000   0.0000000   0.0000000   0.0000000   0.0000000
 NMagM=    2.7928460   2.7928460   2.7928460   2.7928460   2.7928460   2.7928460   2.7928460   2.7928460   2.7928460   2.7928460
 AtZNuc=   1.0000000   1.0000000   1.0000000   1.0000000   1.0000000   1.0000000   1.0000000   1.0000000   1.0000000   1.0000000

  Atom        81          82          83          84          85          86          87          88          89          90
 IAtWgt=           1           1           1           1           1           1           1           1           1           1
 AtmWgt=   1.0078250   1.0078250   1.0078250   1.0078250   1.0078250   1.0078250   1.0078250   1.0078250   1.0078250   1.0078250
 NucSpn=           1           1           1           1           1           1           1           1           1           1
 AtZEff=  -0.0000000  -0.0000000  -0.0000000  -0.0000000  -0.0000000  -0.0000000  -0.0000000  -0.0000000  -0.0000000  -0.0000000
 NQMom=    0.0000000   0.0000000   0.0000000   0.0000000   0.0000000   0.0000000   0.0000000   0.0000000   0.0000000   0.0000000
 NMagM=    2.7928460   2.7928460   2.7928460   2.7928460   2.7928460   2.7928460   2.7928460   2.7928460   2.7928460   2.7928460
 AtZNuc=   1.0000000   1.0000000   1.0000000   1.0000000   1.0000000   1.0000000   1.0000000   1.0000000   1.0000000   1.0000000

  Atom        91          92          93          94          95          96          97          98          99         100
 IAtWgt=           1           1           1           1           1           1           1           1           1           1
 AtmWgt=   1.0078250   1.0078250   1.0078250   1.0078250   1.0078250   1.0078250   1.0078250   1.0078250   1.0078250   1.0078250
 NucSpn=           1           1           1           1           1           1           1           1           1           1
 AtZEff=  -0.0000000  -0.0000000  -0.0000000  -0.0000000  -0.0000000  -0.0000000  -0.0000000  -0.0000000  -0.0000000  -0.0000000
 NQMom=    0.0000000   0.0000000   0.0000000   0.0000000   0.0000000   0.0000000   0.0000000   0.0000000   0.0000000   0.0000000
 NMagM=    2.7928460   2.7928460   2.7928460   2.7928460   2.7928460   2.7928460   2.7928460   2.7928460   2.7928460   2.7928460
 AtZNuc=   1.0000000   1.0000000   1.0000000   1.0000000   1.0000000   1.0000000   1.0000000   1.0000000   1.0000000   1.0000000

  Atom       101         102         103         104         105         106         107         108         109         110
 IAtWgt=           1           1           1           1           1           1           1           1           1           1
 AtmWgt=   1.0078250   1.0078250   1.0078250   1.0078250   1.0078250   1.0078250   1.0078250   1.0078250   1.0078250   1.0078250
 NucSpn=           1           1           1           1           1           1           1           1           1           1
 AtZEff=  -0.0000000  -0.0000000  -0.0000000  -0.0000000  -0.0000000  -0.0000000  -0.0000000  -0.0000000  -0.0000000  -0.0000000
 NQMom=    0.0000000   0.0000000   0.0000000   0.0000000   0.0000000   0.0000000   0.0000000   0.0000000   0.0000000   0.0000000
 NMagM=    2.7928460   2.7928460   2.7928460   2.7928460   2.7928460   2.7928460   2.7928460   2.7928460   2.7928460   2.7928460
 AtZNuc=   1.0000000   1.0000000   1.0000000   1.0000000   1.0000000   1.0000000   1.0000000   1.0000000   1.0000000   1.0000000

  Atom       111         112         113         114         115         116         117         118         119         120
 IAtWgt=           1           1           1           1           1           1           1           1           1           1
 AtmWgt=   1.0078250   1.0078250   1.0078250   1.0078250   1.0078250   1.0078250   1.0078250   1.0078250   1.0078250   1.0078250
 NucSpn=           1           1           1           1           1           1           1           1           1           1
 AtZEff=  -0.0000000  -0.0000000  -0.0000000  -0.0000000  -0.0000000  -0.0000000  -0.0000000  -0.0000000  -0.0000000  -0.0000000
 NQMom=    0.0000000   0.0000000   0.0000000   0.0000000   0.0000000   0.0000000   0.0000000   0.0000000   0.0000000   0.0000000
 NMagM=    2.7928460   2.7928460   2.7928460   2.7928460   2.7928460   2.7928460   2.7928460   2.7928460   2.7928460   2.7928460
 AtZNuc=   1.0000000   1.0000000   1.0000000   1.0000000   1.0000000   1.0000000   1.0000000   1.0000000   1.0000000   1.0000000

  Atom       121         122         123         124         125         126         127         128         129         130
 IAtWgt=           1           1           1           1           1           1           1           1           1           1
 AtmWgt=   1.0078250   1.0078250   1.0078250   1.0078250   1.0078250   1.0078250   1.0078250   1.0078250   1.0078250   1.0078250
 NucSpn=           1           1           1           1           1           1           1           1           1           1
 AtZEff=  -0.0000000  -0.0000000  -0.0000000  -0.0000000  -0.0000000  -0.0000000  -0.0000000  -0.0000000  -0.0000000  -0.0000000
 NQMom=    0.0000000   0.0000000   0.0000000   0.0000000   0.0000000   0.0000000   0.0000000   0.0000000   0.0000000   0.0000000
 NMagM=    2.7928460   2.7928460   2.7928460   2.7928460   2.7928460   2.7928460   2.7928460   2.7928460   2.7928460   2.7928460
 AtZNuc=   1.0000000   1.0000000   1.0000000   1.0000000   1.0000000   1.0000000   1.0000000   1.0000000   1.0000000   1.0000000

  Atom       131         132         133         134         135         136         137         138         139         140
 IAtWgt=           1           1           1           1           1           1           1           1           1           1
 AtmWgt=   1.0078250   1.0078250   1.0078250   1.0078250   1.0078250   1.0078250   1.0078250   1.0078250   1.0078250   1.0078250
 NucSpn=           1           1           1           1           1           1           1           1           1           1
 AtZEff=  -0.0000000  -0.0000000  -0.0000000  -0.0000000  -0.0000000  -0.0000000  -0.0000000  -0.0000000  -0.0000000  -0.0000000
 NQMom=    0.0000000   0.0000000   0.0000000   0.0000000   0.0000000   0.0000000   0.0000000   0.0000000   0.0000000   0.0000000
 NMagM=    2.7928460   2.7928460   2.7928460   2.7928460   2.7928460   2.7928460   2.7928460   2.7928460   2.7928460   2.7928460
 AtZNuc=   1.0000000   1.0000000   1.0000000   1.0000000   1.0000000   1.0000000   1.0000000   1.0000000   1.0000000   1.0000000
 Leave Link  101 at Wed Apr 27 06:49:26 2022, MaxMem=  6710886400 cpu:               3.1 elap:               0.1
 (Enter /sw/apps/gaussian-16.0/g16/l202.exe)
 Stoichiometry    C55H74MgN4O6
 Framework group  C1[X(C55H74MgN4O6)]
 Deg. of freedom   414
 Full point group                 C1      NOp   1
 Largest Abelian subgroup         C1      NOp   1
 Largest concise Abelian subgroup C1      NOp   1
                         Standard orientation:                         
 ---------------------------------------------------------------------
 Center     Atomic      Atomic             Coordinates (Angstroms)
 Number     Number       Type             X           Y           Z
 ---------------------------------------------------------------------
      1         12           0        4.703390    1.424367   -0.558557
      2          6           0        4.848361   -2.080535   -0.347061
      3          6           0        2.002109    1.182754   -2.619269
      4          6           0        4.128006    4.715550   -0.003795
      5          6           0        7.124130    1.473204    2.128078
      6          7           0        3.543021   -0.224419   -1.328650
      7          6           0        3.817087   -1.550761   -1.236888
      8          6           0        2.701648   -2.398629   -1.786465
      9          6           0        2.054931   -1.431257   -2.792128
     10          6           0        2.498437   -0.081245   -2.256264
     11          6           0        2.492065   -1.625022   -4.302737
     12          6           0        1.804489   -2.973359   -0.805423
     13          6           0        0.946435   -4.108532   -1.430706
     14          6           0        0.373950   -4.953722   -0.360332
     15          8           0        1.042154   -5.671490    0.391799
     16          8           0       -1.032428   -4.815383   -0.391444
     17          7           0        3.258179    2.796597   -1.232960
     18          6           0        2.280764    2.506474   -2.092437
     19          6           0        1.585333    3.716245   -2.418101
     20          6           0        2.238263    4.767853   -1.790363
     21          6           0        3.203498    4.126863   -0.933462
     22          6           0        0.408865    3.846609   -3.386105
     23          6           0        1.920422    6.195158   -2.025112
     24          8           0        1.122895    6.510601   -2.903893
     25          6           0        2.489249    7.386344   -1.262321
     26          7           0        5.434469    2.773779    0.846802
     27          6           0        5.080528    4.124835    0.753890
     28          6           0        5.788273    4.957829    1.812056
     29          6           0        6.662175    3.971194    2.565223
     30          6           0        6.388471    2.670196    1.883652
     31          6           0        6.586078    6.275402    1.383186
     32          6           0        6.627682    3.878181    4.159181
     33          6           0        7.948364    3.699682    4.827411
     34          7           0        5.937369    0.015961    0.569830
     35          6           0        6.773288    0.186050    1.588719
     36          6           0        7.257342   -1.101289    2.090589
     37          6           0        6.513366   -2.033395    1.335537
     38          6           0        5.756667   -1.296938    0.446237
     39          6           0        8.321995   -1.283569    3.089903
     40          6           0        6.338647   -3.436075    1.089516
     41          8           0        6.813088   -4.421821    1.599588
     42          6           0        5.242012   -3.541015   -0.080358
     43          6           0        5.935645   -4.177363   -1.220127
     44          8           0        7.126269   -3.939679   -1.566239
     45          8           0        5.160865   -5.054867   -1.869161
     46          6           0        5.609387   -5.266385   -3.289586
     47          6           0       -1.760209   -5.367259    0.704274
     48          6           0       -3.244973   -4.915486    0.651718
     49          6           0       -4.252759   -4.962578    1.556626
     50          6           0       -4.174188   -5.847536    2.844977
     51          6           0       -5.690170   -4.541679    1.137504
     52          6           0       -5.902212   -3.384233    0.109415
     53          6           0       -5.830282   -1.941205    0.758488
     54          6           0       -7.251453   -1.190846    1.029477
     55          6           0       -7.482276   -0.849724    2.549597
     56          6           0       -7.460760   -0.006520    0.048281
     57          6           0       -8.565554    0.980176    0.404938
     58          6           0       -8.996483    1.852754   -0.780514
     59          6           0      -10.476253    1.822041   -1.093355
     60          6           0      -10.834192    2.698940   -2.281596
     61          6           0      -11.405372    2.185600    0.101610
     62          6           0      -12.289122    0.950872    0.600365
     63          6           0      -13.791178    1.149053    0.201338
     64          6           0      -14.809218    1.451420    1.377344
     65          6           0      -16.089242    0.666091    1.178966
     66          6           0      -14.975181    3.012643    1.485926
     67          1           0        1.191889    1.168609   -3.351679
     68          1           0        4.122406    5.797674    0.138256
     69          1           0        7.781162    1.554416    2.997354
     70          1           0        3.267127   -3.229202   -2.209418
     71          1           0        0.978386   -1.384197   -2.622366
     72          1           0        2.822509   -2.660669   -4.387329
     73          1           0        3.082117   -0.752255   -4.581091
     74          1           0        1.545617   -1.528087   -4.834742
     75          1           0        1.157433   -2.169414   -0.453976
     76          1           0        2.230460   -3.341351    0.128216
     77          1           0        1.442658   -4.593966   -2.269809
     78          1           0        0.255830   -3.477491   -1.989838
     79          1           0        0.906957    4.195611   -4.290215
     80          1           0       -0.390950    4.481719   -3.002588
     81          1           0       -0.082224    2.875409   -3.446364
     82          1           0        2.563329    7.152872   -0.200341
     83          1           0        1.836514    8.259227   -1.271531
     84          1           0        3.486123    7.568383   -1.663781
     85          1           0        5.042946    5.316304    2.521755
     86          1           0        7.641273    4.250774    2.176360
     87          1           0        6.106100    6.808111    0.561421
     88          1           0        7.647526    6.083455    1.231695
     89          1           0        6.499067    6.990865    2.200986
     90          1           0        5.929613    3.096373    4.454731
     91          1           0        6.308626    4.880163    4.447719
     92          1           0        7.865867    3.261130    5.821632
     93          1           0        8.349235    4.706233    4.943167
     94          1           0        8.687802    3.146170    4.248340
     95          1           0        7.855051   -1.418189    4.065735
     96          1           0        8.946463   -0.390327    3.104756
     97          1           0        8.895584   -2.203237    2.968177
     98          1           0        4.383118   -4.112544    0.269753
     99          1           0        6.562245   -5.789146   -3.206438
    100          1           0        5.634066   -4.345956   -3.873700
    101          1           0        4.890279   -5.926078   -3.774779
    102          1           0       -1.276759   -5.128205    1.651533
    103          1           0       -1.603298   -6.445596    0.725602
    104          1           0       -3.463707   -4.508165   -0.334909
    105          1           0       -3.292183   -6.478873    2.736675
    106          1           0       -5.039212   -6.487853    3.015506
    107          1           0       -3.923425   -5.115052    3.611723
    108          1           0       -5.977569   -4.172687    2.121465
    109          1           0       -6.245239   -5.411643    0.785196
    110          1           0       -6.852887   -3.610636   -0.371651
    111          1           0       -5.229232   -3.358501   -0.748097
    112          1           0       -5.193606   -1.288564    0.159758
    113          1           0       -5.406927   -1.983086    1.762230
    114          1           0       -7.918984   -2.013258    0.772882
    115          1           0       -8.510540   -1.038410    2.859648
    116          1           0       -7.334734    0.224600    2.652601
    117          1           0       -6.733107   -1.333942    3.177296
    118          1           0       -7.558697   -0.358197   -0.978986
    119          1           0       -6.524356    0.521336    0.228497
    120          1           0       -8.068834    1.606824    1.146228
    121          1           0       -9.413352    0.510454    0.902770
    122          1           0       -8.370653    1.650958   -1.649440
    123          1           0       -8.865427    2.900554   -0.509300
    124          1           0      -10.714171    0.842196   -1.508094
    125          1           0      -11.659095    2.156809   -2.742706
    126          1           0      -10.034796    2.651213   -3.021589
    127          1           0      -11.007834    3.769866   -2.180009
    128          1           0      -12.090968    2.985872   -0.177069
    129          1           0      -10.840046    2.637275    0.915822
    130          1           0      -12.151795    0.805906    1.672369
    131          1           0      -12.064524    0.062608    0.008409
    132          1           0      -14.061639    0.180323   -0.218537
    133          1           0      -13.727604    1.853096   -0.628544
    134          1           0      -14.312914    1.115916    2.287662
    135          1           0      -16.625478    0.949123    0.272798
    136          1           0      -16.735200    1.025596    1.979543
    137          1           0      -15.931100   -0.411589    1.153209
    138          1           0      -14.720986    3.351458    2.489788
    139          1           0      -15.945051    3.334461    1.107552
    140          1           0      -14.332254    3.628587    0.857327
 ---------------------------------------------------------------------
 Rotational constants (GHZ):           0.0336377           0.0113232           0.0095166
 Leave Link  202 at Wed Apr 27 06:49:26 2022, MaxMem=  6710886400 cpu:               0.2 elap:               0.0
 (Enter /sw/apps/gaussian-16.0/g16/l301.exe)
 Standard basis: VSTO-6G (5D, 7F)
 Ernie: Thresh=  0.10000D-02 Tol=  0.10000D-05 Strict=F.
 There are   338 symmetry adapted cartesian basis functions of A   symmetry.
 There are   338 symmetry adapted basis functions of A   symmetry.
   338 basis functions,  2028 primitive gaussians,   338 cartesian basis functions
   176 alpha electrons      176 beta electrons
       nuclear repulsion energy      4781.2671192054 Hartrees.
 IExCor=    0 DFT=F Ex=HF Corr=None ExCW=0 ScaHFX=  1.000000
 ScaDFX=  1.000000  1.000000  1.000000  1.000000 ScalE2=  1.000000  1.000000
 IRadAn=      5 IRanWt=     -1 IRanGd=            0 ICorTp=0 IEmpDi=  4
 Integral buffers will be    131072 words long.
 Regular integral format.
 Two-electron integral symmetry is turned off.
 Leave Link  301 at Wed Apr 27 06:49:26 2022, MaxMem=  6710886400 cpu:               1.3 elap:               0.1
 (Enter /sw/apps/gaussian-16.0/g16/l302.exe)
 Do NDO integrals.
 NPDir=0 NMtPBC=     1 NCelOv=     1 NCel=       1 NClECP=     1 NCelD=      1
         NCelK=      1 NCelE2=     1 NClLst=     1 CellRange=     0.0.
 One-electron integrals computed using PRISM.
 Generate ZINDO/S integrals.
 NDO Nuclear repulsion=  4307.137556242287 Hartrees.
 NBasis=   338 RedAO= F EigKep=  0.00D+00  NBF=   338
 NBsUse=   338 1.00D-04 EigRej=  0.00D+00 NBFU=   338
 Leave Link  302 at Wed Apr 27 06:49:27 2022, MaxMem=  6710886400 cpu:              16.7 elap:               0.7
 (Enter /sw/apps/gaussian-16.0/g16/l303.exe)
 DipDrv:  MaxL=1.
 DipDrv:  will hold  3 matrices at once.
 Leave Link  303 at Wed Apr 27 06:49:27 2022, MaxMem=  6710886400 cpu:               0.5 elap:               0.0
 (Enter /sw/apps/gaussian-16.0/g16/l308.exe)
 Leave Link  308 at Wed Apr 27 06:49:28 2022, MaxMem=  6710886400 cpu:               5.3 elap:               0.3
 (Enter /sw/apps/gaussian-16.0/g16/l401.exe)
 Simple Huckel Guess.
 JPrj=0 DoOrth=F DoCkMO=F.
 Leave Link  401 at Wed Apr 27 06:49:28 2022, MaxMem=  6710886400 cpu:               7.5 elap:               0.3
 (Enter /sw/apps/gaussian-16.0/g16/l502.exe)
 Two-electron integral symmetry not used.
 Closed shell SCF:
 Using DIIS extrapolation, IDIIS=  1040.
 Overlap will be assumed to be unity.
 NGot=  6710886400 LenX=  6710643598 LenY=  6710528913
 Requested convergence on RMS density matrix=1.00D-08 within 128 cycles.
 Requested convergence on MAX density matrix=1.00D-06.
 Requested convergence on             energy=1.00D-06.
 No special actions if energy rises.
 Fock matrices will be formed incrementally for  20 cycles.

 Cycle   1  Pass 1  IDiag  1:
 E= -472.315328269379    
 DIIS: error= 5.77D-02 at cycle   1 NSaved=   1.
 NSaved= 1 IEnMin= 1 EnMin= -472.315328269379     IErMin= 1 ErrMin= 5.77D-02
 ErrMax= 5.77D-02  0.00D+00 EMaxC= 1.00D-01 BMatC= 8.37D-01 BMatP= 8.37D-01
 IDIUse=3 WtCom= 4.23D-01 WtEn= 5.77D-01
 Coeff-Com:  0.100D+01
 Coeff-En:   0.100D+01
 Coeff:      0.100D+01
 GapD=    2.000 DampG=2.000 DampE=0.500 DampFc=1.0000 IDamp=-1.
 RMSDP=4.05D-03 MaxDP=1.92D-01              OVMax= 0.00D+00

 Cycle   2  Pass 1  IDiag  1:
 RMSU=  4.05D-03    CP:  9.95D-01
 E= -474.163515842652     Delta-E=       -1.848187573272 Rises=F Damp=F
 DIIS: error= 2.13D-02 at cycle   2 NSaved=   2.
 NSaved= 2 IEnMin= 2 EnMin= -474.163515842652     IErMin= 2 ErrMin= 2.13D-02
 ErrMax= 2.13D-02  0.00D+00 EMaxC= 1.00D-01 BMatC= 5.39D-02 BMatP= 8.37D-01
 IDIUse=3 WtCom= 7.87D-01 WtEn= 2.13D-01
 Coeff-Com: -0.663D-01 0.107D+01
 Coeff-En:   0.000D+00 0.100D+01
 Coeff:     -0.522D-01 0.105D+01
 RMSDP=1.12D-03 MaxDP=4.93D-02 DE=-1.85D+00 OVMax= 0.00D+00

 Cycle   3  Pass 1  IDiag  1:
 RMSU=  1.07D-03    CP:  9.93D-01  1.09D+00
 E= -474.267489088136     Delta-E=       -0.103973245485 Rises=F Damp=F
 DIIS: error= 9.82D-03 at cycle   3 NSaved=   3.
 NSaved= 3 IEnMin= 3 EnMin= -474.267489088136     IErMin= 3 ErrMin= 9.82D-03
 ErrMax= 9.82D-03  0.00D+00 EMaxC= 1.00D-01 BMatC= 7.60D-03 BMatP= 5.39D-02
 IDIUse=3 WtCom= 9.02D-01 WtEn= 9.82D-02
 Coeff-Com: -0.686D-01 0.242D+00 0.827D+00
 Coeff-En:   0.000D+00 0.000D+00 0.100D+01
 Coeff:     -0.618D-01 0.218D+00 0.844D+00
 RMSDP=3.88D-04 MaxDP=1.98D-02 DE=-1.04D-01 OVMax= 0.00D+00

 Cycle   4  Pass 1  IDiag  1:
 RMSU=  2.51D-04    CP:  9.93D-01  1.16D+00  9.22D-01
 E= -474.281089853934     Delta-E=       -0.013600765797 Rises=F Damp=F
 DIIS: error= 1.30D-03 at cycle   4 NSaved=   4.
 NSaved= 4 IEnMin= 4 EnMin= -474.281089853934     IErMin= 4 ErrMin= 1.30D-03
 ErrMax= 1.30D-03  0.00D+00 EMaxC= 1.00D-01 BMatC= 3.34D-04 BMatP= 7.60D-03
 IDIUse=3 WtCom= 9.87D-01 WtEn= 1.30D-02
 Coeff-Com: -0.123D-02-0.307D-01 0.412D-01 0.991D+00
 Coeff-En:   0.000D+00 0.000D+00 0.000D+00 0.100D+01
 Coeff:     -0.122D-02-0.303D-01 0.407D-01 0.991D+00
 RMSDP=1.32D-04 MaxDP=6.39D-03 DE=-1.36D-02 OVMax= 0.00D+00

 Cycle   5  Pass 1  IDiag  1:
 RMSU=  8.68D-05    CP:  9.92D-01  1.16D+00  1.01D+00  1.07D+00
 E= -474.282183560433     Delta-E=       -0.001093706499 Rises=F Damp=F
 DIIS: error= 6.23D-04 at cycle   5 NSaved=   5.
 NSaved= 5 IEnMin= 5 EnMin= -474.282183560433     IErMin= 5 ErrMin= 6.23D-04
 ErrMax= 6.23D-04  0.00D+00 EMaxC= 1.00D-01 BMatC= 6.13D-05 BMatP= 3.34D-04
 IDIUse=3 WtCom= 9.94D-01 WtEn= 6.23D-03
 Coeff-Com:  0.638D-02-0.258D-01-0.976D-01 0.178D+00 0.939D+00
 Coeff-En:   0.000D+00 0.000D+00 0.000D+00 0.000D+00 0.100D+01
 Coeff:      0.634D-02-0.256D-01-0.970D-01 0.177D+00 0.940D+00
 RMSDP=6.44D-05 MaxDP=1.77D-03 DE=-1.09D-03 OVMax= 0.00D+00

 Cycle   6  Pass 1  IDiag  1:
 RMSU=  3.50D-05    CP:  9.92D-01  1.16D+00  1.03D+00  1.26D+00  1.16D+00
 E= -474.282408827993     Delta-E=       -0.000225267560 Rises=F Damp=F
 DIIS: error= 2.20D-04 at cycle   6 NSaved=   6.
 NSaved= 6 IEnMin= 6 EnMin= -474.282408827993     IErMin= 6 ErrMin= 2.20D-04
 ErrMax= 2.20D-04  0.00D+00 EMaxC= 1.00D-01 BMatC= 8.17D-06 BMatP= 6.13D-05
 IDIUse=3 WtCom= 9.98D-01 WtEn= 2.20D-03
 Coeff-Com: -0.889D-04 0.551D-02-0.149D-01-0.103D+00 0.385D-01 0.107D+01
 Coeff-En:   0.000D+00 0.000D+00 0.000D+00 0.000D+00 0.000D+00 0.100D+01
 Coeff:     -0.887D-04 0.549D-02-0.148D-01-0.103D+00 0.384D-01 0.107D+01
 RMSDP=3.69D-05 MaxDP=1.45D-03 DE=-2.25D-04 OVMax= 0.00D+00

 Cycle   7  Pass 1  IDiag  1:
 RMSU=  1.67D-05    CP:  9.92D-01  1.16D+00  1.04D+00  1.30D+00  1.43D+00
                    CP:  1.52D+00
 E= -474.282462264036     Delta-E=       -0.000053436042 Rises=F Damp=F
 DIIS: error= 7.70D-05 at cycle   7 NSaved=   7.
 NSaved= 7 IEnMin= 7 EnMin= -474.282462264036     IErMin= 7 ErrMin= 7.70D-05
 ErrMax= 7.70D-05  0.00D+00 EMaxC= 1.00D-01 BMatC= 1.81D-06 BMatP= 8.17D-06
 IDIUse=1 WtCom= 1.00D+00 WtEn= 0.00D+00
 Coeff-Com: -0.698D-03 0.271D-02 0.984D-02-0.848D-02-0.111D+00-0.872D-01
 Coeff-Com:  0.119D+01
 Coeff:     -0.698D-03 0.271D-02 0.984D-02-0.848D-02-0.111D+00-0.872D-01
 Coeff:      0.119D+01
 RMSDP=2.98D-05 MaxDP=1.04D-03 DE=-5.34D-05 OVMax= 0.00D+00

 Cycle   8  Pass 1  IDiag  1:
 RMSU=  7.21D-06    CP:  9.92D-01  1.16D+00  1.04D+00  1.33D+00  1.57D+00
                    CP:  2.07D+00  1.95D+00
 E= -474.282488529663     Delta-E=       -0.000026265628 Rises=F Damp=F
 DIIS: error= 5.03D-05 at cycle   8 NSaved=   8.
 NSaved= 8 IEnMin= 8 EnMin= -474.282488529663     IErMin= 8 ErrMin= 5.03D-05
 ErrMax= 5.03D-05  0.00D+00 EMaxC= 1.00D-01 BMatC= 1.06D-06 BMatP= 1.81D-06
 IDIUse=1 WtCom= 1.00D+00 WtEn= 0.00D+00
 Coeff-Com:  0.198D-03-0.249D-02 0.270D-02 0.393D-01-0.423D-03-0.338D+00
 Coeff-Com: -0.106D+00 0.140D+01
 Coeff:      0.198D-03-0.249D-02 0.270D-02 0.393D-01-0.423D-03-0.338D+00
 Coeff:     -0.106D+00 0.140D+01
 RMSDP=3.29D-05 MaxDP=9.07D-04 DE=-2.63D-05 OVMax= 0.00D+00

 Cycle   9  Pass 1  IDiag  1:
 RMSU=  6.26D-06    CP:  9.92D-01  1.16D+00  1.04D+00  1.35D+00  1.72D+00
                    CP:  2.62D+00  3.00D+00  2.07D+00
 E= -474.282509944764     Delta-E=       -0.000021415100 Rises=F Damp=F
 DIIS: error= 3.47D-05 at cycle   9 NSaved=   9.
 NSaved= 9 IEnMin= 9 EnMin= -474.282509944764     IErMin= 9 ErrMin= 3.47D-05
 ErrMax= 3.47D-05  0.00D+00 EMaxC= 1.00D-01 BMatC= 5.14D-07 BMatP= 1.06D-06
 IDIUse=1 WtCom= 1.00D+00 WtEn= 0.00D+00
 Coeff-Com:  0.424D-03-0.149D-02-0.643D-02 0.562D-03 0.716D-01 0.991D-01
 Coeff-Com: -0.787D+00-0.187D+00 0.181D+01
 Coeff:      0.424D-03-0.149D-02-0.643D-02 0.562D-03 0.716D-01 0.991D-01
 Coeff:     -0.787D+00-0.187D+00 0.181D+01
 RMSDP=4.53D-05 MaxDP=1.13D-03 DE=-2.14D-05 OVMax= 0.00D+00

 Cycle  10  Pass 1  IDiag  1:
 RMSU=  2.64D-05    CP:  9.92D-01  1.16D+00  1.04D+00  1.37D+00  1.89D+00
                    CP:  3.00D+00  3.00D+00  3.00D+00  3.00D+00
 E= -474.282528449914     Delta-E=       -0.000018505150 Rises=F Damp=F
 DIIS: error= 2.64D-05 at cycle  10 NSaved=  10.
 NSaved=10 IEnMin=10 EnMin= -474.282528449914     IErMin=10 ErrMin= 2.64D-05
 ErrMax= 2.64D-05  0.00D+00 EMaxC= 1.00D-01 BMatC= 1.61D-07 BMatP= 5.14D-07
 IDIUse=1 WtCom= 1.00D+00 WtEn= 0.00D+00
 Coeff-Com: -0.176D-03 0.133D-02 0.343D-03-0.181D-01-0.661D-02 0.114D+00
 Coeff-Com:  0.182D+00-0.422D+00-0.650D+00 0.180D+01
 Coeff:     -0.176D-03 0.133D-02 0.343D-03-0.181D-01-0.661D-02 0.114D+00
 Coeff:      0.182D+00-0.422D+00-0.650D+00 0.180D+01
 RMSDP=3.37D-05 MaxDP=8.91D-04 DE=-1.85D-05 OVMax= 0.00D+00

 Cycle  11  Pass 1  IDiag  1:
 RMSU=  1.26D-05    CP:  9.92D-01  1.16D+00  1.05D+00  1.38D+00  2.01D+00
                    CP:  3.00D+00  3.00D+00  3.00D+00  3.00D+00  2.11D+00
 E= -474.282534610655     Delta-E=       -0.000006160741 Rises=F Damp=F
 DIIS: error= 9.67D-06 at cycle  11 NSaved=  11.
 NSaved=11 IEnMin=11 EnMin= -474.282534610655     IErMin=11 ErrMin= 9.67D-06
 ErrMax= 9.67D-06  0.00D+00 EMaxC= 1.00D-01 BMatC= 2.73D-08 BMatP= 1.61D-07
 IDIUse=1 WtCom= 1.00D+00 WtEn= 0.00D+00
 Coeff-Com: -0.846D-04 0.305D-03 0.151D-02-0.156D-02-0.118D-01-0.241D-01
 Coeff-Com:  0.162D+00 0.125D+00-0.523D+00 0.830D-01 0.119D+01
 Coeff:     -0.846D-04 0.305D-03 0.151D-02-0.156D-02-0.118D-01-0.241D-01
 Coeff:      0.162D+00 0.125D+00-0.523D+00 0.830D-01 0.119D+01
 RMSDP=9.23D-06 MaxDP=2.60D-04 DE=-6.16D-06 OVMax= 0.00D+00

 Cycle  12  Pass 1  IDiag  1:
 RMSU=  1.45D-06    CP:  9.92D-01  1.16D+00  1.05D+00  1.39D+00  2.03D+00
                    CP:  3.00D+00  3.00D+00  3.00D+00  3.00D+00  2.41D+00
                    CP:  1.32D+00
 E= -474.282535187149     Delta-E=       -0.000000576494 Rises=F Damp=F
 DIIS: error= 6.13D-06 at cycle  12 NSaved=  12.
 NSaved=12 IEnMin=12 EnMin= -474.282535187149     IErMin=12 ErrMin= 6.13D-06
 ErrMax= 6.13D-06  0.00D+00 EMaxC= 1.00D-01 BMatC= 5.99D-09 BMatP= 2.73D-08
 IDIUse=1 WtCom= 1.00D+00 WtEn= 0.00D+00
 Coeff-Com:  0.399D-04-0.306D-03 0.471D-04 0.369D-02 0.323D-02-0.309D-01
 Coeff-Com: -0.437D-01 0.130D+00 0.857D-01-0.422D+00 0.110D+00 0.116D+01
 Coeff:      0.399D-04-0.306D-03 0.471D-04 0.369D-02 0.323D-02-0.309D-01
 Coeff:     -0.437D-01 0.130D+00 0.857D-01-0.422D+00 0.110D+00 0.116D+01
 RMSDP=4.37D-06 MaxDP=1.22D-04 DE=-5.76D-07 OVMax= 0.00D+00

 Cycle  13  Pass 1  IDiag  1:
 RMSU=  4.99D-07    CP:  9.92D-01  1.16D+00  1.05D+00  1.39D+00  2.05D+00
                    CP:  3.00D+00  3.00D+00  3.00D+00  3.00D+00  2.54D+00
                    CP:  1.48D+00  1.47D+00
 E= -474.282535269482     Delta-E=       -0.000000082333 Rises=F Damp=F
 DIIS: error= 1.40D-06 at cycle  13 NSaved=  13.
 NSaved=13 IEnMin=13 EnMin= -474.282535269482     IErMin=13 ErrMin= 1.40D-06
 ErrMax= 1.40D-06  0.00D+00 EMaxC= 1.00D-01 BMatC= 6.24D-10 BMatP= 5.99D-09
 IDIUse=1 WtCom= 1.00D+00 WtEn= 0.00D+00
 Coeff-Com:  0.137D-04-0.708D-04-0.166D-03 0.577D-03 0.240D-02-0.295D-02
 Coeff-Com: -0.228D-01 0.119D-01 0.694D-01-0.690D-01-0.698D-01 0.753D-01
 Coeff-Com:  0.101D+01
 Coeff:      0.137D-04-0.708D-04-0.166D-03 0.577D-03 0.240D-02-0.295D-02
 Coeff:     -0.228D-01 0.119D-01 0.694D-01-0.690D-01-0.698D-01 0.753D-01
 Coeff:      0.101D+01
 RMSDP=6.31D-07 MaxDP=2.10D-05 DE=-8.23D-08 OVMax= 0.00D+00

 Cycle  14  Pass 1  IDiag  1:
 RMSU=  2.21D-07    CP:  9.92D-01  1.16D+00  1.05D+00  1.39D+00  2.04D+00
                    CP:  3.00D+00  3.00D+00  3.00D+00  3.00D+00  2.53D+00
                    CP:  1.47D+00  1.66D+00  1.33D+00
 E= -474.282535274525     Delta-E=       -0.000000005043 Rises=F Damp=F
 DIIS: error= 1.24D-06 at cycle  14 NSaved=  14.
 NSaved=14 IEnMin=14 EnMin= -474.282535274525     IErMin=14 ErrMin= 1.24D-06
 ErrMax= 1.24D-06  0.00D+00 EMaxC= 1.00D-01 BMatC= 3.08D-10 BMatP= 6.24D-10
 IDIUse=1 WtCom= 1.00D+00 WtEn= 0.00D+00
 Coeff-Com: -0.961D-05 0.715D-04-0.155D-04-0.869D-03-0.449D-03 0.596D-02
 Coeff-Com:  0.101D-01-0.310D-01-0.161D-01 0.769D-01 0.876D-02-0.313D+00
 Coeff-Com:  0.826D-01 0.118D+01
 Coeff:     -0.961D-05 0.715D-04-0.155D-04-0.869D-03-0.449D-03 0.596D-02
 Coeff:      0.101D-01-0.310D-01-0.161D-01 0.769D-01 0.876D-02-0.313D+00
 Coeff:      0.826D-01 0.118D+01
 RMSDP=6.13D-07 MaxDP=1.72D-05 DE=-5.04D-09 OVMax= 0.00D+00

 Cycle  15  Pass 1  IDiag  1:
 RMSU=  1.29D-07    CP:  9.92D-01  1.16D+00  1.05D+00  1.39D+00  2.05D+00
                    CP:  3.00D+00  3.00D+00  3.00D+00  3.00D+00  2.54D+00
                    CP:  1.49D+00  1.77D+00  1.73D+00  1.86D+00
 E= -474.282535278421     Delta-E=       -0.000000003896 Rises=F Damp=F
 DIIS: error= 5.62D-07 at cycle  15 NSaved=  15.
 NSaved=15 IEnMin=15 EnMin= -474.282535278421     IErMin=15 ErrMin= 5.62D-07
 ErrMax= 5.62D-07  0.00D+00 EMaxC= 1.00D-01 BMatC= 1.04D-10 BMatP= 3.08D-10
 IDIUse=1 WtCom= 1.00D+00 WtEn= 0.00D+00
 Coeff-Com: -0.437D-05 0.209D-04 0.716D-04-0.155D-03-0.904D-03 0.474D-03
 Coeff-Com:  0.977D-02-0.371D-02-0.178D-01 0.111D-01 0.505D-01-0.404D-01
 Coeff-Com: -0.322D+00-0.212D+00 0.153D+01
 Coeff:     -0.437D-05 0.209D-04 0.716D-04-0.155D-03-0.904D-03 0.474D-03
 Coeff:      0.977D-02-0.371D-02-0.178D-01 0.111D-01 0.505D-01-0.404D-01
 Coeff:     -0.322D+00-0.212D+00 0.153D+01
 RMSDP=3.79D-07 MaxDP=1.12D-05 DE=-3.90D-09 OVMax= 0.00D+00

 Cycle  16  Pass 1  IDiag  1:
 RMSU=  5.63D-08    CP:  9.92D-01  1.16D+00  1.05D+00  1.39D+00  2.04D+00
                    CP:  3.00D+00  3.00D+00  3.00D+00  3.00D+00  2.54D+00
                    CP:  1.48D+00  1.86D+00  2.07D+00  2.93D+00  1.83D+00
 E= -474.282535280355     Delta-E=       -0.000000001934 Rises=F Damp=F
 DIIS: error= 4.49D-07 at cycle  16 NSaved=  16.
 NSaved=16 IEnMin=16 EnMin= -474.282535280355     IErMin=16 ErrMin= 4.49D-07
 ErrMax= 4.49D-07  0.00D+00 EMaxC= 1.00D-01 BMatC= 3.28D-11 BMatP= 1.04D-10
 IDIUse=1 WtCom= 1.00D+00 WtEn= 0.00D+00
 Coeff-Com:  0.494D-05-0.347D-04 0.347D-05 0.407D-03 0.194D-03-0.251D-02
 Coeff-Com: -0.515D-02 0.108D-01 0.128D-01-0.399D-01 0.109D-02 0.118D+00
 Coeff-Com:  0.468D-01-0.560D+00-0.141D+00 0.156D+01
 Coeff:      0.494D-05-0.347D-04 0.347D-05 0.407D-03 0.194D-03-0.251D-02
 Coeff:     -0.515D-02 0.108D-01 0.128D-01-0.399D-01 0.109D-02 0.118D+00
 Coeff:      0.468D-01-0.560D+00-0.141D+00 0.156D+01
 RMSDP=3.11D-07 MaxDP=1.11D-05 DE=-1.93D-09 OVMax= 0.00D+00

 Cycle  17  Pass 1  IDiag  1:
 RMSU=  1.73D-07    CP:  9.92D-01  1.16D+00  1.05D+00  1.39D+00  2.05D+00
                    CP:  3.00D+00  3.00D+00  3.00D+00  3.00D+00  2.54D+00
                    CP:  1.49D+00  1.93D+00  2.34D+00  3.00D+00  2.71D+00
                    CP:  1.97D+00
 E= -474.282535281123     Delta-E=       -0.000000000769 Rises=F Damp=F
 DIIS: error= 1.13D-07 at cycle  17 NSaved=  17.
 NSaved=17 IEnMin=17 EnMin= -474.282535281123     IErMin=17 ErrMin= 1.13D-07
 ErrMax= 1.13D-07  0.00D+00 EMaxC= 1.00D-01 BMatC= 4.01D-12 BMatP= 3.28D-11
 IDIUse=1 WtCom= 1.00D+00 WtEn= 0.00D+00
 Coeff-Com:  0.138D-05-0.804D-05-0.137D-04 0.846D-04 0.159D-03-0.341D-03
 Coeff-Com: -0.219D-02 0.199D-02 0.534D-02-0.731D-02-0.671D-02 0.152D-01
 Coeff-Com:  0.692D-01-0.399D-01-0.258D+00 0.148D+00 0.107D+01
 Coeff:      0.138D-05-0.804D-05-0.137D-04 0.846D-04 0.159D-03-0.341D-03
 Coeff:     -0.219D-02 0.199D-02 0.534D-02-0.731D-02-0.671D-02 0.152D-01
 Coeff:      0.692D-01-0.399D-01-0.258D+00 0.148D+00 0.107D+01
 RMSDP=7.76D-08 MaxDP=2.42D-06 DE=-7.69D-10 OVMax= 0.00D+00

 Cycle  18  Pass 1  IDiag  1:
 RMSU=  1.03D-08    CP:  9.92D-01  1.16D+00  1.05D+00  1.39D+00  2.05D+00
                    CP:  3.00D+00  3.00D+00  3.00D+00  3.00D+00  2.54D+00
                    CP:  1.49D+00  1.95D+00  2.40D+00  3.00D+00  2.93D+00
                    CP:  2.41D+00  1.28D+00
 E= -474.282535281191     Delta-E=       -0.000000000067 Rises=F Damp=F
 DIIS: error= 9.50D-08 at cycle  18 NSaved=  18.
 NSaved=18 IEnMin=18 EnMin= -474.282535281191     IErMin=18 ErrMin= 9.50D-08
 ErrMax= 9.50D-08  0.00D+00 EMaxC= 1.00D-01 BMatC= 7.71D-13 BMatP= 4.01D-12
 IDIUse=1 WtCom= 1.00D+00 WtEn= 0.00D+00
 Coeff-Com: -0.112D-05 0.783D-05-0.137D-05-0.886D-04-0.514D-04 0.564D-03
 Coeff-Com:  0.110D-02-0.240D-02-0.288D-02 0.860D-02 0.835D-03-0.273D-01
 Coeff-Com: -0.761D-02 0.113D+00 0.443D-01-0.334D+00-0.752D-01 0.128D+01
 Coeff:     -0.112D-05 0.783D-05-0.137D-05-0.886D-04-0.514D-04 0.564D-03
 Coeff:      0.110D-02-0.240D-02-0.288D-02 0.860D-02 0.835D-03-0.273D-01
 Coeff:     -0.761D-02 0.113D+00 0.443D-01-0.334D+00-0.752D-01 0.128D+01
 RMSDP=2.85D-08 MaxDP=7.93D-07 DE=-6.73D-11 OVMax= 0.00D+00

 Cycle  19  Pass 1  IDiag  1:
 RMSU=  6.92D-09    CP:  9.92D-01  1.16D+00  1.05D+00  1.39D+00  2.05D+00
                    CP:  3.00D+00  3.00D+00  3.00D+00  3.00D+00  2.54D+00
                    CP:  1.49D+00  1.96D+00  2.41D+00  3.00D+00  3.00D+00
                    CP:  2.61D+00  1.37D+00  1.87D+00
 E= -474.282535281211     Delta-E=       -0.000000000020 Rises=F Damp=F
 DIIS: error= 5.11D-08 at cycle  19 NSaved=  19.
 NSaved=19 IEnMin=19 EnMin= -474.282535281211     IErMin=19 ErrMin= 5.11D-08
 ErrMax= 5.11D-08  0.00D+00 EMaxC= 1.00D-01 BMatC= 1.35D-13 BMatP= 7.71D-13
 IDIUse=1 WtCom= 1.00D+00 WtEn= 0.00D+00
 Coeff-Com: -0.248D-06 0.150D-05 0.263D-05-0.154D-04-0.275D-04 0.658D-04
 Coeff-Com:  0.363D-03-0.317D-03-0.898D-03 0.115D-02 0.123D-02-0.269D-02
 Coeff-Com: -0.112D-01 0.310D-02 0.444D-01-0.103D-01-0.213D+00 0.235D-02
 Coeff-Com:  0.119D+01
 Coeff:     -0.248D-06 0.150D-05 0.263D-05-0.154D-04-0.275D-04 0.658D-04
 Coeff:      0.363D-03-0.317D-03-0.898D-03 0.115D-02 0.123D-02-0.269D-02
 Coeff:     -0.112D-01 0.310D-02 0.444D-01-0.103D-01-0.213D+00 0.235D-02
 Coeff:      0.119D+01
 RMSDP=8.91D-09 MaxDP=4.55D-07 DE=-2.00D-11 OVMax= 0.00D+00

 SCF Done:  E(RZINDO/S) =  -474.282535281     A.U. after   19 cycles
            NFock= 19  Conv=0.89D-08     -V/T= 0.9489
 KE=-9.288244303308D+03 PE=-1.745193003444D-07 EE= 4.506824211959D+03
 Leave Link  502 at Wed Apr 27 06:49:29 2022, MaxMem=  6710886400 cpu:              34.1 elap:               1.5
 (Enter /sw/apps/gaussian-16.0/g16/l801.exe)
 Range of M.O.s used for correlation:     1   338
 NBasis=   338 NAE=   176 NBE=   176 NFC=     0 NFV=     0
 NROrb=    338 NOA=   176 NOB=   176 NVA=   162 NVB=   162
 Leave Link  801 at Wed Apr 27 06:49:30 2022, MaxMem=  6710886400 cpu:               0.6 elap:               0.0
 (Enter /sw/apps/gaussian-16.0/g16/l914.exe)
 RHF ground state
 Two-electron integral symmetry not used.
 MDV=  6710886400 DFT=F DoStab=F Mixed=F DoRPA=F DoScal=F NonHer=F
 Making orbital integer symmetry assigments:
 Orbital symmetries:
       Occupied  (A) (A) (A) (A) (A) (A) (A) (A) (A) (A) (A) (A)
                 (A) (A) (A) (A) (A) (A) (A) (A) (A) (A) (A) (A)
                 (A) (A) (A) (A) (A) (A) (A) (A) (A) (A) (A) (A)
                 (A) (A) (A) (A) (A) (A) (A) (A) (A) (A) (A) (A)
                 (A) (A) (A) (A) (A) (A) (A) (A) (A) (A) (A) (A)
                 (A) (A) (A) (A) (A) (A) (A) (A) (A) (A) (A) (A)
                 (A) (A) (A) (A) (A) (A) (A) (A) (A) (A) (A) (A)
                 (A) (A) (A) (A) (A) (A) (A) (A) (A) (A) (A) (A)
                 (A) (A) (A) (A) (A) (A) (A) (A) (A) (A) (A) (A)
                 (A) (A) (A) (A) (A) (A) (A) (A) (A) (A) (A) (A)
                 (A) (A) (A) (A) (A) (A) (A) (A) (A) (A) (A) (A)
                 (A) (A) (A) (A) (A) (A) (A) (A) (A) (A) (A) (A)
                 (A) (A) (A) (A) (A) (A) (A) (A) (A) (A) (A) (A)
                 (A) (A) (A) (A) (A) (A) (A) (A) (A) (A) (A) (A)
                 (A) (A) (A) (A) (A) (A) (A) (A)
       Virtual   (A) (A) (A) (A) (A) (A) (A) (A) (A) (A) (A) (A)
                 (A) (A) (A) (A) (A) (A) (A) (A) (A) (A) (A) (A)
                 (A) (A) (A) (A) (A) (A) (A) (A) (A) (A) (A) (A)
                 (A) (A) (A) (A) (A) (A) (A) (A) (A) (A) (A) (A)
                 (A) (A) (A) (A) (A) (A) (A) (A) (A) (A) (A) (A)
                 (A) (A) (A) (A) (A) (A) (A) (A) (A) (A) (A) (A)
                 (A) (A) (A) (A) (A) (A) (A) (A) (A) (A) (A) (A)
                 (A) (A) (A) (A) (A) (A) (A) (A) (A) (A) (A) (A)
                 (A) (A) (A) (A) (A) (A) (A) (A) (A) (A) (A) (A)
                 (A) (A) (A) (A) (A) (A) (A) (A) (A) (A) (A) (A)
                 (A) (A) (A) (A) (A) (A) (A) (A) (A) (A) (A) (A)
                 (A) (A) (A) (A) (A) (A) (A) (A) (A) (A) (A) (A)
                 (A) (A) (A) (A) (A) (A) (A) (A) (A) (A) (A) (A)
                 (A) (A) (A) (A) (A) (A)
    20 initial guesses have been made.
 Convergence on wavefunction:    0.001000000000000
 Davidson Disk Diagonalization:  ConvIn= 1.00D-03 SkipCon=T Conv= 1.00D-03.
 Max sub-space:  2000 roots to seek:    20 dimension of matrix:        57024
 Iteration     1 Dimension    20 NMult     0 NNew     20
 CISAX will form    20 AO SS matrices at one time.
 NMat=    20 NSing=    20 JSym2X= 0.
 New state      3 was old state      6
 New state      5 was old state     12
 Excitation Energies [eV] at current iteration:
 Root      1 :     1.589448931050567
 Root      2 :     2.129170493054202
 Root      3 :     3.064707098316593
 Root      4 :     3.319480300516152
 Root      5 :     3.403890117123620
 Root      6 :     3.484079062873916
 Root      7 :     3.607076310411964
 Root      8 :     3.762308127951211
 Root      9 :     3.833600991236939
 Root     10 :     3.922248377981701
 Root     11 :     4.131682635690093
 Root     12 :     4.181365337276673
 Root     13 :     4.203407788561589
 Root     14 :     4.295537303746615
 Root     15 :     4.329355435324305
 Root     16 :     4.541412426660190
 Root     17 :     4.583639606101143
 Root     18 :     4.596869006269002
 Root     19 :     5.051008132116196
 Root     20 :     5.575146350061474
 Iteration     2 Dimension    40 NMult    20 NNew     20
 CISAX will form    20 AO SS matrices at one time.
 NMat=    20 NSing=    20 JSym2X= 0.
 Root      1 not converged, maximum delta is    0.043568182281708
 Root      2 not converged, maximum delta is    0.032285143147932
 Root      3 not converged, maximum delta is    0.374578254672540
 Root      4 not converged, maximum delta is    0.523431581301362
 Root      5 not converged, maximum delta is    0.335603380573337
 Excitation Energies [eV] at current iteration:
 Root      1 :     1.231957877810768   Change is   -0.357491053239798
 Root      2 :     1.922912414227867   Change is   -0.206258078826335
 Root      3 :     2.995271382216938   Change is   -0.069435716099655
 Root      4 :     3.049262111371361   Change is   -0.270218189144790
 Root      5 :     3.180898400936413   Change is   -0.222991716187208
 Root      6 :     3.187288022460606   Change is   -0.296791040413310
 Root      7 :     3.386684749373216   Change is   -0.220391561038748
 Root      8 :     3.488902942644233   Change is   -0.714504845917356
 Root      9 :     3.505792108950573   Change is   -0.327808882286366
 Root     10 :     3.589377852462612   Change is   -0.172930275488598
 Root     11 :     3.662268899090539   Change is   -0.259979478891162
 Root     12 :     3.788582824082614   Change is   -0.343099811607479
 Root     13 :     4.005354763489519   Change is   -0.324000671834785
 Root     14 :     4.034954379325975   Change is   -0.561914626943027
 Root     15 :     4.100435029565284   Change is   -0.080930307711388
 Root     16 :     4.223145013484914   Change is   -0.318267413175275
 Root     17 :     4.246311050636439   Change is   -0.049226253110176
 Root     18 :     4.374479997758169   Change is   -0.209159608342975
 Root     19 :     5.046208030935892   Change is   -0.004800101180304
 Root     20 :     5.568238411439881   Change is   -0.006907938621592
 Iteration     3 Dimension    45 NMult    40 NNew      5
 CISAX will form     5 AO SS matrices at one time.
 NMat=     5 NSing=     5 JSym2X= 0.
 Root      1 not converged, maximum delta is    0.012226705115177
 Root      2 not converged, maximum delta is    0.017071849284002
 Root      3 not converged, maximum delta is    0.081078432002657
 Root      4 not converged, maximum delta is    0.095176421155354
 Root      5 not converged, maximum delta is    0.047531650049946
 Excitation Energies [eV] at current iteration:
 Root      1 :     1.215289393609527   Change is   -0.016668484201242
 Root      2 :     1.897695855587011   Change is   -0.025216558640856
 Root      3 :     2.980549153158234   Change is   -0.014722229058704
 Root      4 :     3.033734684116072   Change is   -0.015527427255289
 Root      5 :     3.146773720457789   Change is   -0.034124680478623
 Iteration     4 Dimension    50 NMult    45 NNew      5
 CISAX will form     5 AO SS matrices at one time.
 NMat=     5 NSing=     5 JSym2X= 0.
 Root      1 not converged, maximum delta is    0.002779414616752
 Root      2 not converged, maximum delta is    0.001760997360580
 Root      3 not converged, maximum delta is    0.007562210805080
 Root      4 not converged, maximum delta is    0.007988642031811
 Root      5 not converged, maximum delta is    0.015280687196025
 Excitation Energies [eV] at current iteration:
 Root      1 :     1.214441185694095   Change is   -0.000848207915432
 Root      2 :     1.897034981434476   Change is   -0.000660874152535
 Root      3 :     2.978474577492997   Change is   -0.002074575665237
 Root      4 :     3.032472696589680   Change is   -0.001261987526392
 Root      5 :     3.143058274014277   Change is   -0.003715446443512
 Iteration     5 Dimension    55 NMult    50 NNew      5
 CISAX will form     5 AO SS matrices at one time.
 NMat=     5 NSing=     5 JSym2X= 0.
 Root      1 has converged.
 Root      2 has converged.
 Root      3 not converged, maximum delta is    0.004338050096754
 Root      4 not converged, maximum delta is    0.005343123096453
 Root      5 not converged, maximum delta is    0.016931803523701
 Excitation Energies [eV] at current iteration:
 Root      1 :     1.214385547315276   Change is   -0.000055638378819
 Root      2 :     1.896987972964788   Change is   -0.000047008469688
 Root      3 :     2.978041285009208   Change is   -0.000433292483789
 Root      4 :     3.032138494198459   Change is   -0.000334202391220
 Root      5 :     3.141056625859697   Change is   -0.002001648154580
 Iteration     6 Dimension    58 NMult    55 NNew      3
 CISAX will form     3 AO SS matrices at one time.
 NMat=     3 NSing=     3 JSym2X= 0.
 Root      1 has converged.
 Root      2 has converged.
 Root      3 not converged, maximum delta is    0.014206766455194
 Root      4 not converged, maximum delta is    0.055738903085906
 Root      5 not converged, maximum delta is    0.349395522556715
 Excitation Energies [eV] at current iteration:
 Root      1 :     1.214385371355507   Change is   -0.000000175959769
 Root      2 :     1.896987130875062   Change is   -0.000000842089726
 Root      3 :     2.977575609919097   Change is   -0.000465675090110
 Root      4 :     3.030605398021832   Change is   -0.001533096176627
 Root      5 :     3.090581477958350   Change is   -0.050475147901347
 Iteration     7 Dimension    61 NMult    58 NNew      3
 CISAX will form     3 AO SS matrices at one time.
 NMat=     3 NSing=     3 JSym2X= 0.
 Root      1 has converged.
 Root      2 has converged.
 New state      3 was old state      5
 Root      3 not converged, maximum delta is    0.293686839613125
 New state      4 was old state      3
 Root      4 not converged, maximum delta is    0.117036822017027
 No map to state      5
 Excitation Energies [eV] at current iteration:
 Root      1 :     1.214385215772775   Change is   -0.000000155582732
 Root      2 :     1.896986895716109   Change is   -0.000000235158953
 Root      3 :     2.952513383895695   Change is   -0.138068094062656
 Root      4 :     2.976008994450522   Change is   -0.001566615468575
 Root      5 :     3.005384335176617
 Iteration     8 Dimension    64 NMult    61 NNew      3
 CISAX will form     3 AO SS matrices at one time.
 NMat=     3 NSing=     3 JSym2X= 0.
 Root      1 has converged.
 Root      2 has converged.
 Root      3 not converged, maximum delta is    0.036770215494621
 New state      4 was old state      5
 Root      4 not converged, maximum delta is    0.310510284009443
 New state      5 was old state      4
 Root      5 not converged, maximum delta is    0.246132153699107
 Excitation Energies [eV] at current iteration:
 Root      1 :     1.214385069264548   Change is   -0.000000146508228
 Root      2 :     1.896986208719962   Change is   -0.000000686996148
 Root      3 :     2.936765190939806   Change is   -0.015748192955889
 Root      4 :     2.954511076211706   Change is   -0.050873258964911
 Root      5 :     2.981003179828183   Change is    0.004994185377661
 Iteration     9 Dimension    67 NMult    64 NNew      3
 CISAX will form     3 AO SS matrices at one time.
 NMat=     3 NSing=     3 JSym2X= 0.
 Root      1 has converged.
 Root      2 has converged.
 Root      3 not converged, maximum delta is    0.043045943389729
 Root      4 not converged, maximum delta is    0.051996761798490
 Root      5 not converged, maximum delta is    0.034491453095376
 Excitation Energies [eV] at current iteration:
 Root      1 :     1.214384963749149   Change is   -0.000000105515399
 Root      2 :     1.896984297950715   Change is   -0.000001910769247
 Root      3 :     2.934064474142806   Change is   -0.002700716796999
 Root      4 :     2.945760128599765   Change is   -0.008750947611942
 Root      5 :     2.980147756429713   Change is   -0.000855423398470
 Iteration    10 Dimension    70 NMult    67 NNew      3
 CISAX will form     3 AO SS matrices at one time.
 NMat=     3 NSing=     3 JSym2X= 0.
 Root      1 has converged.
 Root      2 has converged.
 Root      3 not converged, maximum delta is    0.024833258919299
 Root      4 not converged, maximum delta is    0.025647781105014
 Root      5 not converged, maximum delta is    0.006125863558267
 Excitation Energies [eV] at current iteration:
 Root      1 :     1.214384862817004   Change is   -0.000000100932145
 Root      2 :     1.896982417815456   Change is   -0.000001880135258
 Root      3 :     2.933419228382805   Change is   -0.000645245760001
 Root      4 :     2.943957729911870   Change is   -0.001802398687895
 Root      5 :     2.979983723787131   Change is   -0.000164032642582
 Iteration    11 Dimension    73 NMult    70 NNew      3
 CISAX will form     3 AO SS matrices at one time.
 NMat=     3 NSing=     3 JSym2X= 0.
 Root      1 has converged.
 Root      2 has converged.
 Root      3 not converged, maximum delta is    0.005725015964797
 Root      4 not converged, maximum delta is    0.005923316284043
 Root      5 not converged, maximum delta is    0.001053342943622
 Excitation Energies [eV] at current iteration:
 Root      1 :     1.214384804295392   Change is   -0.000000058521612
 Root      2 :     1.896981563101087   Change is   -0.000000854714369
 Root      3 :     2.933290188953797   Change is   -0.000129039429008
 Root      4 :     2.943675457755060   Change is   -0.000282272156810
 Root      5 :     2.979954001764951   Change is   -0.000029722022180
 Iteration    12 Dimension    76 NMult    73 NNew      3
 CISAX will form     3 AO SS matrices at one time.
 NMat=     3 NSing=     3 JSym2X= 0.
 Root      1 has converged.
 Root      2 has converged.
 Root      3 has converged.
 Root      4 has converged.
 Root      5 has converged.
 Excitation Energies [eV] at current iteration:
 Root      1 :     1.214384782262724   Change is   -0.000000022032668
 Root      2 :     1.896981308693371   Change is   -0.000000254407716
 Root      3 :     2.933272866979895   Change is   -0.000017321973902
 Root      4 :     2.943641905307321   Change is   -0.000033552447739
 Root      5 :     2.979950244942992   Change is   -0.000003756821959
 Convergence achieved on expansion vectors.
 ***********************************************************************
 Excited states from <AA,BB:AA,BB> singles matrix:
 ***********************************************************************
 
 1PDM for each excited state written to RWF  633
 Ground to excited state transition densities written to RWF  633
 Ground to excited state transition electric dipole moments (Au):
       state          X           Y           Z        Dip. S.      Osc.
         1        -2.7105      2.8135     -2.1249     19.7780      0.5884
         2         0.5106      0.9240      0.5090      1.3736      0.0638
         3         0.2129      0.2459      0.2611      0.1740      0.0125
         4        -0.1347     -0.4197     -0.1613      0.2203      0.0159
         5         1.2799      2.7051      1.7009     11.8485      0.8650
 Ground to excited state transition velocity dipole moments (Au):
       state          X           Y           Z        Dip. S.      Osc.
         1        -0.0574      0.0212     -0.0423      0.0055      0.0826
         2        -0.0029     -0.0199     -0.0049      0.0004      0.0041
         3        -0.0101     -0.0073     -0.0034      0.0002      0.0010
         4        -0.0006      0.0164      0.0080      0.0003      0.0021
         5        -0.0440     -0.0859     -0.0360      0.0106      0.0646
 Ground to excited state transition magnetic dipole moments (Au):
       state          X           Y           Z
         1        -0.1078      0.3017      0.2725
         2         0.3949      0.1533     -0.6250
         3        -0.4539      0.4456     -0.5935
         4         0.1831     -0.6544      0.2458
         5        -0.1850      0.3429     -0.6037
 Ground to excited state transition velocity quadrupole moments (Au):
       state          XX          YY          ZZ          XY          XZ          YZ
         1        -0.9792      0.0356      0.0591      0.1274     -0.3296      0.0386
         2         0.0252     -0.0991      0.0249     -0.1994     -0.0608      0.0178
         3        -0.1393      0.0064     -0.0322     -0.1959     -0.0625      0.0248
         4        -0.0536      0.0306      0.0096      0.1624      0.0920     -0.0216
         5        -0.2979     -0.2766     -0.0177     -0.6973     -0.4436     -0.1357
 <0|del|b> * <b|rxdel|0> + <0|del|b> * <b|delr+rdel|0>
 Rotatory Strengths (R) in cgs (10**-40 erg-esu-cm/Gauss)
       state          XX          YY          ZZ    R(velocity)    E-M Angle
         1       -28.2095    -17.1880     61.8724      5.4916       88.10
         2        -1.3553      4.3808    -14.9233     -3.9659       94.30
         3        -3.3143     18.7135      6.6715      7.3569       72.63
         4       -29.4230      1.8767    -30.6215    -19.3893      132.28
         5       -66.6045     34.6966     34.9154      1.0025       89.64
 1/2[<0|r|b>*<b|rxdel|0> + (<0|rxdel|b>*<b|r|0>)*]
 Rotatory Strengths (R) in cgs (10**-40 erg-esu-cm/Gauss)
       state          XX          YY          ZZ     R(length)
         1      -206.5897   -600.3056    409.4247   -132.4902
         2      -142.5995   -100.1657    224.9630     -5.9341
         3        68.3270    -77.4968    109.5995     33.4765
         4        17.4437   -194.2204     28.0432    -49.5778
         5       167.4251   -655.9422    726.0957     79.1929
  1/2[<0|del|b>*<b|r|0> + (<0|r|b>*<b|del|0>)*] (Au)
       state          X           Y           Z        Dip. S.   Osc.(frdel)
         1         0.1556      0.0595      0.0899     -0.3050     -0.2033
         2        -0.0015     -0.0184     -0.0025      0.0224      0.0149
         3        -0.0022     -0.0018     -0.0009      0.0049      0.0032
         4         0.0001     -0.0069     -0.0013      0.0081      0.0054
         5        -0.0564     -0.2322     -0.0613      0.3499      0.2333

 Excitation energies and oscillator strengths:
 
 Excited State   1:      Singlet-A      1.2144 eV 1020.96 nm  f=0.5884  <S**2>=0.000
     175 ->178         0.16921
     176 ->177         0.66915
 This state for optimization and/or second-order correction.
 Total Energy, E(CIS/TDA) =  -474.237907462    
 Copying the excited state density for this state as the 1-particle RhoCI density.
 
 Excited State   2:      Singlet-A      1.8970 eV  653.59 nm  f=0.0638  <S**2>=0.000
     175 ->177         0.56151
     176 ->178        -0.39492
 
 Excited State   3:      Singlet-A      2.9333 eV  422.68 nm  f=0.0125  <S**2>=0.000
     170 ->177         0.21099
     170 ->179        -0.28495
     170 ->182        -0.41041
     170 ->184        -0.13648
     170 ->186         0.16604
     170 ->187         0.19381
     170 ->188         0.13470
     170 ->202        -0.13361
 
 Excited State   4:      Singlet-A      2.9436 eV  421.19 nm  f=0.0159  <S**2>=0.000
     168 ->177         0.38222
     168 ->178        -0.17166
     168 ->179         0.35428
     168 ->182        -0.17654
     168 ->183         0.13917
     168 ->186        -0.22052
     168 ->195         0.13936
 
 Excited State   5:      Singlet-A      2.9800 eV  416.06 nm  f=0.8650  <S**2>=0.000
     171 ->177         0.13582
     175 ->177         0.32572
     176 ->178         0.51568
     176 ->181        -0.24246
 SavETr:  write IOETrn=   770 NScale= 10 NData=  16 NLR=1 NState=    5 LETran=     100.
 Leave Link  914 at Wed Apr 27 06:49:34 2022, MaxMem=  6710886400 cpu:             111.2 elap:               4.7
 (Enter /sw/apps/gaussian-16.0/g16/l601.exe)
 Copying SCF densities to generalized density rwf, IOpCl= 0 IROHF=0.

 **********************************************************************

            Population analysis using the SCF density.

 **********************************************************************

 Orbital symmetries:
       Occupied  (A) (A) (A) (A) (A) (A) (A) (A) (A) (A) (A) (A)
                 (A) (A) (A) (A) (A) (A) (A) (A) (A) (A) (A) (A)
                 (A) (A) (A) (A) (A) (A) (A) (A) (A) (A) (A) (A)
                 (A) (A) (A) (A) (A) (A) (A) (A) (A) (A) (A) (A)
                 (A) (A) (A) (A) (A) (A) (A) (A) (A) (A) (A) (A)
                 (A) (A) (A) (A) (A) (A) (A) (A) (A) (A) (A) (A)
                 (A) (A) (A) (A) (A) (A) (A) (A) (A) (A) (A) (A)
                 (A) (A) (A) (A) (A) (A) (A) (A) (A) (A) (A) (A)
                 (A) (A) (A) (A) (A) (A) (A) (A) (A) (A) (A) (A)
                 (A) (A) (A) (A) (A) (A) (A) (A) (A) (A) (A) (A)
                 (A) (A) (A) (A) (A) (A) (A) (A) (A) (A) (A) (A)
                 (A) (A) (A) (A) (A) (A) (A) (A) (A) (A) (A) (A)
                 (A) (A) (A) (A) (A) (A) (A) (A) (A) (A) (A) (A)
                 (A) (A) (A) (A) (A) (A) (A) (A) (A) (A) (A) (A)
                 (A) (A) (A) (A) (A) (A) (A) (A)
       Virtual   (A) (A) (A) (A) (A) (A) (A) (A) (A) (A) (A) (A)
                 (A) (A) (A) (A) (A) (A) (A) (A) (A) (A) (A) (A)
                 (A) (A) (A) (A) (A) (A) (A) (A) (A) (A) (A) (A)
                 (A) (A) (A) (A) (A) (A) (A) (A) (A) (A) (A) (A)
                 (A) (A) (A) (A) (A) (A) (A) (A) (A) (A) (A) (A)
                 (A) (A) (A) (A) (A) (A) (A) (A) (A) (A) (A) (A)
                 (A) (A) (A) (A) (A) (A) (A) (A) (A) (A) (A) (A)
                 (A) (A) (A) (A) (A) (A) (A) (A) (A) (A) (A) (A)
                 (A) (A) (A) (A) (A) (A) (A) (A) (A) (A) (A) (A)
                 (A) (A) (A) (A) (A) (A) (A) (A) (A) (A) (A) (A)
                 (A) (A) (A) (A) (A) (A) (A) (A) (A) (A) (A) (A)
                 (A) (A) (A) (A) (A) (A) (A) (A) (A) (A) (A) (A)
                 (A) (A) (A) (A) (A) (A) (A) (A) (A) (A) (A) (A)
                 (A) (A) (A) (A) (A) (A)
 The electronic state is 1-A.
 Alpha  occ. eigenvalues --   -1.86517  -1.82817  -1.81111  -1.73990  -1.73176
 Alpha  occ. eigenvalues --   -1.71423  -1.64970  -1.60312  -1.59269  -1.58653
 Alpha  occ. eigenvalues --   -1.54329  -1.52857  -1.49050  -1.48161  -1.47471
 Alpha  occ. eigenvalues --   -1.45614  -1.41920  -1.40037  -1.37453  -1.37295
 Alpha  occ. eigenvalues --   -1.36289  -1.34865  -1.32694  -1.31344  -1.28177
 Alpha  occ. eigenvalues --   -1.27126  -1.25913  -1.22786  -1.21096  -1.18186
 Alpha  occ. eigenvalues --   -1.16966  -1.16141  -1.15227  -1.14443  -1.12477
 Alpha  occ. eigenvalues --   -1.12361  -1.09747  -1.09264  -1.05462  -1.04770
 Alpha  occ. eigenvalues --   -1.02613  -1.02020  -0.98867  -0.97605  -0.97532
 Alpha  occ. eigenvalues --   -0.95613  -0.94615  -0.93658  -0.93471  -0.92662
 Alpha  occ. eigenvalues --   -0.91200  -0.90202  -0.88862  -0.88701  -0.87475
 Alpha  occ. eigenvalues --   -0.86623  -0.85780  -0.84030  -0.82727  -0.80762
 Alpha  occ. eigenvalues --   -0.79654  -0.78872  -0.77235  -0.76654  -0.75682
 Alpha  occ. eigenvalues --   -0.75358  -0.74669  -0.74090  -0.73206  -0.73031
 Alpha  occ. eigenvalues --   -0.72656  -0.72511  -0.71744  -0.71128  -0.70981
 Alpha  occ. eigenvalues --   -0.70558  -0.70336  -0.68736  -0.68426  -0.67878
 Alpha  occ. eigenvalues --   -0.67393  -0.67004  -0.66562  -0.65734  -0.65619
 Alpha  occ. eigenvalues --   -0.65525  -0.64843  -0.64601  -0.63770  -0.63513
 Alpha  occ. eigenvalues --   -0.63339  -0.63141  -0.62779  -0.62436  -0.61957
 Alpha  occ. eigenvalues --   -0.61934  -0.61301  -0.60993  -0.60769  -0.60098
 Alpha  occ. eigenvalues --   -0.59777  -0.59305  -0.59044  -0.59009  -0.58684
 Alpha  occ. eigenvalues --   -0.58415  -0.57829  -0.57164  -0.57042  -0.56039
 Alpha  occ. eigenvalues --   -0.55758  -0.55193  -0.54900  -0.54626  -0.54418
 Alpha  occ. eigenvalues --   -0.54024  -0.53706  -0.53491  -0.53409  -0.52994
 Alpha  occ. eigenvalues --   -0.52677  -0.52595  -0.52078  -0.51778  -0.51762
 Alpha  occ. eigenvalues --   -0.51454  -0.51289  -0.50994  -0.50811  -0.50602
 Alpha  occ. eigenvalues --   -0.50314  -0.50027  -0.49986  -0.49579  -0.49329
 Alpha  occ. eigenvalues --   -0.49052  -0.48898  -0.48550  -0.48155  -0.47821
 Alpha  occ. eigenvalues --   -0.47452  -0.46899  -0.46580  -0.46492  -0.46410
 Alpha  occ. eigenvalues --   -0.46325  -0.45936  -0.45881  -0.45471  -0.45436
 Alpha  occ. eigenvalues --   -0.45232  -0.45068  -0.44674  -0.44022  -0.43792
 Alpha  occ. eigenvalues --   -0.43660  -0.43189  -0.43114  -0.42744  -0.42610
 Alpha  occ. eigenvalues --   -0.41968  -0.41719  -0.41422  -0.39895  -0.38748
 Alpha  occ. eigenvalues --   -0.38068  -0.37586  -0.35354  -0.34774  -0.33951
 Alpha  occ. eigenvalues --   -0.33373  -0.32660  -0.32539  -0.31926  -0.26905
 Alpha  occ. eigenvalues --   -0.21852
 Alpha virt. eigenvalues --   -0.08904  -0.02023  -0.00273   0.00849   0.00992
 Alpha virt. eigenvalues --    0.01671   0.01892   0.02862   0.03831   0.04403
 Alpha virt. eigenvalues --    0.06213   0.06537   0.07712   0.08034   0.08359
 Alpha virt. eigenvalues --    0.08569   0.08630   0.08899   0.09587   0.09652
 Alpha virt. eigenvalues --    0.09771   0.10155   0.10329   0.10480   0.10678
 Alpha virt. eigenvalues --    0.10803   0.11238   0.11502   0.11567   0.12203
 Alpha virt. eigenvalues --    0.12263   0.12891   0.12924   0.13157   0.13229
 Alpha virt. eigenvalues --    0.13385   0.13643   0.13781   0.14267   0.14342
 Alpha virt. eigenvalues --    0.14923   0.15414   0.15521   0.15607   0.15834
 Alpha virt. eigenvalues --    0.15945   0.16136   0.16147   0.16888   0.16977
 Alpha virt. eigenvalues --    0.17056   0.17461   0.17599   0.17872   0.18000
 Alpha virt. eigenvalues --    0.18217   0.18616   0.18801   0.19322   0.19325
 Alpha virt. eigenvalues --    0.19406   0.19715   0.20025   0.20261   0.20999
 Alpha virt. eigenvalues --    0.21385   0.21423   0.22005   0.22803   0.23056
 Alpha virt. eigenvalues --    0.23572   0.23655   0.23718   0.23995   0.24010
 Alpha virt. eigenvalues --    0.24113   0.24137   0.24460   0.24494   0.24717
 Alpha virt. eigenvalues --    0.24778   0.24816   0.24818   0.24991   0.25081
 Alpha virt. eigenvalues --    0.25081   0.25195   0.25228   0.25352   0.25361
 Alpha virt. eigenvalues --    0.25537   0.25760   0.25833   0.25916   0.26032
 Alpha virt. eigenvalues --    0.26033   0.26036   0.26215   0.26323   0.26345
 Alpha virt. eigenvalues --    0.26351   0.26389   0.26417   0.26558   0.26641
 Alpha virt. eigenvalues --    0.26683   0.26707   0.26768   0.26889   0.26950
 Alpha virt. eigenvalues --    0.27213   0.27216   0.27295   0.27425   0.27963
 Alpha virt. eigenvalues --    0.28319   0.28343   0.28610   0.28728   0.29284
 Alpha virt. eigenvalues --    0.29782   0.29865   0.29918   0.30559   0.30959
 Alpha virt. eigenvalues --    0.31249   0.31642   0.32387   0.34000   0.34738
 Alpha virt. eigenvalues --    0.35135   0.35760   0.35840   0.35993   0.36085
 Alpha virt. eigenvalues --    0.36429   0.36493   0.36948   0.37218   0.38050
 Alpha virt. eigenvalues --    0.39007   0.39339   0.39478   0.40517   0.40799
 Alpha virt. eigenvalues --    0.41503   0.42022   0.42217   0.42327   0.42756
 Alpha virt. eigenvalues --    0.43227   0.44689   0.44720   0.45164   0.46002
 Alpha virt. eigenvalues --    0.47249   0.47306   0.48334   0.51003   0.53095
 Alpha virt. eigenvalues --    0.54907   0.55739
          Condensed to atoms (all electrons):
 Mulliken charges:
               1
     1  Mg   0.435399
     2  C   -0.061642
     3  C   -0.065760
     4  C   -0.079387
     5  C   -0.106062
     6  N   -0.275161
     7  C    0.133165
     8  C    0.021277
     9  C    0.001971
    10  C    0.084500
    11  C   -0.055558
    12  C   -0.007155
    13  C   -0.002950
    14  C    0.480371
    15  O   -0.510691
    16  O   -0.273729
    17  N   -0.301422
    18  C    0.078506
    19  C    0.021841
    20  C   -0.053263
    21  C    0.103551
    22  C   -0.042716
    23  C    0.323069
    24  O   -0.540058
    25  C   -0.027900
    26  N   -0.305002
    27  C    0.113087
    28  C    0.000364
    29  C   -0.000775
    30  C    0.156210
    31  C   -0.057062
    32  C   -0.020305
    33  C   -0.051556
    34  N   -0.313335
    35  C    0.145068
    36  C    0.046756
    37  C   -0.038834
    38  C    0.133361
    39  C   -0.031169
    40  C    0.340576
    41  O   -0.499212
    42  C    0.055236
    43  C    0.498146
    44  O   -0.545158
    45  O   -0.264274
    46  C    0.077074
    47  C    0.103662
    48  C   -0.077223
    49  C   -0.025831
    50  C   -0.048667
    51  C   -0.024349
    52  C   -0.034284
    53  C   -0.047853
    54  C   -0.026318
    55  C   -0.058328
    56  C   -0.030432
    57  C   -0.037179
    58  C   -0.029988
    59  C   -0.002354
    60  C   -0.061979
    61  C   -0.037394
    62  C   -0.048849
    63  C   -0.048350
    64  C   -0.004851
    65  C   -0.049805
    66  C   -0.062332
    67  H    0.022687
    68  H    0.024290
    69  H    0.029172
    70  H    0.022675
    71  H    0.031375
    72  H    0.034518
    73  H    0.046530
    74  H    0.015616
    75  H    0.019832
    76  H    0.031490
    77  H    0.050288
    78  H    0.025865
    79  H    0.049153
    80  H    0.039269
    81  H    0.010436
    82  H    0.018569
    83  H    0.040640
    84  H    0.041928
    85  H    0.023790
    86  H    0.034330
    87  H    0.025079
    88  H    0.029133
    89  H    0.012923
    90  H    0.030299
    91  H    0.019986
    92  H    0.021002
    93  H    0.013916
    94  H    0.021630
    95  H    0.034673
    96  H    0.028862
    97  H    0.041157
    98  H    0.057817
    99  H    0.057445
   100  H    0.046441
   101  H    0.026319
   102  H    0.043313
   103  H    0.048195
   104  H    0.029842
   105  H    0.018857
   106  H    0.037950
   107  H    0.032839
   108  H    0.026388
   109  H    0.033648
   110  H    0.016846
   111  H    0.021950
   112  H    0.019093
   113  H    0.019512
   114  H    0.011581
   115  H    0.023328
   116  H    0.016319
   117  H    0.024012
   118  H    0.023681
   119  H    0.018488
   120  H    0.014367
   121  H    0.024927
   122  H    0.022276
   123  H    0.012583
   124  H    0.016930
   125  H    0.013815
   126  H    0.002854
   127  H    0.027176
   128  H    0.018751
   129  H    0.017002
   130  H    0.025686
   131  H    0.022475
   132  H    0.005410
   133  H    0.028686
   134  H    0.022318
   135  H    0.017565
   136  H    0.013346
   137  H    0.025674
   138  H    0.020229
   139  H    0.020685
   140  H    0.015582
 Sum of Mulliken charges =  -0.00000
 Mulliken charges with hydrogens summed into heavy atoms:
               1
     1  Mg   0.435399
     2  C   -0.061642
     3  C   -0.043073
     4  C   -0.055098
     5  C   -0.076891
     6  N   -0.275161
     7  C    0.133165
     8  C    0.043952
     9  C    0.033346
    10  C    0.084500
    11  C    0.041106
    12  C    0.044168
    13  C    0.073203
    14  C    0.480371
    15  O   -0.510691
    16  O   -0.273729
    17  N   -0.301422
    18  C    0.078506
    19  C    0.021841
    20  C   -0.053263
    21  C    0.103551
    22  C    0.056142
    23  C    0.323069
    24  O   -0.540058
    25  C    0.073236
    26  N   -0.305002
    27  C    0.113087
    28  C    0.024155
    29  C    0.033555
    30  C    0.156210
    31  C    0.010074
    32  C    0.029980
    33  C    0.004992
    34  N   -0.313335
    35  C    0.145068
    36  C    0.046756
    37  C   -0.038834
    38  C    0.133361
    39  C    0.073523
    40  C    0.340576
    41  O   -0.499212
    42  C    0.113052
    43  C    0.498146
    44  O   -0.545158
    45  O   -0.264274
    46  C    0.207279
    47  C    0.195169
    48  C   -0.047381
    49  C   -0.025831
    50  C    0.040979
    51  C    0.035686
    52  C    0.004512
    53  C   -0.009249
    54  C   -0.014737
    55  C    0.005331
    56  C    0.011736
    57  C    0.002115
    58  C    0.004871
    59  C    0.014577
    60  C   -0.018135
    61  C   -0.001641
    62  C   -0.000688
    63  C   -0.014254
    64  C    0.017466
    65  C    0.006779
    66  C   -0.005836
 Charge=              0.0000 electrons
 Dipole moment (field-independent basis, Debye):
    X=             -1.6100    Y=              2.5889    Z=              2.2006  Tot=              3.7600
 N-N= 4.307137556242D+03 E-N= 0.000000000000D+00  KE=-9.288244303308D+03
 Leave Link  601 at Wed Apr 27 06:49:34 2022, MaxMem=  6710886400 cpu:               1.0 elap:               0.1
 (Enter /sw/apps/gaussian-16.0/g16/l9999.exe)
 1\1\GINC-BP1-COMPUTE174\SP\RZINDO CIS\STO-3G\C55H74Mg1N4O6\OF15641\27-
 Apr-2022\0\\#p ZINDO=(nstates=5)\\step_1101_chromophore_17 ZINDO\\0,1\
 Mg,0,28.869,59.549,41.4\C,0,25.737,58.261,40.461\C,0,30.394,56.839,40.
 01\C,0,31.792,61.252,41.563\C,0,27.127,62.613,42.211\N,0,28.165,57.815
 ,40.325\C,0,26.882,57.408,40.149\C,0,26.786,56.22,39.23\C,0,28.173,55.
 582,39.416\C,0,28.994,56.759,39.913\C,0,28.234,54.366,40.43\C,0,26.409
 ,56.51,37.862\C,0,25.976,55.217,37.116\C,0,25.202,55.57,35.906\O,0,24.
 09,56.109,35.924\O,0,25.936,55.151,34.773\N,0,30.857,59.108,40.871\C,0
 ,31.266,57.944,40.365\C,0,32.695,57.968,40.262\C,0,33.144,59.161,40.81
 1\C,0,31.941,59.917,41.052\C,0,33.581,56.83,39.754\C,0,34.572,59.477,4
 1.044\O,0,35.429,58.616,40.865\C,0,35.14,60.817,41.498\N,0,29.326,61.5
 51,41.737\C,0,30.665,61.942,41.853\C,0,30.784,63.421,42.189\C,0,29.352
 ,63.911,42.306\C,0,28.54,62.687,42.033\C,0,31.69,63.885,43.422\C,0,28.
 848,65.203,41.514\C,0,27.941,66.114,42.269\N,0,26.816,60.289,41.531\C,
 0,26.321,61.49,41.811\C,0,24.868,61.513,41.633\C,0,24.596,60.235,41.09
 9\C,0,25.8,59.56,41.075\C,0,23.977,62.619,42.018\C,0,23.534,59.366,40.
 68\O,0,22.342,59.523,40.573\C,0,24.239,57.982,40.268\C,0,23.707,56.97,
 41.205\O,0,23.493,57.164,42.434\O,0,23.466,55.795,40.611\C,0,23.482,54
 .651,41.588\C,0,25.474,55.602,33.501\C,0,26.517,55.275,32.398\C,0,26.6
 62,55.693,31.117\C,0,25.513,56.422,30.344\C,0,27.759,55.059,30.215\C,0
 ,29.128,54.624,30.83\C,0,30.158,55.817,30.987\C,0,31.341,55.912,29.87\
 C,0,31.315,57.266,29.066\C,0,32.719,55.529,30.473\C,0,33.945,55.9,29.6
 48\C,0,35.207,55.139,30.073\C,0,35.905,54.386,28.962\C,0,37.14,53.648,
 29.451\C,0,36.289,55.251,27.726\C,0,35.472,54.854,26.411\C,0,36.4,54.1
 2,25.384\C,0,36.775,54.914,24.065\C,0,36.707,53.996,22.862\C,0,38.158,
 55.626,24.304\H,0,30.933,55.955,39.662\H,0,32.685,61.837,41.79\H,0,26.
 674,63.592,42.385\H,0,25.945,55.687,39.674\H,0,28.631,55.399,38.443\H,
 0,27.225,53.954,40.463\H,0,28.806,54.698,41.296\H,0,28.872,53.655,39.9
 05\H,0,27.282,56.945,37.375\H,0,25.652,57.275,37.688\H,0,25.576,54.46,
 37.789\H,0,26.97,54.796,36.966\H,0,33.915,56.379,40.688\H,0,34.366,57.
 17,39.077\H,0,32.975,56.202,39.101\H,0,34.615,61.635,41.005\H,0,36.174
 ,60.976,41.192\H,0,34.977,60.878,42.574\H,0,31.218,63.934,41.331\H,0,2
 9.277,64.019,43.388\H,0,32.581,63.268,43.544\H,0,31.109,64.016,44.334\
 H,0,32.117,64.855,43.167\H,0,28.396,64.89,40.574\H,0,29.767,65.776,41.
 387\H,0,27.326,66.736,41.619\H,0,28.601,66.775,42.83\H,0,27.306,65.625
 ,43.008\H,0,23.794,63.233,41.136\H,0,24.471,63.218,42.783\H,0,22.973,6
 2.304,42.305\H,0,24.022,57.754,39.225\H,0,22.599,54.802,42.209\H,0,24.
 423,54.564,42.132\H,0,23.359,53.726,41.025\H,0,25.21,56.659,33.536\H,0
 ,24.474,55.205,33.327\H,0,27.233,54.549,32.782\H,0,24.62,56.342,30.964
 \H,0,25.289,56.011,29.36\H,0,25.823,57.465,30.402\H,0,27.929,55.955,29
 .619\H,0,27.348,54.208,29.671\H,0,29.476,53.815,30.189\H,0,29.096,54.1
 29,31.801\H,0,30.609,55.799,31.98\H,0,29.663,56.781,30.868\H,0,30.993,
 55.126,29.2\H,0,31.511,57.115,28.004\H,0,32.146,57.864,29.438\H,0,30.4
 03,57.827,29.274\H,0,32.742,54.48,30.769\H,0,32.719,56.21,31.324\H,0,3
 4.065,56.955,29.896\H,0,33.77,55.844,28.574\H,0,35.003,54.521,30.947\H
 ,0,35.976,55.862,30.346\H,0,35.28,53.537,28.684\H,0,37.157,52.76,28.82
 \H,0,36.958,53.261,30.454\H,0,38.107,54.14,29.552\H,0,37.349,55.141,27
 .497\H,0,36.209,56.314,27.95\H,0,34.993,55.739,25.991\H,0,34.775,54.04
 4,26.63\H,0,35.8,53.261,25.084\H,0,37.206,53.745,26.015\H,0,36.022,55.
 696,23.97\H,0,37.431,53.182,22.907\H,0,37.074,54.618,22.046\H,0,35.72,
 53.56,22.711\H,0,38.063,56.7,24.147\H,0,38.957,55.134,23.75\H,0,38.583
 ,55.569,25.306\\Version=ES64L-G16RevA.03\State=1-A\HF=-474.2825353\RMS
 D=8.914e-09\PG=C01 [X(C55H74Mg1N4O6)]\\@


 ERROR IS THE FORCE THAT WELDS MEN TOGETHER....
 TRUTH IS COMMUNICATED TO MEN ONLY BY DEEDS OF TRUTH.
           TOLSTOI,MY RELIGION
 Job cpu time:       0 days  0 hours  3 minutes  4.4 seconds.
 Elapsed time:       0 days  0 hours  0 minutes  8.0 seconds.
 File lengths (MBytes):  RWF=   1263 Int=      0 D2E=      0 Chk=     38 Scr=      1
 Normal termination of Gaussian 16 at Wed Apr 27 06:49:35 2022.
