 Entering Gaussian System, Link 0=g16
 Initial command:
 /sw/apps/gaussian-16.0/g16/l1.exe "/tmp/Gau-48760.inp" -scrdir="/tmp/"
 Entering Link 1 = /sw/apps/gaussian-16.0/g16/l1.exe PID=     48761.
  
 Copyright (c) 1988,1990,1992,1993,1995,1998,2003,2009,2016,
            Gaussian, Inc.  All Rights Reserved.
  
 This is part of the Gaussian(R) 16 program.  It is based on
 the Gaussian(R) 09 system (copyright 2009, Gaussian, Inc.),
 the Gaussian(R) 03 system (copyright 2003, Gaussian, Inc.),
 the Gaussian(R) 98 system (copyright 1998, Gaussian, Inc.),
 the Gaussian(R) 94 system (copyright 1995, Gaussian, Inc.),
 the Gaussian 92(TM) system (copyright 1992, Gaussian, Inc.),
 the Gaussian 90(TM) system (copyright 1990, Gaussian, Inc.),
 the Gaussian 88(TM) system (copyright 1988, Gaussian, Inc.),
 the Gaussian 86(TM) system (copyright 1986, Carnegie Mellon
 University), and the Gaussian 82(TM) system (copyright 1983,
 Carnegie Mellon University). Gaussian is a federally registered
 trademark of Gaussian, Inc.
  
 This software contains proprietary and confidential information,
 including trade secrets, belonging to Gaussian, Inc.
  
 This software is provided under written license and may be
 used, copied, transmitted, or stored only in accord with that
 written license.
  
 The following legend is applicable only to US Government
 contracts under FAR:
  
                    RESTRICTED RIGHTS LEGEND
  
 Use, reproduction and disclosure by the US Government is
 subject to restrictions as set forth in subparagraphs (a)
 and (c) of the Commercial Computer Software - Restricted
 Rights clause in FAR 52.227-19.
  
 Gaussian, Inc.
 340 Quinnipiac St., Bldg. 40, Wallingford CT 06492
  
  
 ---------------------------------------------------------------
 Warning -- This program may not be used in any manner that
 competes with the business of Gaussian, Inc. or will provide
 assistance to any competitor of Gaussian, Inc.  The licensee
 of this program is prohibited from giving any competitor of
 Gaussian, Inc. access to this program.  By using this program,
 the user acknowledges that Gaussian, Inc. is engaged in the
 business of creating and licensing software in the field of
 computational chemistry and represents and warrants to the
 licensee that it is not a competitor of Gaussian, Inc. and that
 it will not use this program in any manner prohibited above.
 ---------------------------------------------------------------
  

 Cite this work as:
 Gaussian 16, Revision A.03,
 M. J. Frisch, G. W. Trucks, H. B. Schlegel, G. E. Scuseria, 
 M. A. Robb, J. R. Cheeseman, G. Scalmani, V. Barone, 
 G. A. Petersson, H. Nakatsuji, X. Li, M. Caricato, A. V. Marenich, 
 J. Bloino, B. G. Janesko, R. Gomperts, B. Mennucci, H. P. Hratchian, 
 J. V. Ortiz, A. F. Izmaylov, J. L. Sonnenberg, D. Williams-Young, 
 F. Ding, F. Lipparini, F. Egidi, J. Goings, B. Peng, A. Petrone, 
 T. Henderson, D. Ranasinghe, V. G. Zakrzewski, J. Gao, N. Rega, 
 G. Zheng, W. Liang, M. Hada, M. Ehara, K. Toyota, R. Fukuda, 
 J. Hasegawa, M. Ishida, T. Nakajima, Y. Honda, O. Kitao, H. Nakai, 
 T. Vreven, K. Throssell, J. A. Montgomery, Jr., J. E. Peralta, 
 F. Ogliaro, M. J. Bearpark, J. J. Heyd, E. N. Brothers, K. N. Kudin, 
 V. N. Staroverov, T. A. Keith, R. Kobayashi, J. Normand, 
 K. Raghavachari, A. P. Rendell, J. C. Burant, S. S. Iyengar, 
 J. Tomasi, M. Cossi, J. M. Millam, M. Klene, C. Adamo, R. Cammi, 
 J. W. Ochterski, R. L. Martin, K. Morokuma, O. Farkas, 
 J. B. Foresman, and D. J. Fox, Gaussian, Inc., Wallingford CT, 2016.
 
 ******************************************
 Gaussian 16:  ES64L-G16RevA.03 25-Dec-2016
                29-Apr-2022 
 ******************************************
 %nproc=24
 Will use up to   24 processors via shared memory.
 %mem=75GB
 ---------------------------------
 #p PBE1PBE/Def2SVP td=(nstates=5)
 ---------------------------------
 1/38=1,172=1/1;
 2/12=2,17=6,18=5,40=1/2;
 3/5=43,7=101,11=9,25=1,30=1,74=-13/1,2,3,8;
 4//1;
 5/5=2,38=5/2;
 8/6=1,10=1,108=5/1;
 9/41=5,42=1,70=2/14;
 6/7=2,8=2,9=2,10=2/1;
 99/5=1,9=1/99;
 Leave Link    1 at Fri Apr 29 12:07:24 2022, MaxMem= 10066329600 cpu:               0.6 elap:               0.0
 (Enter /sw/apps/gaussian-16.0/g16/l101.exe)
 -----------------------------------------------------
 step_301_chromophore_17 TDDFT with PBE1PBE functional
 -----------------------------------------------------
 Symbolic Z-matrix:
 Charge =  0 Multiplicity = 1
 Mg                    29.411    59.43     41.775 
 C                     26.283    58.083    40.766 
 C                     30.959    56.526    40.45 
 C                     32.464    60.824    42.089 
 C                     27.798    62.231    42.798 
 N                     28.676    57.607    40.591 
 C                     27.406    57.272    40.375 
 C                     27.415    55.998    39.619 
 C                     28.828    55.413    39.753 
 C                     29.538    56.523    40.451 
 C                     28.984    54.006    40.265 
 C                     26.813    56.078    38.135 
 C                     26.113    54.833    37.704 
 C                     26.646    54.262    36.383 
 O                     27.397    53.295    36.377 
 O                     26.22     54.983    35.271 
 N                     31.442    58.796    41.231 
 C                     31.928    57.514    40.786 
 C                     33.27     57.454    40.635 
 C                     33.7      58.773    40.966 
 C                     32.528    59.536    41.481 
 C                     33.973    56.225    40.081 
 C                     35.075    59.221    40.876 
 O                     35.952    58.412    40.567 
 C                     35.564    60.632    41.14 
 N                     30.067    61.296    42.301 
 C                     31.38     61.643    42.444 
 C                     31.527    63.083    42.95 
 C                     29.989    63.54     43.109 
 C                     29.222    62.324    42.625 
 C                     32.298    63.276    44.299 
 C                     29.63     64.853    42.254 
 C                     29.1      65.957    43.202 
 N                     27.44     59.991    41.912 
 C                     26.931    61.209    42.411 
 C                     25.453    61.033    42.519 
 C                     25.196    59.848    41.828 
 C                     26.434    59.309    41.399 
 C                     24.544    62.131    42.901 
 C                     24.098    58.978    41.313 
 O                     22.893    59.001    41.422 
 C                     24.831    57.784    40.622 
 C                     24.383    56.492    41.179 
 O                     24.343    56.263    42.349 
 O                     24.008    55.623    40.209 
 C                     23.484    54.422    40.896 
 C                     26.685    54.534    33.998 
 C                     26.539    55.853    33.157 
 C                     26.504    55.816    31.807 
 C                     26.702    54.53     30.935 
 C                     26.202    57.056    31.008 
 C                     27.442    57.79     30.318 
 C                     27.443    57.679    28.776 
 C                     28.59     56.752    28.226 
 C                     28.255    55.968    26.977 
 C                     29.975    57.546    28.1 
 C                     31.263    56.63     28.264 
 C                     32.272    57.029    29.312 
 C                     32.45     56.129    30.547 
 C                     31.313    56.509    31.62 
 C                     33.87     56.225    31.124 
 C                     34.604    54.901    30.916 
 C                     36.159    55.013    31.161 
 C                     36.956    54.903    29.75 
 C                     37.701    53.494    29.673 
 C                     37.749    56.173    29.358 
 H                     31.471    55.644    40.059 
 H                     33.4      61.288    42.405 
 H                     27.432    63.187    43.178 
 H                     26.748    55.405    40.245 
 H                     29.242    55.588    38.76 
 H                     29.758    54.142    41.02 
 H                     29.314    53.437    39.396 
 H                     28.012    53.626    40.581 
 H                     27.633    56.185    37.425 
 H                     26.169    56.939    37.954 
 H                     25.064    55.021    37.477 
 H                     26.121    54.058    38.47 
 H                     34.033    56.344    39. 
 H                     33.613    55.214    40.275 
 H                     34.928    56.048    40.577 
 H                     34.722    61.286    40.916 
 H                     36.446    60.831    40.531 
 H                     35.753    60.599    42.214 
 H                     32.108    63.555    42.157 
 H                     29.898    63.723    44.18 
 H                     31.957    64.079    44.952 
 H                     33.295    63.442    43.889 
 H                     32.275    62.328    44.837 
 H                     28.861    64.606    41.522 
 H                     30.496    65.151    41.663 
 H                     29.519    66.945    43.014 
 H                     29.156    65.592    44.228 
 H                     28.022    66.078    43.1 
 H                     23.627    61.645    43.233 
 H                     24.431    62.728    41.996 
 H                     24.856    62.7      43.777 
 H                     24.542    57.755    39.572 
 H                     24.365    53.876    41.231 
 H                     22.931    53.805    40.188 
 H                     22.75     54.622    41.677 
 H                     26.041    53.745    33.609 
 H                     27.726    54.212    34.022 
 H                     26.297    56.815    33.61 
 H                     25.932    53.832    31.263 
 H                     27.688    54.129    31.171 
 H                     26.657    54.685    29.857 
 H                     25.745    57.741    31.722 
 H                     25.415    56.821    30.292 
 H                     28.201    57.096    30.679 
 H                     27.597    58.809    30.672 
 H                     27.567    58.673    28.346 
 H                     26.539    57.103    28.58 
 H                     28.721    55.977    28.981 
 H                     28.651    56.568    26.158 
 H                     27.177    55.832    26.902 
 H                     28.799    55.025    26.917 
 H                     30.018    58.327    28.859 
 H                     30.08     58.129    27.185 
 H                     31.701    56.588    27.267 
 H                     30.912    55.628    28.511 
 H                     31.999    58.031    29.643 
 H                     33.272    57.105    28.885 
 H                     32.117    55.138    30.239 
 H                     30.696    57.367    31.352 
 H                     31.818    56.667    32.573 
 H                     30.675    55.633    31.736 
 H                     33.87     56.459    32.188 
 H                     34.389    57.062    30.657 
 H                     34.491    54.496    29.91 
 H                     34.23     54.213    31.674 
 H                     36.371    54.248    31.908 
 H                     36.435    55.922    31.696 
 H                     36.325    54.818    28.866 
 H                     38.688    53.524    29.212 
 H                     37.036    52.833    29.116 
 H                     37.777    52.906    30.587 
 H                     37.195    56.96     28.847 
 H                     38.59     55.833    28.753 
 H                     38.154    56.641    30.256 
 
 ITRead=  0  0  0  0  0  0  0  0  0  0  0  0  0  0  0  0  0  0  0  0
 ITRead=  0  0  0  0  0  0  0  0  0  0  0  0  0  0  0  0  0  0  0  0
 ITRead=  0  0  0  0  0  0  0  0  0  0  0  0  0  0  0  0  0  0  0  0
 ITRead=  0  0  0  0  0  0  0  0  0  0  0  0  0  0  0  0  0  0  0  0
 ITRead=  0  0  0  0  0  0  0  0  0  0  0  0  0  0  0  0  0  0  0  0
 ITRead=  0  0  0  0  0  0  0  0  0  0  0  0  0  0  0  0  0  0  0  0
 ITRead=  0  0  0  0  0  0  0  0  0  0  0  0  0  0  0  0  0  0  0  0
 MicOpt= -1 -1 -1 -1 -1 -1 -1 -1 -1 -1 -1 -1 -1 -1 -1 -1 -1 -1 -1 -1
 MicOpt= -1 -1 -1 -1 -1 -1 -1 -1 -1 -1 -1 -1 -1 -1 -1 -1 -1 -1 -1 -1
 MicOpt= -1 -1 -1 -1 -1 -1 -1 -1 -1 -1 -1 -1 -1 -1 -1 -1 -1 -1 -1 -1
 MicOpt= -1 -1 -1 -1 -1 -1 -1 -1 -1 -1 -1 -1 -1 -1 -1 -1 -1 -1 -1 -1
 MicOpt= -1 -1 -1 -1 -1 -1 -1 -1 -1 -1 -1 -1 -1 -1 -1 -1 -1 -1 -1 -1
 MicOpt= -1 -1 -1 -1 -1 -1 -1 -1 -1 -1 -1 -1 -1 -1 -1 -1 -1 -1 -1 -1
 MicOpt= -1 -1 -1 -1 -1 -1 -1 -1 -1 -1 -1 -1 -1 -1 -1 -1 -1 -1 -1 -1
 NAtoms=    140 NQM=      140 NQMF=       0 NMMI=      0 NMMIF=      0
                NMic=       0 NMicF=      0.
                    Isotopes and Nuclear Properties:
 (Nuclear quadrupole moments (NQMom) in fm**2, nuclear magnetic moments (NMagM)
  in nuclear magnetons)

  Atom         1           2           3           4           5           6           7           8           9          10
 IAtWgt=          24          12          12          12          12          14          12          12          12          12
 AtmWgt=  23.9850450  12.0000000  12.0000000  12.0000000  12.0000000  14.0030740  12.0000000  12.0000000  12.0000000  12.0000000
 NucSpn=           0           0           0           0           0           2           0           0           0           0
 AtZEff=  -0.0000000  -0.0000000  -0.0000000  -0.0000000  -0.0000000  -0.0000000  -0.0000000  -0.0000000  -0.0000000  -0.0000000
 NQMom=    0.0000000   0.0000000   0.0000000   0.0000000   0.0000000   2.0440000   0.0000000   0.0000000   0.0000000   0.0000000
 NMagM=    0.0000000   0.0000000   0.0000000   0.0000000   0.0000000   0.4037610   0.0000000   0.0000000   0.0000000   0.0000000
 AtZNuc=  12.0000000   6.0000000   6.0000000   6.0000000   6.0000000   7.0000000   6.0000000   6.0000000   6.0000000   6.0000000

  Atom        11          12          13          14          15          16          17          18          19          20
 IAtWgt=          12          12          12          12          16          16          14          12          12          12
 AtmWgt=  12.0000000  12.0000000  12.0000000  12.0000000  15.9949146  15.9949146  14.0030740  12.0000000  12.0000000  12.0000000
 NucSpn=           0           0           0           0           0           0           2           0           0           0
 AtZEff=  -0.0000000  -0.0000000  -0.0000000  -0.0000000  -0.0000000  -0.0000000  -0.0000000  -0.0000000  -0.0000000  -0.0000000
 NQMom=    0.0000000   0.0000000   0.0000000   0.0000000   0.0000000   0.0000000   2.0440000   0.0000000   0.0000000   0.0000000
 NMagM=    0.0000000   0.0000000   0.0000000   0.0000000   0.0000000   0.0000000   0.4037610   0.0000000   0.0000000   0.0000000
 AtZNuc=   6.0000000   6.0000000   6.0000000   6.0000000   8.0000000   8.0000000   7.0000000   6.0000000   6.0000000   6.0000000

  Atom        21          22          23          24          25          26          27          28          29          30
 IAtWgt=          12          12          12          16          12          14          12          12          12          12
 AtmWgt=  12.0000000  12.0000000  12.0000000  15.9949146  12.0000000  14.0030740  12.0000000  12.0000000  12.0000000  12.0000000
 NucSpn=           0           0           0           0           0           2           0           0           0           0
 AtZEff=  -0.0000000  -0.0000000  -0.0000000  -0.0000000  -0.0000000  -0.0000000  -0.0000000  -0.0000000  -0.0000000  -0.0000000
 NQMom=    0.0000000   0.0000000   0.0000000   0.0000000   0.0000000   2.0440000   0.0000000   0.0000000   0.0000000   0.0000000
 NMagM=    0.0000000   0.0000000   0.0000000   0.0000000   0.0000000   0.4037610   0.0000000   0.0000000   0.0000000   0.0000000
 AtZNuc=   6.0000000   6.0000000   6.0000000   8.0000000   6.0000000   7.0000000   6.0000000   6.0000000   6.0000000   6.0000000

  Atom        31          32          33          34          35          36          37          38          39          40
 IAtWgt=          12          12          12          14          12          12          12          12          12          12
 AtmWgt=  12.0000000  12.0000000  12.0000000  14.0030740  12.0000000  12.0000000  12.0000000  12.0000000  12.0000000  12.0000000
 NucSpn=           0           0           0           2           0           0           0           0           0           0
 AtZEff=  -0.0000000  -0.0000000  -0.0000000  -0.0000000  -0.0000000  -0.0000000  -0.0000000  -0.0000000  -0.0000000  -0.0000000
 NQMom=    0.0000000   0.0000000   0.0000000   2.0440000   0.0000000   0.0000000   0.0000000   0.0000000   0.0000000   0.0000000
 NMagM=    0.0000000   0.0000000   0.0000000   0.4037610   0.0000000   0.0000000   0.0000000   0.0000000   0.0000000   0.0000000
 AtZNuc=   6.0000000   6.0000000   6.0000000   7.0000000   6.0000000   6.0000000   6.0000000   6.0000000   6.0000000   6.0000000

  Atom        41          42          43          44          45          46          47          48          49          50
 IAtWgt=          16          12          12          16          16          12          12          12          12          12
 AtmWgt=  15.9949146  12.0000000  12.0000000  15.9949146  15.9949146  12.0000000  12.0000000  12.0000000  12.0000000  12.0000000
 NucSpn=           0           0           0           0           0           0           0           0           0           0
 AtZEff=  -0.0000000  -0.0000000  -0.0000000  -0.0000000  -0.0000000  -0.0000000  -0.0000000  -0.0000000  -0.0000000  -0.0000000
 NQMom=    0.0000000   0.0000000   0.0000000   0.0000000   0.0000000   0.0000000   0.0000000   0.0000000   0.0000000   0.0000000
 NMagM=    0.0000000   0.0000000   0.0000000   0.0000000   0.0000000   0.0000000   0.0000000   0.0000000   0.0000000   0.0000000
 AtZNuc=   8.0000000   6.0000000   6.0000000   8.0000000   8.0000000   6.0000000   6.0000000   6.0000000   6.0000000   6.0000000

  Atom        51          52          53          54          55          56          57          58          59          60
 IAtWgt=          12          12          12          12          12          12          12          12          12          12
 AtmWgt=  12.0000000  12.0000000  12.0000000  12.0000000  12.0000000  12.0000000  12.0000000  12.0000000  12.0000000  12.0000000
 NucSpn=           0           0           0           0           0           0           0           0           0           0
 AtZEff=  -0.0000000  -0.0000000  -0.0000000  -0.0000000  -0.0000000  -0.0000000  -0.0000000  -0.0000000  -0.0000000  -0.0000000
 NQMom=    0.0000000   0.0000000   0.0000000   0.0000000   0.0000000   0.0000000   0.0000000   0.0000000   0.0000000   0.0000000
 NMagM=    0.0000000   0.0000000   0.0000000   0.0000000   0.0000000   0.0000000   0.0000000   0.0000000   0.0000000   0.0000000
 AtZNuc=   6.0000000   6.0000000   6.0000000   6.0000000   6.0000000   6.0000000   6.0000000   6.0000000   6.0000000   6.0000000

  Atom        61          62          63          64          65          66          67          68          69          70
 IAtWgt=          12          12          12          12          12          12           1           1           1           1
 AtmWgt=  12.0000000  12.0000000  12.0000000  12.0000000  12.0000000  12.0000000   1.0078250   1.0078250   1.0078250   1.0078250
 NucSpn=           0           0           0           0           0           0           1           1           1           1
 AtZEff=  -0.0000000  -0.0000000  -0.0000000  -0.0000000  -0.0000000  -0.0000000  -0.0000000  -0.0000000  -0.0000000  -0.0000000
 NQMom=    0.0000000   0.0000000   0.0000000   0.0000000   0.0000000   0.0000000   0.0000000   0.0000000   0.0000000   0.0000000
 NMagM=    0.0000000   0.0000000   0.0000000   0.0000000   0.0000000   0.0000000   2.7928460   2.7928460   2.7928460   2.7928460
 AtZNuc=   6.0000000   6.0000000   6.0000000   6.0000000   6.0000000   6.0000000   1.0000000   1.0000000   1.0000000   1.0000000

  Atom        71          72          73          74          75          76          77          78          79          80
 IAtWgt=           1           1           1           1           1           1           1           1           1           1
 AtmWgt=   1.0078250   1.0078250   1.0078250   1.0078250   1.0078250   1.0078250   1.0078250   1.0078250   1.0078250   1.0078250
 NucSpn=           1           1           1           1           1           1           1           1           1           1
 AtZEff=  -0.0000000  -0.0000000  -0.0000000  -0.0000000  -0.0000000  -0.0000000  -0.0000000  -0.0000000  -0.0000000  -0.0000000
 NQMom=    0.0000000   0.0000000   0.0000000   0.0000000   0.0000000   0.0000000   0.0000000   0.0000000   0.0000000   0.0000000
 NMagM=    2.7928460   2.7928460   2.7928460   2.7928460   2.7928460   2.7928460   2.7928460   2.7928460   2.7928460   2.7928460
 AtZNuc=   1.0000000   1.0000000   1.0000000   1.0000000   1.0000000   1.0000000   1.0000000   1.0000000   1.0000000   1.0000000

  Atom        81          82          83          84          85          86          87          88          89          90
 IAtWgt=           1           1           1           1           1           1           1           1           1           1
 AtmWgt=   1.0078250   1.0078250   1.0078250   1.0078250   1.0078250   1.0078250   1.0078250   1.0078250   1.0078250   1.0078250
 NucSpn=           1           1           1           1           1           1           1           1           1           1
 AtZEff=  -0.0000000  -0.0000000  -0.0000000  -0.0000000  -0.0000000  -0.0000000  -0.0000000  -0.0000000  -0.0000000  -0.0000000
 NQMom=    0.0000000   0.0000000   0.0000000   0.0000000   0.0000000   0.0000000   0.0000000   0.0000000   0.0000000   0.0000000
 NMagM=    2.7928460   2.7928460   2.7928460   2.7928460   2.7928460   2.7928460   2.7928460   2.7928460   2.7928460   2.7928460
 AtZNuc=   1.0000000   1.0000000   1.0000000   1.0000000   1.0000000   1.0000000   1.0000000   1.0000000   1.0000000   1.0000000

  Atom        91          92          93          94          95          96          97          98          99         100
 IAtWgt=           1           1           1           1           1           1           1           1           1           1
 AtmWgt=   1.0078250   1.0078250   1.0078250   1.0078250   1.0078250   1.0078250   1.0078250   1.0078250   1.0078250   1.0078250
 NucSpn=           1           1           1           1           1           1           1           1           1           1
 AtZEff=  -0.0000000  -0.0000000  -0.0000000  -0.0000000  -0.0000000  -0.0000000  -0.0000000  -0.0000000  -0.0000000  -0.0000000
 NQMom=    0.0000000   0.0000000   0.0000000   0.0000000   0.0000000   0.0000000   0.0000000   0.0000000   0.0000000   0.0000000
 NMagM=    2.7928460   2.7928460   2.7928460   2.7928460   2.7928460   2.7928460   2.7928460   2.7928460   2.7928460   2.7928460
 AtZNuc=   1.0000000   1.0000000   1.0000000   1.0000000   1.0000000   1.0000000   1.0000000   1.0000000   1.0000000   1.0000000

  Atom       101         102         103         104         105         106         107         108         109         110
 IAtWgt=           1           1           1           1           1           1           1           1           1           1
 AtmWgt=   1.0078250   1.0078250   1.0078250   1.0078250   1.0078250   1.0078250   1.0078250   1.0078250   1.0078250   1.0078250
 NucSpn=           1           1           1           1           1           1           1           1           1           1
 AtZEff=  -0.0000000  -0.0000000  -0.0000000  -0.0000000  -0.0000000  -0.0000000  -0.0000000  -0.0000000  -0.0000000  -0.0000000
 NQMom=    0.0000000   0.0000000   0.0000000   0.0000000   0.0000000   0.0000000   0.0000000   0.0000000   0.0000000   0.0000000
 NMagM=    2.7928460   2.7928460   2.7928460   2.7928460   2.7928460   2.7928460   2.7928460   2.7928460   2.7928460   2.7928460
 AtZNuc=   1.0000000   1.0000000   1.0000000   1.0000000   1.0000000   1.0000000   1.0000000   1.0000000   1.0000000   1.0000000

  Atom       111         112         113         114         115         116         117         118         119         120
 IAtWgt=           1           1           1           1           1           1           1           1           1           1
 AtmWgt=   1.0078250   1.0078250   1.0078250   1.0078250   1.0078250   1.0078250   1.0078250   1.0078250   1.0078250   1.0078250
 NucSpn=           1           1           1           1           1           1           1           1           1           1
 AtZEff=  -0.0000000  -0.0000000  -0.0000000  -0.0000000  -0.0000000  -0.0000000  -0.0000000  -0.0000000  -0.0000000  -0.0000000
 NQMom=    0.0000000   0.0000000   0.0000000   0.0000000   0.0000000   0.0000000   0.0000000   0.0000000   0.0000000   0.0000000
 NMagM=    2.7928460   2.7928460   2.7928460   2.7928460   2.7928460   2.7928460   2.7928460   2.7928460   2.7928460   2.7928460
 AtZNuc=   1.0000000   1.0000000   1.0000000   1.0000000   1.0000000   1.0000000   1.0000000   1.0000000   1.0000000   1.0000000

  Atom       121         122         123         124         125         126         127         128         129         130
 IAtWgt=           1           1           1           1           1           1           1           1           1           1
 AtmWgt=   1.0078250   1.0078250   1.0078250   1.0078250   1.0078250   1.0078250   1.0078250   1.0078250   1.0078250   1.0078250
 NucSpn=           1           1           1           1           1           1           1           1           1           1
 AtZEff=  -0.0000000  -0.0000000  -0.0000000  -0.0000000  -0.0000000  -0.0000000  -0.0000000  -0.0000000  -0.0000000  -0.0000000
 NQMom=    0.0000000   0.0000000   0.0000000   0.0000000   0.0000000   0.0000000   0.0000000   0.0000000   0.0000000   0.0000000
 NMagM=    2.7928460   2.7928460   2.7928460   2.7928460   2.7928460   2.7928460   2.7928460   2.7928460   2.7928460   2.7928460
 AtZNuc=   1.0000000   1.0000000   1.0000000   1.0000000   1.0000000   1.0000000   1.0000000   1.0000000   1.0000000   1.0000000

  Atom       131         132         133         134         135         136         137         138         139         140
 IAtWgt=           1           1           1           1           1           1           1           1           1           1
 AtmWgt=   1.0078250   1.0078250   1.0078250   1.0078250   1.0078250   1.0078250   1.0078250   1.0078250   1.0078250   1.0078250
 NucSpn=           1           1           1           1           1           1           1           1           1           1
 AtZEff=  -0.0000000  -0.0000000  -0.0000000  -0.0000000  -0.0000000  -0.0000000  -0.0000000  -0.0000000  -0.0000000  -0.0000000
 NQMom=    0.0000000   0.0000000   0.0000000   0.0000000   0.0000000   0.0000000   0.0000000   0.0000000   0.0000000   0.0000000
 NMagM=    2.7928460   2.7928460   2.7928460   2.7928460   2.7928460   2.7928460   2.7928460   2.7928460   2.7928460   2.7928460
 AtZNuc=   1.0000000   1.0000000   1.0000000   1.0000000   1.0000000   1.0000000   1.0000000   1.0000000   1.0000000   1.0000000
 Leave Link  101 at Fri Apr 29 12:07:24 2022, MaxMem= 10066329600 cpu:               2.8 elap:               0.1
 (Enter /sw/apps/gaussian-16.0/g16/l202.exe)
 Stoichiometry    C55H74MgN4O6
 Framework group  C1[X(C55H74MgN4O6)]
 Deg. of freedom   414
 Full point group                 C1      NOp   1
 Largest Abelian subgroup         C1      NOp   1
 Largest concise Abelian subgroup C1      NOp   1
                         Standard orientation:                         
 ---------------------------------------------------------------------
 Center     Atomic      Atomic             Coordinates (Angstroms)
 Number     Number       Type             X           Y           Z
 ---------------------------------------------------------------------
      1         12           0        4.443180    1.015108   -0.258161
      2          6           0        3.825800   -2.478363   -0.435281
      3          6           0        1.868033    1.475337   -2.654397
      4          6           0        4.464386    4.347400    0.249800
      5          6           0        6.724787    0.419605    2.177727
      6          7           0        2.921951   -0.367328   -1.278035
      7          6           0        2.919720   -1.697749   -1.236150
      8          6           0        1.794373   -2.157461   -2.082880
      9          6           0        1.371675   -0.960659   -2.946443
     10          6           0        2.213333    0.126666   -2.369607
     11          6           0        1.315337   -1.129865   -4.441209
     12          6           0        0.621811   -2.926461   -1.305194
     13          6           0       -0.026379   -4.002392   -2.110183
     14          6           0       -1.550405   -3.852444   -2.210336
     15          8           0       -2.070311   -3.411158   -3.227238
     16          8           0       -2.208241   -4.220135   -1.039902
     17          7           0        3.238322    2.683816   -1.024049
     18          6           0        2.276433    2.720524   -2.096973
     19          6           0        1.792625    3.954382   -2.363222
     20          6           0        2.441122    4.780022   -1.397825
     21          6           0        3.455137    3.957919   -0.678869
     22          6           0        0.697287    4.195569   -3.389687
     23          6           0        2.178996    6.196203   -1.239234
     24          8           0        1.407796    6.756189   -2.020743
     25          6           0        2.783943    7.093576   -0.176926
     26          7           0        5.401402    2.236944    1.075217
     27          6           0        5.331070    3.600673    1.064109
     28          6           0        6.248660    4.217648    2.126472
     29          6           0        6.923634    2.909992    2.785275
     30          6           0        6.253601    1.770741    2.040721
     31          6           0        7.351365    5.203215    1.612478
     32          6           0        6.685868    2.809445    4.371854
     33          6           0        8.053704    2.755923    5.096133
     34          7           0        5.239147   -0.677500    0.590278
     35          6           0        6.233652   -0.745894    1.589221
     36          6           0        6.630505   -2.181099    1.688319
     37          6           0        5.659338   -2.858622    0.949704
     38          6           0        4.784186   -1.898546    0.384398
     39          6           0        7.574907   -2.679842    2.706733
     40          6           0        5.160399   -4.219775    0.594667
     41          8           0        5.560100   -5.340247    0.816512
     42          6           0        3.945489   -3.960685   -0.352577
     43          6           0        4.116272   -4.664037   -1.639568
     44          8           0        5.108877   -4.592298   -2.297238
     45          8           0        3.029128   -5.406604   -1.961122
     46          6           0        3.367562   -6.137323   -3.202274
     47          6           0       -3.630315   -4.093474   -1.035769
     48          6           0       -3.905098   -3.988211    0.507530
     49          6           0       -5.134076   -4.232151    1.012703
     50          6           0       -6.414725   -4.533148    0.162572
     51          6           0       -5.359948   -4.290715    2.500237
     52          6           0       -6.035442   -3.011739    3.178753
     53          6           0       -7.472762   -3.270710    3.685834
     54          6           0       -8.568744   -2.523349    2.838655
     55          6           0       -9.889560   -3.245633    2.695012
     56          6           0       -8.747203   -1.006334    3.319650
     57          6           0       -9.225908   -0.016155    2.172792
     58          6           0       -8.383434    1.208069    1.913757
     59          6           0       -7.615159    1.308740    0.584649
     60          6           0       -6.234865    0.495639    0.733485
     61          6           0       -7.403906    2.768252    0.155998
     62          6           0       -8.225478    3.063660   -1.098095
     63          6           0       -8.342757    4.606423   -1.409097
     64          6           0       -9.854380    5.122275   -1.113929
     65          6           0      -10.588951    5.423810   -2.498024
     66          6           0       -9.966882    6.171244    0.018510
     67          1           0        1.086108    1.656507   -3.395153
     68          1           0        4.682809    5.411878    0.351901
     69          1           0        7.486641    0.395980    2.959592
     70          1           0        2.320912   -2.862978   -2.725855
     71          1           0        0.430205   -0.666432   -2.482616
     72          1           0        1.858843   -0.245557   -4.773169
     73          1           0        0.251420   -1.104830   -4.676317
     74          1           0        1.707878   -2.111203   -4.709402
     75          1           0       -0.184939   -2.224090   -1.095961
     76          1           0        0.909669   -3.323626   -0.331430
     77          1           0        0.087199   -4.978648   -1.639759
     78          1           0        0.400624   -4.097673   -3.108199
     79          1           0       -0.257189    4.125274   -2.869731
     80          1           0        0.613796    3.600337   -4.299679
     81          1           0        0.854385    5.125661   -3.937063
     82          1           0        3.009871    6.444355    0.668252
     83          1           0        2.085331    7.895463    0.062498
     84          1           0        3.701059    7.423071   -0.667453
     85          1           0        5.549985    4.782980    2.744086
     86          1           0        7.980230    3.033792    2.546342
     87          1           0        8.302306    5.201073    2.144648
     88          1           0        6.794014    6.134511    1.720701
     89          1           0        7.519672    4.996336    0.555335
     90          1           0        6.123915    1.902274    4.594215
     91          1           0        6.041456    3.626493    4.696211
     92          1           0        8.120403    3.401586    5.971187
     93          1           0        8.845649    2.859347    4.353729
     94          1           0        8.264741    1.751989    5.463162
     95          1           0        7.932212   -3.636253    2.326050
     96          1           0        6.986225   -2.754542    3.621105
     97          1           0        8.489115   -2.094827    2.809028
     98          1           0        3.053175   -4.398804    0.093168
     99          1           0        3.269928   -5.404448   -4.002189
    100          1           0        2.647881   -6.939429   -3.364900
    101          1           0        4.323194   -6.661781   -3.181579
    102          1           0       -4.097499   -4.982616   -1.459730
    103          1           0       -3.972113   -3.192388   -1.544847
    104          1           0       -3.105098   -3.881695    1.240927
    105          1           0       -6.169549   -5.409951   -0.436421
    106          1           0       -6.577932   -3.674843   -0.489631
    107          1           0       -7.328600   -4.692543    0.734901
    108          1           0       -4.365968   -4.426816    2.926089
    109          1           0       -5.898891   -5.209232    2.730709
    110          1           0       -6.130630   -2.432095    2.260609
    111          1           0       -5.402200   -2.527390    3.921796
    112          1           0       -7.551849   -2.939134    4.721263
    113          1           0       -7.628537   -4.318319    3.429594
    114          1           0       -8.181621   -2.503583    1.820050
    115          1           0      -10.522919   -2.823884    3.475115
    116          1           0       -9.742238   -4.317379    2.820959
    117          1           0      -10.399901   -3.002020    1.762816
    118          1           0       -7.800989   -0.634620    3.712586
    119          1           0       -9.402756   -0.879633    4.181240
    120          1           0      -10.251323    0.239603    2.438744
    121          1           0       -9.260414   -0.592467    1.248191
    122          1           0       -7.672853    1.278246    2.737313
    123          1           0       -8.987828    2.114536    1.947358
    124          1           0       -8.153789    0.670191   -0.115328
    125          1           0       -6.033531    0.110333    1.733326
    126          1           0       -5.438784    1.160310    0.397829
    127          1           0       -6.275208   -0.337161    0.031563
    128          1           0       -6.358277    2.991589   -0.052884
    129          1           0       -7.666467    3.425164    0.985183
    130          1           0       -9.249712    2.693953   -1.042485
    131          1           0       -7.683014    2.629133   -1.937561
    132          1           0       -7.979149    4.704634   -2.431996
    133          1           0       -7.612471    5.201683   -0.860434
    134          1           0      -10.532176    4.368721   -0.714441
    135          1           0      -11.236820    6.300043   -2.489658
    136          1           0      -11.159514    4.525578   -2.736838
    137          1           0       -9.980020    5.467262   -3.400371
    138          1           0      -10.025693    5.789788    1.037548
    139          1           0      -10.836901    6.784206   -0.218663
    140          1           0       -9.089988    6.819520    0.002739
 ---------------------------------------------------------------------
 Rotational constants (GHZ):           0.0305280           0.0149711           0.0120300
 Leave Link  202 at Fri Apr 29 12:07:24 2022, MaxMem= 10066329600 cpu:               0.2 elap:               0.0
 (Enter /sw/apps/gaussian-16.0/g16/l301.exe)
 Standard basis: def2SVP (5D, 7F)
 Ernie: Thresh=  0.10000D-02 Tol=  0.10000D-05 Strict=F.
 There are  1364 symmetry adapted cartesian basis functions of A   symmetry.
 There are  1298 symmetry adapted basis functions of A   symmetry.
  1298 basis functions,  2180 primitive gaussians,  1364 cartesian basis functions
   246 alpha electrons      246 beta electrons
       nuclear repulsion energy      9766.7611558626 Hartrees.
 IExCor= 1009 DFT=T Ex+Corr=PBE1PBE ExCW=0 ScaHFX=  0.250000
 ScaDFX=  0.750000  0.750000  1.000000  1.000000 ScalE2=  1.000000  1.000000
 IRadAn=      5 IRanWt=     -1 IRanGd=            0 ICorTp=0 IEmpDi=  4
 NAtoms=  140 NActive=  140 NUniq=  140 SFac= 1.00D+00 NAtFMM=   60 NAOKFM=T Big=T
 Integral buffers will be    131072 words long.
 Regular integral format.
 Two-electron integral symmetry is turned on.
 Leave Link  301 at Fri Apr 29 12:07:24 2022, MaxMem= 10066329600 cpu:               1.3 elap:               0.1
 (Enter /sw/apps/gaussian-16.0/g16/l302.exe)
 NPDir=0 NMtPBC=     1 NCelOv=     1 NCel=       1 NClECP=     1 NCelD=      1
         NCelK=      1 NCelE2=     1 NClLst=     1 CellRange=     0.0.
 One-electron integrals computed using PRISM.
 One-electron integral symmetry used in STVInt
   1 Symmetry operations used in ECPInt.
 ECPInt:  NShTT=  192510 NPrTT=  683786 LenC2=  100452 LenP2D=  215175.
 LDataN:  DoStor=T MaxTD1= 4 Len=   56
 NBasis=  1298 RedAO= T EigKep=  2.70D-04  NBF=  1298
 NBsUse=  1298 1.00D-06 EigRej= -1.00D+00 NBFU=  1298
 Precomputing XC quadrature grid using
 IXCGrd= 4 IRadAn=           5 IRanWt=          -1 IRanGd=           0 AccXCQ= 0.00D+00.
 Generated NRdTot=       0 NPtTot=           0 NUsed=           0 NTot=          32
 NSgBfM=  1020  1020  1020  1020  1020 MxSgAt=   140 MxSgA2=   140.
 Leave Link  302 at Fri Apr 29 12:07:27 2022, MaxMem= 10066329600 cpu:              77.7 elap:               3.3
 (Enter /sw/apps/gaussian-16.0/g16/l303.exe)
 DipDrv:  MaxL=1.
 Leave Link  303 at Fri Apr 29 12:07:28 2022, MaxMem= 10066329600 cpu:               5.9 elap:               0.3
 (Enter /sw/apps/gaussian-16.0/g16/l308.exe)
 Leave Link  308 at Fri Apr 29 12:07:28 2022, MaxMem= 10066329600 cpu:              10.1 elap:               0.5
 (Enter /sw/apps/gaussian-16.0/g16/l401.exe)
 ExpMin= 3.36D-02 ExpMax= 4.95D+03 ExpMxC= 7.45D+02 IAcc=3 IRadAn=         5 AccDes= 0.00D+00
 Harris functional with IExCor= 1009 and IRadAn=       5 diagonalized for initial guess.
 HarFok:  IExCor= 1009 AccDes= 0.00D+00 IRadAn=         5 IDoV= 1 UseB2=F ITyADJ=14
 ICtDFT=  3500011 ScaDFX=  1.000000  1.000000  1.000000  1.000000
 FoFCou: FMM=F IPFlag=           0 FMFlag=      100000 FMFlg1=        2001
         NFxFlg=           0 DoJE=T BraDBF=F KetDBF=T FulRan=T
         wScrn=  0.000000 ICntrl=       500 IOpCl=  0 I1Cent=   200000004 NGrid=           0
         NMat0=    1 NMatS0=      1 NMatT0=    0 NMatD0=    1 NMtDS0=    0 NMtDT0=    0
 Petite list used in FoFCou.
 Harris En= -3006.11306191503    
 JPrj=0 DoOrth=F DoCkMO=F.
 Leave Link  401 at Fri Apr 29 12:07:34 2022, MaxMem= 10066329600 cpu:             136.6 elap:               5.7
 (Enter /sw/apps/gaussian-16.0/g16/l502.exe)
 Integral symmetry usage will be decided dynamically.
 Closed shell SCF:
 Using DIIS extrapolation, IDIIS=  1040.
 NGot= 10066329600 LenX= 10062561258 LenY= 10060699398
 Requested convergence on RMS density matrix=1.00D-08 within 128 cycles.
 Requested convergence on MAX density matrix=1.00D-06.
 Requested convergence on             energy=1.00D-06.
 No special actions if energy rises.
 Fock matrices will be formed incrementally for  20 cycles.

 Cycle   1  Pass 1  IDiag  1:
 FoFJK:  IHMeth= 1 ICntrl=       0 DoSepK=F KAlg= 0 I1Cent=           0 FoldK=F
 IRaf= 530000000 NMat=       1 IRICut=       1 DoRegI=T DoRafI=F ISym2E= 0 IDoP0=0 IntGTp=1.
 FoFCou: FMM=T IPFlag=           0 FMFlag=      100000 FMFlg1=        2001
         NFxFlg=           0 DoJE=F BraDBF=F KetDBF=F FulRan=T
         wScrn=  0.000000 ICntrl=         0 IOpCl=  0 I1Cent=           0 NGrid=           0
         NMat0=    1 NMatS0=      1 NMatT0=    0 NMatD0=    1 NMtDS0=    0 NMtDT0=    0
 Symmetry not used in FoFCou.
 FMM levels:  10  Number of levels for PrismC:   9
 E= -3003.78963058116    
 DIIS: error= 1.95D-02 at cycle   1 NSaved=   1.
 NSaved= 1 IEnMin= 1 EnMin= -3003.78963058116     IErMin= 1 ErrMin= 1.95D-02
 ErrMax= 1.95D-02  0.00D+00 EMaxC= 1.00D-01 BMatC= 1.45D+00 BMatP= 1.45D+00
 IDIUse=3 WtCom= 8.05D-01 WtEn= 1.95D-01
 Coeff-Com:  0.100D+01
 Coeff-En:   0.100D+01
 Coeff:      0.100D+01
 Gap=     0.070 Goal=   None    Shift=    0.000
 GapD=    0.070 DampG=0.500 DampE=0.500 DampFc=0.2500 IDamp=-1.
 Damping current iteration by 2.50D-01
 RMSDP=2.85D-03 MaxDP=6.34D-01              OVMax= 9.32D-01

 Cycle   2  Pass 1  IDiag  1:
 RMSU=  7.05D-04    CP:  9.88D-01
 E= -3004.23910380291     Delta-E=       -0.449473221750 Rises=F Damp=T
 DIIS: error= 1.11D-02 at cycle   2 NSaved=   2.
 NSaved= 2 IEnMin= 2 EnMin= -3004.23910380291     IErMin= 2 ErrMin= 1.11D-02
 ErrMax= 1.11D-02  0.00D+00 EMaxC= 1.00D-01 BMatC= 3.76D-01 BMatP= 1.45D+00
 IDIUse=3 WtCom= 8.89D-01 WtEn= 1.11D-01
 Coeff-Com: -0.569D+00 0.157D+01
 Coeff-En:   0.000D+00 0.100D+01
 Coeff:     -0.506D+00 0.151D+01
 Gap=    -0.427 Goal=   None    Shift=    0.000
 RMSDP=1.51D-03 MaxDP=1.58D-01 DE=-4.49D-01 OVMax= 5.98D-01

 Cycle   3  Pass 1  IDiag  1:
 RMSU=  1.43D-03    CP:  9.58D-01  1.54D+00
 E= -3003.88937176271     Delta-E=        0.349732040208 Rises=F Damp=F
 DIIS: error= 5.59D-02 at cycle   3 NSaved=   3.
 NSaved= 3 IEnMin= 2 EnMin= -3004.23910380291     IErMin= 2 ErrMin= 1.11D-02
 ErrMax= 5.59D-02  0.00D+00 EMaxC= 1.00D-01 BMatC= 1.06D+00 BMatP= 3.76D-01
 IDIUse=2 WtCom= 0.00D+00 WtEn= 1.00D+00
 Coeff-En:   0.000D+00 0.603D+00 0.397D+00
 Coeff:      0.000D+00 0.603D+00 0.397D+00
 Gap=     0.175 Goal=   None    Shift=    0.000
 RMSDP=2.05D-03 MaxDP=4.05D-01 DE= 3.50D-01 OVMax= 8.13D-01

 Cycle   4  Pass 1  IDiag  1:
 RMSU=  9.67D-04    CP:  9.60D-01  2.79D+00 -1.03D-01
 E= -3002.16907036791     Delta-E=        1.720301394793 Rises=F Damp=F
 DIIS: error= 8.00D-02 at cycle   4 NSaved=   4.
 NSaved= 4 IEnMin= 2 EnMin= -3004.23910380291     IErMin= 2 ErrMin= 1.11D-02
 ErrMax= 8.00D-02  0.00D+00 EMaxC= 1.00D-01 BMatC= 2.02D+00 BMatP= 3.76D-01
 IDIUse=2 WtCom= 0.00D+00 WtEn= 1.00D+00
 Coeff-En:   0.000D+00 0.000D+00 0.627D+00 0.373D+00
 Coeff:      0.000D+00 0.000D+00 0.627D+00 0.373D+00
 Gap=     0.070 Goal=   None    Shift=    0.000
 RMSDP=1.53D-03 MaxDP=2.98D-01 DE= 1.72D+00 OVMax= 9.67D-01

 Cycle   5  Pass 1  IDiag  1:
 RMSU=  7.13D-04    CP:  9.72D-01  1.41D+00  2.43D-01  1.76D-01
 E= -3005.18901048389     Delta-E=       -3.019940115973 Rises=F Damp=F
 DIIS: error= 1.20D-02 at cycle   5 NSaved=   5.
 NSaved= 5 IEnMin= 5 EnMin= -3005.18901048389     IErMin= 2 ErrMin= 1.11D-02
 ErrMax= 1.20D-02  0.00D+00 EMaxC= 1.00D-01 BMatC= 1.27D-01 BMatP= 3.76D-01
 IDIUse=3 WtCom= 8.80D-01 WtEn= 1.20D-01
 Coeff-Com: -0.411D+00 0.766D+00 0.196D+00-0.373D-02 0.454D+00
 Coeff-En:   0.000D+00 0.000D+00 0.000D+00 0.000D+00 0.100D+01
 Coeff:     -0.362D+00 0.674D+00 0.172D+00-0.328D-02 0.519D+00
 Gap=     0.065 Goal=   None    Shift=    0.000
 RMSDP=5.47D-04 MaxDP=6.94D-02 DE=-3.02D+00 OVMax= 1.45D-01

 Cycle   6  Pass 1  IDiag  1:
 RMSU=  5.05D-04    CP:  9.67D-01  1.47D+00  3.43D-01  6.35D-02  8.73D-01
 E= -3005.25902897358     Delta-E=       -0.070018489694 Rises=F Damp=F
 DIIS: error= 7.87D-03 at cycle   6 NSaved=   6.
 NSaved= 6 IEnMin= 6 EnMin= -3005.25902897358     IErMin= 6 ErrMin= 7.87D-03
 ErrMax= 7.87D-03  0.00D+00 EMaxC= 1.00D-01 BMatC= 6.14D-02 BMatP= 1.27D-01
 IDIUse=3 WtCom= 9.21D-01 WtEn= 7.87D-02
 Coeff-Com: -0.252D+00 0.382D+00 0.535D-01-0.184D-01 0.391D+00 0.444D+00
 Coeff-En:   0.000D+00 0.000D+00 0.000D+00 0.000D+00 0.305D+00 0.695D+00
 Coeff:     -0.232D+00 0.352D+00 0.493D-01-0.169D-01 0.384D+00 0.464D+00
 Gap=     0.070 Goal=   None    Shift=    0.000
 RMSDP=3.09D-04 MaxDP=3.89D-02 DE=-7.00D-02 OVMax= 1.16D-01

 Cycle   7  Pass 1  IDiag  1:
 RMSU=  1.69D-04    CP:  9.68D-01  1.56D+00  2.94D-01  5.13D-02  9.79D-01
                    CP:  5.47D-01
 E= -3005.30986172763     Delta-E=       -0.050832754052 Rises=F Damp=F
 DIIS: error= 1.66D-03 at cycle   7 NSaved=   7.
 NSaved= 7 IEnMin= 7 EnMin= -3005.30986172763     IErMin= 7 ErrMin= 1.66D-03
 ErrMax= 1.66D-03  0.00D+00 EMaxC= 1.00D-01 BMatC= 6.71D-03 BMatP= 6.14D-02
 IDIUse=3 WtCom= 9.83D-01 WtEn= 1.66D-02
 Coeff-Com: -0.107D+00 0.152D+00 0.102D-01-0.471D-02 0.200D+00 0.306D+00
 Coeff-Com:  0.444D+00
 Coeff-En:   0.000D+00 0.000D+00 0.000D+00 0.000D+00 0.000D+00 0.103D+00
 Coeff-En:   0.897D+00
 Coeff:     -0.106D+00 0.150D+00 0.100D-01-0.463D-02 0.197D+00 0.302D+00
 Coeff:      0.451D+00
 Gap=     0.072 Goal=   None    Shift=    0.000
 RMSDP=1.33D-04 MaxDP=8.67D-03 DE=-5.08D-02 OVMax= 6.89D-02

 Cycle   8  Pass 1  IDiag  1:
 RMSU=  6.70D-05    CP:  9.68D-01  1.55D+00  2.86D-01  6.57D-02  9.68D-01
                    CP:  6.67D-01  4.37D-01
 E= -3005.31662632046     Delta-E=       -0.006764592825 Rises=F Damp=F
 DIIS: error= 1.23D-03 at cycle   8 NSaved=   8.
 NSaved= 8 IEnMin= 8 EnMin= -3005.31662632046     IErMin= 8 ErrMin= 1.23D-03
 ErrMax= 1.23D-03  0.00D+00 EMaxC= 1.00D-01 BMatC= 1.30D-03 BMatP= 6.71D-03
 IDIUse=3 WtCom= 9.88D-01 WtEn= 1.23D-02
 Coeff-Com: -0.491D-01 0.689D-01-0.185D-02-0.713D-03 0.935D-01 0.168D+00
 Coeff-Com:  0.336D+00 0.385D+00
 Coeff-En:   0.000D+00 0.000D+00 0.000D+00 0.000D+00 0.000D+00 0.000D+00
 Coeff-En:   0.168D+00 0.832D+00
 Coeff:     -0.485D-01 0.681D-01-0.183D-02-0.704D-03 0.924D-01 0.166D+00
 Coeff:      0.334D+00 0.390D+00
 Gap=     0.074 Goal=   None    Shift=    0.000
 RMSDP=5.30D-05 MaxDP=3.08D-03 DE=-6.76D-03 OVMax= 2.68D-02

 Cycle   9  Pass 1  IDiag  1:
 RMSU=  2.69D-05    CP:  9.68D-01  1.55D+00  2.86D-01  6.61D-02  9.81D-01
                    CP:  6.52D-01  6.42D-01  6.02D-01
 E= -3005.31810947207     Delta-E=       -0.001483151607 Rises=F Damp=F
 DIIS: error= 4.09D-04 at cycle   9 NSaved=   9.
 NSaved= 9 IEnMin= 9 EnMin= -3005.31810947207     IErMin= 9 ErrMin= 4.09D-04
 ErrMax= 4.09D-04  0.00D+00 EMaxC= 1.00D-01 BMatC= 1.31D-04 BMatP= 1.30D-03
 IDIUse=3 WtCom= 9.96D-01 WtEn= 4.09D-03
 Coeff-Com: -0.166D-01 0.260D-01-0.348D-02 0.389D-03 0.183D-01 0.419D-01
 Coeff-Com:  0.102D+00 0.210D+00 0.621D+00
 Coeff-En:   0.000D+00 0.000D+00 0.000D+00 0.000D+00 0.000D+00 0.000D+00
 Coeff-En:   0.000D+00 0.373D-01 0.963D+00
 Coeff:     -0.165D-01 0.259D-01-0.346D-02 0.388D-03 0.182D-01 0.417D-01
 Coeff:      0.102D+00 0.209D+00 0.623D+00
 Gap=     0.074 Goal=   None    Shift=    0.000
 RMSDP=2.31D-05 MaxDP=1.22D-03 DE=-1.48D-03 OVMax= 1.78D-02

 Cycle  10  Pass 1  IDiag  1:
 RMSU=  1.70D-05    CP:  9.68D-01  1.55D+00  2.83D-01  6.79D-02  9.82D-01
                    CP:  6.59D-01  6.23D-01  7.49D-01  6.58D-01
 E= -3005.31824002289     Delta-E=       -0.000130550819 Rises=F Damp=F
 DIIS: error= 1.50D-04 at cycle  10 NSaved=  10.
 NSaved=10 IEnMin=10 EnMin= -3005.31824002289     IErMin=10 ErrMin= 1.50D-04
 ErrMax= 1.50D-04  0.00D+00 EMaxC= 1.00D-01 BMatC= 5.72D-05 BMatP= 1.31D-04
 IDIUse=3 WtCom= 9.99D-01 WtEn= 1.50D-03
 Coeff-Com: -0.528D-02 0.101D-01-0.166D-02 0.149D-03-0.436D-02-0.389D-02
 Coeff-Com: -0.650D-02 0.372D-01 0.474D+00 0.500D+00
 Coeff-En:   0.000D+00 0.000D+00 0.000D+00 0.000D+00 0.000D+00 0.000D+00
 Coeff-En:   0.000D+00 0.000D+00 0.250D+00 0.750D+00
 Coeff:     -0.527D-02 0.101D-01-0.166D-02 0.149D-03-0.436D-02-0.388D-02
 Coeff:     -0.649D-02 0.371D-01 0.474D+00 0.501D+00
 Gap=     0.074 Goal=   None    Shift=    0.000
 RMSDP=1.28D-05 MaxDP=8.21D-04 DE=-1.31D-04 OVMax= 6.80D-03

 Cycle  11  Pass 1  IDiag  1:
 RMSU=  6.28D-06    CP:  9.68D-01  1.55D+00  2.84D-01  6.66D-02  9.82D-01
                    CP:  6.61D-01  6.29D-01  7.52D-01  8.88D-01  4.69D-01
 E= -3005.31829858269     Delta-E=       -0.000058559805 Rises=F Damp=F
 DIIS: error= 8.18D-05 at cycle  11 NSaved=  11.
 NSaved=11 IEnMin=11 EnMin= -3005.31829858269     IErMin=11 ErrMin= 8.18D-05
 ErrMax= 8.18D-05  0.00D+00 EMaxC= 1.00D-01 BMatC= 1.18D-05 BMatP= 5.72D-05
 IDIUse=1 WtCom= 1.00D+00 WtEn= 0.00D+00
 Coeff-Com: -0.232D-02 0.413D-02 0.929D-04-0.154D-04-0.286D-02-0.873D-02
 Coeff-Com: -0.298D-01-0.416D-01 0.186D+00 0.354D+00 0.542D+00
 Coeff:     -0.232D-02 0.413D-02 0.929D-04-0.154D-04-0.286D-02-0.873D-02
 Coeff:     -0.298D-01-0.416D-01 0.186D+00 0.354D+00 0.542D+00
 Gap=     0.074 Goal=   None    Shift=    0.000
 RMSDP=6.71D-06 MaxDP=5.21D-04 DE=-5.86D-05 OVMax= 4.62D-03

 Cycle  12  Pass 1  IDiag  1:
 RMSU=  3.05D-06    CP:  9.68D-01  1.55D+00  2.82D-01  6.75D-02  9.83D-01
                    CP:  6.59D-01  6.30D-01  7.63D-01  8.98D-01  7.58D-01
                    CP:  6.44D-01
 E= -3005.31831433733     Delta-E=       -0.000015754638 Rises=F Damp=F
 DIIS: error= 2.92D-05 at cycle  12 NSaved=  12.
 NSaved=12 IEnMin=12 EnMin= -3005.31831433733     IErMin=12 ErrMin= 2.92D-05
 ErrMax= 2.92D-05  0.00D+00 EMaxC= 1.00D-01 BMatC= 2.23D-06 BMatP= 1.18D-05
 IDIUse=1 WtCom= 1.00D+00 WtEn= 0.00D+00
 Coeff-Com: -0.963D-03 0.158D-02 0.299D-03-0.677D-04-0.118D-02-0.509D-02
 Coeff-Com: -0.185D-01-0.354D-01 0.673D-01 0.146D+00 0.380D+00 0.466D+00
 Coeff:     -0.963D-03 0.158D-02 0.299D-03-0.677D-04-0.118D-02-0.509D-02
 Coeff:     -0.185D-01-0.354D-01 0.673D-01 0.146D+00 0.380D+00 0.466D+00
 Gap=     0.074 Goal=   None    Shift=    0.000
 RMSDP=1.81D-06 MaxDP=3.08D-04 DE=-1.58D-05 OVMax= 5.74D-04

 Cycle  13  Pass 1  IDiag  1:
 RMSU=  1.20D-06    CP:  9.68D-01  1.55D+00  2.82D-01  6.74D-02  9.83D-01
                    CP:  6.60D-01  6.31D-01  7.66D-01  9.16D-01  7.55D-01
                    CP:  7.87D-01  7.80D-01
 E= -3005.31831676204     Delta-E=       -0.000002424713 Rises=F Damp=F
 DIIS: error= 8.74D-06 at cycle  13 NSaved=  13.
 NSaved=13 IEnMin=13 EnMin= -3005.31831676204     IErMin=13 ErrMin= 8.74D-06
 ErrMax= 8.74D-06  0.00D+00 EMaxC= 1.00D-01 BMatC= 3.43D-07 BMatP= 2.23D-06
 IDIUse=1 WtCom= 1.00D+00 WtEn= 0.00D+00
 Coeff-Com: -0.934D-04 0.101D-03 0.182D-03-0.305D-04-0.273D-03-0.170D-02
 Coeff-Com: -0.536D-02-0.145D-01 0.182D-01 0.122D-01 0.159D+00 0.240D+00
 Coeff-Com:  0.592D+00
 Coeff:     -0.934D-04 0.101D-03 0.182D-03-0.305D-04-0.273D-03-0.170D-02
 Coeff:     -0.536D-02-0.145D-01 0.182D-01 0.122D-01 0.159D+00 0.240D+00
 Coeff:      0.592D+00
 Gap=     0.074 Goal=   None    Shift=    0.000
 RMSDP=7.79D-07 MaxDP=1.35D-04 DE=-2.42D-06 OVMax= 3.27D-04

 Cycle  14  Pass 1  IDiag  1:
 RMSU=  5.23D-07    CP:  9.68D-01  1.55D+00  2.83D-01  6.74D-02  9.83D-01
                    CP:  6.60D-01  6.32D-01  7.66D-01  9.24D-01  7.56D-01
                    CP:  8.34D-01  8.99D-01  8.44D-01
 E= -3005.31831708630     Delta-E=       -0.000000324255 Rises=F Damp=F
 DIIS: error= 1.21D-05 at cycle  14 NSaved=  14.
 NSaved=14 IEnMin=14 EnMin= -3005.31831708630     IErMin=13 ErrMin= 8.74D-06
 ErrMax= 1.21D-05  0.00D+00 EMaxC= 1.00D-01 BMatC= 1.24D-07 BMatP= 3.43D-07
 IDIUse=1 WtCom= 1.00D+00 WtEn= 0.00D+00
 Coeff-Com:  0.249D-03-0.403D-03 0.595D-04-0.779D-05-0.303D-04 0.277D-04
 Coeff-Com:  0.194D-02 0.125D-02 0.415D-02-0.331D-01 0.130D-01 0.156D-02
 Coeff-Com:  0.339D+00 0.673D+00
 Coeff:      0.249D-03-0.403D-03 0.595D-04-0.779D-05-0.303D-04 0.277D-04
 Coeff:      0.194D-02 0.125D-02 0.415D-02-0.331D-01 0.130D-01 0.156D-02
 Coeff:      0.339D+00 0.673D+00
 Gap=     0.074 Goal=   None    Shift=    0.000
 RMSDP=4.72D-07 MaxDP=3.04D-05 DE=-3.24D-07 OVMax= 2.25D-04

 Cycle  15  Pass 1  IDiag  1:
 RMSU=  2.38D-07    CP:  9.68D-01  1.55D+00  2.83D-01  6.73D-02  9.83D-01
                    CP:  6.60D-01  6.32D-01  7.65D-01  9.26D-01  7.53D-01
                    CP:  8.70D-01  9.36D-01  1.05D+00  9.76D-01
 E= -3005.31831723836     Delta-E=       -0.000000152068 Rises=F Damp=F
 DIIS: error= 8.70D-06 at cycle  15 NSaved=  15.
 NSaved=15 IEnMin=15 EnMin= -3005.31831723836     IErMin=15 ErrMin= 8.70D-06
 ErrMax= 8.70D-06  0.00D+00 EMaxC= 1.00D-01 BMatC= 3.17D-08 BMatP= 1.24D-07
 IDIUse=1 WtCom= 1.00D+00 WtEn= 0.00D+00
 Coeff-Com:  0.203D-03-0.310D-03 0.104D-04-0.664D-06-0.402D-04 0.216D-03
 Coeff-Com:  0.237D-02 0.466D-02 0.412D-02-0.189D-01-0.221D-01-0.581D-01
 Coeff-Com:  0.400D-01 0.353D+00 0.695D+00
 Coeff:      0.203D-03-0.310D-03 0.104D-04-0.664D-06-0.402D-04 0.216D-03
 Coeff:      0.237D-02 0.466D-02 0.412D-02-0.189D-01-0.221D-01-0.581D-01
 Coeff:      0.400D-01 0.353D+00 0.695D+00
 Gap=     0.074 Goal=   None    Shift=    0.000
 RMSDP=2.38D-07 MaxDP=2.26D-05 DE=-1.52D-07 OVMax= 1.03D-04

 Cycle  16  Pass 1  IDiag  1:
 RMSU=  1.32D-07    CP:  9.68D-01  1.55D+00  2.83D-01  6.73D-02  9.83D-01
                    CP:  6.60D-01  6.32D-01  7.65D-01  9.26D-01  7.52D-01
                    CP:  8.81D-01  9.67D-01  1.10D+00  1.15D+00  9.54D-01
 E= -3005.31831727142     Delta-E=       -0.000000033058 Rises=F Damp=F
 DIIS: error= 3.72D-06 at cycle  16 NSaved=  16.
 NSaved=16 IEnMin=16 EnMin= -3005.31831727142     IErMin=16 ErrMin= 3.72D-06
 ErrMax= 3.72D-06  0.00D+00 EMaxC= 1.00D-01 BMatC= 7.13D-09 BMatP= 3.17D-08
 IDIUse=1 WtCom= 1.00D+00 WtEn= 0.00D+00
 Coeff-Com:  0.819D-04-0.118D-03-0.500D-05 0.305D-06-0.385D-04 0.109D-03
 Coeff-Com:  0.116D-02 0.317D-02 0.336D-02-0.234D-02-0.172D-01-0.401D-01
 Coeff-Com: -0.762D-01 0.312D-01 0.458D+00 0.639D+00
 Coeff:      0.819D-04-0.118D-03-0.500D-05 0.305D-06-0.385D-04 0.109D-03
 Coeff:      0.116D-02 0.317D-02 0.336D-02-0.234D-02-0.172D-01-0.401D-01
 Coeff:     -0.762D-01 0.312D-01 0.458D+00 0.639D+00
 Gap=     0.074 Goal=   None    Shift=    0.000
 RMSDP=1.35D-07 MaxDP=1.28D-05 DE=-3.31D-08 OVMax= 6.01D-05

 Cycle  17  Pass 1  IDiag  1:
 RMSU=  5.69D-08    CP:  9.68D-01  1.55D+00  2.83D-01  6.73D-02  9.83D-01
                    CP:  6.60D-01  6.32D-01  7.65D-01  9.25D-01  7.51D-01
                    CP:  8.86D-01  9.77D-01  1.14D+00  1.21D+00  1.20D+00
                    CP:  8.22D-01
 E= -3005.31831728063     Delta-E=       -0.000000009206 Rises=F Damp=F
 DIIS: error= 6.76D-07 at cycle  17 NSaved=  17.
 NSaved=17 IEnMin=17 EnMin= -3005.31831728063     IErMin=17 ErrMin= 6.76D-07
 ErrMax= 6.76D-07  0.00D+00 EMaxC= 1.00D-01 BMatC= 7.08D-10 BMatP= 7.13D-09
 IDIUse=1 WtCom= 1.00D+00 WtEn= 0.00D+00
 Coeff-Com:  0.206D-04-0.278D-04-0.274D-05-0.138D-06-0.276D-04 0.325D-06
 Coeff-Com:  0.254D-03 0.949D-03 0.180D-02 0.214D-02-0.383D-02-0.101D-01
 Coeff-Com: -0.443D-01-0.348D-01 0.140D+00 0.374D+00 0.574D+00
 Coeff:      0.206D-04-0.278D-04-0.274D-05-0.138D-06-0.276D-04 0.325D-06
 Coeff:      0.254D-03 0.949D-03 0.180D-02 0.214D-02-0.383D-02-0.101D-01
 Coeff:     -0.443D-01-0.348D-01 0.140D+00 0.374D+00 0.574D+00
 Gap=     0.074 Goal=   None    Shift=    0.000
 RMSDP=3.62D-08 MaxDP=3.95D-06 DE=-9.21D-09 OVMax= 9.19D-06

 Cycle  18  Pass 1  IDiag  1:
 RMSU=  2.26D-08    CP:  9.68D-01  1.55D+00  2.83D-01  6.73D-02  9.83D-01
                    CP:  6.60D-01  6.32D-01  7.65D-01  9.24D-01  7.51D-01
                    CP:  8.85D-01  9.77D-01  1.14D+00  1.24D+00  1.21D+00
                    CP:  9.19D-01  7.91D-01
 E= -3005.31831728130     Delta-E=       -0.000000000671 Rises=F Damp=F
 DIIS: error= 1.94D-07 at cycle  18 NSaved=  18.
 NSaved=18 IEnMin=18 EnMin= -3005.31831728130     IErMin=18 ErrMin= 1.94D-07
 ErrMax= 1.94D-07  0.00D+00 EMaxC= 1.00D-01 BMatC= 7.68D-11 BMatP= 7.08D-10
 IDIUse=1 WtCom= 1.00D+00 WtEn= 0.00D+00
 Coeff-Com:  0.263D-05-0.240D-05-0.992D-06-0.579D-07-0.128D-04-0.124D-04
 Coeff-Com:  0.101D-04 0.101D-03 0.539D-03 0.138D-02 0.370D-03 0.129D-04
 Coeff-Com: -0.135D-01-0.210D-01 0.130D-01 0.118D+00 0.316D+00 0.585D+00
 Coeff:      0.263D-05-0.240D-05-0.992D-06-0.579D-07-0.128D-04-0.124D-04
 Coeff:      0.101D-04 0.101D-03 0.539D-03 0.138D-02 0.370D-03 0.129D-04
 Coeff:     -0.135D-01-0.210D-01 0.130D-01 0.118D+00 0.316D+00 0.585D+00
 Gap=     0.074 Goal=   None    Shift=    0.000
 RMSDP=1.22D-08 MaxDP=1.52D-06 DE=-6.71D-10 OVMax= 4.22D-06

 Cycle  19  Pass 1  IDiag  1:
 RMSU=  7.49D-09    CP:  9.68D-01  1.55D+00  2.83D-01  6.73D-02  9.83D-01
                    CP:  6.60D-01  6.32D-01  7.65D-01  9.24D-01  7.51D-01
                    CP:  8.85D-01  9.77D-01  1.14D+00  1.24D+00  1.22D+00
                    CP:  9.34D-01  8.74D-01  7.70D-01
 E= -3005.31831728116     Delta-E=        0.000000000140 Rises=F Damp=F
 DIIS: error= 6.76D-08 at cycle  19 NSaved=  19.
 NSaved=19 IEnMin=18 EnMin= -3005.31831728130     IErMin=19 ErrMin= 6.76D-08
 ErrMax= 6.76D-08  0.00D+00 EMaxC= 1.00D-01 BMatC= 1.14D-11 BMatP= 7.68D-11
 IDIUse=1 WtCom= 1.00D+00 WtEn= 0.00D+00
 Coeff-Com: -0.389D-06 0.104D-05-0.229D-06 0.498D-07-0.407D-05-0.632D-05
 Coeff-Com: -0.198D-04-0.788D-04 0.388D-04 0.436D-03 0.790D-03 0.139D-02
 Coeff-Com: -0.163D-02-0.619D-02-0.105D-01 0.196D-01 0.985D-01 0.327D+00
 Coeff-Com:  0.571D+00
 Coeff:     -0.389D-06 0.104D-05-0.229D-06 0.498D-07-0.407D-05-0.632D-05
 Coeff:     -0.198D-04-0.788D-04 0.388D-04 0.436D-03 0.790D-03 0.139D-02
 Coeff:     -0.163D-02-0.619D-02-0.105D-01 0.196D-01 0.985D-01 0.327D+00
 Coeff:      0.571D+00
 Gap=     0.074 Goal=   None    Shift=    0.000
 RMSDP=4.38D-09 MaxDP=4.51D-07 DE= 1.40D-10 OVMax= 1.43D-06

 SCF Done:  E(RPBE1PBE) =  -3005.31831728     A.U. after   19 cycles
            NFock= 19  Conv=0.44D-08     -V/T= 2.0101
 KE= 2.975169224238D+03 PE=-2.652416950231D+04 EE= 1.077692080492D+04
 Leave Link  502 at Fri Apr 29 12:13:03 2022, MaxMem= 10066329600 cpu:            7852.7 elap:             329.2
 (Enter /sw/apps/gaussian-16.0/g16/l801.exe)
 DoSCS=F DFT=T ScalE2(SS,OS)=  1.000000  1.000000
 ExpMin= 3.36D-02 ExpMax= 4.95D+03 ExpMxC= 7.45D+02 IAcc=3 IRadAn=         5 AccDes= 0.00D+00
 HarFok:  IExCor=  205 AccDes= 0.00D+00 IRadAn=         5 IDoV=-2 UseB2=F ITyADJ=14
 ICtDFT= 12500011 ScaDFX=  1.000000  1.000000  1.000000  1.000000
 GSVD:  LWork=       -5460 too small for GESVD, short by       25550 words or       25550 for optimal perf.
 Largest valence mixing into a core orbital is  1.22D-04
 Largest core mixing into a valence orbital is  5.69D-05
 Range of M.O.s used for correlation:    71  1298
 NBasis=  1298 NAE=   246 NBE=   246 NFC=    70 NFV=     0
 NROrb=   1228 NOA=   176 NOB=   176 NVA=  1052 NVB=  1052

 **** Warning!!: The smallest alpha delta epsilon is  0.74495528D-01

 Leave Link  801 at Fri Apr 29 12:13:03 2022, MaxMem= 10066329600 cpu:               6.1 elap:               0.3
 (Enter /sw/apps/gaussian-16.0/g16/l914.exe)
 RHF ground state
 Two-electron integrals replicated using symmetry.
 MDV= 10066329600 DFT=T DoStab=F Mixed=T DoRPA=T DoScal=F NonHer=T
 Making orbital integer symmetry assigments:
 Orbital symmetries:
       Occupied  (A) (A) (A) (A) (A) (A) (A) (A) (A) (A) (A) (A)
                 (A) (A) (A) (A) (A) (A) (A) (A) (A) (A) (A) (A)
                 (A) (A) (A) (A) (A) (A) (A) (A) (A) (A) (A) (A)
                 (A) (A) (A) (A) (A) (A) (A) (A) (A) (A) (A) (A)
                 (A) (A) (A) (A) (A) (A) (A) (A) (A) (A) (A) (A)
                 (A) (A) (A) (A) (A) (A) (A) (A) (A) (A) (A) (A)
                 (A) (A) (A) (A) (A) (A) (A) (A) (A) (A) (A) (A)
                 (A) (A) (A) (A) (A) (A) (A) (A) (A) (A) (A) (A)
                 (A) (A) (A) (A) (A) (A) (A) (A) (A) (A) (A) (A)
                 (A) (A) (A) (A) (A) (A) (A) (A) (A) (A) (A) (A)
                 (A) (A) (A) (A) (A) (A) (A) (A) (A) (A) (A) (A)
                 (A) (A) (A) (A) (A) (A) (A) (A) (A) (A) (A) (A)
                 (A) (A) (A) (A) (A) (A) (A) (A) (A) (A) (A) (A)
                 (A) (A) (A) (A) (A) (A) (A) (A) (A) (A) (A) (A)
                 (A) (A) (A) (A) (A) (A) (A) (A) (A) (A) (A) (A)
                 (A) (A) (A) (A) (A) (A) (A) (A) (A) (A) (A) (A)
                 (A) (A) (A) (A) (A) (A) (A) (A) (A) (A) (A) (A)
                 (A) (A) (A) (A) (A) (A) (A) (A) (A) (A) (A) (A)
                 (A) (A) (A) (A) (A) (A) (A) (A) (A) (A) (A) (A)
                 (A) (A) (A) (A) (A) (A) (A) (A) (A) (A) (A) (A)
                 (A) (A) (A) (A) (A) (A)
       Virtual   (A) (A) (A) (A) (A) (A) (A) (A) (A) (A) (A) (A)
                 (A) (A) (A) (A) (A) (A) (A) (A) (A) (A) (A) (A)
                 (A) (A) (A) (A) (A) (A) (A) (A) (A) (A) (A) (A)
                 (A) (A) (A) (A) (A) (A) (A) (A) (A) (A) (A) (A)
                 (A) (A) (A) (A) (A) (A) (A) (A) (A) (A) (A) (A)
                 (A) (A) (A) (A) (A) (A) (A) (A) (A) (A) (A) (A)
                 (A) (A) (A) (A) (A) (A) (A) (A) (A) (A) (A) (A)
                 (A) (A) (A) (A) (A) (A) (A) (A) (A) (A) (A) (A)
                 (A) (A) (A) (A) (A) (A) (A) (A) (A) (A) (A) (A)
                 (A) (A) (A) (A) (A) (A) (A) (A) (A) (A) (A) (A)
                 (A) (A) (A) (A) (A) (A) (A) (A) (A) (A) (A) (A)
                 (A) (A) (A) (A) (A) (A) (A) (A) (A) (A) (A) (A)
                 (A) (A) (A) (A) (A) (A) (A) (A) (A) (A) (A) (A)
                 (A) (A) (A) (A) (A) (A) (A) (A) (A) (A) (A) (A)
                 (A) (A) (A) (A) (A) (A) (A) (A) (A) (A) (A) (A)
                 (A) (A) (A) (A) (A) (A) (A) (A) (A) (A) (A) (A)
                 (A) (A) (A) (A) (A) (A) (A) (A) (A) (A) (A) (A)
                 (A) (A) (A) (A) (A) (A) (A) (A) (A) (A) (A) (A)
                 (A) (A) (A) (A) (A) (A) (A) (A) (A) (A) (A) (A)
                 (A) (A) (A) (A) (A) (A) (A) (A) (A) (A) (A) (A)
                 (A) (A) (A) (A) (A) (A) (A) (A) (A) (A) (A) (A)
                 (A) (A) (A) (A) (A) (A) (A) (A) (A) (A) (A) (A)
                 (A) (A) (A) (A) (A) (A) (A) (A) (A) (A) (A) (A)
                 (A) (A) (A) (A) (A) (A) (A) (A) (A) (A) (A) (A)
                 (A) (A) (A) (A) (A) (A) (A) (A) (A) (A) (A) (A)
                 (A) (A) (A) (A) (A) (A) (A) (A) (A) (A) (A) (A)
                 (A) (A) (A) (A) (A) (A) (A) (A) (A) (A) (A) (A)
                 (A) (A) (A) (A) (A) (A) (A) (A) (A) (A) (A) (A)
                 (A) (A) (A) (A) (A) (A) (A) (A) (A) (A) (A) (A)
                 (A) (A) (A) (A) (A) (A) (A) (A) (A) (A) (A) (A)
                 (A) (A) (A) (A) (A) (A) (A) (A) (A) (A) (A) (A)
                 (A) (A) (A) (A) (A) (A) (A) (A) (A) (A) (A) (A)
                 (A) (A) (A) (A) (A) (A) (A) (A) (A) (A) (A) (A)
                 (A) (A) (A) (A) (A) (A) (A) (A) (A) (A) (A) (A)
                 (A) (A) (A) (A) (A) (A) (A) (A) (A) (A) (A) (A)
                 (A) (A) (A) (A) (A) (A) (A) (A) (A) (A) (A) (A)
                 (A) (A) (A) (A) (A) (A) (A) (A) (A) (A) (A) (A)
                 (A) (A) (A) (A) (A) (A) (A) (A) (A) (A) (A) (A)
                 (A) (A) (A) (A) (A) (A) (A) (A) (A) (A) (A) (A)
                 (A) (A) (A) (A) (A) (A) (A) (A) (A) (A) (A) (A)
                 (A) (A) (A) (A) (A) (A) (A) (A) (A) (A) (A) (A)
                 (A) (A) (A) (A) (A) (A) (A) (A) (A) (A) (A) (A)
                 (A) (A) (A) (A) (A) (A) (A) (A) (A) (A) (A) (A)
                 (A) (A) (A) (A) (A) (A) (A) (A) (A) (A) (A) (A)
                 (A) (A) (A) (A) (A) (A) (A) (A) (A) (A) (A) (A)
                 (A) (A) (A) (A) (A) (A) (A) (A) (A) (A) (A) (A)
                 (A) (A) (A) (A) (A) (A) (A) (A) (A) (A) (A) (A)
                 (A) (A) (A) (A) (A) (A) (A) (A) (A) (A) (A) (A)
                 (A) (A) (A) (A) (A) (A) (A) (A) (A) (A) (A) (A)
                 (A) (A) (A) (A) (A) (A) (A) (A) (A) (A) (A) (A)
                 (A) (A) (A) (A) (A) (A) (A) (A) (A) (A) (A) (A)
                 (A) (A) (A) (A) (A) (A) (A) (A) (A) (A) (A) (A)
                 (A) (A) (A) (A) (A) (A) (A) (A) (A) (A) (A) (A)
                 (A) (A) (A) (A) (A) (A) (A) (A) (A) (A) (A) (A)
                 (A) (A) (A) (A) (A) (A) (A) (A) (A) (A) (A) (A)
                 (A) (A) (A) (A) (A) (A) (A) (A) (A) (A) (A) (A)
                 (A) (A) (A) (A) (A) (A) (A) (A) (A) (A) (A) (A)
                 (A) (A) (A) (A) (A) (A) (A) (A) (A) (A) (A) (A)
                 (A) (A) (A) (A) (A) (A) (A) (A) (A) (A) (A) (A)
                 (A) (A) (A) (A) (A) (A) (A) (A) (A) (A) (A) (A)
                 (A) (A) (A) (A) (A) (A) (A) (A) (A) (A) (A) (A)
                 (A) (A) (A) (A) (A) (A) (A) (A) (A) (A) (A) (A)
                 (A) (A) (A) (A) (A) (A) (A) (A) (A) (A) (A) (A)
                 (A) (A) (A) (A) (A) (A) (A) (A) (A) (A) (A) (A)
                 (A) (A) (A) (A) (A) (A) (A) (A) (A) (A) (A) (A)
                 (A) (A) (A) (A) (A) (A) (A) (A) (A) (A) (A) (A)
                 (A) (A) (A) (A) (A) (A) (A) (A) (A) (A) (A) (A)
                 (A) (A) (A) (A) (A) (A) (A) (A) (A) (A) (A) (A)
                 (A) (A) (A) (A) (A) (A) (A) (A) (A) (A) (A) (A)
                 (A) (A) (A) (A) (A) (A) (A) (A) (A) (A) (A) (A)
                 (A) (A) (A) (A) (A) (A) (A) (A) (A) (A) (A) (A)
                 (A) (A) (A) (A) (A) (A) (A) (A) (A) (A) (A) (A)
                 (A) (A) (A) (A) (A) (A) (A) (A) (A) (A) (A) (A)
                 (A) (A) (A) (A) (A) (A) (A) (A) (A) (A) (A) (A)
                 (A) (A) (A) (A) (A) (A) (A) (A) (A) (A) (A) (A)
                 (A) (A) (A) (A) (A) (A) (A) (A) (A) (A) (A) (A)
                 (A) (A) (A) (A) (A) (A) (A) (A) (A) (A) (A) (A)
                 (A) (A) (A) (A) (A) (A) (A) (A) (A) (A) (A) (A)
                 (A) (A) (A) (A) (A) (A) (A) (A) (A) (A) (A) (A)
                 (A) (A) (A) (A) (A) (A) (A) (A) (A) (A) (A) (A)
                 (A) (A) (A) (A) (A) (A) (A) (A) (A) (A) (A) (A)
                 (A) (A) (A) (A) (A) (A) (A) (A) (A) (A) (A) (A)
                 (A) (A) (A) (A) (A) (A) (A) (A) (A) (A) (A) (A)
                 (A) (A) (A) (A) (A) (A) (A) (A) (A) (A) (A) (A)
                 (A) (A) (A) (A) (A) (A) (A) (A) (A) (A) (A) (A)
                 (A) (A) (A) (A) (A) (A) (A) (A) (A) (A) (A) (A)
                 (A) (A) (A) (A) (A) (A) (A) (A) (A) (A) (A) (A)
                 (A) (A) (A) (A) (A) (A) (A) (A)
    20 initial guesses have been made.
 Convergence on wavefunction:    0.001000000000000
 Davidson Disk Diagonalization:  ConvIn= 1.00D-03 SkipCon=T Conv= 1.00D-03.
 Max sub-space:  2000 roots to seek:    20 dimension of matrix:       370304
 Iteration     1 Dimension    20 NMult     0 NNew     20
 CISAX will form    20 AO SS matrices at one time.
 NMat=    20 NSing=    20 JSym2X= 0.
 FoFJK:  IHMeth= 1 ICntrl=       0 DoSepK=F KAlg= 0 I1Cent=           0 FoldK=F
 IRaf= 530000000 NMat=      40 IRICut=       1 DoRegI=T DoRafI=F ISym2E= 0 IDoP0=3 IntGTp=3.
 FoFCou: FMM=T IPFlag=           0 FMFlag=      100000 FMFlg1=        2001
         NFxFlg=           0 DoJE=F BraDBF=F KetDBF=F FulRan=T
         wScrn=  0.000000 ICntrl=         0 IOpCl=  0 I1Cent=           0 NGrid=           0
         NMat0=   40 NMatS0=     20 NMatT0=    0 NMatD0=   40 NMtDS0=    0 NMtDT0=    0
 Symmetry not used in FoFCou.
 FMM levels:  10  Number of levels for PrismC:   9
 New state      4 was old state      5
 New state      5 was old state      9
 Excitation Energies [eV] at current iteration:
 Root      1 :     2.155905919691368
 Root      2 :     2.478455637416131
 Root      3 :     2.614260751132874
 Root      4 :     3.120834786789137
 Root      5 :     3.264361895048378
 Root      6 :     3.440956175403838
 Root      7 :     3.549720530492736
 Root      8 :     3.724637612482300
 Root      9 :     3.763262122831379
 Root     10 :     3.945135536213666
 Root     11 :     4.076194143545865
 Root     12 :     4.123992130861856
 Root     13 :     4.181704980538967
 Root     14 :     4.221540045803245
 Root     15 :     4.248023167288339
 Root     16 :     4.390208792814498
 Root     17 :     4.500997233084695
 Root     18 :     4.604298925905239
 Root     19 :     4.648651708933906
 Root     20 :     4.819847279270944
 Iteration     2 Dimension    30 NMult    20 NNew     10
 CISAX will form    10 AO SS matrices at one time.
 NMat=    10 NSing=    10 JSym2X= 0.
 Root      1 not converged, maximum delta is    0.054410137646880
 Root      2 not converged, maximum delta is    0.084694321419876
 Root      3 not converged, maximum delta is    0.097901058196788
 Root      4 not converged, maximum delta is    0.033715264059254
 Root      5 not converged, maximum delta is    0.119833153144213
 Excitation Energies [eV] at current iteration:
 Root      1 :     1.832055147799008   Change is   -0.323850771892361
 Root      2 :     2.222497238487553   Change is   -0.255958398928578
 Root      3 :     2.505521290534188   Change is   -0.108739460598686
 Root      4 :     2.888477951186532   Change is   -0.232356835602606
 Root      5 :     3.124716083944919   Change is   -0.139645811103459
 Iteration     3 Dimension    40 NMult    30 NNew     10
 CISAX will form    10 AO SS matrices at one time.
 NMat=    10 NSing=    10 JSym2X= 0.
 Root      1 not converged, maximum delta is    0.024625964398501
 Root      2 not converged, maximum delta is    0.023212834675685
 Root      3 not converged, maximum delta is    0.012008041932638
 Root      4 not converged, maximum delta is    0.014558426355989
 Root      5 not converged, maximum delta is    0.016172159465169
 Excitation Energies [eV] at current iteration:
 Root      1 :     1.803314708931895   Change is   -0.028740438867113
 Root      2 :     2.203500261740862   Change is   -0.018996976746691
 Root      3 :     2.497228127428581   Change is   -0.008293163105607
 Root      4 :     2.875953955938198   Change is   -0.012523995248334
 Root      5 :     3.109977118553397   Change is   -0.014738965391522
 Iteration     4 Dimension    50 NMult    40 NNew     10
 CISAX will form    10 AO SS matrices at one time.
 NMat=    10 NSing=    10 JSym2X= 0.
 Root      1 not converged, maximum delta is    0.003297046747021
 Root      2 not converged, maximum delta is    0.006976790453020
 Root      3 not converged, maximum delta is    0.002959354436261
 Root      4 not converged, maximum delta is    0.005959170825029
 Root      5 not converged, maximum delta is    0.012285207274632
 Excitation Energies [eV] at current iteration:
 Root      1 :     1.800556486187450   Change is   -0.002758222744444
 Root      2 :     2.200529370403422   Change is   -0.002970891337440
 Root      3 :     2.496467834229336   Change is   -0.000760293199245
 Root      4 :     2.874201532423762   Change is   -0.001752423514436
 Root      5 :     3.107646628616267   Change is   -0.002330489937130
 Iteration     5 Dimension    60 NMult    50 NNew     10
 CISAX will form    10 AO SS matrices at one time.
 NMat=    10 NSing=    10 JSym2X= 0.
 Root      1 has converged.
 Root      2 not converged, maximum delta is    0.001530476306238
 Root      3 has converged.
 Root      4 has converged.
 Root      5 not converged, maximum delta is    0.004079477781055
 Excitation Energies [eV] at current iteration:
 Root      1 :     1.800234806297247   Change is   -0.000321679890203
 Root      2 :     2.200263027766955   Change is   -0.000266342636467
 Root      3 :     2.496371157487163   Change is   -0.000096676742173
 Root      4 :     2.873977492192838   Change is   -0.000224040230924
 Root      5 :     3.107402591566458   Change is   -0.000244037049808
 Iteration     6 Dimension    64 NMult    60 NNew      4
 CISAX will form     4 AO SS matrices at one time.
 NMat=     4 NSing=     4 JSym2X= 0.
 Root      1 has converged.
 Root      2 has converged.
 Root      3 has converged.
 Root      4 has converged.
 Root      5 not converged, maximum delta is    0.003049275698771
 Excitation Energies [eV] at current iteration:
 Root      1 :     1.800233509605558   Change is   -0.000001296691689
 Root      2 :     2.200240686361153   Change is   -0.000022341405802
 Root      3 :     2.496370211246403   Change is   -0.000000946240760
 Root      4 :     2.873972686738680   Change is   -0.000004805454158
 Root      5 :     3.107355808141162   Change is   -0.000046783425297
 Iteration     7 Dimension    66 NMult    64 NNew      2
 CISAX will form     2 AO SS matrices at one time.
 NMat=     2 NSing=     2 JSym2X= 0.
 Root      1 has converged.
 Root      2 has converged.
 Root      3 has converged.
 Root      4 has converged.
 Root      5 not converged, maximum delta is    0.002319187748131
 Excitation Energies [eV] at current iteration:
 Root      1 :     1.800233284718471   Change is   -0.000000224887087
 Root      2 :     2.200240675130518   Change is   -0.000000011230635
 Root      3 :     2.496370055642680   Change is   -0.000000155603723
 Root      4 :     2.873972627454826   Change is   -0.000000059283854
 Root      5 :     3.107343542376917   Change is   -0.000012265764244
 Iteration     8 Dimension    68 NMult    66 NNew      2
 CISAX will form     2 AO SS matrices at one time.
 NMat=     2 NSing=     2 JSym2X= 0.
 Root      1 has converged.
 Root      2 has converged.
 Root      3 has converged.
 Root      4 has converged.
 Root      5 not converged, maximum delta is    0.001584201776379
 Excitation Energies [eV] at current iteration:
 Root      1 :     1.800232844683402   Change is   -0.000000440035069
 Root      2 :     2.200240617781915   Change is   -0.000000057348603
 Root      3 :     2.496370034788677   Change is   -0.000000020854003
 Root      4 :     2.873972590983174   Change is   -0.000000036471652
 Root      5 :     3.107339214319642   Change is   -0.000004328057275
 Convergence on energies, max DE= 4.33D-06.
 Convergence on expansion vectors.
 ***********************************************************************
 Excited states from <AA,BB:AA,BB> singles matrix:
 ***********************************************************************
 
 1PDM for each excited state written to RWF  633
 Ground to excited state transition densities written to RWF  633
 Ground to excited state transition electric dipole moments (Au):
       state          X           Y           Z        Dip. S.      Osc.
         1        -1.4448      1.9574     -1.2927      7.5899      0.3348
         2         0.3249      1.1889      0.3259      1.6252      0.0876
         3         0.0558      0.0561      0.0887      0.0141      0.0009
         4         0.0764      0.2053      0.1451      0.0690      0.0049
         5        -0.0639     -0.1023     -0.0427      0.0164      0.0012
 Ground to excited state transition velocity dipole moments (Au):
       state          X           Y           Z        Dip. S.      Osc.
         1         0.0915     -0.1258      0.0843      0.0313      0.3153
         2        -0.0238     -0.0921     -0.0241      0.0096      0.0795
         3        -0.0055     -0.0058     -0.0051      0.0001      0.0007
         4        -0.0086     -0.0212     -0.0162      0.0008      0.0049
         5         0.0037      0.0108      0.0055      0.0002      0.0009
 Ground to excited state transition magnetic dipole moments (Au):
       state          X           Y           Z
         1        -0.0900     -0.7657     -1.0397
         2         0.1200      0.2422     -0.9545
         3        -0.3868      0.2798     -0.1233
         4        -0.4752      0.0311      0.3116
         5         0.3230     -0.5715     -0.0486
 Ground to excited state transition velocity quadrupole moments (Au):
       state          XX          YY          ZZ          XY          XZ          YZ
         1         1.4055     -0.4747     -0.0617     -0.7628      0.6606      0.2776
         2        -0.3508     -0.3100      0.0170     -0.6572     -0.2477      0.0840
         3        -0.0703     -0.1308      0.0120      0.0143     -0.0404      0.0459
         4        -0.0652     -0.4590      0.0712      0.0108     -0.0907      0.0440
         5        -0.0548      0.1496     -0.0105      0.1616      0.0112      0.0866
 <0|del|b> * <b|rxdel|0> + <0|del|b> * <b|delr+rdel|0>
 Rotatory Strengths (R) in cgs (10**-40 erg-esu-cm/Gauss)
       state          XX          YY          ZZ    R(velocity)    E-M Angle
         1       146.7722    -33.0087   -109.0653      1.5661       89.89
         2       -27.6390     10.1042     -1.5298     -6.3549       91.28
         3        -5.0429      9.8937      3.7395      2.8634       76.21
         4       -26.0896     -3.9062     19.1183     -3.6258       95.85
         5       -17.6420      1.1361    -16.0943    -10.8668      128.94
 1/2[<0|r|b>*<b|rxdel|0> + (<0|rxdel|b>*<b|r|0>)*]
 Rotatory Strengths (R) in cgs (10**-40 erg-esu-cm/Gauss)
       state          XX          YY          ZZ     R(length)
         1       -92.0035   1059.9169   -950.3808      5.8442
         2       -27.5609   -203.6520    219.9746     -3.7461
         3        15.2597    -11.1027      7.7359      3.9643
         4        25.6632     -4.5171    -31.9744     -3.6094
         5        14.5889    -41.3409     -1.4682     -9.4067
  1/2[<0|del|b>*<b|r|0> + (<0|r|b>*<b|del|0>)*] (Au)
       state          X           Y           Z        Dip. S.   Osc.(frdel)
         1        -0.1322     -0.2462     -0.1089      0.4873      0.3249
         2        -0.0077     -0.1095     -0.0079      0.1251      0.0834
         3        -0.0003     -0.0003     -0.0005      0.0011      0.0007
         4        -0.0007     -0.0044     -0.0023      0.0074      0.0049
         5        -0.0002     -0.0011     -0.0002      0.0016      0.0011

 Excitation energies and oscillator strengths:
 
 Excited State   1:      Singlet-A      1.8002 eV  688.71 nm  f=0.3348  <S**2>=0.000
     245 -> 248       -0.17816
     246 -> 247        0.68939
     246 <- 247       -0.10585
 This state for optimization and/or second-order correction.
 Total Energy, E(TD-HF/TD-DFT) =  -3005.25215994    
 Copying the excited state density for this state as the 1-particle RhoCI density.
 
 Excited State   2:      Singlet-A      2.2002 eV  563.50 nm  f=0.0876  <S**2>=0.000
     245 -> 247        0.63235
     246 -> 248        0.29067
 
 Excited State   3:      Singlet-A      2.4964 eV  496.66 nm  f=0.0009  <S**2>=0.000
     244 -> 247        0.67899
     244 -> 249        0.10056
     244 -> 250       -0.11559
 
 Excited State   4:      Singlet-A      2.8740 eV  431.40 nm  f=0.0049  <S**2>=0.000
     243 -> 247        0.68949
 
[...]
 Alpha virt. eigenvalues --    1.19219   1.19824   1.20212   1.20289   1.20933
 Alpha virt. eigenvalues --    1.21710   1.21835   1.21958   1.22492   1.23409
 Alpha virt. eigenvalues --    1.24253   1.24383   1.24569   1.24635   1.25605
 Alpha virt. eigenvalues --    1.26305   1.26364   1.26737   1.27242   1.27377
 Alpha virt. eigenvalues --    1.27626   1.28792   1.28970   1.29338   1.29829
 Alpha virt. eigenvalues --    1.30246   1.30463   1.30749   1.31700   1.32001
 Alpha virt. eigenvalues --    1.32386   1.32448   1.33404   1.33711   1.34121
 Alpha virt. eigenvalues --    1.34375   1.34898   1.35194   1.35490   1.35633
 Alpha virt. eigenvalues --    1.35953   1.36570   1.37230   1.37404   1.38322
 Alpha virt. eigenvalues --    1.38908   1.38966   1.39363   1.39697   1.40254
 Alpha virt. eigenvalues --    1.40427   1.40644   1.40825   1.40915   1.41821
 Alpha virt. eigenvalues --    1.42345   1.42911   1.43091   1.43443   1.43942
 Alpha virt. eigenvalues --    1.44763   1.44969   1.45456   1.45885   1.46175
 Alpha virt. eigenvalues --    1.46671   1.47348   1.47421   1.48005   1.48530
 Alpha virt. eigenvalues --    1.48900   1.49072   1.49616   1.50266   1.50316
 Alpha virt. eigenvalues --    1.50523   1.51131   1.51416   1.51457   1.52365
 Alpha virt. eigenvalues --    1.52568   1.52942   1.53363   1.53444   1.53552
 Alpha virt. eigenvalues --    1.53753   1.54504   1.54537   1.54946   1.55044
 Alpha virt. eigenvalues --    1.55279   1.55415   1.55487   1.55843   1.55997
 Alpha virt. eigenvalues --    1.56244   1.56416   1.56531   1.57259   1.57769
 Alpha virt. eigenvalues --    1.57800   1.58070   1.58239   1.58304   1.58824
 Alpha virt. eigenvalues --    1.59289   1.59642   1.59820   1.60380   1.60954
 Alpha virt. eigenvalues --    1.61352   1.61637   1.62037   1.62719   1.62769
 Alpha virt. eigenvalues --    1.63217   1.63362   1.63541   1.64637   1.65099
 Alpha virt. eigenvalues --    1.65440   1.66234   1.66452   1.66803   1.67425
 Alpha virt. eigenvalues --    1.68056   1.68444   1.68868   1.68954   1.69218
 Alpha virt. eigenvalues --    1.69933   1.69956   1.70575   1.70630   1.71044
 Alpha virt. eigenvalues --    1.71223   1.71556   1.71857   1.72218   1.72430
 Alpha virt. eigenvalues --    1.72707   1.73173   1.73386   1.73440   1.73611
 Alpha virt. eigenvalues --    1.73834   1.74093   1.74281   1.74366   1.75244
 Alpha virt. eigenvalues --    1.75272   1.75479   1.75504   1.75926   1.75982
 Alpha virt. eigenvalues --    1.76316   1.76475   1.76507   1.76731   1.76958
 Alpha virt. eigenvalues --    1.77263   1.77324   1.77677   1.77786   1.78045
 Alpha virt. eigenvalues --    1.78298   1.78664   1.79043   1.79110   1.79664
 Alpha virt. eigenvalues --    1.79743   1.79868   1.79920   1.80091   1.80312
 Alpha virt. eigenvalues --    1.80439   1.80479   1.80875   1.81253   1.81358
 Alpha virt. eigenvalues --    1.81624   1.81805   1.82202   1.82365   1.82462
 Alpha virt. eigenvalues --    1.82607   1.82749   1.83078   1.83121   1.83594
 Alpha virt. eigenvalues --    1.83769   1.84065   1.84263   1.84506   1.84720
 Alpha virt. eigenvalues --    1.84837   1.85099   1.85325   1.85428   1.85660
 Alpha virt. eigenvalues --    1.85803   1.85923   1.86491   1.86691   1.86953
 Alpha virt. eigenvalues --    1.86955   1.87376   1.87517   1.87575   1.88020
 Alpha virt. eigenvalues --    1.88172   1.88329   1.88496   1.88881   1.88969
 Alpha virt. eigenvalues --    1.89333   1.89597   1.89957   1.90491   1.90543
 Alpha virt. eigenvalues --    1.90724   1.90920   1.91112   1.91635   1.91875
 Alpha virt. eigenvalues --    1.92007   1.92389   1.92984   1.93046   1.93297
 Alpha virt. eigenvalues --    1.93364   1.93584   1.93770   1.94331   1.94646
 Alpha virt. eigenvalues --    1.94726   1.95020   1.95124   1.95222   1.95506
 Alpha virt. eigenvalues --    1.95676   1.95944   1.96262   1.96395   1.96676
 Alpha virt. eigenvalues --    1.97018   1.97291   1.97649   1.97738   1.98400
 Alpha virt. eigenvalues --    1.98587   1.98986   1.99302   1.99529   1.99688
 Alpha virt. eigenvalues --    2.00055   2.00529   2.00582   2.01139   2.01359
 Alpha virt. eigenvalues --    2.01707   2.01778   2.02218   2.02346   2.03287
 Alpha virt. eigenvalues --    2.03463   2.03874   2.04266   2.04352   2.04514
 Alpha virt. eigenvalues --    2.04881   2.05194   2.05305   2.05738   2.05853
 Alpha virt. eigenvalues --    2.05927   2.06111   2.06283   2.06995   2.07210
 Alpha virt. eigenvalues --    2.07792   2.07976   2.08120   2.08675   2.08704
 Alpha virt. eigenvalues --    2.09071   2.09239   2.09630   2.09915   2.10299
 Alpha virt. eigenvalues --    2.10477   2.10842   2.11161   2.11483   2.11800
 Alpha virt. eigenvalues --    2.12227   2.12632   2.12896   2.13267   2.13365
 Alpha virt. eigenvalues --    2.13962   2.14572   2.14641   2.14977   2.15291
 Alpha virt. eigenvalues --    2.15476   2.15790   2.16119   2.16456   2.16714
 Alpha virt. eigenvalues --    2.17152   2.17191   2.17955   2.18349   2.19097
 Alpha virt. eigenvalues --    2.19248   2.19441   2.19903   2.19997   2.20146
 Alpha virt. eigenvalues --    2.20862   2.21183   2.21991   2.22796   2.23077
 Alpha virt. eigenvalues --    2.23321   2.23469   2.23562   2.24314   2.24870
 Alpha virt. eigenvalues --    2.25257   2.25474   2.26093   2.26228   2.26883
 Alpha virt. eigenvalues --    2.27277   2.27811   2.27991   2.28360   2.29143
 Alpha virt. eigenvalues --    2.29492   2.29725   2.30535   2.30871   2.31354
 Alpha virt. eigenvalues --    2.31783   2.32415   2.32459   2.32553   2.32988
 Alpha virt. eigenvalues --    2.33462   2.33623   2.34227   2.34742   2.34873
 Alpha virt. eigenvalues --    2.35237   2.35411   2.35697   2.35828   2.36136
 Alpha virt. eigenvalues --    2.36513   2.36750   2.37236   2.37540   2.37861
 Alpha virt. eigenvalues --    2.38343   2.38655   2.38859   2.39059   2.39183
 Alpha virt. eigenvalues --    2.39598   2.40234   2.40283   2.40758   2.40857
 Alpha virt. eigenvalues --    2.41323   2.41455   2.41755   2.42569   2.43102
 Alpha virt. eigenvalues --    2.43207   2.43408   2.43908   2.44031   2.44367
 Alpha virt. eigenvalues --    2.44479   2.45100   2.45857   2.45885   2.46581
 Alpha virt. eigenvalues --    2.46665   2.46784   2.47776   2.48083   2.48148
 Alpha virt. eigenvalues --    2.48418   2.49328   2.49353   2.50201   2.50603
 Alpha virt. eigenvalues --    2.50733   2.51067   2.52806   2.52925   2.53316
 Alpha virt. eigenvalues --    2.53769   2.54429   2.54565   2.55600   2.55864
 Alpha virt. eigenvalues --    2.56267   2.56747   2.57069   2.57360   2.57665
 Alpha virt. eigenvalues --    2.58169   2.58476   2.58681   2.59170   2.59824
 Alpha virt. eigenvalues --    2.60242   2.60814   2.61255   2.61536   2.61655
 Alpha virt. eigenvalues --    2.62059   2.62400   2.63013   2.63170   2.63559
 Alpha virt. eigenvalues --    2.64033   2.64478   2.64656   2.65058   2.65618
 Alpha virt. eigenvalues --    2.65678   2.66646   2.66855   2.67038   2.67747
 Alpha virt. eigenvalues --    2.67930   2.68824   2.69077   2.69226   2.69687
 Alpha virt. eigenvalues --    2.69704   2.71278   2.71392   2.71940   2.72522
 Alpha virt. eigenvalues --    2.72579   2.72858   2.73144   2.73613   2.73897
 Alpha virt. eigenvalues --    2.74095   2.74828   2.74921   2.75134   2.75768
 Alpha virt. eigenvalues --    2.76713   2.77414   2.77638   2.78098   2.78869
 Alpha virt. eigenvalues --    2.79013   2.79759   2.80335   2.81135   2.81187
 Alpha virt. eigenvalues --    2.81481   2.82041   2.83043   2.83558   2.83907
 Alpha virt. eigenvalues --    2.84241   2.85019   2.85631   2.86566   2.86691
 Alpha virt. eigenvalues --    2.86897   2.87571   2.87868   2.88299   2.88940
 Alpha virt. eigenvalues --    2.89789   2.90083   2.90719   2.90981   2.91154
 Alpha virt. eigenvalues --    2.91463   2.91702   2.91766   2.91905   2.92200
 Alpha virt. eigenvalues --    2.92520   2.92802   2.93347   2.93392   2.93589
 Alpha virt. eigenvalues --    2.93870   2.93948   2.94940   2.95047   2.95400
 Alpha virt. eigenvalues --    2.95517   2.96028   2.96382   2.96720   2.96854
 Alpha virt. eigenvalues --    2.97483   2.97753   2.97973   2.98049   2.98261
 Alpha virt. eigenvalues --    2.98640   2.98834   2.99222   2.99380   2.99659
 Alpha virt. eigenvalues --    3.00093   3.00201   3.00474   3.01022   3.01424
 Alpha virt. eigenvalues --    3.01751   3.01938   3.02001   3.02182   3.02440
 Alpha virt. eigenvalues --    3.02894   3.03021   3.03821   3.04052   3.04134
 Alpha virt. eigenvalues --    3.04441   3.04860   3.05828   3.06129   3.06849
 Alpha virt. eigenvalues --    3.07099   3.07567   3.07830   3.08220   3.08946
 Alpha virt. eigenvalues --    3.09821   3.10218   3.10552   3.10954   3.11500
 Alpha virt. eigenvalues --    3.11968   3.12839   3.13982   3.14517   3.14815
 Alpha virt. eigenvalues --    3.15664   3.16081   3.16365   3.17408   3.19468
 Alpha virt. eigenvalues --    3.19883   3.20071   3.20569   3.22641   3.23802
 Alpha virt. eigenvalues --    3.24161   3.28498   3.38578   3.39043   3.39806
 Alpha virt. eigenvalues --    3.40951   3.44092   3.47039   3.47707   3.50064
 Alpha virt. eigenvalues --    3.54907   3.60547   3.65192   3.65295   3.67291
 Alpha virt. eigenvalues --    3.68133   3.70783
          Condensed to atoms (all electrons):
 Mulliken charges:
               1
     1  Mg   0.964638
     2  C   -0.055919
     3  C   -0.067952
     4  C   -0.074838
     5  C   -0.080110
     6  N   -0.361322
     7  C    0.035848
     8  C   -0.098049
     9  C   -0.146232
    10  C    0.090828
    11  C    0.074305
    12  C    0.027192
    13  C    0.039769
    14  C    0.182155
    15  O   -0.268167
    16  O   -0.372155
    17  N   -0.461059
    18  C    0.110172
    19  C   -0.110766
    20  C   -0.077839
    21  C    0.212020
    22  C    0.059531
    23  C   -0.039942
    24  O   -0.271815
    25  C    0.003025
    26  N   -0.450182
    27  C    0.053348
    28  C   -0.131975
    29  C   -0.144890
    30  C    0.095715
    31  C   -0.004778
    32  C   -0.010455
    33  C   -0.073439
    34  N   -0.494321
    35  C    0.178812
    36  C   -0.188579
    37  C   -0.090764
    38  C    0.184787
    39  C    0.049558
    40  C    0.190469
    41  O   -0.187719
    42  C   -0.071807
    43  C    0.230250
    44  O   -0.226728
    45  O   -0.354956
    46  C    0.118203
    47  C    0.244709
    48  C   -0.124013
    49  C   -0.259143
    50  C    0.002956
    51  C    0.012800
    52  C   -0.064437
    53  C    0.018517
    54  C   -0.246166
    55  C    0.011931
    56  C   -0.028264
    57  C   -0.023557
    58  C   -0.003665
    59  C   -0.232634
    60  C   -0.026514
    61  C    0.027226
    62  C   -0.080317
    63  C    0.000454
    64  C   -0.226857
    65  C   -0.037413
    66  C   -0.023785
    67  H    0.008016
    68  H   -0.006695
    69  H    0.007251
    70  H    0.040214
    71  H    0.056005
    72  H    0.047725
    73  H    0.055320
    74  H    0.042936
    75  H    0.050127
    76  H    0.049278
    77  H    0.055140
    78  H    0.050142
    79  H    0.064469
    80  H    0.033229
    81  H    0.059574
    82  H    0.041892
    83  H    0.064221
    84  H    0.068302
    85  H    0.058062
    86  H    0.058498
    87  H    0.059217
    88  H    0.050259
    89  H    0.052317
    90  H    0.050068
    91  H    0.043538
    92  H    0.054267
    93  H    0.034370
    94  H    0.036764
    95  H    0.063565
    96  H    0.078319
    97  H    0.044200
    98  H    0.067084
    99  H    0.056312
   100  H    0.050903
   101  H    0.079983
   102  H    0.055694
   103  H    0.066609
   104  H    0.032119
   105  H    0.057624
   106  H    0.056199
   107  H    0.049363
   108  H    0.017359
   109  H    0.036578
   110  H    0.056797
   111  H    0.044051
   112  H    0.038326
   113  H    0.015817
   114  H    0.026266
   115  H    0.026513
   116  H    0.034205
   117  H    0.037994
   118  H    0.017309
   119  H    0.029396
   120  H    0.030351
   121  H    0.022426
   122  H    0.023063
   123  H    0.019091
   124  H    0.033513
   125  H    0.048035
   126  H    0.025694
   127  H    0.030916
   128  H    0.024475
   129  H    0.026151
   130  H    0.039602
   131  H    0.031688
   132  H    0.026953
   133  H    0.023767
   134  H    0.044162
   135  H    0.036655
   136  H    0.029119
   137  H    0.031573
   138  H    0.043444
   139  H    0.030116
   140  H    0.030418
 Sum of Mulliken charges =  -0.00000
 Mulliken charges with hydrogens summed into heavy atoms:
               1
     1  Mg   0.964638
     2  C   -0.055919
     3  C   -0.059936
     4  C   -0.081533
     5  C   -0.072858
     6  N   -0.361322
     7  C    0.035848
     8  C   -0.057834
     9  C   -0.090226
    10  C    0.090828
    11  C    0.220285
    12  C    0.126597
    13  C    0.145051
    14  C    0.182155
    15  O   -0.268167
    16  O   -0.372155
    17  N   -0.461059
    18  C    0.110172
    19  C   -0.110766
    20  C   -0.077839
    21  C    0.212020
    22  C    0.216804
    23  C   -0.039942
    24  O   -0.271815
    25  C    0.177440
    26  N   -0.450182
    27  C    0.053348
    28  C   -0.073913
    29  C   -0.086392
    30  C    0.095715
    31  C    0.157015
    32  C    0.083152
    33  C    0.051962
    34  N   -0.494321
    35  C    0.178812
    36  C   -0.188579
    37  C   -0.090764
    38  C    0.184787
    39  C    0.235641
    40  C    0.190469
    41  O   -0.187719
    42  C   -0.004723
    43  C    0.230250
    44  O   -0.226728
    45  O   -0.354956
    46  C    0.305400
    47  C    0.367013
    48  C   -0.091894
    49  C   -0.259143
    50  C    0.166142
    51  C    0.066737
    52  C    0.036412
    53  C    0.072660
    54  C   -0.219900
    55  C    0.110643
    56  C    0.018441
    57  C    0.029220
    58  C    0.038489
    59  C   -0.199121
    60  C    0.078131
    61  C    0.077852
    62  C   -0.009027
    63  C    0.051175
    64  C   -0.182696
    65  C    0.059934
    66  C    0.080193
 Electronic spatial extent (au):  <R**2>=          92692.0001
 Charge=             -0.0000 electrons
 Dipole moment (field-independent basis, Debye):
    X=              0.7127    Y=             -0.3793    Z=              3.2492  Tot=              3.3480
 Quadrupole moment (field-independent basis, Debye-Ang):
   XX=           -375.7261   YY=           -429.1261   ZZ=           -393.3727
   XY=             39.7525   XZ=             15.8800   YZ=             25.4859
 Traceless Quadrupole moment (field-independent basis, Debye-Ang):
   XX=             23.6822   YY=            -29.7178   ZZ=              6.0356
   XY=             39.7525   XZ=             15.8800   YZ=             25.4859
 Octapole moment (field-independent basis, Debye-Ang**2):
  XXX=            136.5444  YYY=           -244.0075  ZZZ=              5.1321  XYY=            -41.6649
  XXY=            219.4596  XXZ=            163.1751  XZZ=            100.7660  YZZ=            -31.5531
  YYZ=             31.1122  XYZ=             77.5089
 Hexadecapole moment (field-independent basis, Debye-Ang**3):
 XXXX=         -80352.2391 YYYY=         -34473.7635 ZZZZ=         -11709.7545 XXXY=           1801.0003
 XXXZ=           1336.5208 YYYX=            990.2439 YYYZ=           1742.0661 ZZZX=            107.1754
 ZZZY=            236.2839 XXYY=         -19578.6633 XXZZ=         -15345.8569 YYZZ=          -7461.6170
 XXYZ=            376.7872 YYXZ=             37.7061 ZZXY=           -170.5036
 N-N= 9.766761155863D+03 E-N=-2.652416952962D+04  KE= 2.975169224238D+03
 Leave Link  601 at Fri Apr 29 12:28:00 2022, MaxMem= 10066329600 cpu:               9.9 elap:               0.5
 (Enter /sw/apps/gaussian-16.0/g16/l9999.exe)
 1\1\GINC-BP1-COMPUTE148\SP\RPBE1PBE TD-FC\def2SVP\C55H74Mg1N4O6\OF1564
 1\29-Apr-2022\0\\#p PBE1PBE/Def2SVP td=(nstates=5)\\step_301_chromopho
 re_17 TDDFT with PBE1PBE functional\\0,1\Mg,0,29.411,59.43,41.775\C,0,
 26.283,58.083,40.766\C,0,30.959,56.526,40.45\C,0,32.464,60.824,42.089\
 C,0,27.798,62.231,42.798\N,0,28.676,57.607,40.591\C,0,27.406,57.272,40
 .375\C,0,27.415,55.998,39.619\C,0,28.828,55.413,39.753\C,0,29.538,56.5
 23,40.451\C,0,28.984,54.006,40.265\C,0,26.813,56.078,38.135\C,0,26.113
 ,54.833,37.704\C,0,26.646,54.262,36.383\O,0,27.397,53.295,36.377\O,0,2
 6.22,54.983,35.271\N,0,31.442,58.796,41.231\C,0,31.928,57.514,40.786\C
 ,0,33.27,57.454,40.635\C,0,33.7,58.773,40.966\C,0,32.528,59.536,41.481
 \C,0,33.973,56.225,40.081\C,0,35.075,59.221,40.876\O,0,35.952,58.412,4
 0.567\C,0,35.564,60.632,41.14\N,0,30.067,61.296,42.301\C,0,31.38,61.64
 3,42.444\C,0,31.527,63.083,42.95\C,0,29.989,63.54,43.109\C,0,29.222,62
 .324,42.625\C,0,32.298,63.276,44.299\C,0,29.63,64.853,42.254\C,0,29.1,
 65.957,43.202\N,0,27.44,59.991,41.912\C,0,26.931,61.209,42.411\C,0,25.
 453,61.033,42.519\C,0,25.196,59.848,41.828\C,0,26.434,59.309,41.399\C,
 0,24.544,62.131,42.901\C,0,24.098,58.978,41.313\O,0,22.893,59.001,41.4
 22\C,0,24.831,57.784,40.622\C,0,24.383,56.492,41.179\O,0,24.343,56.263
 ,42.349\O,0,24.008,55.623,40.209\C,0,23.484,54.422,40.896\C,0,26.685,5
 4.534,33.998\C,0,26.539,55.853,33.157\C,0,26.504,55.816,31.807\C,0,26.
 702,54.53,30.935\C,0,26.202,57.056,31.008\C,0,27.442,57.79,30.318\C,0,
 27.443,57.679,28.776\C,0,28.59,56.752,28.226\C,0,28.255,55.968,26.977\
 C,0,29.975,57.546,28.1\C,0,31.263,56.63,28.264\C,0,32.272,57.029,29.31
 2\C,0,32.45,56.129,30.547\C,0,31.313,56.509,31.62\C,0,33.87,56.225,31.
 124\C,0,34.604,54.901,30.916\C,0,36.159,55.013,31.161\C,0,36.956,54.90
 3,29.75\C,0,37.701,53.494,29.673\C,0,37.749,56.173,29.358\H,0,31.471,5
 5.644,40.059\H,0,33.4,61.288,42.405\H,0,27.432,63.187,43.178\H,0,26.74
 8,55.405,40.245\H,0,29.242,55.588,38.76\H,0,29.758,54.142,41.02\H,0,29
 .314,53.437,39.396\H,0,28.012,53.626,40.581\H,0,27.633,56.185,37.425\H
 ,0,26.169,56.939,37.954\H,0,25.064,55.021,37.477\H,0,26.121,54.058,38.
 47\H,0,34.033,56.344,39.\H,0,33.613,55.214,40.275\H,0,34.928,56.048,40
 .577\H,0,34.722,61.286,40.916\H,0,36.446,60.831,40.531\H,0,35.753,60.5
 99,42.214\H,0,32.108,63.555,42.157\H,0,29.898,63.723,44.18\H,0,31.957,
 64.079,44.952\H,0,33.295,63.442,43.889\H,0,32.275,62.328,44.837\H,0,28
 .861,64.606,41.522\H,0,30.496,65.151,41.663\H,0,29.519,66.945,43.014\H
 ,0,29.156,65.592,44.228\H,0,28.022,66.078,43.1\H,0,23.627,61.645,43.23
 3\H,0,24.431,62.728,41.996\H,0,24.856,62.7,43.777\H,0,24.542,57.755,39
 .572\H,0,24.365,53.876,41.231\H,0,22.931,53.805,40.188\H,0,22.75,54.62
 2,41.677\H,0,26.041,53.745,33.609\H,0,27.726,54.212,34.022\H,0,26.297,
 56.815,33.61\H,0,25.932,53.832,31.263\H,0,27.688,54.129,31.171\H,0,26.
 657,54.685,29.857\H,0,25.745,57.741,31.722\H,0,25.415,56.821,30.292\H,
 0,28.201,57.096,30.679\H,0,27.597,58.809,30.672\H,0,27.567,58.673,28.3
 46\H,0,26.539,57.103,28.58\H,0,28.721,55.977,28.981\H,0,28.651,56.568,
 26.158\H,0,27.177,55.832,26.902\H,0,28.799,55.025,26.917\H,0,30.018,58
 .327,28.859\H,0,30.08,58.129,27.185\H,0,31.701,56.588,27.267\H,0,30.91
 2,55.628,28.511\H,0,31.999,58.031,29.643\H,0,33.272,57.105,28.885\H,0,
 32.117,55.138,30.239\H,0,30.696,57.367,31.352\H,0,31.818,56.667,32.573
 \H,0,30.675,55.633,31.736\H,0,33.87,56.459,32.188\H,0,34.389,57.062,30
 .657\H,0,34.491,54.496,29.91\H,0,34.23,54.213,31.674\H,0,36.371,54.248
 ,31.908\H,0,36.435,55.922,31.696\H,0,36.325,54.818,28.866\H,0,38.688,5
 3.524,29.212\H,0,37.036,52.833,29.116\H,0,37.777,52.906,30.587\H,0,37.
 195,56.96,28.847\H,0,38.59,55.833,28.753\H,0,38.154,56.641,30.256\\Ver
 sion=ES64L-G16RevA.03\State=1-A\HF=-3005.3183173\RMSD=4.381e-09\PG=C01
  [X(C55H74Mg1N4O6)]\\@


 THE THINKER DIES, BUT HIS THOUGHTS ARE BEYOND THE 
 REACH OF DESTRUCTION.  MEN ARE MORTAL; BUT IDEAS 
 ARE IMMORTAL.
                              -- WALTER LIPPMANN
 Job cpu time:       0 days  8 hours 12 minutes 35.8 seconds.
 Elapsed time:       0 days  0 hours 20 minutes 35.5 seconds.
 File lengths (MBytes):  RWF=   8929 Int=      0 D2E=      0 Chk=    390 Scr=      1
 Normal termination of Gaussian 16 at Fri Apr 29 12:28:01 2022.
