 Entering Gaussian System, Link 0=g16
 Initial command:
 /sw/apps/gaussian-16.0/g16/l1.exe "/tmp/Gau-25317.inp" -scrdir="/tmp/"
 Entering Link 1 = /sw/apps/gaussian-16.0/g16/l1.exe PID=     25318.
  
 Copyright (c) 1988,1990,1992,1993,1995,1998,2003,2009,2016,
            Gaussian, Inc.  All Rights Reserved.
  
 This is part of the Gaussian(R) 16 program.  It is based on
 the Gaussian(R) 09 system (copyright 2009, Gaussian, Inc.),
 the Gaussian(R) 03 system (copyright 2003, Gaussian, Inc.),
 the Gaussian(R) 98 system (copyright 1998, Gaussian, Inc.),
 the Gaussian(R) 94 system (copyright 1995, Gaussian, Inc.),
 the Gaussian 92(TM) system (copyright 1992, Gaussian, Inc.),
 the Gaussian 90(TM) system (copyright 1990, Gaussian, Inc.),
 the Gaussian 88(TM) system (copyright 1988, Gaussian, Inc.),
 the Gaussian 86(TM) system (copyright 1986, Carnegie Mellon
 University), and the Gaussian 82(TM) system (copyright 1983,
 Carnegie Mellon University). Gaussian is a federally registered
 trademark of Gaussian, Inc.
  
 This software contains proprietary and confidential information,
 including trade secrets, belonging to Gaussian, Inc.
  
 This software is provided under written license and may be
 used, copied, transmitted, or stored only in accord with that
 written license.
  
 The following legend is applicable only to US Government
 contracts under FAR:
  
                    RESTRICTED RIGHTS LEGEND
  
 Use, reproduction and disclosure by the US Government is
 subject to restrictions as set forth in subparagraphs (a)
 and (c) of the Commercial Computer Software - Restricted
 Rights clause in FAR 52.227-19.
  
 Gaussian, Inc.
 340 Quinnipiac St., Bldg. 40, Wallingford CT 06492
  
  
 ---------------------------------------------------------------
 Warning -- This program may not be used in any manner that
 competes with the business of Gaussian, Inc. or will provide
 assistance to any competitor of Gaussian, Inc.  The licensee
 of this program is prohibited from giving any competitor of
 Gaussian, Inc. access to this program.  By using this program,
 the user acknowledges that Gaussian, Inc. is engaged in the
 business of creating and licensing software in the field of
 computational chemistry and represents and warrants to the
 licensee that it is not a competitor of Gaussian, Inc. and that
 it will not use this program in any manner prohibited above.
 ---------------------------------------------------------------
  

 Cite this work as:
 Gaussian 16, Revision A.03,
 M. J. Frisch, G. W. Trucks, H. B. Schlegel, G. E. Scuseria, 
 M. A. Robb, J. R. Cheeseman, G. Scalmani, V. Barone, 
 G. A. Petersson, H. Nakatsuji, X. Li, M. Caricato, A. V. Marenich, 
 J. Bloino, B. G. Janesko, R. Gomperts, B. Mennucci, H. P. Hratchian, 
 J. V. Ortiz, A. F. Izmaylov, J. L. Sonnenberg, D. Williams-Young, 
 F. Ding, F. Lipparini, F. Egidi, J. Goings, B. Peng, A. Petrone, 
 T. Henderson, D. Ranasinghe, V. G. Zakrzewski, J. Gao, N. Rega, 
 G. Zheng, W. Liang, M. Hada, M. Ehara, K. Toyota, R. Fukuda, 
 J. Hasegawa, M. Ishida, T. Nakajima, Y. Honda, O. Kitao, H. Nakai, 
 T. Vreven, K. Throssell, J. A. Montgomery, Jr., J. E. Peralta, 
 F. Ogliaro, M. J. Bearpark, J. J. Heyd, E. N. Brothers, K. N. Kudin, 
 V. N. Staroverov, T. A. Keith, R. Kobayashi, J. Normand, 
 K. Raghavachari, A. P. Rendell, J. C. Burant, S. S. Iyengar, 
 J. Tomasi, M. Cossi, J. M. Millam, M. Klene, C. Adamo, R. Cammi, 
 J. W. Ochterski, R. L. Martin, K. Morokuma, O. Farkas, 
 J. B. Foresman, and D. J. Fox, Gaussian, Inc., Wallingford CT, 2016.
 
 ******************************************
 Gaussian 16:  ES64L-G16RevA.03 25-Dec-2016
                27-Apr-2022 
 ******************************************
 %nproc=24
 Will use up to   24 processors via shared memory.
 %mem=75GB
 --------------------------------
 #p wB97XD/Def2SVP td=(nstates=5)
 --------------------------------
 1/38=1,172=1/1;
 2/12=2,17=6,18=5,40=1/2;
 3/5=43,7=101,11=9,25=1,30=1,74=-58/1,2,3,8;
 4//1;
 5/5=2,38=5/2;
 8/6=1,10=1,108=5/1;
 9/41=5,42=1,70=2/14;
 6/7=2,8=2,9=2,10=2/1;
 99/5=1,9=1/99;
 Leave Link    1 at Wed Apr 27 01:40:50 2022, MaxMem= 10066329600 cpu:               1.3 elap:               0.1
 (Enter /sw/apps/gaussian-16.0/g16/l101.exe)
 ---------------------------------------------------
 step_101_chromophore_4 TDDFT with wB97XD functional
 ---------------------------------------------------
 Symbolic Z-matrix:
 Charge =  0 Multiplicity = 1
 Mg                    8.488     3.107     27.121 
 C                     10.108    1.497     29.756 
 C                     7.076     5.232     29.322 
 C                     6.924     4.474     24.464 
 C                     9.83      0.595     24.953 
 N                     8.553     3.318     29.342 
 C                     9.403     2.629     30.174 
 C                     9.228     3.103     31.689 
 C                     8.259     4.333     31.551 
 C                     7.929     4.323     30.014 
 C                     7.094     4.311     32.47 
 C                     10.523    3.301     32.59 
 C                     10.448    4.194     33.838 
 C                     10.956    3.518     35.154 
 O                     12.137    3.247     35.337 
 O                     9.971     3.224     36.039 
 N                     7.171     4.522     26.957 
 C                     6.793     5.385     27.934 
 C                     5.837     6.32      27.398 
 C                     5.648     6.029     25.99 
 C                     6.652     4.983     25.745 
 C                     5.033     7.275     28.311 
 C                     4.714     6.655     24.995 
 O                     4.624     6.294     23.867 
 C                     3.628     7.558     25.451 
 N                     8.588     2.694     25.006 
 C                     7.72      3.367     24.193 
 C                     7.539     2.477     22.941 
 C                     8.575     1.387     23.008 
 C                     9.13      1.603     24.379 
 C                     6.03      2.002     22.748 
 C                     9.668     1.378     21.892 
 C                     9.693     0.208     20.928 
 N                     9.683     1.377     27.289 
 C                     10.277    0.568     26.302 
 C                     11.205   -0.295     26.976 
 C                     11.211    0.004     28.308 
 C                     10.257    1.073     28.464 
 C                     12.081   -1.41      26.422 
 C                     11.761   -0.364     29.68 
 O                     12.576   -1.224     30.04 
 C                     11.13     0.711     30.573 
 C                     10.575    0.051     31.82 
 O                     9.429    -0.401     31.994 
 O                     11.626    0.023     32.711 
 C                     11.366   -0.315     34.114 
 C                     10.38     2.65      37.321 
 C                     10.455    3.728     38.383 
 C                     11.223    3.752     39.545 
 C                     12.162    2.697     40.071 
 C                     11.104    5.041     40.338 
 C                     9.767     5.192     40.993 
 C                     9.172     6.64      40.772 
 C                     9.284     7.562     41.977 
 C                     8.164     7.224     42.926 
 C                     9.013     9.034     41.422 
 C                     10.316    9.9       41.659 
 C                     10.136    11.327    42.323 
 C                     11.113    11.578    43.591 
 C                     11.804    12.974    43.545 
 C                     10.276    11.513    44.894 
 C                     10.032    9.989     45.362 
 C                     10.463    9.663     46.838 
 C                     9.236     9.587     47.742 
 C                     9.263     10.71     48.843 
 C                     9.096     8.163     48.403 
 H                     6.725     6.018     29.993 
 H                     6.392     4.847     23.586 
 H                     10.091   -0.284     24.359 
 H                     8.701     2.279     32.169 
 H                     8.874     5.209     31.759 
 H                     6.685     5.319     32.546 
 H                     7.455     3.946     33.431 
 H                     6.351     3.564     32.191 
 H                     11.379    3.619     31.995 
 H                     10.692    2.323     33.041 
 H                     9.483     4.624     34.104 
 H                     11.118    5.027     33.622 
 H                     4.        7.053     28.044 
 H                     5.335     8.309     28.145 
 H                     5.093     7.117     29.387 
 H                     3.143     8.013     24.588 
 H                     4.212     8.385     25.856 
 H                     2.979     7.131     26.217 
 H                     7.657     3.164     22.103 
 H                     7.964     0.488     22.932 
 H                     5.516     2.157     23.697 
 H                     5.988     0.923     22.601 
 H                     5.487     2.49      21.938 
 H                     10.639    1.433     22.385 
 H                     9.651     2.254     21.244 
 H                     8.872    -0.486     21.112 
 H                     10.615   -0.366     21.021 
 H                     9.609     0.5       19.881 
 H                     12.347   -0.981     25.456 
 H                     11.45    -2.279     26.237 
 H                     12.957   -1.607     27.041 
 H                     11.938    1.379     30.87 
 H                     11.467    0.552     34.766 
 H                     12.165   -0.902     34.567 
 H                     10.524   -1.        34.212 
 H                     11.296    2.068     37.218 
 H                     9.574     1.982     37.625 
 H                     9.843     4.617     38.225 
 H                     12.34     1.851     39.408 
 H                     11.754    2.434     41.047 
 H                     13.102    3.247     40.116 
 H                     11.416    5.82      39.642 
 H                     11.8      4.946     41.171 
 H                     9.78      4.994     42.064 
 H                     9.024     4.513     40.575 
 H                     8.139     6.467     40.472 
 H                     9.61      7.078     39.875 
 H                     10.214    7.471     42.539 
 H                     8.511     6.396     43.543 
 H                     7.157     7.086     42.532 
 H                     8.063     8.104     43.561 
 H                     8.173     9.433     41.99 
 H                     8.6       9.146     40.42 
 H                     10.59     10.167    40.639 
 H                     11.177    9.438     42.143 
 H                     9.114     11.378    42.698 
 H                     10.296    12.076    41.547 
 H                     11.824    10.752    43.575 
 H                     11.845    13.35     42.523 
 H                     12.853    12.762    43.748 
 H                     11.19     13.659    44.13 
 H                     9.268     11.921    44.823 
 H                     10.608    12.059    45.778 
 H                     10.495    9.226     44.736 
 H                     8.971     9.741     45.316 
 H                     11.184    10.382    47.228 
 H                     11.031    8.734     46.858 
 H                     8.305     9.767     47.203 
 H                     8.596     11.527    48.569 
 H                     10.279    11.096    48.93 
 H                     8.966     10.296    49.807 
 H                     9.146     8.174     49.492 
 H                     9.932     7.495     48.192 
 H                     8.205     7.656     48.033 
 
 ITRead=  0  0  0  0  0  0  0  0  0  0  0  0  0  0  0  0  0  0  0  0
 ITRead=  0  0  0  0  0  0  0  0  0  0  0  0  0  0  0  0  0  0  0  0
 ITRead=  0  0  0  0  0  0  0  0  0  0  0  0  0  0  0  0  0  0  0  0
 ITRead=  0  0  0  0  0  0  0  0  0  0  0  0  0  0  0  0  0  0  0  0
 ITRead=  0  0  0  0  0  0  0  0  0  0  0  0  0  0  0  0  0  0  0  0
 ITRead=  0  0  0  0  0  0  0  0  0  0  0  0  0  0  0  0  0  0  0  0
 ITRead=  0  0  0  0  0  0  0  0  0  0  0  0  0  0  0  0  0  0  0  0
 MicOpt= -1 -1 -1 -1 -1 -1 -1 -1 -1 -1 -1 -1 -1 -1 -1 -1 -1 -1 -1 -1
 MicOpt= -1 -1 -1 -1 -1 -1 -1 -1 -1 -1 -1 -1 -1 -1 -1 -1 -1 -1 -1 -1
 MicOpt= -1 -1 -1 -1 -1 -1 -1 -1 -1 -1 -1 -1 -1 -1 -1 -1 -1 -1 -1 -1
 MicOpt= -1 -1 -1 -1 -1 -1 -1 -1 -1 -1 -1 -1 -1 -1 -1 -1 -1 -1 -1 -1
 MicOpt= -1 -1 -1 -1 -1 -1 -1 -1 -1 -1 -1 -1 -1 -1 -1 -1 -1 -1 -1 -1
 MicOpt= -1 -1 -1 -1 -1 -1 -1 -1 -1 -1 -1 -1 -1 -1 -1 -1 -1 -1 -1 -1
 MicOpt= -1 -1 -1 -1 -1 -1 -1 -1 -1 -1 -1 -1 -1 -1 -1 -1 -1 -1 -1 -1
 NAtoms=    140 NQM=      140 NQMF=       0 NMMI=      0 NMMIF=      0
                NMic=       0 NMicF=      0.
                    Isotopes and Nuclear Properties:
 (Nuclear quadrupole moments (NQMom) in fm**2, nuclear magnetic moments (NMagM)
  in nuclear magnetons)

  Atom         1           2           3           4           5           6           7           8           9          10
 IAtWgt=          24          12          12          12          12          14          12          12          12          12
 AtmWgt=  23.9850450  12.0000000  12.0000000  12.0000000  12.0000000  14.0030740  12.0000000  12.0000000  12.0000000  12.0000000
 NucSpn=           0           0           0           0           0           2           0           0           0           0
 AtZEff=  -0.0000000  -0.0000000  -0.0000000  -0.0000000  -0.0000000  -0.0000000  -0.0000000  -0.0000000  -0.0000000  -0.0000000
 NQMom=    0.0000000   0.0000000   0.0000000   0.0000000   0.0000000   2.0440000   0.0000000   0.0000000   0.0000000   0.0000000
 NMagM=    0.0000000   0.0000000   0.0000000   0.0000000   0.0000000   0.4037610   0.0000000   0.0000000   0.0000000   0.0000000
 AtZNuc=  12.0000000   6.0000000   6.0000000   6.0000000   6.0000000   7.0000000   6.0000000   6.0000000   6.0000000   6.0000000

  Atom        11          12          13          14          15          16          17          18          19          20
 IAtWgt=          12          12          12          12          16          16          14          12          12          12
 AtmWgt=  12.0000000  12.0000000  12.0000000  12.0000000  15.9949146  15.9949146  14.0030740  12.0000000  12.0000000  12.0000000
 NucSpn=           0           0           0           0           0           0           2           0           0           0
 AtZEff=  -0.0000000  -0.0000000  -0.0000000  -0.0000000  -0.0000000  -0.0000000  -0.0000000  -0.0000000  -0.0000000  -0.0000000
 NQMom=    0.0000000   0.0000000   0.0000000   0.0000000   0.0000000   0.0000000   2.0440000   0.0000000   0.0000000   0.0000000
 NMagM=    0.0000000   0.0000000   0.0000000   0.0000000   0.0000000   0.0000000   0.4037610   0.0000000   0.0000000   0.0000000
 AtZNuc=   6.0000000   6.0000000   6.0000000   6.0000000   8.0000000   8.0000000   7.0000000   6.0000000   6.0000000   6.0000000

  Atom        21          22          23          24          25          26          27          28          29          30
 IAtWgt=          12          12          12          16          12          14          12          12          12          12
 AtmWgt=  12.0000000  12.0000000  12.0000000  15.9949146  12.0000000  14.0030740  12.0000000  12.0000000  12.0000000  12.0000000
 NucSpn=           0           0           0           0           0           2           0           0           0           0
 AtZEff=  -0.0000000  -0.0000000  -0.0000000  -0.0000000  -0.0000000  -0.0000000  -0.0000000  -0.0000000  -0.0000000  -0.0000000
 NQMom=    0.0000000   0.0000000   0.0000000   0.0000000   0.0000000   2.0440000   0.0000000   0.0000000   0.0000000   0.0000000
 NMagM=    0.0000000   0.0000000   0.0000000   0.0000000   0.0000000   0.4037610   0.0000000   0.0000000   0.0000000   0.0000000
 AtZNuc=   6.0000000   6.0000000   6.0000000   8.0000000   6.0000000   7.0000000   6.0000000   6.0000000   6.0000000   6.0000000

  Atom        31          32          33          34          35          36          37          38          39          40
 IAtWgt=          12          12          12          14          12          12          12          12          12          12
 AtmWgt=  12.0000000  12.0000000  12.0000000  14.0030740  12.0000000  12.0000000  12.0000000  12.0000000  12.0000000  12.0000000
 NucSpn=           0           0           0           2           0           0           0           0           0           0
 AtZEff=  -0.0000000  -0.0000000  -0.0000000  -0.0000000  -0.0000000  -0.0000000  -0.0000000  -0.0000000  -0.0000000  -0.0000000
 NQMom=    0.0000000   0.0000000   0.0000000   2.0440000   0.0000000   0.0000000   0.0000000   0.0000000   0.0000000   0.0000000
 NMagM=    0.0000000   0.0000000   0.0000000   0.4037610   0.0000000   0.0000000   0.0000000   0.0000000   0.0000000   0.0000000
 AtZNuc=   6.0000000   6.0000000   6.0000000   7.0000000   6.0000000   6.0000000   6.0000000   6.0000000   6.0000000   6.0000000

  Atom        41          42          43          44          45          46          47          48          49          50
 IAtWgt=          16          12          12          16          16          12          12          12          12          12
 AtmWgt=  15.9949146  12.0000000  12.0000000  15.9949146  15.9949146  12.0000000  12.0000000  12.0000000  12.0000000  12.0000000
 NucSpn=           0           0           0           0           0           0           0           0           0           0
 AtZEff=  -0.0000000  -0.0000000  -0.0000000  -0.0000000  -0.0000000  -0.0000000  -0.0000000  -0.0000000  -0.0000000  -0.0000000
 NQMom=    0.0000000   0.0000000   0.0000000   0.0000000   0.0000000   0.0000000   0.0000000   0.0000000   0.0000000   0.0000000
 NMagM=    0.0000000   0.0000000   0.0000000   0.0000000   0.0000000   0.0000000   0.0000000   0.0000000   0.0000000   0.0000000
 AtZNuc=   8.0000000   6.0000000   6.0000000   8.0000000   8.0000000   6.0000000   6.0000000   6.0000000   6.0000000   6.0000000

  Atom        51          52          53          54          55          56          57          58          59          60
 IAtWgt=          12          12          12          12          12          12          12          12          12          12
 AtmWgt=  12.0000000  12.0000000  12.0000000  12.0000000  12.0000000  12.0000000  12.0000000  12.0000000  12.0000000  12.0000000
 NucSpn=           0           0           0           0           0           0           0           0           0           0
 AtZEff=  -0.0000000  -0.0000000  -0.0000000  -0.0000000  -0.0000000  -0.0000000  -0.0000000  -0.0000000  -0.0000000  -0.0000000
 NQMom=    0.0000000   0.0000000   0.0000000   0.0000000   0.0000000   0.0000000   0.0000000   0.0000000   0.0000000   0.0000000
 NMagM=    0.0000000   0.0000000   0.0000000   0.0000000   0.0000000   0.0000000   0.0000000   0.0000000   0.0000000   0.0000000
 AtZNuc=   6.0000000   6.0000000   6.0000000   6.0000000   6.0000000   6.0000000   6.0000000   6.0000000   6.0000000   6.0000000

  Atom        61          62          63          64          65          66          67          68          69          70
 IAtWgt=          12          12          12          12          12          12           1           1           1           1
 AtmWgt=  12.0000000  12.0000000  12.0000000  12.0000000  12.0000000  12.0000000   1.0078250   1.0078250   1.0078250   1.0078250
 NucSpn=           0           0           0           0           0           0           1           1           1           1
 AtZEff=  -0.0000000  -0.0000000  -0.0000000  -0.0000000  -0.0000000  -0.0000000  -0.0000000  -0.0000000  -0.0000000  -0.0000000
 NQMom=    0.0000000   0.0000000   0.0000000   0.0000000   0.0000000   0.0000000   0.0000000   0.0000000   0.0000000   0.0000000
 NMagM=    0.0000000   0.0000000   0.0000000   0.0000000   0.0000000   0.0000000   2.7928460   2.7928460   2.7928460   2.7928460
 AtZNuc=   6.0000000   6.0000000   6.0000000   6.0000000   6.0000000   6.0000000   1.0000000   1.0000000   1.0000000   1.0000000

  Atom        71          72          73          74          75          76          77          78          79          80
 IAtWgt=           1           1           1           1           1           1           1           1           1           1
 AtmWgt=   1.0078250   1.0078250   1.0078250   1.0078250   1.0078250   1.0078250   1.0078250   1.0078250   1.0078250   1.0078250
 NucSpn=           1           1           1           1           1           1           1           1           1           1
 AtZEff=  -0.0000000  -0.0000000  -0.0000000  -0.0000000  -0.0000000  -0.0000000  -0.0000000  -0.0000000  -0.0000000  -0.0000000
 NQMom=    0.0000000   0.0000000   0.0000000   0.0000000   0.0000000   0.0000000   0.0000000   0.0000000   0.0000000   0.0000000
 NMagM=    2.7928460   2.7928460   2.7928460   2.7928460   2.7928460   2.7928460   2.7928460   2.7928460   2.7928460   2.7928460
 AtZNuc=   1.0000000   1.0000000   1.0000000   1.0000000   1.0000000   1.0000000   1.0000000   1.0000000   1.0000000   1.0000000

  Atom        81          82          83          84          85          86          87          88          89          90
 IAtWgt=           1           1           1           1           1           1           1           1           1           1
 AtmWgt=   1.0078250   1.0078250   1.0078250   1.0078250   1.0078250   1.0078250   1.0078250   1.0078250   1.0078250   1.0078250
 NucSpn=           1           1           1           1           1           1           1           1           1           1
 AtZEff=  -0.0000000  -0.0000000  -0.0000000  -0.0000000  -0.0000000  -0.0000000  -0.0000000  -0.0000000  -0.0000000  -0.0000000
 NQMom=    0.0000000   0.0000000   0.0000000   0.0000000   0.0000000   0.0000000   0.0000000   0.0000000   0.0000000   0.0000000
 NMagM=    2.7928460   2.7928460   2.7928460   2.7928460   2.7928460   2.7928460   2.7928460   2.7928460   2.7928460   2.7928460
 AtZNuc=   1.0000000   1.0000000   1.0000000   1.0000000   1.0000000   1.0000000   1.0000000   1.0000000   1.0000000   1.0000000

  Atom        91          92          93          94          95          96          97          98          99         100
 IAtWgt=           1           1           1           1           1           1           1           1           1           1
 AtmWgt=   1.0078250   1.0078250   1.0078250   1.0078250   1.0078250   1.0078250   1.0078250   1.0078250   1.0078250   1.0078250
 NucSpn=           1           1           1           1           1           1           1           1           1           1
 AtZEff=  -0.0000000  -0.0000000  -0.0000000  -0.0000000  -0.0000000  -0.0000000  -0.0000000  -0.0000000  -0.0000000  -0.0000000
 NQMom=    0.0000000   0.0000000   0.0000000   0.0000000   0.0000000   0.0000000   0.0000000   0.0000000   0.0000000   0.0000000
 NMagM=    2.7928460   2.7928460   2.7928460   2.7928460   2.7928460   2.7928460   2.7928460   2.7928460   2.7928460   2.7928460
 AtZNuc=   1.0000000   1.0000000   1.0000000   1.0000000   1.0000000   1.0000000   1.0000000   1.0000000   1.0000000   1.0000000

  Atom       101         102         103         104         105         106         107         108         109         110
 IAtWgt=           1           1           1           1           1           1           1           1           1           1
 AtmWgt=   1.0078250   1.0078250   1.0078250   1.0078250   1.0078250   1.0078250   1.0078250   1.0078250   1.0078250   1.0078250
 NucSpn=           1           1           1           1           1           1           1           1           1           1
 AtZEff=  -0.0000000  -0.0000000  -0.0000000  -0.0000000  -0.0000000  -0.0000000  -0.0000000  -0.0000000  -0.0000000  -0.0000000
 NQMom=    0.0000000   0.0000000   0.0000000   0.0000000   0.0000000   0.0000000   0.0000000   0.0000000   0.0000000   0.0000000
 NMagM=    2.7928460   2.7928460   2.7928460   2.7928460   2.7928460   2.7928460   2.7928460   2.7928460   2.7928460   2.7928460
 AtZNuc=   1.0000000   1.0000000   1.0000000   1.0000000   1.0000000   1.0000000   1.0000000   1.0000000   1.0000000   1.0000000

  Atom       111         112         113         114         115         116         117         118         119         120
 IAtWgt=           1           1           1           1           1           1           1           1           1           1
 AtmWgt=   1.0078250   1.0078250   1.0078250   1.0078250   1.0078250   1.0078250   1.0078250   1.0078250   1.0078250   1.0078250
 NucSpn=           1           1           1           1           1           1           1           1           1           1
 AtZEff=  -0.0000000  -0.0000000  -0.0000000  -0.0000000  -0.0000000  -0.0000000  -0.0000000  -0.0000000  -0.0000000  -0.0000000
 NQMom=    0.0000000   0.0000000   0.0000000   0.0000000   0.0000000   0.0000000   0.0000000   0.0000000   0.0000000   0.0000000
 NMagM=    2.7928460   2.7928460   2.7928460   2.7928460   2.7928460   2.7928460   2.7928460   2.7928460   2.7928460   2.7928460
 AtZNuc=   1.0000000   1.0000000   1.0000000   1.0000000   1.0000000   1.0000000   1.0000000   1.0000000   1.0000000   1.0000000

  Atom       121         122         123         124         125         126         127         128         129         130
 IAtWgt=           1           1           1           1           1           1           1           1           1           1
 AtmWgt=   1.0078250   1.0078250   1.0078250   1.0078250   1.0078250   1.0078250   1.0078250   1.0078250   1.0078250   1.0078250
 NucSpn=           1           1           1           1           1           1           1           1           1           1
 AtZEff=  -0.0000000  -0.0000000  -0.0000000  -0.0000000  -0.0000000  -0.0000000  -0.0000000  -0.0000000  -0.0000000  -0.0000000
 NQMom=    0.0000000   0.0000000   0.0000000   0.0000000   0.0000000   0.0000000   0.0000000   0.0000000   0.0000000   0.0000000
 NMagM=    2.7928460   2.7928460   2.7928460   2.7928460   2.7928460   2.7928460   2.7928460   2.7928460   2.7928460   2.7928460
 AtZNuc=   1.0000000   1.0000000   1.0000000   1.0000000   1.0000000   1.0000000   1.0000000   1.0000000   1.0000000   1.0000000

  Atom       131         132         133         134         135         136         137         138         139         140
 IAtWgt=           1           1           1           1           1           1           1           1           1           1
 AtmWgt=   1.0078250   1.0078250   1.0078250   1.0078250   1.0078250   1.0078250   1.0078250   1.0078250   1.0078250   1.0078250
 NucSpn=           1           1           1           1           1           1           1           1           1           1
 AtZEff=  -0.0000000  -0.0000000  -0.0000000  -0.0000000  -0.0000000  -0.0000000  -0.0000000  -0.0000000  -0.0000000  -0.0000000
 NQMom=    0.0000000   0.0000000   0.0000000   0.0000000   0.0000000   0.0000000   0.0000000   0.0000000   0.0000000   0.0000000
 NMagM=    2.7928460   2.7928460   2.7928460   2.7928460   2.7928460   2.7928460   2.7928460   2.7928460   2.7928460   2.7928460
 AtZNuc=   1.0000000   1.0000000   1.0000000   1.0000000   1.0000000   1.0000000   1.0000000   1.0000000   1.0000000   1.0000000
 Leave Link  101 at Wed Apr 27 01:40:50 2022, MaxMem= 10066329600 cpu:               2.8 elap:               0.1
 (Enter /sw/apps/gaussian-16.0/g16/l202.exe)
 Stoichiometry    C55H74MgN4O6
 Framework group  C1[X(C55H74MgN4O6)]
 Deg. of freedom   414
 Full point group                 C1      NOp   1
 Largest Abelian subgroup         C1      NOp   1
 Largest concise Abelian subgroup C1      NOp   1
                         Standard orientation:                         
 ---------------------------------------------------------------------
 Center     Atomic      Atomic             Coordinates (Angstroms)
 Number     Number       Type             X           Y           Z
 ---------------------------------------------------------------------
      1         12           0        6.054767    0.690859    0.186903
      2          6           0        3.950541   -2.085760    0.037419
      3          6           0        3.416625    2.691132   -0.439904
      4          6           0        8.253293    3.247223    0.263832
      5          6           0        8.792724   -1.585747    0.550204
      6          7           0        3.887643    0.331137   -0.207762
      7          6           0        3.252256   -0.879825   -0.068838
      8          6           0        1.686469   -0.738866   -0.349853
      9          6           0        1.503451    0.816579   -0.484021
     10          6           0        2.983922    1.334144   -0.375843
     11          6           0        0.745061    1.250717   -1.683453
     12          6           0        0.661375   -1.508452    0.590865
     13          6           0       -0.796587   -1.030762    0.672943
     14          6           0       -1.862799   -2.146160    0.416082
     15          8           0       -2.049953   -3.066553    1.203191
     16          8           0       -2.516942   -2.022444   -0.765729
     17          7           0        5.866651    2.595121   -0.132482
     18          6           0        4.699998    3.279201   -0.247106
     19          6           0        4.986178    4.680305   -0.421646
     20          6           0        6.423535    4.866144   -0.373318
     21          6           0        6.905158    3.522370   -0.020517
     22          6           0        3.886996    5.691353   -0.823631
     23          6           0        7.240149    6.110186   -0.572712
     24          8           0        8.427616    6.122646   -0.548796
     25          6           0        6.612875    7.339432   -1.118809
     26          7           0        8.172891    0.773402    0.587567
     27          6           0        8.797088    1.977530    0.420909
     28          6           0       10.279985    1.647040    0.130813
     29          6           0       10.478960    0.181195    0.409367
     30          6           0        9.069034   -0.261989    0.633014
     31          6           0       10.745625    2.159586   -1.304607
     32          6           0       11.439262   -0.193588    1.583055
     33          6           0       12.723237   -0.926724    1.247283
     34          7           0        6.351297   -1.396712    0.244049
     35          6           0        7.491277   -2.156985    0.566411
     36          6           0        7.054213   -3.515501    0.720159
     37          6           0        5.701731   -3.575270    0.544427
     38          6           0        5.292252   -2.221590    0.266773
     39          6           0        7.860417   -4.773941    1.009780
     40          6           0        4.479726   -4.481233    0.465414
     41          8           0        4.347428   -5.704368    0.606347
     42          6           0        3.345719   -3.467399    0.272017
     43          6           0        2.431286   -3.957162   -0.833686
     44          8           0        2.512201   -3.711552   -2.050659
     45          8           0        1.509633   -4.767450   -0.206584
     46          6           0        0.318760   -5.200982   -0.944232
     47          6           0       -3.575458   -2.993381   -1.043405
     48          6           0       -4.930765   -2.411456   -0.696907
     49          6           0       -6.100161   -3.081154   -0.343833
     50          6           0       -6.336727   -4.566112   -0.242066
     51          6           0       -7.253227   -2.162516    0.018210
     52          6           0       -7.803731   -1.435421   -1.168244
     53          6           0       -8.011191    0.101837   -0.862685
     54          6           0       -9.454148    0.507016   -0.601230
     55          6           0      -10.142746    0.657410   -1.932567
     56          6           0       -9.382549    1.955132    0.066667
     57          6           0       -9.998010    1.860240    1.521361
     58          6           0      -11.068739    2.951676    1.936010
     59          6           0      -12.429359    2.321917    2.550396
     60          6           0      -12.896173    3.056035    3.843288
     61          6           0      -13.564176    2.452442    1.502657
     62          6           0      -13.492469    1.271669    0.406404
     63          6           0      -14.815763    0.443070    0.224940
     64          6           0      -15.537231    0.872352   -1.049313
     65          6           0      -16.939667    1.508494   -0.729070
     66          6           0      -15.688695   -0.329898   -2.057257
     67          1           0        2.560906    3.366366   -0.495062
     68          1           0        9.006504    4.037771    0.236558
     69          1           0        9.613654   -2.301525    0.464565
     70          1           0        1.545473   -1.205385   -1.324319
     71          1           0        0.971580    1.122866    0.417182
     72          1           0        0.383549    2.267085   -1.523996
     73          1           0       -0.074180    0.544320   -1.813510
     74          1           0        1.313297    1.134894   -2.606270
     75          1           0        1.045586   -1.604671    1.606251
     76          1           0        0.537229   -2.482566    0.117434
     77          1           0       -1.102619   -0.204429    0.032320
     78          1           0       -0.919694   -0.695867    1.703542
     79          1           0        4.299600    6.154268   -1.719806
     80          1           0        3.683723    6.382247   -0.005547
     81          1           0        2.918595    5.293689   -1.124302
     82          1           0        7.321427    8.165582   -1.069297
     83          1           0        5.913810    7.580522   -0.317439
     84          1           0        6.084760    7.194590   -2.062420
     85          1           0       10.837982    2.313524    0.788517
     86          1           0       10.893489   -0.174869   -0.533333
     87          1           0        9.845564    2.362139   -1.885713
     88          1           0       11.235960    1.355900   -1.853493
     89          1           0       11.398588    3.032915   -1.299208
     90          1           0       10.872885   -0.804718    2.286370
     91          1           0       11.768863    0.657369    2.178709
     92          1           0       12.844711   -1.058884    0.171500
     93          1           0       12.741070   -1.923048    1.689132
     94          1           0       13.623143   -0.415203    1.589401
     95          1           0        8.609511   -4.367939    1.689466
     96          1           0        8.369734   -5.070743    0.093237
     97          1           0        7.264800   -5.560344    1.474707
     98          1           0        2.780387   -3.455053    1.203437
     99          1           0       -0.584264   -4.711114   -0.581505
    100          1           0        0.012101   -6.218150   -0.700292
    101          1           0        0.520206   -5.295139   -2.011166
    102          1           0       -3.369783   -3.949349   -0.561519
    103          1           0       -3.576777   -3.139802   -2.123606
    104          1           0       -5.015771   -1.324024   -0.706625
    105          1           0       -5.454232   -5.193667   -0.361844
    106          1           0       -7.136531   -4.762215   -0.956255
    107          1           0       -6.637874   -4.666261    0.800722
    108          1           0       -6.875531   -1.563200    0.846924
    109          1           0       -8.067901   -2.813783    0.333629
    110          1           0       -8.750450   -1.837430   -1.526751
    111          1           0       -7.126420   -1.466309   -2.021537
    112          1           0       -7.583293    0.611099   -1.725572
    113          1           0       -7.344908    0.403049   -0.054208
    114          1           0      -10.034909   -0.212668   -0.023480
    115          1           0      -10.487146   -0.333967   -2.224530
    116          1           0       -9.639789    1.200738   -2.732665
    117          1           0      -11.016477    1.274962   -1.725083
    118          1           0       -9.974039    2.619681   -0.562571
    119          1           0       -8.438536    2.498227    0.034989
    120          1           0       -9.146439    2.144598    2.138396
    121          1           0      -10.379581    0.900965    1.872383
    122          1           0      -11.350295    3.483931    1.027637
    123          1           0      -10.592816    3.630237    2.644408
    124          1           0      -12.209235    1.267521    2.717269
    125          1           0      -12.057742    3.558687    4.324863
    126          1           0      -13.109803    2.252443    4.546962
    127          1           0      -13.615505    3.817669    3.541757
    128          1           0      -13.541750    3.359968    0.899779
    129          1           0      -14.602273    2.505325    1.833345
    130          1           0      -12.696269    0.541842    0.554164
    131          1           0      -13.277361    1.680719   -0.581395
    132          1           0      -15.477687    0.524394    1.087579
    133          1           0      -14.583973   -0.620972    0.212579
    134          1           0      -15.006779    1.658432   -1.588182
    135          1           0      -16.887350    2.595134   -0.791766
    136          1           0      -17.234056    1.225641    0.281945
    137          1           0      -17.689036    1.132316   -1.426090
    138          1           0      -16.723014   -0.590145   -2.283084
    139          1           0      -15.346558   -1.285528   -1.658064
    140          1           0      -15.099328   -0.151137   -2.956435
 ---------------------------------------------------------------------
 Rotational constants (GHZ):           0.0530200           0.0083197           0.0074159
 Leave Link  202 at Wed Apr 27 01:40:50 2022, MaxMem= 10066329600 cpu:               0.2 elap:               0.0
 (Enter /sw/apps/gaussian-16.0/g16/l301.exe)
 Standard basis: def2SVP (5D, 7F)
 Ernie: Thresh=  0.10000D-02 Tol=  0.10000D-05 Strict=F.
 There are  1364 symmetry adapted cartesian basis functions of A   symmetry.
 There are  1298 symmetry adapted basis functions of A   symmetry.
  1298 basis functions,  2180 primitive gaussians,  1364 cartesian basis functions
   246 alpha electrons      246 beta electrons
       nuclear repulsion energy      9371.9414827529 Hartrees.
 IExCor= 4639 DFT=T Ex+Corr=wB97XD ExCW=0 ScaHFX=  1.000000
 ScaDFX=  1.000000  1.000000  1.000000  1.000000 ScalE2=  1.000000  1.000000
 IRadAn=      5 IRanWt=     -1 IRanGd=            0 ICorTp=0 IEmpDi=121
 HFx  wShort=  0.000000 wLong=  0.200000 cFull=  0.222036 cShort=  0.000000 cLong=  0.777964
 DFx  wShort=  0.000000 wLong=  0.200000 cFull=  0.000000 cShort=  0.000000 cLong=  1.000000
 NAtoms=  140 NActive=  140 NUniq=  140 SFac= 1.00D+00 NAtFMM=   60 NAOKFM=T Big=T
 Integral buffers will be    131072 words long.
 Raffenetti 1 integral format.
 Two-electron integral symmetry is turned on.
 R6Disp:  Grimme-D2 Dispersion energy=       -0.1346507862 Hartrees.
 Nuclear repulsion after empirical dispersion term =     9371.8068319667 Hartrees.
 Leave Link  301 at Wed Apr 27 01:40:50 2022, MaxMem= 10066329600 cpu:               1.4 elap:               0.1
 (Enter /sw/apps/gaussian-16.0/g16/l302.exe)
 NPDir=0 NMtPBC=     1 NCelOv=     1 NCel=       1 NClECP=     1 NCelD=      1
         NCelK=      1 NCelE2=     1 NClLst=     1 CellRange=     0.0.
 One-electron integrals computed using PRISM.
 One-electron integral symmetry used in STVInt
   1 Symmetry operations used in ECPInt.
 ECPInt:  NShTT=  192510 NPrTT=  683786 LenC2=   90296 LenP2D=  200158.
 LDataN:  DoStor=T MaxTD1= 4 Len=   56
 NBasis=  1298 RedAO= T EigKep=  3.11D-04  NBF=  1298
 NBsUse=  1298 1.00D-06 EigRej= -1.00D+00 NBFU=  1298
 Precomputing XC quadrature grid using
 IXCGrd= 4 IRadAn=           5 IRanWt=          -1 IRanGd=           0 AccXCQ= 0.00D+00.
 Generated NRdTot=       0 NPtTot=           0 NUsed=           0 NTot=          32
 NSgBfM=  1011   998  1002  1010  1011 MxSgAt=   140 MxSgA2=   139.
 Leave Link  302 at Wed Apr 27 01:40:53 2022, MaxMem= 10066329600 cpu:              78.8 elap:               3.3
 (Enter /sw/apps/gaussian-16.0/g16/l303.exe)
 DipDrv:  MaxL=1.
 Leave Link  303 at Wed Apr 27 01:40:54 2022, MaxMem= 10066329600 cpu:               5.9 elap:               0.3
 (Enter /sw/apps/gaussian-16.0/g16/l308.exe)
 Leave Link  308 at Wed Apr 27 01:40:54 2022, MaxMem= 10066329600 cpu:              10.4 elap:               0.5
 (Enter /sw/apps/gaussian-16.0/g16/l401.exe)
 ExpMin= 3.36D-02 ExpMax= 4.95D+03 ExpMxC= 7.45D+02 IAcc=3 IRadAn=         5 AccDes= 0.00D+00
 Harris functional with IExCor= 4639 and IRadAn=       5 diagonalized for initial guess.
 HarFok:  IExCor= 4639 AccDes= 0.00D+00 IRadAn=         5 IDoV= 1 UseB2=F ITyADJ=14
 ICtDFT=  3500011 ScaDFX=  1.000000  1.000000  1.000000  1.000000
 FoFCou: FMM=F IPFlag=           0 FMFlag=      100000 FMFlg1=        2001
         NFxFlg=           0 DoJE=T BraDBF=F KetDBF=T FulRan=T
         wScrn=  0.000000 ICntrl=       500 IOpCl=  0 I1Cent=   200000004 NGrid=           0
         NMat0=    1 NMatS0=      1 NMatT0=    0 NMatD0=    1 NMtDS0=    0 NMtDT0=    0
 Petite list used in FoFCou.
 Harris En= -2877.99214916330    
 JPrj=0 DoOrth=F DoCkMO=F.
 Leave Link  401 at Wed Apr 27 01:41:00 2022, MaxMem= 10066329600 cpu:             128.4 elap:               5.4
 (Enter /sw/apps/gaussian-16.0/g16/l502.exe)
 Integral symmetry usage will be decided dynamically.
 Closed shell SCF:
 Using DIIS extrapolation, IDIIS=  1040.
 NGot= 10066329600 LenX= 10062561258 LenY= 10060699398
 Requested convergence on RMS density matrix=1.00D-08 within 128 cycles.
 Requested convergence on MAX density matrix=1.00D-06.
 Requested convergence on             energy=1.00D-06.
 No special actions if energy rises.
 Fock matrices will be formed incrementally for  20 cycles.

 Cycle   1  Pass 1  IDiag  1:
 FoFJK:  IHMeth= 1 ICntrl=       0 DoSepK=T KAlg= 0 I1Cent=           0 FoldK=F
 IRaf=         1 NMat=       1 IRICut=       1 DoRegI=T DoRafI=F ISym2E= 0 IDoP0=0 IntGTp=1.
 FoFCou: FMM=T IPFlag=           0 FMFlag=      100000 FMFlg1=        2001
         NFxFlg=           0 DoJE=T BraDBF=F KetDBF=F FulRan=T
         wScrn=  0.000000 ICntrl=       500 IOpCl=  0 I1Cent=           0 NGrid=           0
         NMat0=    1 NMatS0=      1 NMatT0=    0 NMatD0=    1 NMtDS0=    0 NMtDT0=    0
 Symmetry not used in FoFCou.
 FMM levels:  10  Number of levels for PrismC:   9
 E= -3007.16158472085    
 DIIS: error= 3.62D-02 at cycle   1 NSaved=   1.
 NSaved= 1 IEnMin= 1 EnMin= -3007.16158472085     IErMin= 1 ErrMin= 3.62D-02
 ErrMax= 3.62D-02  0.00D+00 EMaxC= 1.00D-01 BMatC= 1.49D+00 BMatP= 1.49D+00
 IDIUse=3 WtCom= 6.38D-01 WtEn= 3.62D-01
 Coeff-Com:  0.100D+01
 Coeff-En:   0.100D+01
 Coeff:      0.100D+01
 Gap=     0.156 Goal=   None    Shift=    0.000
 GapD=    0.156 DampG=1.000 DampE=0.500 DampFc=0.5000 IDamp=-1.
 Damping current iteration by 5.00D-01
 RMSDP=1.55D-03 MaxDP=1.60D-01              OVMax= 1.65D-01

 Cycle   2  Pass 1  IDiag  1:
 RMSU=  7.66D-04    CP:  9.87D-01
 E= -3007.48465721817     Delta-E=       -0.323072497325 Rises=F Damp=T
 DIIS: error= 1.49D-02 at cycle   2 NSaved=   2.
 NSaved= 2 IEnMin= 2 EnMin= -3007.48465721817     IErMin= 2 ErrMin= 1.49D-02
 ErrMax= 1.49D-02  0.00D+00 EMaxC= 1.00D-01 BMatC= 2.89D-01 BMatP= 1.49D+00
 IDIUse=3 WtCom= 8.51D-01 WtEn= 1.49D-01
 Coeff-Com: -0.349D+00 0.135D+01
 Coeff-En:   0.000D+00 0.100D+01
 Coeff:     -0.297D+00 0.130D+01
 Gap=     0.180 Goal=   None    Shift=    0.000
 RMSDP=7.01D-04 MaxDP=9.24D-02 DE=-3.23D-01 OVMax= 1.49D-01

 Cycle   3  Pass 1  IDiag  1:
 RMSU=  6.56D-04    CP:  9.78D-01  1.31D+00
 E= -3007.72638160040     Delta-E=       -0.241724382226 Rises=F Damp=F
 DIIS: error= 1.17D-02 at cycle   3 NSaved=   3.
 NSaved= 3 IEnMin= 3 EnMin= -3007.72638160040     IErMin= 3 ErrMin= 1.17D-02
 ErrMax= 1.17D-02  0.00D+00 EMaxC= 1.00D-01 BMatC= 1.32D-01 BMatP= 2.89D-01
 IDIUse=3 WtCom= 8.83D-01 WtEn= 1.17D-01
 Coeff-Com: -0.304D+00 0.675D+00 0.629D+00
 Coeff-En:   0.000D+00 0.000D+00 0.100D+01
 Coeff:     -0.268D+00 0.596D+00 0.672D+00
 Gap=     0.161 Goal=   None    Shift=    0.000
 RMSDP=4.07D-04 MaxDP=4.25D-02 DE=-2.42D-01 OVMax= 8.80D-02

 Cycle   4  Pass 1  IDiag  1:
 RMSU=  2.16D-04    CP:  9.75D-01  1.59D+00  5.92D-01
 E= -3007.82438391112     Delta-E=       -0.098002310726 Rises=F Damp=F
 DIIS: error= 4.07D-03 at cycle   4 NSaved=   4.
 NSaved= 4 IEnMin= 4 EnMin= -3007.82438391112     IErMin= 4 ErrMin= 4.07D-03
 ErrMax= 4.07D-03  0.00D+00 EMaxC= 1.00D-01 BMatC= 1.83D-02 BMatP= 1.32D-01
 IDIUse=3 WtCom= 9.59D-01 WtEn= 4.07D-02
 Coeff-Com: -0.116D+00 0.232D+00 0.366D+00 0.518D+00
 Coeff-En:   0.000D+00 0.000D+00 0.798D-01 0.920D+00
 Coeff:     -0.111D+00 0.223D+00 0.354D+00 0.534D+00
 Gap=     0.160 Goal=   None    Shift=    0.000
 RMSDP=1.23D-04 MaxDP=1.42D-02 DE=-9.80D-02 OVMax= 2.42D-02

 Cycle   5  Pass 1  IDiag  1:
 RMSU=  6.00D-05    CP:  9.75D-01  1.56D+00  7.08D-01  6.65D-01
 E= -3007.83938590823     Delta-E=       -0.015001997106 Rises=F Damp=F
 DIIS: error= 4.95D-04 at cycle   5 NSaved=   5.
 NSaved= 5 IEnMin= 5 EnMin= -3007.83938590823     IErMin= 5 ErrMin= 4.95D-04
 ErrMax= 4.95D-04  0.00D+00 EMaxC= 1.00D-01 BMatC= 4.07D-04 BMatP= 1.83D-02
 IDIUse=3 WtCom= 9.95D-01 WtEn= 4.95D-03
 Coeff-Com: -0.300D-01 0.572D-01 0.117D+00 0.227D+00 0.628D+00
 Coeff-En:   0.000D+00 0.000D+00 0.000D+00 0.000D+00 0.100D+01
 Coeff:     -0.299D-01 0.569D-01 0.117D+00 0.226D+00 0.630D+00
 Gap=     0.160 Goal=   None    Shift=    0.000
 RMSDP=2.47D-05 MaxDP=4.08D-03 DE=-1.50D-02 OVMax= 3.70D-03

 Cycle   6  Pass 1  IDiag  1:
 RMSU=  2.12D-05    CP:  9.75D-01  1.57D+00  7.11D-01  7.12D-01  8.98D-01
 E= -3007.83970415751     Delta-E=       -0.000318249278 Rises=F Damp=F
 DIIS: error= 2.05D-04 at cycle   6 NSaved=   6.
 NSaved= 6 IEnMin= 6 EnMin= -3007.83970415751     IErMin= 6 ErrMin= 2.05D-04
 ErrMax= 2.05D-04  0.00D+00 EMaxC= 1.00D-01 BMatC= 6.44D-05 BMatP= 4.07D-04
 IDIUse=3 WtCom= 9.98D-01 WtEn= 2.05D-03
 Coeff-Com:  0.897D-02-0.194D-01-0.147D-01 0.236D-02 0.292D+00 0.730D+00
 Coeff-En:   0.000D+00 0.000D+00 0.000D+00 0.000D+00 0.000D+00 0.100D+01
 Coeff:      0.895D-02-0.194D-01-0.147D-01 0.235D-02 0.292D+00 0.731D+00
 Gap=     0.160 Goal=   None    Shift=    0.000
 RMSDP=1.15D-05 MaxDP=1.57D-03 DE=-3.18D-04 OVMax= 3.77D-03

 Cycle   7  Pass 1  IDiag  1:
 RMSU=  7.81D-06    CP:  9.74D-01  1.57D+00  7.16D-01  7.27D-01  1.00D+00
                    CP:  8.88D-01
 E= -3007.83977453036     Delta-E=       -0.000070372849 Rises=F Damp=F
 DIIS: error= 6.08D-05 at cycle   7 NSaved=   7.
 NSaved= 7 IEnMin= 7 EnMin= -3007.83977453036     IErMin= 7 ErrMin= 6.08D-05
 ErrMax= 6.08D-05  0.00D+00 EMaxC= 1.00D-01 BMatC= 6.62D-06 BMatP= 6.44D-05
 IDIUse=1 WtCom= 1.00D+00 WtEn= 0.00D+00
 Coeff-Com:  0.639D-02-0.130D-01-0.163D-01-0.217D-01 0.527D-01 0.298D+00
 Coeff-Com:  0.694D+00
 Coeff:      0.639D-02-0.130D-01-0.163D-01-0.217D-01 0.527D-01 0.298D+00
 Coeff:      0.694D+00
 Gap=     0.160 Goal=   None    Shift=    0.000
 RMSDP=4.71D-06 MaxDP=1.16D-03 DE=-7.04D-05 OVMax= 9.99D-04

 Cycle   8  Pass 1  IDiag  1:
 RMSU=  3.20D-06    CP:  9.74D-01  1.57D+00  7.18D-01  7.31D-01  1.02D+00
                    CP:  1.02D+00  9.70D-01
 E= -3007.83978322418     Delta-E=       -0.000008693825 Rises=F Damp=F
 DIIS: error= 2.20D-05 at cycle   8 NSaved=   8.
 NSaved= 8 IEnMin= 8 EnMin= -3007.83978322418     IErMin= 8 ErrMin= 2.20D-05
 ErrMax= 2.20D-05  0.00D+00 EMaxC= 1.00D-01 BMatC= 1.30D-06 BMatP= 6.62D-06
 IDIUse=1 WtCom= 1.00D+00 WtEn= 0.00D+00
 Coeff-Com:  0.170D-02-0.322D-02-0.564D-02-0.120D-01-0.273D-01 0.178D-01
 Coeff-Com:  0.331D+00 0.698D+00
 Coeff:      0.170D-02-0.322D-02-0.564D-02-0.120D-01-0.273D-01 0.178D-01
 Coeff:      0.331D+00 0.698D+00
 Gap=     0.160 Goal=   None    Shift=    0.000
 RMSDP=1.96D-06 MaxDP=1.67D-04 DE=-8.69D-06 OVMax= 1.04D-03

 Cycle   9  Pass 1  IDiag  1:
 RMSU=  1.31D-06    CP:  9.74D-01  1.57D+00  7.18D-01  7.32D-01  1.04D+00
                    CP:  1.05D+00  1.11D+00  9.80D-01
 E= -3007.83978550176     Delta-E=       -0.000002277578 Rises=F Damp=F
 DIIS: error= 9.08D-06 at cycle   9 NSaved=   9.
 NSaved= 9 IEnMin= 9 EnMin= -3007.83978550176     IErMin= 9 ErrMin= 9.08D-06
 ErrMax= 9.08D-06  0.00D+00 EMaxC= 1.00D-01 BMatC= 2.02D-07 BMatP= 1.30D-06
 IDIUse=1 WtCom= 1.00D+00 WtEn= 0.00D+00
 Coeff-Com: -0.285D-03 0.659D-03 0.235D-03-0.168D-02-0.187D-01-0.358D-01
 Coeff-Com:  0.276D-01 0.292D+00 0.736D+00
 Coeff:     -0.285D-03 0.659D-03 0.235D-03-0.168D-02-0.187D-01-0.358D-01
 Coeff:      0.276D-01 0.292D+00 0.736D+00
 Gap=     0.160 Goal=   None    Shift=    0.000
 RMSDP=1.03D-06 MaxDP=1.68D-04 DE=-2.28D-06 OVMax= 4.17D-04

 Cycle  10  Pass 1  IDiag  1:
 RMSU=  5.85D-07    CP:  9.74D-01  1.57D+00  7.18D-01  7.32D-01  1.04D+00
                    CP:  1.06D+00  1.15D+00  1.18D+00  1.14D+00
 E= -3007.83978600398     Delta-E=       -0.000000502218 Rises=F Damp=F
 DIIS: error= 4.77D-06 at cycle  10 NSaved=  10.
 NSaved=10 IEnMin=10 EnMin= -3007.83978600398     IErMin=10 ErrMin= 4.77D-06
 ErrMax= 4.77D-06  0.00D+00 EMaxC= 1.00D-01 BMatC= 3.65D-08 BMatP= 2.02D-07
 IDIUse=1 WtCom= 1.00D+00 WtEn= 0.00D+00
 Coeff-Com: -0.526D-03 0.104D-02 0.146D-02 0.221D-02-0.889D-03-0.190D-01
 Coeff-Com: -0.739D-01-0.385D-01 0.264D+00 0.864D+00
 Coeff:     -0.526D-03 0.104D-02 0.146D-02 0.221D-02-0.889D-03-0.190D-01
 Coeff:     -0.739D-01-0.385D-01 0.264D+00 0.864D+00
 Gap=     0.160 Goal=   None    Shift=    0.000
 RMSDP=6.61D-07 MaxDP=4.29D-05 DE=-5.02D-07 OVMax= 4.00D-04

 Cycle  11  Pass 1  IDiag  1:
 RMSU=  3.47D-07    CP:  9.74D-01  1.57D+00  7.18D-01  7.32D-01  1.04D+00
                    CP:  1.07D+00  1.18D+00  1.26D+00  1.43D+00  1.24D+00
 E= -3007.83978619654     Delta-E=       -0.000000192560 Rises=F Damp=F
 DIIS: error= 3.73D-06 at cycle  11 NSaved=  11.
 NSaved=11 IEnMin=11 EnMin= -3007.83978619654     IErMin=11 ErrMin= 3.73D-06
 ErrMax= 3.73D-06  0.00D+00 EMaxC= 1.00D-01 BMatC= 1.65D-08 BMatP= 3.65D-08
 IDIUse=1 WtCom= 1.00D+00 WtEn= 0.00D+00
 Coeff-Com: -0.192D-03 0.368D-03 0.622D-03 0.133D-02 0.280D-02-0.217D-02
 Coeff-Com: -0.408D-01-0.629D-01-0.432D-01 0.440D+00 0.704D+00
 Coeff:     -0.192D-03 0.368D-03 0.622D-03 0.133D-02 0.280D-02-0.217D-02
 Coeff:     -0.408D-01-0.629D-01-0.432D-01 0.440D+00 0.704D+00
 Gap=     0.160 Goal=   None    Shift=    0.000
 RMSDP=3.49D-07 MaxDP=2.88D-05 DE=-1.93D-07 OVMax= 2.08D-04

 Cycle  12  Pass 1  IDiag  1:
 RMSU=  1.59D-07    CP:  9.74D-01  1.57D+00  7.18D-01  7.32D-01  1.04D+00
                    CP:  1.07D+00  1.19D+00  1.31D+00  1.54D+00  1.56D+00
                    CP:  1.30D+00
 E= -3007.83978626593     Delta-E=       -0.000000069389 Rises=F Damp=F
 DIIS: error= 2.27D-06 at cycle  12 NSaved=  12.
 NSaved=12 IEnMin=12 EnMin= -3007.83978626593     IErMin=12 ErrMin= 2.27D-06
 ErrMax= 2.27D-06  0.00D+00 EMaxC= 1.00D-01 BMatC= 4.10D-09 BMatP= 1.65D-08
 IDIUse=1 WtCom= 1.00D+00 WtEn= 0.00D+00
 Coeff-Com:  0.125D-03-0.250D-03-0.334D-03-0.347D-03 0.864D-03 0.581D-02
 Coeff-Com:  0.130D-01 0.741D-02-0.117D+00-0.142D+00 0.122D+00 0.111D+01
 Coeff:      0.125D-03-0.250D-03-0.334D-03-0.347D-03 0.864D-03 0.581D-02
 Coeff:      0.130D-01 0.741D-02-0.117D+00-0.142D+00 0.122D+00 0.111D+01
 Gap=     0.160 Goal=   None    Shift=    0.000
 RMSDP=3.48D-07 MaxDP=2.58D-05 DE=-6.94D-08 OVMax= 2.27D-04

 Cycle  13  Pass 1  IDiag  1:
 RMSU=  9.76D-08    CP:  9.74D-01  1.57D+00  7.18D-01  7.32D-01  1.04D+00
                    CP:  1.07D+00  1.19D+00  1.33D+00  1.63D+00  1.83D+00
                    CP:  1.93D+00  1.80D+00
 E= -3007.83978631073     Delta-E=       -0.000000044802 Rises=F Damp=F
 DIIS: error= 1.57D-06 at cycle  13 NSaved=  13.
 NSaved=13 IEnMin=13 EnMin= -3007.83978631073     IErMin=13 ErrMin= 1.57D-06
 ErrMax= 1.57D-06  0.00D+00 EMaxC= 1.00D-01 BMatC= 1.77D-09 BMatP= 4.10D-09
 IDIUse=1 WtCom= 1.00D+00 WtEn= 0.00D+00
 Coeff-Com:  0.141D-03-0.277D-03-0.431D-03-0.711D-03-0.898D-03 0.335D-02
 Coeff-Com:  0.228D-01 0.357D-01-0.408D-01-0.242D+00-0.279D+00 0.464D+00
 Coeff-Com:  0.104D+01
 Coeff:      0.141D-03-0.277D-03-0.431D-03-0.711D-03-0.898D-03 0.335D-02
 Coeff:      0.228D-01 0.357D-01-0.408D-01-0.242D+00-0.279D+00 0.464D+00
 Coeff:      0.104D+01
 Gap=     0.160 Goal=   None    Shift=    0.000
 RMSDP=3.03D-07 MaxDP=2.36D-05 DE=-4.48D-08 OVMax= 2.08D-04

 Cycle  14  Pass 1  IDiag  1:
 RMSU=  5.89D-08    CP:  9.74D-01  1.57D+00  7.18D-01  7.32D-01  1.04D+00
                    CP:  1.07D+00  1.20D+00  1.34D+00  1.70D+00  2.04D+00
                    CP:  2.49D+00  2.70D+00  1.61D+00
 E= -3007.83978633309     Delta-E=       -0.000000022363 Rises=F Damp=F
 DIIS: error= 8.44D-07 at cycle  14 NSaved=  14.
 NSaved=14 IEnMin=14 EnMin= -3007.83978633309     IErMin=14 ErrMin= 8.44D-07
 ErrMax= 8.44D-07  0.00D+00 EMaxC= 1.00D-01 BMatC= 6.14D-10 BMatP= 1.77D-09
 IDIUse=1 WtCom= 1.00D+00 WtEn= 0.00D+00
 Coeff-Com:  0.269D-04-0.503D-04-0.977D-04-0.211D-03-0.703D-03-0.441D-03
 Coeff-Com:  0.578D-02 0.160D-01 0.184D-01-0.584D-01-0.176D+00-0.171D+00
 Coeff-Com:  0.474D+00 0.893D+00
 Coeff:      0.269D-04-0.503D-04-0.977D-04-0.211D-03-0.703D-03-0.441D-03
 Coeff:      0.578D-02 0.160D-01 0.184D-01-0.584D-01-0.176D+00-0.171D+00
 Coeff:      0.474D+00 0.893D+00
 Gap=     0.160 Goal=   None    Shift=    0.000
 RMSDP=1.68D-07 MaxDP=1.30D-05 DE=-2.24D-08 OVMax= 1.11D-04

 Cycle  15  Pass 1  IDiag  1:
 RMSU=  4.54D-08    CP:  9.74D-01  1.57D+00  7.18D-01  7.32D-01  1.04D+00
                    CP:  1.07D+00  1.20D+00  1.35D+00  1.73D+00  2.15D+00
                    CP:  2.79D+00  3.00D+00  2.21D+00  1.36D+00
 E= -3007.83978633893     Delta-E=       -0.000000005843 Rises=F Damp=F
 DIIS: error= 3.54D-07 at cycle  15 NSaved=  15.
 NSaved=15 IEnMin=15 EnMin= -3007.83978633893     IErMin=15 ErrMin= 3.54D-07
 ErrMax= 3.54D-07  0.00D+00 EMaxC= 1.00D-01 BMatC= 1.51D-10 BMatP= 6.14D-10
 IDIUse=1 WtCom= 1.00D+00 WtEn= 0.00D+00
 Coeff-Com: -0.406D-04 0.810D-04 0.117D-03 0.172D-03-0.583D-05-0.147D-02
 Coeff-Com: -0.606D-02-0.548D-02 0.209D-01 0.620D-01 0.221D-01-0.236D+00
 Coeff-Com: -0.165D+00 0.417D+00 0.892D+00
 Coeff:     -0.406D-04 0.810D-04 0.117D-03 0.172D-03-0.583D-05-0.147D-02
 Coeff:     -0.606D-02-0.548D-02 0.209D-01 0.620D-01 0.221D-01-0.236D+00
 Coeff:     -0.165D+00 0.417D+00 0.892D+00
 Gap=     0.160 Goal=   None    Shift=    0.000
 RMSDP=8.57D-08 MaxDP=6.36D-06 DE=-5.84D-09 OVMax= 6.00D-05

 Cycle  16  Pass 1  IDiag  1:
 RMSU=  3.07D-08    CP:  9.74D-01  1.57D+00  7.18D-01  7.32D-01  1.04D+00
                    CP:  1.07D+00  1.20D+00  1.35D+00  1.75D+00  2.19D+00
                    CP:  2.93D+00  3.00D+00  2.52D+00  1.78D+00  1.79D+00
 E= -3007.83978634014     Delta-E=       -0.000000001204 Rises=F Damp=F
 DIIS: error= 1.48D-07 at cycle  16 NSaved=  16.
 NSaved=16 IEnMin=16 EnMin= -3007.83978634014     IErMin=16 ErrMin= 1.48D-07
 ErrMax= 1.48D-07  0.00D+00 EMaxC= 1.00D-01 BMatC= 2.84D-11 BMatP= 1.51D-10
 IDIUse=1 WtCom= 1.00D+00 WtEn= 0.00D+00
 Coeff-Com: -0.172D-04 0.336D-04 0.535D-04 0.886D-04 0.110D-03-0.374D-03
 Coeff-Com: -0.299D-02-0.428D-02 0.428D-02 0.308D-01 0.356D-01-0.439D-01
 Coeff-Com: -0.146D+00-0.282D-01 0.307D+00 0.848D+00
 Coeff:     -0.172D-04 0.336D-04 0.535D-04 0.886D-04 0.110D-03-0.374D-03
 Coeff:     -0.299D-02-0.428D-02 0.428D-02 0.308D-01 0.356D-01-0.439D-01
 Coeff:     -0.146D+00-0.282D-01 0.307D+00 0.848D+00
 Gap=     0.160 Goal=   None    Shift=    0.000
 RMSDP=2.78D-08 MaxDP=2.18D-06 DE=-1.20D-09 OVMax= 1.80D-05

 Cycle  17  Pass 1  IDiag  1:
 RMSU=  9.00D-09    CP:  9.74D-01  1.57D+00  7.18D-01  7.32D-01  1.04D+00
                    CP:  1.07D+00  1.20D+00  1.35D+00  1.75D+00  2.20D+00
                    CP:  2.97D+00  3.00D+00  2.63D+00  1.94D+00  2.11D+00
                    CP:  1.18D+00
 E= -3007.83978634029     Delta-E=       -0.000000000153 Rises=F Damp=F
 DIIS: error= 1.00D-07 at cycle  17 NSaved=  17.
 NSaved=17 IEnMin=17 EnMin= -3007.83978634029     IErMin=17 ErrMin= 1.00D-07
 ErrMax= 1.00D-07  0.00D+00 EMaxC= 1.00D-01 BMatC= 7.94D-12 BMatP= 2.84D-11
 IDIUse=1 WtCom= 1.00D+00 WtEn= 0.00D+00
 Coeff-Com:  0.290D-05-0.608D-05-0.703D-05-0.687D-05 0.465D-04 0.223D-03
 Coeff-Com:  0.223D-03-0.313D-03-0.330D-02-0.290D-02 0.685D-02 0.434D-01
 Coeff-Com: -0.199D-01-0.108D+00-0.721D-01 0.304D+00 0.852D+00
 Coeff:      0.290D-05-0.608D-05-0.703D-05-0.687D-05 0.465D-04 0.223D-03
 Coeff:      0.223D-03-0.313D-03-0.330D-02-0.290D-02 0.685D-02 0.434D-01
 Coeff:     -0.199D-01-0.108D+00-0.721D-01 0.304D+00 0.852D+00
 Gap=     0.160 Goal=   None    Shift=    0.000
 RMSDP=1.16D-08 MaxDP=9.26D-07 DE=-1.53D-10 OVMax= 7.06D-06

 Cycle  18  Pass 1  IDiag  1:
 RMSU=  5.70D-09    CP:  9.74D-01  1.57D+00  7.18D-01  7.32D-01  1.04D+00
                    CP:  1.07D+00  1.20D+00  1.35D+00  1.75D+00  2.21D+00
                    CP:  2.98D+00  3.00D+00  2.66D+00  2.01D+00  2.22D+00
                    CP:  1.28D+00  1.67D+00
 E= -3007.83978634029     Delta-E=        0.000000000002 Rises=F Damp=F
 DIIS: error= 6.53D-08 at cycle  18 NSaved=  18.
 NSaved=18 IEnMin=17 EnMin= -3007.83978634029     IErMin=18 ErrMin= 6.53D-08
 ErrMax= 6.53D-08  0.00D+00 EMaxC= 1.00D-01 BMatC= 3.14D-12 BMatP= 7.94D-12
 IDIUse=1 WtCom= 1.00D+00 WtEn= 0.00D+00
 Coeff-Com:  0.687D-05-0.136D-04-0.213D-04-0.333D-04-0.198D-04 0.224D-03
 Coeff-Com:  0.108D-02 0.142D-02-0.288D-02-0.120D-01-0.104D-01 0.366D-01
 Coeff-Com:  0.402D-01-0.387D-01-0.126D+00-0.190D+00 0.345D+00 0.955D+00
 Coeff:      0.687D-05-0.136D-04-0.213D-04-0.333D-04-0.198D-04 0.224D-03
 Coeff:      0.108D-02 0.142D-02-0.288D-02-0.120D-01-0.104D-01 0.366D-01
 Coeff:      0.402D-01-0.387D-01-0.126D+00-0.190D+00 0.345D+00 0.955D+00
 Gap=     0.160 Goal=   None    Shift=    0.000
 RMSDP=9.64D-09 MaxDP=7.44D-07 DE= 1.82D-12 OVMax= 5.91D-06

 SCF Done:  E(RwB97XD) =  -3007.83978634     A.U. after   18 cycles
            NFock= 18  Conv=0.96D-08     -V/T= 2.0109
 KE= 2.975532798568D+03 PE=-2.573623961215D+04 EE= 1.038106019528D+04
 Leave Link  502 at Wed Apr 27 01:47:00 2022, MaxMem= 10066329600 cpu:            8266.2 elap:             360.7
 (Enter /sw/apps/gaussian-16.0/g16/l801.exe)
 DoSCS=F DFT=T ScalE2(SS,OS)=  1.000000  1.000000
 ExpMin= 3.36D-02 ExpMax= 4.95D+03 ExpMxC= 7.45D+02 IAcc=3 IRadAn=         5 AccDes= 0.00D+00
 HarFok:  IExCor=  205 AccDes= 0.00D+00 IRadAn=         5 IDoV=-2 UseB2=F ITyADJ=14
 ICtDFT= 12500011 ScaDFX=  1.000000  1.000000  1.000000  1.000000
 GSVD:  LWork=       -5460 too small for GESVD, short by       25550 words or       25550 for optimal perf.
 Largest valence mixing into a core orbital is  2.21D-04
 Largest core mixing into a valence orbital is  5.92D-05
 Range of M.O.s used for correlation:    71  1298
 NBasis=  1298 NAE=   246 NBE=   246 NFC=    70 NFV=     0
 NROrb=   1228 NOA=   176 NOB=   176 NVA=  1052 NVB=  1052
 Leave Link  801 at Wed Apr 27 01:47:01 2022, MaxMem= 10066329600 cpu:               6.1 elap:               0.3
 (Enter /sw/apps/gaussian-16.0/g16/l914.exe)
 RHF ground state
 Two-electron integrals replicated using symmetry.
 MDV= 10066329600 DFT=T DoStab=F Mixed=T DoRPA=T DoScal=F NonHer=T
 Making orbital integer symmetry assigments:
 Orbital symmetries:
       Occupied  (A) (A) (A) (A) (A) (A) (A) (A) (A) (A) (A) (A)
                 (A) (A) (A) (A) (A) (A) (A) (A) (A) (A) (A) (A)
                 (A) (A) (A) (A) (A) (A) (A) (A) (A) (A) (A) (A)
                 (A) (A) (A) (A) (A) (A) (A) (A) (A) (A) (A) (A)
                 (A) (A) (A) (A) (A) (A) (A) (A) (A) (A) (A) (A)
                 (A) (A) (A) (A) (A) (A) (A) (A) (A) (A) (A) (A)
                 (A) (A) (A) (A) (A) (A) (A) (A) (A) (A) (A) (A)
                 (A) (A) (A) (A) (A) (A) (A) (A) (A) (A) (A) (A)
                 (A) (A) (A) (A) (A) (A) (A) (A) (A) (A) (A) (A)
                 (A) (A) (A) (A) (A) (A) (A) (A) (A) (A) (A) (A)
                 (A) (A) (A) (A) (A) (A) (A) (A) (A) (A) (A) (A)
                 (A) (A) (A) (A) (A) (A) (A) (A) (A) (A) (A) (A)
                 (A) (A) (A) (A) (A) (A) (A) (A) (A) (A) (A) (A)
                 (A) (A) (A) (A) (A) (A) (A) (A) (A) (A) (A) (A)
                 (A) (A) (A) (A) (A) (A) (A) (A) (A) (A) (A) (A)
                 (A) (A) (A) (A) (A) (A) (A) (A) (A) (A) (A) (A)
                 (A) (A) (A) (A) (A) (A) (A) (A) (A) (A) (A) (A)
                 (A) (A) (A) (A) (A) (A) (A) (A) (A) (A) (A) (A)
                 (A) (A) (A) (A) (A) (A) (A) (A) (A) (A) (A) (A)
                 (A) (A) (A) (A) (A) (A) (A) (A) (A) (A) (A) (A)
                 (A) (A) (A) (A) (A) (A)
       Virtual   (A) (A) (A) (A) (A) (A) (A) (A) (A) (A) (A) (A)
                 (A) (A) (A) (A) (A) (A) (A) (A) (A) (A) (A) (A)
                 (A) (A) (A) (A) (A) (A) (A) (A) (A) (A) (A) (A)
                 (A) (A) (A) (A) (A) (A) (A) (A) (A) (A) (A) (A)
                 (A) (A) (A) (A) (A) (A) (A) (A) (A) (A) (A) (A)
                 (A) (A) (A) (A) (A) (A) (A) (A) (A) (A) (A) (A)
                 (A) (A) (A) (A) (A) (A) (A) (A) (A) (A) (A) (A)
                 (A) (A) (A) (A) (A) (A) (A) (A) (A) (A) (A) (A)
                 (A) (A) (A) (A) (A) (A) (A) (A) (A) (A) (A) (A)
                 (A) (A) (A) (A) (A) (A) (A) (A) (A) (A) (A) (A)
                 (A) (A) (A) (A) (A) (A) (A) (A) (A) (A) (A) (A)
                 (A) (A) (A) (A) (A) (A) (A) (A) (A) (A) (A) (A)
                 (A) (A) (A) (A) (A) (A) (A) (A) (A) (A) (A) (A)
                 (A) (A) (A) (A) (A) (A) (A) (A) (A) (A) (A) (A)
                 (A) (A) (A) (A) (A) (A) (A) (A) (A) (A) (A) (A)
                 (A) (A) (A) (A) (A) (A) (A) (A) (A) (A) (A) (A)
                 (A) (A) (A) (A) (A) (A) (A) (A) (A) (A) (A) (A)
                 (A) (A) (A) (A) (A) (A) (A) (A) (A) (A) (A) (A)
                 (A) (A) (A) (A) (A) (A) (A) (A) (A) (A) (A) (A)
                 (A) (A) (A) (A) (A) (A) (A) (A) (A) (A) (A) (A)
                 (A) (A) (A) (A) (A) (A) (A) (A) (A) (A) (A) (A)
                 (A) (A) (A) (A) (A) (A) (A) (A) (A) (A) (A) (A)
                 (A) (A) (A) (A) (A) (A) (A) (A) (A) (A) (A) (A)
                 (A) (A) (A) (A) (A) (A) (A) (A) (A) (A) (A) (A)
                 (A) (A) (A) (A) (A) (A) (A) (A) (A) (A) (A) (A)
                 (A) (A) (A) (A) (A) (A) (A) (A) (A) (A) (A) (A)
                 (A) (A) (A) (A) (A) (A) (A) (A) (A) (A) (A) (A)
                 (A) (A) (A) (A) (A) (A) (A) (A) (A) (A) (A) (A)
                 (A) (A) (A) (A) (A) (A) (A) (A) (A) (A) (A) (A)
                 (A) (A) (A) (A) (A) (A) (A) (A) (A) (A) (A) (A)
                 (A) (A) (A) (A) (A) (A) (A) (A) (A) (A) (A) (A)
                 (A) (A) (A) (A) (A) (A) (A) (A) (A) (A) (A) (A)
                 (A) (A) (A) (A) (A) (A) (A) (A) (A) (A) (A) (A)
                 (A) (A) (A) (A) (A) (A) (A) (A) (A) (A) (A) (A)
                 (A) (A) (A) (A) (A) (A) (A) (A) (A) (A) (A) (A)
                 (A) (A) (A) (A) (A) (A) (A) (A) (A) (A) (A) (A)
                 (A) (A) (A) (A) (A) (A) (A) (A) (A) (A) (A) (A)
                 (A) (A) (A) (A) (A) (A) (A) (A) (A) (A) (A) (A)
                 (A) (A) (A) (A) (A) (A) (A) (A) (A) (A) (A) (A)
                 (A) (A) (A) (A) (A) (A) (A) (A) (A) (A) (A) (A)
                 (A) (A) (A) (A) (A) (A) (A) (A) (A) (A) (A) (A)
                 (A) (A) (A) (A) (A) (A) (A) (A) (A) (A) (A) (A)
                 (A) (A) (A) (A) (A) (A) (A) (A) (A) (A) (A) (A)
                 (A) (A) (A) (A) (A) (A) (A) (A) (A) (A) (A) (A)
                 (A) (A) (A) (A) (A) (A) (A) (A) (A) (A) (A) (A)
                 (A) (A) (A) (A) (A) (A) (A) (A) (A) (A) (A) (A)
                 (A) (A) (A) (A) (A) (A) (A) (A) (A) (A) (A) (A)
                 (A) (A) (A) (A) (A) (A) (A) (A) (A) (A) (A) (A)
                 (A) (A) (A) (A) (A) (A) (A) (A) (A) (A) (A) (A)
                 (A) (A) (A) (A) (A) (A) (A) (A) (A) (A) (A) (A)
                 (A) (A) (A) (A) (A) (A) (A) (A) (A) (A) (A) (A)
                 (A) (A) (A) (A) (A) (A) (A) (A) (A) (A) (A) (A)
                 (A) (A) (A) (A) (A) (A) (A) (A) (A) (A) (A) (A)
                 (A) (A) (A) (A) (A) (A) (A) (A) (A) (A) (A) (A)
                 (A) (A) (A) (A) (A) (A) (A) (A) (A) (A) (A) (A)
                 (A) (A) (A) (A) (A) (A) (A) (A) (A) (A) (A) (A)
                 (A) (A) (A) (A) (A) (A) (A) (A) (A) (A) (A) (A)
                 (A) (A) (A) (A) (A) (A) (A) (A) (A) (A) (A) (A)
                 (A) (A) (A) (A) (A) (A) (A) (A) (A) (A) (A) (A)
                 (A) (A) (A) (A) (A) (A) (A) (A) (A) (A) (A) (A)
                 (A) (A) (A) (A) (A) (A) (A) (A) (A) (A) (A) (A)
                 (A) (A) (A) (A) (A) (A) (A) (A) (A) (A) (A) (A)
                 (A) (A) (A) (A) (A) (A) (A) (A) (A) (A) (A) (A)
                 (A) (A) (A) (A) (A) (A) (A) (A) (A) (A) (A) (A)
                 (A) (A) (A) (A) (A) (A) (A) (A) (A) (A) (A) (A)
                 (A) (A) (A) (A) (A) (A) (A) (A) (A) (A) (A) (A)
                 (A) (A) (A) (A) (A) (A) (A) (A) (A) (A) (A) (A)
                 (A) (A) (A) (A) (A) (A) (A) (A) (A) (A) (A) (A)
                 (A) (A) (A) (A) (A) (A) (A) (A) (A) (A) (A) (A)
                 (A) (A) (A) (A) (A) (A) (A) (A) (A) (A) (A) (A)
                 (A) (A) (A) (A) (A) (A) (A) (A) (A) (A) (A) (A)
                 (A) (A) (A) (A) (A) (A) (A) (A) (A) (A) (A) (A)
                 (A) (A) (A) (A) (A) (A) (A) (A) (A) (A) (A) (A)
                 (A) (A) (A) (A) (A) (A) (A) (A) (A) (A) (A) (A)
                 (A) (A) (A) (A) (A) (A) (A) (A) (A) (A) (A) (A)
                 (A) (A) (A) (A) (A) (A) (A) (A) (A) (A) (A) (A)
                 (A) (A) (A) (A) (A) (A) (A) (A) (A) (A) (A) (A)
                 (A) (A) (A) (A) (A) (A) (A) (A) (A) (A) (A) (A)
                 (A) (A) (A) (A) (A) (A) (A) (A) (A) (A) (A) (A)
                 (A) (A) (A) (A) (A) (A) (A) (A) (A) (A) (A) (A)
                 (A) (A) (A) (A) (A) (A) (A) (A) (A) (A) (A) (A)
                 (A) (A) (A) (A) (A) (A) (A) (A) (A) (A) (A) (A)
                 (A) (A) (A) (A) (A) (A) (A) (A) (A) (A) (A) (A)
                 (A) (A) (A) (A) (A) (A) (A) (A) (A) (A) (A) (A)
                 (A) (A) (A) (A) (A) (A) (A) (A) (A) (A) (A) (A)
                 (A) (A) (A) (A) (A) (A) (A) (A) (A) (A) (A) (A)
                 (A) (A) (A) (A) (A) (A) (A) (A) (A) (A) (A) (A)
                 (A) (A) (A) (A) (A) (A) (A) (A)
    20 initial guesses have been made.
 Convergence on wavefunction:    0.001000000000000
 Davidson Disk Diagonalization:  ConvIn= 1.00D-03 SkipCon=T Conv= 1.00D-03.
 Max sub-space:  2000 roots to seek:    20 dimension of matrix:       370304
 Iteration     1 Dimension    20 NMult     0 NNew     20
 CISAX will form    20 AO SS matrices at one time.
 NMat=    20 NSing=    20 JSym2X= 0.
 FoFJK:  IHMeth= 1 ICntrl=       0 DoSepK=T KAlg= 0 I1Cent=           0 FoldK=F
 IRaf=         1 NMat=      40 IRICut=       1 DoRegI=T DoRafI=F ISym2E= 0 IDoP0=3 IntGTp=3.
 FoFCou: FMM=T IPFlag=           0 FMFlag=      100000 FMFlg1=        2001
         NFxFlg=           0 DoJE=F BraDBF=F KetDBF=F FulRan=T
         wScrn=  0.000000 ICntrl=       500 IOpCl=  0 I1Cent=           0 NGrid=           0
         NMat0=   20 NMatS0=     20 NMatT0=    0 NMatD0=   20 NMtDS0=    0 NMtDT0=    0
 Symmetry not used in FoFCou.
 FMM levels:  10  Number of levels for PrismC:   9
 New state      3 was old state      5
 New state      4 was old state      7
 New state      5 was old state      8
 Excitation Energies [eV] at current iteration:
 Root      1 :     2.189562045082821
 Root      2 :     2.640594631659629
 Root      3 :     3.898980157673656
 Root      4 :     4.070743504732985
 Root      5 :     4.318700679559397
 Root      6 :     4.356886248700698
 Root      7 :     4.429314372505799
 Root      8 :     4.532438432335208
 Root      9 :     4.589966084790923
 Root     10 :     4.695720450018174
 Root     11 :     4.927781171310704
 Root     12 :     5.080926149632282
 Root     13 :     5.177657239330263
 Root     14 :     5.228243227977591
 Root     15 :     5.389155123439014
 Root     16 :     5.484944392190682
 Root     17 :     5.675391469461063
 Root     18 :     6.207464162522728
 Root     19 :     6.909902538281987
 Root     20 :     7.198531524029502
 Iteration     2 Dimension    30 NMult    20 NNew     10
 CISAX will form    10 AO SS matrices at one time.
 NMat=    10 NSing=    10 JSym2X= 0.
 Root      1 not converged, maximum delta is    0.075285920076632
 Root      2 not converged, maximum delta is    0.055068457680353
 Root      3 not converged, maximum delta is    0.055913248292927
 Root      4 not converged, maximum delta is    0.067255873761434
 Root      5 not converged, maximum delta is    0.133630358011362
 Excitation Energies [eV] at current iteration:
 Root      1 :     1.694772381978257   Change is   -0.494789663104565
 Root      2 :     2.234260048155071   Change is   -0.406334583504558
 Root      3 :     3.541199608289546   Change is   -0.357780549384111
 Root      4 :     3.622889895249795   Change is   -0.447853609483190
 Root      5 :     3.928846660572784   Change is   -0.389854018986613
 Iteration     3 Dimension    40 NMult    30 NNew     10
 CISAX will form    10 AO SS matrices at one time.
 NMat=    10 NSing=    10 JSym2X= 0.
 Root      1 not converged, maximum delta is    0.017043198765481
 Root      2 not converged, maximum delta is    0.018757934899548
 Root      3 not converged, maximum delta is    0.145918639258504
 Root      4 not converged, maximum delta is    0.234745860094974
 Root      5 not converged, maximum delta is    0.130411501797787
 Excitation Energies [eV] at current iteration:
 Root      1 :     1.657487536311500   Change is   -0.037284845666757
 Root      2 :     2.213121287901741   Change is   -0.021138760253330
 Root      3 :     3.519057889579481   Change is   -0.022141718710064
 Root      4 :     3.565953559781757   Change is   -0.056936335468037
 Root      5 :     3.727664652943922   Change is   -0.201182007628862
 Iteration     4 Dimension    50 NMult    40 NNew     10
 CISAX will form    10 AO SS matrices at one time.
 NMat=    10 NSing=    10 JSym2X= 0.
 Root      1 not converged, maximum delta is    0.003540386663490
 Root      2 not converged, maximum delta is    0.003670822724414
 Root      3 not converged, maximum delta is    0.106376634094308
 Root      4 not converged, maximum delta is    0.159864927396025
 Root      5 not converged, maximum delta is    0.030518224665485
 Excitation Energies [eV] at current iteration:
 Root      1 :     1.653650229428224   Change is   -0.003837306883276
 Root      2 :     2.210592884063323   Change is   -0.002528403838418
 Root      3 :     3.508329104388032   Change is   -0.010728785191449
 Root      4 :     3.549610422433765   Change is   -0.016343137347992
 Root      5 :     3.685411546300258   Change is   -0.042253106643664
 Iteration     5 Dimension    60 NMult    50 NNew     10
 CISAX will form    10 AO SS matrices at one time.
 NMat=    10 NSing=    10 JSym2X= 0.
 Root      1 not converged, maximum delta is    0.001222898617280
 Root      2 has converged.
 Root      3 not converged, maximum delta is    0.019381837414891
 Root      4 not converged, maximum delta is    0.027584748564336
 Root      5 not converged, maximum delta is    0.006652569250325
 Excitation Energies [eV] at current iteration:
 Root      1 :     1.653300026778538   Change is   -0.000350202649686
 Root      2 :     2.210378488858232   Change is   -0.000214395205092
 Root      3 :     3.506249774857198   Change is   -0.002079329530835
 Root      4 :     3.547339751098586   Change is   -0.002270671335178
 Root      5 :     3.681280002562624   Change is   -0.004131543737634
 Iteration     6 Dimension    68 NMult    60 NNew      8
 CISAX will form     8 AO SS matrices at one time.
 NMat=     8 NSing=     8 JSym2X= 0.
 Root      1 has converged.
 Root      2 has converged.
 Root      3 not converged, maximum delta is    0.003902839564248
 Root      4 not converged, maximum delta is    0.007882012345710
 Root      5 not converged, maximum delta is    0.015763371686727
 Excitation Energies [eV] at current iteration:
 Root      1 :     1.653269707678429   Change is   -0.000030319100109
 Root      2 :     2.210376763095396   Change is   -0.000001725762836
 Root      3 :     3.505778375882051   Change is   -0.000471398975147
 Root      4 :     3.546809602097352   Change is   -0.000530149001235
 Root      5 :     3.680207145339728   Change is   -0.001072857222896
 Iteration     7 Dimension    74 NMult    68 NNew      6
 CISAX will form     6 AO SS matrices at one time.
 NMat=     6 NSing=     6 JSym2X= 0.
 Root      1 has converged.
 Root      2 has converged.
 Root      3 not converged, maximum delta is    0.005925430461496
 Root      4 not converged, maximum delta is    0.011114544590567
 Root      5 not converged, maximum delta is    0.081513727197595
 Excitation Energies [eV] at current iteration:
 Root      1 :     1.653269595952421   Change is   -0.000000111726008
 Root      2 :     2.210375794398033   Change is   -0.000000968697363
 Root      3 :     3.505631879644362   Change is   -0.000146496237689
 Root      4 :     3.546573595771827   Change is   -0.000236006325524
 Root      5 :     3.677296572982943   Change is   -0.002910572356784
 Iteration     8 Dimension    80 NMult    74 NNew      6
 CISAX will form     6 AO SS matrices at one time.
 NMat=     6 NSing=     6 JSym2X= 0.
 Root      1 has converged.
 Root      2 has converged.
 Root      3 not converged, maximum delta is    0.002320254408283
 Root      4 not converged, maximum delta is    0.005449942101286
 Root      5 not converged, maximum delta is    0.194855922488740
 Excitation Energies [eV] at current iteration:
 Root      1 :     1.653269561546453   Change is   -0.000000034405968
 Root      2 :     2.210374993240240   Change is   -0.000000801157793
 Root      3 :     3.505592033615670   Change is   -0.000039846028692
 Root      4 :     3.546484794936799   Change is   -0.000088800835029
 Root      5 :     3.668900364256058   Change is   -0.008396208726886
 Iteration     9 Dimension    86 NMult    80 NNew      6
 CISAX will form     6 AO SS matrices at one time.
 NMat=     6 NSing=     6 JSym2X= 0.
 Root      1 has converged.
 Root      2 has converged.
 Root      3 has converged.
 Root      4 not converged, maximum delta is    0.001046736673756
 Root      5 not converged, maximum delta is    0.063112676144455
 Excitation Energies [eV] at current iteration:
 Root      1 :     1.653269501675127   Change is   -0.000000059871326
 Root      2 :     2.210374687908105   Change is   -0.000000305332134
 Root      3 :     3.505585721824896   Change is   -0.000006311790774
 Root      4 :     3.546469200928673   Change is   -0.000015594008126
 Root      5 :     3.665444855960652   Change is   -0.003455508295406
 Iteration    10 Dimension    90 NMult    86 NNew      4
 CISAX will form     4 AO SS matrices at one time.
 NMat=     4 NSing=     4 JSym2X= 0.
 Root      1 has converged.
 Root      2 has converged.
 Root      3 has converged.
 Root      4 has converged.
 Root      5 not converged, maximum delta is    0.008143138101588
 Excitation Energies [eV] at current iteration:
 Root      1 :     1.653269457492831   Change is   -0.000000044182296
 Root      2 :     2.210374581380797   Change is   -0.000000106527309
 Root      3 :     3.505585346273051   Change is   -0.000000375551845
 Root      4 :     3.546466884235329   Change is   -0.000002316693344
 Root      5 :     3.664931532748859   Change is   -0.000513323211792
 Iteration    11 Dimension    92 NMult    90 NNew      2
 CISAX will form     2 AO SS matrices at one time.
 NMat=     2 NSing=     2 JSym2X= 0.
 Root      1 has converged.
 Root      2 has converged.
 Root      3 has converged.
 Root      4 has converged.
 Root      5 not converged, maximum delta is    0.001862722160128
 Excitation Energies [eV] at current iteration:
 Root      1 :     1.653269452284966   Change is   -0.000000005207865
 Root      2 :     2.210374554188444   Change is   -0.000000027192353
 Root      3 :     3.505585280377785   Change is   -0.000000065895265
 Root      4 :     3.546466736698079   Change is   -0.000000147537249
 Root      5 :     3.664851269620143   Change is   -0.000080263128716
 Iteration    12 Dimension    94 NMult    92 NNew      2
 CISAX will form     2 AO SS matrices at one time.
 NMat=     2 NSing=     2 JSym2X= 0.
 Root      1 has converged.
 Root      2 has converged.
 Root      3 has converged.
 Root      4 has converged.
 Root      5 has converged.
 Excitation Energies [eV] at current iteration:
 Root      1 :     1.653269449234237   Change is   -0.000000003050729
 Root      2 :     2.210374503949269   Change is   -0.000000050239175
 Root      3 :     3.505585260836088   Change is   -0.000000019541697
 Root      4 :     3.546466729666506   Change is   -0.000000007031573
 Root      5 :     3.664840804723576   Change is   -0.000010464896567
 Convergence achieved on expansion vectors.
 ***********************************************************************
 Excited states from <AA,BB:AA,BB> singles matrix:
 ***********************************************************************
 
 1PDM for each excited state written to RWF  633
 Ground to excited state transition densities written to RWF  633
 Ground to excited state transition electric dipole moments (Au):
       state          X           Y           Z        Dip. S.      Osc.
         1        -0.0664      3.0056     -0.3680      9.1733      0.3716
         2         1.2701      0.2417      0.1750      1.7023      0.0922
         3         1.8281      0.1078      0.1838      3.3872      0.2909
         4         1.7700      0.1443      0.2071      3.1964      0.2777
         5         0.4272      0.1067      0.0633      0.1979      0.0178
 Ground to excited state transition velocity dipole moments (Au):
       state          X           Y           Z        Dip. S.      Osc.
         1         0.0045     -0.1776      0.0220      0.0321      0.3517
         2        -0.0979     -0.0182     -0.0135      0.0101      0.0829
         3        -0.2258     -0.0146     -0.0218      0.0517      0.2673
         4        -0.2242     -0.0185     -0.0264      0.0513      0.2624
         5        -0.0556     -0.0142     -0.0066      0.0033      0.0165
 Ground to excited state transition magnetic dipole moments (Au):
       state          X           Y           Z
         1         0.0762     -0.2467     -1.9455
         2        -0.0757      0.1803      0.3267
         3        -0.1646      0.3148      0.7222
         4         0.0522      0.2757     -0.7113
         5        -0.1134     -0.7747     -0.2565
 Ground to excited state transition velocity quadrupole moments (Au):
       state          XX          YY          ZZ          XY          XZ          YZ
         1         0.2588     -0.4136      0.0107     -1.9982      0.2859      0.0152
         2        -2.0901     -0.0226      0.0001     -0.2676     -0.1556     -0.0129
         3        -4.7940      0.0926     -0.0054     -0.4233     -0.2772     -0.0350
         4        -4.6103      0.2549     -0.0155     -0.0323     -0.3352     -0.0569
         5        -1.1637      0.1175      0.0056     -0.0437     -0.0566      0.0033
 <0|del|b> * <b|rxdel|0> + <0|del|b> * <b|delr+rdel|0>
 Rotatory Strengths (R) in cgs (10**-40 erg-esu-cm/Gauss)
       state          XX          YY          ZZ    R(velocity)    E-M Angle
         1        45.5541      9.1135    -38.8592      5.2695       89.78
         2       -30.1522      2.8352     24.8111     -0.8353       90.43
         3       -41.6384     55.2549     78.8063     30.8076       84.72
         4        22.6430     51.4957    -63.4057      3.5777       89.35
[...]
 Alpha virt. eigenvalues --    1.23174   1.23447   1.23972   1.24056   1.24475
 Alpha virt. eigenvalues --    1.24836   1.25291   1.26241   1.26480   1.26575
 Alpha virt. eigenvalues --    1.26706   1.27343   1.27628   1.27697   1.28447
 Alpha virt. eigenvalues --    1.29257   1.29609   1.29760   1.30347   1.30502
 Alpha virt. eigenvalues --    1.30898   1.31487   1.31987   1.32782   1.33112
 Alpha virt. eigenvalues --    1.33428   1.33738   1.34322   1.34547   1.35627
 Alpha virt. eigenvalues --    1.35916   1.36597   1.37137   1.37335   1.38069
 Alpha virt. eigenvalues --    1.38509   1.38599   1.38821   1.39308   1.40151
 Alpha virt. eigenvalues --    1.40462   1.41002   1.41675   1.41917   1.42133
 Alpha virt. eigenvalues --    1.42366   1.43246   1.43765   1.44066   1.44468
 Alpha virt. eigenvalues --    1.44653   1.44760   1.45109   1.45249   1.46101
 Alpha virt. eigenvalues --    1.46463   1.46881   1.47238   1.47277   1.47872
 Alpha virt. eigenvalues --    1.48100   1.48417   1.48671   1.49278   1.49697
 Alpha virt. eigenvalues --    1.49915   1.50353   1.50641   1.51405   1.51945
 Alpha virt. eigenvalues --    1.52167   1.52325   1.52723   1.53523   1.53831
 Alpha virt. eigenvalues --    1.53896   1.54557   1.54875   1.55053   1.55310
 Alpha virt. eigenvalues --    1.55848   1.56359   1.57206   1.57587   1.58013
 Alpha virt. eigenvalues --    1.58557   1.58823   1.59099   1.59496   1.59737
 Alpha virt. eigenvalues --    1.60028   1.60137   1.60209   1.60579   1.60778
 Alpha virt. eigenvalues --    1.61174   1.61317   1.61467   1.61837   1.61952
 Alpha virt. eigenvalues --    1.62673   1.62770   1.63097   1.63320   1.63687
 Alpha virt. eigenvalues --    1.63928   1.64339   1.64425   1.64788   1.64820
 Alpha virt. eigenvalues --    1.64954   1.65524   1.65635   1.65920   1.66498
 Alpha virt. eigenvalues --    1.67161   1.67235   1.67721   1.68090   1.68410
 Alpha virt. eigenvalues --    1.68856   1.69207   1.69312   1.69871   1.70179
 Alpha virt. eigenvalues --    1.70585   1.71075   1.71519   1.72137   1.72705
 Alpha virt. eigenvalues --    1.73001   1.73427   1.74060   1.74277   1.74405
 Alpha virt. eigenvalues --    1.74782   1.75519   1.76034   1.76436   1.76622
 Alpha virt. eigenvalues --    1.77724   1.77975   1.78359   1.78560   1.78652
 Alpha virt. eigenvalues --    1.79063   1.79597   1.79896   1.79978   1.80338
 Alpha virt. eigenvalues --    1.80766   1.80792   1.81029   1.81087   1.81559
 Alpha virt. eigenvalues --    1.81614   1.81976   1.82152   1.82469   1.82865
 Alpha virt. eigenvalues --    1.82925   1.83205   1.83494   1.83804   1.83916
 Alpha virt. eigenvalues --    1.84032   1.84368   1.84500   1.85001   1.85257
 Alpha virt. eigenvalues --    1.85407   1.85563   1.85826   1.86091   1.86267
 Alpha virt. eigenvalues --    1.86514   1.86758   1.87007   1.87062   1.87254
 Alpha virt. eigenvalues --    1.87372   1.87615   1.87820   1.87965   1.88106
 Alpha virt. eigenvalues --    1.88206   1.88498   1.88668   1.88815   1.88893
 Alpha virt. eigenvalues --    1.89076   1.89363   1.89410   1.89578   1.89798
 Alpha virt. eigenvalues --    1.89951   1.90108   1.90236   1.90436   1.90735
 Alpha virt. eigenvalues --    1.90978   1.91259   1.91465   1.91593   1.91886
 Alpha virt. eigenvalues --    1.92077   1.92355   1.92900   1.93097   1.93484
 Alpha virt. eigenvalues --    1.93628   1.93785   1.94286   1.94535   1.94830
 Alpha virt. eigenvalues --    1.95206   1.95285   1.95505   1.95672   1.95868
 Alpha virt. eigenvalues --    1.96027   1.96124   1.96458   1.96643   1.97052
 Alpha virt. eigenvalues --    1.97151   1.97284   1.97662   1.97782   1.97918
 Alpha virt. eigenvalues --    1.98209   1.98427   1.98477   1.98614   1.98919
 Alpha virt. eigenvalues --    1.99192   1.99468   1.99852   2.00137   2.00249
 Alpha virt. eigenvalues --    2.00720   2.00974   2.01110   2.01447   2.01546
 Alpha virt. eigenvalues --    2.02187   2.02744   2.02882   2.03040   2.03315
 Alpha virt. eigenvalues --    2.03461   2.03513   2.03876   2.04365   2.04489
 Alpha virt. eigenvalues --    2.04582   2.04739   2.05618   2.05796   2.06183
 Alpha virt. eigenvalues --    2.06452   2.06619   2.06723   2.06815   2.07083
 Alpha virt. eigenvalues --    2.07213   2.07455   2.08101   2.08407   2.08680
 Alpha virt. eigenvalues --    2.08972   2.09177   2.09591   2.09897   2.10619
 Alpha virt. eigenvalues --    2.11013   2.11167   2.11396   2.11640   2.11920
 Alpha virt. eigenvalues --    2.12210   2.12323   2.12875   2.13025   2.13339
 Alpha virt. eigenvalues --    2.13510   2.13839   2.14086   2.14967   2.14997
 Alpha virt. eigenvalues --    2.15227   2.15720   2.15879   2.16218   2.16335
 Alpha virt. eigenvalues --    2.16787   2.17011   2.17242   2.17595   2.17790
 Alpha virt. eigenvalues --    2.17984   2.18539   2.18815   2.18979   2.19144
 Alpha virt. eigenvalues --    2.19543   2.19942   2.20317   2.20586   2.20913
 Alpha virt. eigenvalues --    2.21212   2.21672   2.21742   2.22246   2.22850
 Alpha virt. eigenvalues --    2.22941   2.23421   2.23725   2.24410   2.24853
 Alpha virt. eigenvalues --    2.24897   2.25141   2.25625   2.25751   2.26528
 Alpha virt. eigenvalues --    2.26901   2.27153   2.27548   2.28257   2.28606
 Alpha virt. eigenvalues --    2.28996   2.29449   2.29584   2.29977   2.30324
 Alpha virt. eigenvalues --    2.30926   2.31198   2.31557   2.31632   2.32283
 Alpha virt. eigenvalues --    2.32447   2.33093   2.33452   2.34028   2.34601
 Alpha virt. eigenvalues --    2.34999   2.35150   2.35709   2.35871   2.36720
 Alpha virt. eigenvalues --    2.37417   2.37682   2.37814   2.38150   2.38252
 Alpha virt. eigenvalues --    2.38778   2.39006   2.39528   2.39715   2.40325
 Alpha virt. eigenvalues --    2.40738   2.40975   2.41256   2.41562   2.41606
 Alpha virt. eigenvalues --    2.41796   2.42156   2.42562   2.42939   2.43322
 Alpha virt. eigenvalues --    2.43757   2.43987   2.44691   2.45080   2.45355
 Alpha virt. eigenvalues --    2.45631   2.45984   2.46482   2.47066   2.47236
 Alpha virt. eigenvalues --    2.47287   2.48053   2.48285   2.48396   2.48785
 Alpha virt. eigenvalues --    2.48878   2.49625   2.49933   2.50122   2.50544
 Alpha virt. eigenvalues --    2.50942   2.51601   2.52010   2.52058   2.52576
 Alpha virt. eigenvalues --    2.52852   2.52997   2.53064   2.53586   2.54715
 Alpha virt. eigenvalues --    2.54995   2.55062   2.55533   2.55824   2.56340
 Alpha virt. eigenvalues --    2.56699   2.57204   2.57633   2.58201   2.58530
 Alpha virt. eigenvalues --    2.58993   2.59358   2.59462   2.59706   2.60666
 Alpha virt. eigenvalues --    2.60752   2.61208   2.62029   2.62278   2.62652
 Alpha virt. eigenvalues --    2.62782   2.63149   2.63858   2.64664   2.64864
 Alpha virt. eigenvalues --    2.64952   2.65852   2.66552   2.66639   2.66922
 Alpha virt. eigenvalues --    2.67341   2.67354   2.67945   2.68208   2.68713
 Alpha virt. eigenvalues --    2.69008   2.69351   2.69870   2.70183   2.70549
 Alpha virt. eigenvalues --    2.70978   2.71561   2.71734   2.72491   2.72652
 Alpha virt. eigenvalues --    2.72897   2.73683   2.73919   2.74925   2.75022
 Alpha virt. eigenvalues --    2.75819   2.75966   2.76334   2.76751   2.76818
 Alpha virt. eigenvalues --    2.77301   2.77798   2.78539   2.79321   2.79507
 Alpha virt. eigenvalues --    2.79801   2.79994   2.80527   2.80763   2.81095
 Alpha virt. eigenvalues --    2.81197   2.81385   2.82158   2.82242   2.82412
 Alpha virt. eigenvalues --    2.82753   2.83981   2.84687   2.85092   2.85435
 Alpha virt. eigenvalues --    2.86111   2.86250   2.87179   2.87624   2.88276
 Alpha virt. eigenvalues --    2.88304   2.88492   2.88692   2.89481   2.90466
 Alpha virt. eigenvalues --    2.91009   2.91060   2.92466   2.92848   2.93016
 Alpha virt. eigenvalues --    2.93238   2.93631   2.94013   2.94574   2.94776
 Alpha virt. eigenvalues --    2.96100   2.96377   2.96594   2.96902   2.98047
 Alpha virt. eigenvalues --    2.98583   2.98859   2.99045   2.99054   2.99355
 Alpha virt. eigenvalues --    2.99631   2.99699   2.99805   3.00277   3.00550
 Alpha virt. eigenvalues --    3.00776   3.00891   3.01098   3.01238   3.01991
 Alpha virt. eigenvalues --    3.02281   3.02892   3.03662   3.03937   3.04158
 Alpha virt. eigenvalues --    3.04270   3.04737   3.05106   3.05449   3.05592
 Alpha virt. eigenvalues --    3.06197   3.06626   3.06745   3.07061   3.07306
 Alpha virt. eigenvalues --    3.07394   3.07627   3.07734   3.07780   3.08265
 Alpha virt. eigenvalues --    3.08880   3.09045   3.09692   3.09960   3.10417
 Alpha virt. eigenvalues --    3.10721   3.10728   3.10957   3.11080   3.11299
 Alpha virt. eigenvalues --    3.12400   3.12595   3.13185   3.13326   3.14251
 Alpha virt. eigenvalues --    3.14390   3.14720   3.15058   3.15255   3.15589
 Alpha virt. eigenvalues --    3.16063   3.16469   3.16808   3.17099   3.17811
 Alpha virt. eigenvalues --    3.18510   3.19526   3.21036   3.21543   3.22005
 Alpha virt. eigenvalues --    3.22226   3.22992   3.23212   3.23719   3.25789
 Alpha virt. eigenvalues --    3.27822   3.28183   3.29286   3.29724   3.29879
 Alpha virt. eigenvalues --    3.30154   3.33687   3.44140   3.45934   3.48490
 Alpha virt. eigenvalues --    3.48945   3.49223   3.51772   3.58056   3.60265
 Alpha virt. eigenvalues --    3.63064   3.66156   3.67444   3.71528   3.73565
 Alpha virt. eigenvalues --    3.74256   3.76533
          Condensed to atoms (all electrons):
 Mulliken charges:
               1
     1  Mg   0.978123
     2  C    0.026536
     3  C   -0.098068
     4  C   -0.089246
     5  C   -0.107546
     6  N   -0.345129
     7  C    0.020333
     8  C   -0.111987
     9  C   -0.063080
    10  C    0.038258
    11  C    0.029558
    12  C   -0.006299
    13  C    0.027004
    14  C    0.183741
    15  O   -0.275615
    16  O   -0.351003
    17  N   -0.539652
    18  C    0.210569
    19  C   -0.177013
    20  C   -0.093876
    21  C    0.192734
    22  C    0.054634
    23  C    0.034781
    24  O   -0.205777
    25  C   -0.001880
    26  N   -0.369988
    27  C    0.081272
    28  C   -0.123544
    29  C   -0.051005
    30  C    0.109124
    31  C    0.008435
    32  C    0.006637
    33  C   -0.060594
    34  N   -0.435291
    35  C    0.129743
    36  C   -0.245675
    37  C   -0.055366
    38  C    0.127175
    39  C    0.086275
    40  C    0.209045
    41  O   -0.205754
    42  C   -0.138830
    43  C    0.273377
    44  O   -0.253716
    45  O   -0.364100
    46  C    0.135292
    47  C    0.266428
    48  C   -0.161114
    49  C   -0.246738
    50  C    0.055117
    51  C    0.041357
    52  C   -0.020210
    53  C    0.001602
    54  C   -0.181253
    55  C    0.012390
    56  C    0.024962
    57  C   -0.050496
    58  C    0.015862
    59  C   -0.201067
    60  C    0.026659
    61  C    0.018041
    62  C   -0.074907
    63  C    0.025662
    64  C   -0.235304
    65  C   -0.000968
    66  C   -0.011636
    67  H   -0.009320
    68  H    0.033056
    69  H    0.011407
    70  H    0.056649
    71  H    0.037351
    72  H    0.042830
    73  H    0.040174
    74  H    0.044514
    75  H    0.049960
    76  H    0.050296
    77  H    0.043436
    78  H    0.055792
    79  H    0.045750
    80  H    0.060218
    81  H    0.038475
    82  H    0.049707
    83  H    0.029058
    84  H    0.078905
    85  H    0.028762
    86  H    0.033126
    87  H    0.044201
    88  H    0.024956
    89  H    0.050836
    90  H    0.030726
    91  H    0.029675
    92  H    0.025190
    93  H    0.036165
    94  H    0.036245
    95  H    0.027838
    96  H    0.054052
    97  H    0.067574
    98  H    0.093137
    99  H    0.055050
   100  H    0.040332
   101  H    0.068182
   102  H    0.056617
   103  H    0.050701
   104  H    0.024886
   105  H    0.032734
   106  H    0.054405
   107  H    0.052717
   108  H    0.056320
   109  H    0.008922
   110  H    0.013736
   111  H    0.025175
   112  H    0.009993
   113  H    0.008958
   114  H    0.027534
   115  H    0.025710
   116  H    0.030141
   117  H    0.015148
   118  H   -0.001667
   119  H    0.020713
   120  H    0.021214
   121  H    0.022950
   122  H    0.013848
   123  H    0.021445
   124  H    0.026158
   125  H    0.011918
   126  H    0.036043
   127  H    0.043466
   128  H    0.015014
   129  H    0.016035
   130  H    0.015026
   131  H    0.028880
   132  H    0.014878
   133  H    0.013213
   134  H    0.030929
   135  H    0.031551
   136  H    0.023003
   137  H    0.026058
   138  H    0.022663
   139  H    0.015050
   140  H    0.036612
 Sum of Mulliken charges =  -0.00000
 Mulliken charges with hydrogens summed into heavy atoms:
               1
     1  Mg   0.978123
     2  C    0.026536
     3  C   -0.107388
     4  C   -0.056191
     5  C   -0.096139
     6  N   -0.345129
     7  C    0.020333
     8  C   -0.055338
     9  C   -0.025729
    10  C    0.038258
    11  C    0.157076
    12  C    0.093957
    13  C    0.126232
    14  C    0.183741
    15  O   -0.275615
    16  O   -0.351003
    17  N   -0.539652
    18  C    0.210569
    19  C   -0.177013
    20  C   -0.093876
    21  C    0.192734
    22  C    0.199076
    23  C    0.034781
    24  O   -0.205777
    25  C    0.155790
    26  N   -0.369988
    27  C    0.081272
    28  C   -0.094782
    29  C   -0.017879
    30  C    0.109124
    31  C    0.128428
    32  C    0.067038
    33  C    0.037006
    34  N   -0.435291
    35  C    0.129743
    36  C   -0.245675
    37  C   -0.055366
    38  C    0.127175
    39  C    0.235740
    40  C    0.209045
    41  O   -0.205754
    42  C   -0.045693
    43  C    0.273377
    44  O   -0.253716
    45  O   -0.364100
    46  C    0.298856
    47  C    0.373746
    48  C   -0.136228
    49  C   -0.246738
    50  C    0.194973
    51  C    0.106599
    52  C    0.018700
    53  C    0.020553
    54  C   -0.153719
    55  C    0.083389
    56  C    0.044008
    57  C   -0.006332
    58  C    0.051155
    59  C   -0.174909
    60  C    0.118087
    61  C    0.049090
    62  C   -0.031002
    63  C    0.053753
    64  C   -0.204375
    65  C    0.079644
    66  C    0.062688
 Electronic spatial extent (au):  <R**2>=         139014.9672
 Charge=             -0.0000 electrons
 Dipole moment (field-independent basis, Debye):
    X=             -4.1759    Y=              4.1458    Z=             -0.3085  Tot=              5.8924
 Quadrupole moment (field-independent basis, Debye-Ang):
   XX=           -380.3017   YY=           -416.5324   ZZ=           -408.8165
   XY=             10.3243   XZ=              9.8987   YZ=              2.2499
 Traceless Quadrupole moment (field-independent basis, Debye-Ang):
   XX=             21.5818   YY=            -14.6489   ZZ=             -6.9330
   XY=             10.3243   XZ=              9.8987   YZ=              2.2499
 Octapole moment (field-independent basis, Debye-Ang**2):
  XXX=            290.8625  YYY=            113.8288  ZZZ=             -1.6520  XYY=           -231.5522
  XXY=           -255.0868  XXZ=             30.4440  XZZ=             18.8973  YZZ=              7.4975
  YYZ=            -65.4924  XYZ=            -17.4317
 Hexadecapole moment (field-independent basis, Debye-Ang**3):
 XXXX=        -162784.7601 YYYY=         -22685.6781 ZZZZ=          -3524.3031 XXXY=          -1261.6839
 XXXZ=            549.5166 YYYX=            734.7027 YYYZ=            182.6810 ZZZX=             15.0692
 ZZZY=            -80.8992 XXYY=         -32606.5075 XXZZ=         -28602.4460 YYZZ=          -4375.4533
 XXYZ=           -151.0520 YYXZ=            110.4822 ZZXY=            147.5360
 N-N= 9.371806831967D+03 E-N=-2.573623960205D+04  KE= 2.975532798568D+03
 Leave Link  601 at Wed Apr 27 02:09:14 2022, MaxMem= 10066329600 cpu:               9.7 elap:               0.5
 (Enter /sw/apps/gaussian-16.0/g16/l9999.exe)
 1\1\GINC-BP1-COMPUTE161\SP\RwB97XD TD-FC\def2SVP\C55H74Mg1N4O6\OF15641
 \27-Apr-2022\0\\#p wB97XD/Def2SVP td=(nstates=5)\\step_101_chromophore
 _4 TDDFT with wB97XD functional\\0,1\Mg,0,8.488,3.107,27.121\C,0,10.10
 8,1.497,29.756\C,0,7.076,5.232,29.322\C,0,6.924,4.474,24.464\C,0,9.83,
 0.595,24.953\N,0,8.553,3.318,29.342\C,0,9.403,2.629,30.174\C,0,9.228,3
 .103,31.689\C,0,8.259,4.333,31.551\C,0,7.929,4.323,30.014\C,0,7.094,4.
 311,32.47\C,0,10.523,3.301,32.59\C,0,10.448,4.194,33.838\C,0,10.956,3.
 518,35.154\O,0,12.137,3.247,35.337\O,0,9.971,3.224,36.039\N,0,7.171,4.
 522,26.957\C,0,6.793,5.385,27.934\C,0,5.837,6.32,27.398\C,0,5.648,6.02
 9,25.99\C,0,6.652,4.983,25.745\C,0,5.033,7.275,28.311\C,0,4.714,6.655,
 24.995\O,0,4.624,6.294,23.867\C,0,3.628,7.558,25.451\N,0,8.588,2.694,2
 5.006\C,0,7.72,3.367,24.193\C,0,7.539,2.477,22.941\C,0,8.575,1.387,23.
 008\C,0,9.13,1.603,24.379\C,0,6.03,2.002,22.748\C,0,9.668,1.378,21.892
 \C,0,9.693,0.208,20.928\N,0,9.683,1.377,27.289\C,0,10.277,0.568,26.302
 \C,0,11.205,-0.295,26.976\C,0,11.211,0.004,28.308\C,0,10.257,1.073,28.
 464\C,0,12.081,-1.41,26.422\C,0,11.761,-0.364,29.68\O,0,12.576,-1.224,
 30.04\C,0,11.13,0.711,30.573\C,0,10.575,0.051,31.82\O,0,9.429,-0.401,3
 1.994\O,0,11.626,0.023,32.711\C,0,11.366,-0.315,34.114\C,0,10.38,2.65,
 37.321\C,0,10.455,3.728,38.383\C,0,11.223,3.752,39.545\C,0,12.162,2.69
 7,40.071\C,0,11.104,5.041,40.338\C,0,9.767,5.192,40.993\C,0,9.172,6.64
 ,40.772\C,0,9.284,7.562,41.977\C,0,8.164,7.224,42.926\C,0,9.013,9.034,
 41.422\C,0,10.316,9.9,41.659\C,0,10.136,11.327,42.323\C,0,11.113,11.57
 8,43.591\C,0,11.804,12.974,43.545\C,0,10.276,11.513,44.894\C,0,10.032,
 9.989,45.362\C,0,10.463,9.663,46.838\C,0,9.236,9.587,47.742\C,0,9.263,
 10.71,48.843\C,0,9.096,8.163,48.403\H,0,6.725,6.018,29.993\H,0,6.392,4
 .847,23.586\H,0,10.091,-0.284,24.359\H,0,8.701,2.279,32.169\H,0,8.874,
 5.209,31.759\H,0,6.685,5.319,32.546\H,0,7.455,3.946,33.431\H,0,6.351,3
 .564,32.191\H,0,11.379,3.619,31.995\H,0,10.692,2.323,33.041\H,0,9.483,
 4.624,34.104\H,0,11.118,5.027,33.622\H,0,4.,7.053,28.044\H,0,5.335,8.3
 09,28.145\H,0,5.093,7.117,29.387\H,0,3.143,8.013,24.588\H,0,4.212,8.38
 5,25.856\H,0,2.979,7.131,26.217\H,0,7.657,3.164,22.103\H,0,7.964,0.488
 ,22.932\H,0,5.516,2.157,23.697\H,0,5.988,0.923,22.601\H,0,5.487,2.49,2
 1.938\H,0,10.639,1.433,22.385\H,0,9.651,2.254,21.244\H,0,8.872,-0.486,
 21.112\H,0,10.615,-0.366,21.021\H,0,9.609,0.5,19.881\H,0,12.347,-0.981
 ,25.456\H,0,11.45,-2.279,26.237\H,0,12.957,-1.607,27.041\H,0,11.938,1.
 379,30.87\H,0,11.467,0.552,34.766\H,0,12.165,-0.902,34.567\H,0,10.524,
 -1.,34.212\H,0,11.296,2.068,37.218\H,0,9.574,1.982,37.625\H,0,9.843,4.
 617,38.225\H,0,12.34,1.851,39.408\H,0,11.754,2.434,41.047\H,0,13.102,3
 .247,40.116\H,0,11.416,5.82,39.642\H,0,11.8,4.946,41.171\H,0,9.78,4.99
 4,42.064\H,0,9.024,4.513,40.575\H,0,8.139,6.467,40.472\H,0,9.61,7.078,
 39.875\H,0,10.214,7.471,42.539\H,0,8.511,6.396,43.543\H,0,7.157,7.086,
 42.532\H,0,8.063,8.104,43.561\H,0,8.173,9.433,41.99\H,0,8.6,9.146,40.4
 2\H,0,10.59,10.167,40.639\H,0,11.177,9.438,42.143\H,0,9.114,11.378,42.
 698\H,0,10.296,12.076,41.547\H,0,11.824,10.752,43.575\H,0,11.845,13.35
 ,42.523\H,0,12.853,12.762,43.748\H,0,11.19,13.659,44.13\H,0,9.268,11.9
 21,44.823\H,0,10.608,12.059,45.778\H,0,10.495,9.226,44.736\H,0,8.971,9
 .741,45.316\H,0,11.184,10.382,47.228\H,0,11.031,8.734,46.858\H,0,8.305
 ,9.767,47.203\H,0,8.596,11.527,48.569\H,0,10.279,11.096,48.93\H,0,8.96
 6,10.296,49.807\H,0,9.146,8.174,49.492\H,0,9.932,7.495,48.192\H,0,8.20
 5,7.656,48.033\\Version=ES64L-G16RevA.03\State=1-A\HF=-3007.8397863\RM
 SD=9.645e-09\PG=C01 [X(C55H74Mg1N4O6)]\\@


 ... A MOLECULAR SYSTEM ... (PASSES) ... FROM ONE STATE OF EQUILIBRIUM 
 TO ANOTHER ... BY MEANS OF ALL POSSIBLE INTERMEDIATE PATHS, 
 BUT THE PATH MOST ECONOMICAL OF ENERGY WILL BE THE MORE OFTEN TRAVELED.

                      -- HENRY EYRING, 1945
 Job cpu time:       0 days 11 hours  9 minutes 28.3 seconds.
 Elapsed time:       0 days  0 hours 28 minutes 23.5 seconds.
 File lengths (MBytes):  RWF=   8929 Int=      0 D2E=      0 Chk=    390 Scr=      1
 Normal termination of Gaussian 16 at Wed Apr 27 02:09:14 2022.
