 Entering Gaussian System, Link 0=g16
 Initial command:
 /sw/apps/gaussian-16.0/g16/l1.exe "/tmp/Gau-64590.inp" -scrdir="/tmp/"
 Entering Link 1 = /sw/apps/gaussian-16.0/g16/l1.exe PID=     64591.
  
 Copyright (c) 1988,1990,1992,1993,1995,1998,2003,2009,2016,
            Gaussian, Inc.  All Rights Reserved.
  
 This is part of the Gaussian(R) 16 program.  It is based on
 the Gaussian(R) 09 system (copyright 2009, Gaussian, Inc.),
 the Gaussian(R) 03 system (copyright 2003, Gaussian, Inc.),
 the Gaussian(R) 98 system (copyright 1998, Gaussian, Inc.),
 the Gaussian(R) 94 system (copyright 1995, Gaussian, Inc.),
 the Gaussian 92(TM) system (copyright 1992, Gaussian, Inc.),
 the Gaussian 90(TM) system (copyright 1990, Gaussian, Inc.),
 the Gaussian 88(TM) system (copyright 1988, Gaussian, Inc.),
 the Gaussian 86(TM) system (copyright 1986, Carnegie Mellon
 University), and the Gaussian 82(TM) system (copyright 1983,
 Carnegie Mellon University). Gaussian is a federally registered
 trademark of Gaussian, Inc.
  
 This software contains proprietary and confidential information,
 including trade secrets, belonging to Gaussian, Inc.
  
 This software is provided under written license and may be
 used, copied, transmitted, or stored only in accord with that
 written license.
  
 The following legend is applicable only to US Government
 contracts under FAR:
  
                    RESTRICTED RIGHTS LEGEND
  
 Use, reproduction and disclosure by the US Government is
 subject to restrictions as set forth in subparagraphs (a)
 and (c) of the Commercial Computer Software - Restricted
 Rights clause in FAR 52.227-19.
  
 Gaussian, Inc.
 340 Quinnipiac St., Bldg. 40, Wallingford CT 06492
  
  
 ---------------------------------------------------------------
 Warning -- This program may not be used in any manner that
 competes with the business of Gaussian, Inc. or will provide
 assistance to any competitor of Gaussian, Inc.  The licensee
 of this program is prohibited from giving any competitor of
 Gaussian, Inc. access to this program.  By using this program,
 the user acknowledges that Gaussian, Inc. is engaged in the
 business of creating and licensing software in the field of
 computational chemistry and represents and warrants to the
 licensee that it is not a competitor of Gaussian, Inc. and that
 it will not use this program in any manner prohibited above.
 ---------------------------------------------------------------
  

 Cite this work as:
 Gaussian 16, Revision A.03,
 M. J. Frisch, G. W. Trucks, H. B. Schlegel, G. E. Scuseria, 
 M. A. Robb, J. R. Cheeseman, G. Scalmani, V. Barone, 
 G. A. Petersson, H. Nakatsuji, X. Li, M. Caricato, A. V. Marenich, 
 J. Bloino, B. G. Janesko, R. Gomperts, B. Mennucci, H. P. Hratchian, 
 J. V. Ortiz, A. F. Izmaylov, J. L. Sonnenberg, D. Williams-Young, 
 F. Ding, F. Lipparini, F. Egidi, J. Goings, B. Peng, A. Petrone, 
 T. Henderson, D. Ranasinghe, V. G. Zakrzewski, J. Gao, N. Rega, 
 G. Zheng, W. Liang, M. Hada, M. Ehara, K. Toyota, R. Fukuda, 
 J. Hasegawa, M. Ishida, T. Nakajima, Y. Honda, O. Kitao, H. Nakai, 
 T. Vreven, K. Throssell, J. A. Montgomery, Jr., J. E. Peralta, 
 F. Ogliaro, M. J. Bearpark, J. J. Heyd, E. N. Brothers, K. N. Kudin, 
 V. N. Staroverov, T. A. Keith, R. Kobayashi, J. Normand, 
 K. Raghavachari, A. P. Rendell, J. C. Burant, S. S. Iyengar, 
 J. Tomasi, M. Cossi, J. M. Millam, M. Klene, C. Adamo, R. Cammi, 
 J. W. Ochterski, R. L. Martin, K. Morokuma, O. Farkas, 
 J. B. Foresman, and D. J. Fox, Gaussian, Inc., Wallingford CT, 2016.
 
 ******************************************
 Gaussian 16:  ES64L-G16RevA.03 25-Dec-2016
                 4-May-2022 
 ******************************************
 %nproc=24
 Will use up to   24 processors via shared memory.
 %mem=75GB
 ---------------------------------
 #p PBE1PBE/Def2SVP td=(nstates=5)
 ---------------------------------
 1/38=1,172=1/1;
 2/12=2,17=6,18=5,40=1/2;
 3/5=43,7=101,11=9,25=1,30=1,74=-13/1,2,3,8;
 4//1;
 5/5=2,38=5/2;
 8/6=1,10=1,108=5/1;
 9/41=5,42=1,70=2/14;
 6/7=2,8=2,9=2,10=2/1;
 99/5=1,9=1/99;
 Leave Link    1 at Wed May  4 14:00:25 2022, MaxMem= 10066329600 cpu:               0.7 elap:               0.0
 (Enter /sw/apps/gaussian-16.0/g16/l101.exe)
 -----------------------------------------------------
 step_1851_chromophore_1 TDDFT with PBE1PBE functional
 -----------------------------------------------------
 Symbolic Z-matrix:
 Charge =  0 Multiplicity = 1
 Mg                   -1.776     17.478    25.57 
 C                    -2.361     15.044    28.247 
 C                    -2.558     19.979    27.893 
 C                    -1.996     19.571    23.024 
 C                    -2.014     14.733    23.421 
 N                    -2.273     17.476    27.796 
 C                    -2.444     16.379    28.728 
 C                    -2.89      16.878    30.105 
 C                    -2.959     18.491    29.926 
 C                    -2.567     18.708    28.465 
 C                    -4.297     19.048    30.33 
 C                    -1.979     16.56     31.309 
 C                    -2.266     17.303    32.657 
 C                    -1.835     16.626    33.934 
 O                    -1.777     15.4      34.088 
 O                    -1.641     17.549    34.914 
 N                    -2.097     19.539    25.486 
 C                    -2.352     20.441    26.525 
 C                    -2.257     21.862    26.043 
 C                    -2.087     21.706    24.596 
 C                    -2.055     20.244    24.327 
 C                    -2.386     23.074    26.88 
 C                    -2.072     22.747    23.519 
 O                    -1.972     22.414    22.358 
 C                    -1.979     24.269    23.878 
 N                    -2.121     17.2      23.541 
 C                    -1.944     18.235    22.728 
 C                    -2.066     17.688    21.248 
 C                    -1.779     16.214    21.41 
 C                    -2.009     16.012    22.894 
 C                    -3.21      18.111    20.362 
 C                    -0.348     15.815    20.986 
 C                     0.866     15.703    22.007 
 N                    -1.886     15.398    25.742 
 C                    -1.98      14.404    24.749 
 C                    -2.092     13.08     25.361 
 C                    -2.152     13.349    26.699 
 C                    -2.176     14.771    26.885 
 C                    -2.195     11.737    24.81 
 C                    -2.237     12.664    27.932 
 O                    -2.242     11.471    28.144 
 C                    -2.365     13.704    29.08 
 C                    -1.296     13.539    30.098 
 O                    -0.138     13.91     29.954 
 O                    -1.761     12.894    31.177 
 C                    -0.835     12.654    32.192 
 C                    -1.062     17.078    36.2 
 C                    -1.131     18.059    37.318 
 C                    -0.748     17.953    38.577 
 C                     0.046     16.692    39.109 
 C                    -1.276     18.966    39.628 
 C                    -0.337     19.409    40.738 
 C                     0.986     19.973    40.163 
 C                     1.348     21.52     40.371 
 C                     1.082     22.358    39.058 
 C                     2.759     21.596    40.914 
 C                     2.793     21.74     42.451 
 C                     3.823     20.985    43.317 
 C                     4.279     21.732    44.593 
 C                     5.747     21.533    44.766 
 C                     3.612     21.288    45.862 
 C                     2.205     21.895    46.169 
 C                     1.175     20.714    46.308 
 C                    -0.29      21.239    46.178 
 C                    -1.21      20.657    47.251 
 C                    -0.837     21.061    44.729 
 H                    -2.848     20.833    28.509 
 H                    -2.22      20.213    22.17 
 H                    -2.076     13.961    22.652 
 H                    -3.823     16.38     30.371 
 H                    -2.205     19.096    30.43 
 H                    -4.922     19.35     29.49 
 H                    -4.024     19.9      30.953 
 H                    -4.82      18.331    30.962 
 H                    -0.949     16.75     31.006 
 H                    -2.01      15.484    31.482 
 H                    -3.312     17.6      32.742 
 H                    -1.61      18.152    32.469 
 H                    -2.389     22.875    27.951 
 H                    -3.302     23.627    26.673 
 H                    -1.597     23.777    26.612 
 H                    -1.113     24.469    24.508 
 H                    -2.81      24.559    24.521 
 H                    -1.809     24.795    22.938 
 H                    -1.19      18.114    20.759 
 H                    -2.462     15.544    20.889 
 H                    -2.825     18.706    19.534 
 H                    -3.76      18.822    20.978 
 H                    -3.744     17.245    19.972 
 H                     0.004     16.483    20.2 
 H                    -0.464     14.803    20.6 
 H                     0.912     14.69     22.406 
 H                     0.987     16.455    22.786 
 H                     1.777     15.916    21.447 
 H                    -2.051     11.851    23.735 
 H                    -3.122     11.252    25.114 
 H                    -1.354     11.118    25.122 
 H                    -3.307     13.723    29.627 
 H                    -1.239     11.839    32.793 
 H                    -0.784     13.501    32.876 
 H                     0.163     12.451    31.802 
 H                    -0.014     16.809    36.063 
 H                    -1.524     16.129    36.47 
 H                    -1.77      18.915    37.101 
 H                     1.092     16.919    38.907 
 H                    -0.228     15.811    38.528 
 H                    -0.239     16.504    40.144 
 H                    -2.037     18.422    40.189 
 H                    -1.605     19.851    39.083 
 H                    -0.129     18.546    41.37 
 H                    -0.874     20.162    41.314 
 H                     0.933     19.819    39.085 
 H                     1.712     19.265    40.563 
 H                     0.626     21.92     41.083 
 H                     0.505     23.252    39.291 
 H                     0.506     21.723    38.385 
 H                     2.034     22.732    38.68 
 H                     3.28      22.522    40.67 
 H                     3.396     20.749    40.657 
 H                     1.849     21.377    42.857 
 H                     2.891     22.79     42.726 
 H                     4.695     20.816    42.686 
 H                     3.359     20.046    43.618 
 H                     4.131     22.808    44.512 
 H                     6.271     20.938    44.018 
 H                     5.979     21.319    45.809 
 H                     6.199     22.513    44.61 
 H                     4.206     21.463    46.759 
 H                     3.647     20.199    45.845 
 H                     1.962     22.465    45.272 
 H                     2.178     22.454    47.104 
 H                     1.301     20.237    47.28 
 H                     1.413     19.913    45.608 
 H                    -0.305     22.307    46.393 
 H                    -1.87      19.9      46.827 
 H                    -1.794     21.418    47.767 
 H                    -0.68      20.158    48.062 
 H                    -1.882     20.755    44.768 
 H                    -0.382     20.359    44.029 
 H                    -0.784     22.063    44.304 
 
 ITRead=  0  0  0  0  0  0  0  0  0  0  0  0  0  0  0  0  0  0  0  0
 ITRead=  0  0  0  0  0  0  0  0  0  0  0  0  0  0  0  0  0  0  0  0
 ITRead=  0  0  0  0  0  0  0  0  0  0  0  0  0  0  0  0  0  0  0  0
 ITRead=  0  0  0  0  0  0  0  0  0  0  0  0  0  0  0  0  0  0  0  0
 ITRead=  0  0  0  0  0  0  0  0  0  0  0  0  0  0  0  0  0  0  0  0
 ITRead=  0  0  0  0  0  0  0  0  0  0  0  0  0  0  0  0  0  0  0  0
 ITRead=  0  0  0  0  0  0  0  0  0  0  0  0  0  0  0  0  0  0  0  0
 MicOpt= -1 -1 -1 -1 -1 -1 -1 -1 -1 -1 -1 -1 -1 -1 -1 -1 -1 -1 -1 -1
 MicOpt= -1 -1 -1 -1 -1 -1 -1 -1 -1 -1 -1 -1 -1 -1 -1 -1 -1 -1 -1 -1
 MicOpt= -1 -1 -1 -1 -1 -1 -1 -1 -1 -1 -1 -1 -1 -1 -1 -1 -1 -1 -1 -1
 MicOpt= -1 -1 -1 -1 -1 -1 -1 -1 -1 -1 -1 -1 -1 -1 -1 -1 -1 -1 -1 -1
 MicOpt= -1 -1 -1 -1 -1 -1 -1 -1 -1 -1 -1 -1 -1 -1 -1 -1 -1 -1 -1 -1
 MicOpt= -1 -1 -1 -1 -1 -1 -1 -1 -1 -1 -1 -1 -1 -1 -1 -1 -1 -1 -1 -1
 MicOpt= -1 -1 -1 -1 -1 -1 -1 -1 -1 -1 -1 -1 -1 -1 -1 -1 -1 -1 -1 -1
 NAtoms=    140 NQM=      140 NQMF=       0 NMMI=      0 NMMIF=      0
                NMic=       0 NMicF=      0.
                    Isotopes and Nuclear Properties:
 (Nuclear quadrupole moments (NQMom) in fm**2, nuclear magnetic moments (NMagM)
  in nuclear magnetons)

  Atom         1           2           3           4           5           6           7           8           9          10
 IAtWgt=          24          12          12          12          12          14          12          12          12          12
 AtmWgt=  23.9850450  12.0000000  12.0000000  12.0000000  12.0000000  14.0030740  12.0000000  12.0000000  12.0000000  12.0000000
 NucSpn=           0           0           0           0           0           2           0           0           0           0
 AtZEff=  -0.0000000  -0.0000000  -0.0000000  -0.0000000  -0.0000000  -0.0000000  -0.0000000  -0.0000000  -0.0000000  -0.0000000
 NQMom=    0.0000000   0.0000000   0.0000000   0.0000000   0.0000000   2.0440000   0.0000000   0.0000000   0.0000000   0.0000000
 NMagM=    0.0000000   0.0000000   0.0000000   0.0000000   0.0000000   0.4037610   0.0000000   0.0000000   0.0000000   0.0000000
 AtZNuc=  12.0000000   6.0000000   6.0000000   6.0000000   6.0000000   7.0000000   6.0000000   6.0000000   6.0000000   6.0000000

  Atom        11          12          13          14          15          16          17          18          19          20
 IAtWgt=          12          12          12          12          16          16          14          12          12          12
 AtmWgt=  12.0000000  12.0000000  12.0000000  12.0000000  15.9949146  15.9949146  14.0030740  12.0000000  12.0000000  12.0000000
 NucSpn=           0           0           0           0           0           0           2           0           0           0
 AtZEff=  -0.0000000  -0.0000000  -0.0000000  -0.0000000  -0.0000000  -0.0000000  -0.0000000  -0.0000000  -0.0000000  -0.0000000
 NQMom=    0.0000000   0.0000000   0.0000000   0.0000000   0.0000000   0.0000000   2.0440000   0.0000000   0.0000000   0.0000000
 NMagM=    0.0000000   0.0000000   0.0000000   0.0000000   0.0000000   0.0000000   0.4037610   0.0000000   0.0000000   0.0000000
 AtZNuc=   6.0000000   6.0000000   6.0000000   6.0000000   8.0000000   8.0000000   7.0000000   6.0000000   6.0000000   6.0000000

  Atom        21          22          23          24          25          26          27          28          29          30
 IAtWgt=          12          12          12          16          12          14          12          12          12          12
 AtmWgt=  12.0000000  12.0000000  12.0000000  15.9949146  12.0000000  14.0030740  12.0000000  12.0000000  12.0000000  12.0000000
 NucSpn=           0           0           0           0           0           2           0           0           0           0
 AtZEff=  -0.0000000  -0.0000000  -0.0000000  -0.0000000  -0.0000000  -0.0000000  -0.0000000  -0.0000000  -0.0000000  -0.0000000
 NQMom=    0.0000000   0.0000000   0.0000000   0.0000000   0.0000000   2.0440000   0.0000000   0.0000000   0.0000000   0.0000000
 NMagM=    0.0000000   0.0000000   0.0000000   0.0000000   0.0000000   0.4037610   0.0000000   0.0000000   0.0000000   0.0000000
 AtZNuc=   6.0000000   6.0000000   6.0000000   8.0000000   6.0000000   7.0000000   6.0000000   6.0000000   6.0000000   6.0000000

  Atom        31          32          33          34          35          36          37          38          39          40
 IAtWgt=          12          12          12          14          12          12          12          12          12          12
 AtmWgt=  12.0000000  12.0000000  12.0000000  14.0030740  12.0000000  12.0000000  12.0000000  12.0000000  12.0000000  12.0000000
 NucSpn=           0           0           0           2           0           0           0           0           0           0
 AtZEff=  -0.0000000  -0.0000000  -0.0000000  -0.0000000  -0.0000000  -0.0000000  -0.0000000  -0.0000000  -0.0000000  -0.0000000
 NQMom=    0.0000000   0.0000000   0.0000000   2.0440000   0.0000000   0.0000000   0.0000000   0.0000000   0.0000000   0.0000000
 NMagM=    0.0000000   0.0000000   0.0000000   0.4037610   0.0000000   0.0000000   0.0000000   0.0000000   0.0000000   0.0000000
 AtZNuc=   6.0000000   6.0000000   6.0000000   7.0000000   6.0000000   6.0000000   6.0000000   6.0000000   6.0000000   6.0000000

  Atom        41          42          43          44          45          46          47          48          49          50
 IAtWgt=          16          12          12          16          16          12          12          12          12          12
 AtmWgt=  15.9949146  12.0000000  12.0000000  15.9949146  15.9949146  12.0000000  12.0000000  12.0000000  12.0000000  12.0000000
 NucSpn=           0           0           0           0           0           0           0           0           0           0
 AtZEff=  -0.0000000  -0.0000000  -0.0000000  -0.0000000  -0.0000000  -0.0000000  -0.0000000  -0.0000000  -0.0000000  -0.0000000
 NQMom=    0.0000000   0.0000000   0.0000000   0.0000000   0.0000000   0.0000000   0.0000000   0.0000000   0.0000000   0.0000000
 NMagM=    0.0000000   0.0000000   0.0000000   0.0000000   0.0000000   0.0000000   0.0000000   0.0000000   0.0000000   0.0000000
 AtZNuc=   8.0000000   6.0000000   6.0000000   8.0000000   8.0000000   6.0000000   6.0000000   6.0000000   6.0000000   6.0000000

  Atom        51          52          53          54          55          56          57          58          59          60
 IAtWgt=          12          12          12          12          12          12          12          12          12          12
 AtmWgt=  12.0000000  12.0000000  12.0000000  12.0000000  12.0000000  12.0000000  12.0000000  12.0000000  12.0000000  12.0000000
 NucSpn=           0           0           0           0           0           0           0           0           0           0
 AtZEff=  -0.0000000  -0.0000000  -0.0000000  -0.0000000  -0.0000000  -0.0000000  -0.0000000  -0.0000000  -0.0000000  -0.0000000
 NQMom=    0.0000000   0.0000000   0.0000000   0.0000000   0.0000000   0.0000000   0.0000000   0.0000000   0.0000000   0.0000000
 NMagM=    0.0000000   0.0000000   0.0000000   0.0000000   0.0000000   0.0000000   0.0000000   0.0000000   0.0000000   0.0000000
 AtZNuc=   6.0000000   6.0000000   6.0000000   6.0000000   6.0000000   6.0000000   6.0000000   6.0000000   6.0000000   6.0000000

  Atom        61          62          63          64          65          66          67          68          69          70
 IAtWgt=          12          12          12          12          12          12           1           1           1           1
 AtmWgt=  12.0000000  12.0000000  12.0000000  12.0000000  12.0000000  12.0000000   1.0078250   1.0078250   1.0078250   1.0078250
 NucSpn=           0           0           0           0           0           0           1           1           1           1
 AtZEff=  -0.0000000  -0.0000000  -0.0000000  -0.0000000  -0.0000000  -0.0000000  -0.0000000  -0.0000000  -0.0000000  -0.0000000
 NQMom=    0.0000000   0.0000000   0.0000000   0.0000000   0.0000000   0.0000000   0.0000000   0.0000000   0.0000000   0.0000000
 NMagM=    0.0000000   0.0000000   0.0000000   0.0000000   0.0000000   0.0000000   2.7928460   2.7928460   2.7928460   2.7928460
 AtZNuc=   6.0000000   6.0000000   6.0000000   6.0000000   6.0000000   6.0000000   1.0000000   1.0000000   1.0000000   1.0000000

  Atom        71          72          73          74          75          76          77          78          79          80
 IAtWgt=           1           1           1           1           1           1           1           1           1           1
 AtmWgt=   1.0078250   1.0078250   1.0078250   1.0078250   1.0078250   1.0078250   1.0078250   1.0078250   1.0078250   1.0078250
 NucSpn=           1           1           1           1           1           1           1           1           1           1
 AtZEff=  -0.0000000  -0.0000000  -0.0000000  -0.0000000  -0.0000000  -0.0000000  -0.0000000  -0.0000000  -0.0000000  -0.0000000
 NQMom=    0.0000000   0.0000000   0.0000000   0.0000000   0.0000000   0.0000000   0.0000000   0.0000000   0.0000000   0.0000000
 NMagM=    2.7928460   2.7928460   2.7928460   2.7928460   2.7928460   2.7928460   2.7928460   2.7928460   2.7928460   2.7928460
 AtZNuc=   1.0000000   1.0000000   1.0000000   1.0000000   1.0000000   1.0000000   1.0000000   1.0000000   1.0000000   1.0000000

  Atom        81          82          83          84          85          86          87          88          89          90
 IAtWgt=           1           1           1           1           1           1           1           1           1           1
 AtmWgt=   1.0078250   1.0078250   1.0078250   1.0078250   1.0078250   1.0078250   1.0078250   1.0078250   1.0078250   1.0078250
 NucSpn=           1           1           1           1           1           1           1           1           1           1
 AtZEff=  -0.0000000  -0.0000000  -0.0000000  -0.0000000  -0.0000000  -0.0000000  -0.0000000  -0.0000000  -0.0000000  -0.0000000
 NQMom=    0.0000000   0.0000000   0.0000000   0.0000000   0.0000000   0.0000000   0.0000000   0.0000000   0.0000000   0.0000000
 NMagM=    2.7928460   2.7928460   2.7928460   2.7928460   2.7928460   2.7928460   2.7928460   2.7928460   2.7928460   2.7928460
 AtZNuc=   1.0000000   1.0000000   1.0000000   1.0000000   1.0000000   1.0000000   1.0000000   1.0000000   1.0000000   1.0000000

  Atom        91          92          93          94          95          96          97          98          99         100
 IAtWgt=           1           1           1           1           1           1           1           1           1           1
 AtmWgt=   1.0078250   1.0078250   1.0078250   1.0078250   1.0078250   1.0078250   1.0078250   1.0078250   1.0078250   1.0078250
 NucSpn=           1           1           1           1           1           1           1           1           1           1
 AtZEff=  -0.0000000  -0.0000000  -0.0000000  -0.0000000  -0.0000000  -0.0000000  -0.0000000  -0.0000000  -0.0000000  -0.0000000
 NQMom=    0.0000000   0.0000000   0.0000000   0.0000000   0.0000000   0.0000000   0.0000000   0.0000000   0.0000000   0.0000000
 NMagM=    2.7928460   2.7928460   2.7928460   2.7928460   2.7928460   2.7928460   2.7928460   2.7928460   2.7928460   2.7928460
 AtZNuc=   1.0000000   1.0000000   1.0000000   1.0000000   1.0000000   1.0000000   1.0000000   1.0000000   1.0000000   1.0000000

  Atom       101         102         103         104         105         106         107         108         109         110
 IAtWgt=           1           1           1           1           1           1           1           1           1           1
 AtmWgt=   1.0078250   1.0078250   1.0078250   1.0078250   1.0078250   1.0078250   1.0078250   1.0078250   1.0078250   1.0078250
 NucSpn=           1           1           1           1           1           1           1           1           1           1
 AtZEff=  -0.0000000  -0.0000000  -0.0000000  -0.0000000  -0.0000000  -0.0000000  -0.0000000  -0.0000000  -0.0000000  -0.0000000
 NQMom=    0.0000000   0.0000000   0.0000000   0.0000000   0.0000000   0.0000000   0.0000000   0.0000000   0.0000000   0.0000000
 NMagM=    2.7928460   2.7928460   2.7928460   2.7928460   2.7928460   2.7928460   2.7928460   2.7928460   2.7928460   2.7928460
 AtZNuc=   1.0000000   1.0000000   1.0000000   1.0000000   1.0000000   1.0000000   1.0000000   1.0000000   1.0000000   1.0000000

  Atom       111         112         113         114         115         116         117         118         119         120
 IAtWgt=           1           1           1           1           1           1           1           1           1           1
 AtmWgt=   1.0078250   1.0078250   1.0078250   1.0078250   1.0078250   1.0078250   1.0078250   1.0078250   1.0078250   1.0078250
 NucSpn=           1           1           1           1           1           1           1           1           1           1
 AtZEff=  -0.0000000  -0.0000000  -0.0000000  -0.0000000  -0.0000000  -0.0000000  -0.0000000  -0.0000000  -0.0000000  -0.0000000
 NQMom=    0.0000000   0.0000000   0.0000000   0.0000000   0.0000000   0.0000000   0.0000000   0.0000000   0.0000000   0.0000000
 NMagM=    2.7928460   2.7928460   2.7928460   2.7928460   2.7928460   2.7928460   2.7928460   2.7928460   2.7928460   2.7928460
 AtZNuc=   1.0000000   1.0000000   1.0000000   1.0000000   1.0000000   1.0000000   1.0000000   1.0000000   1.0000000   1.0000000

  Atom       121         122         123         124         125         126         127         128         129         130
 IAtWgt=           1           1           1           1           1           1           1           1           1           1
 AtmWgt=   1.0078250   1.0078250   1.0078250   1.0078250   1.0078250   1.0078250   1.0078250   1.0078250   1.0078250   1.0078250
 NucSpn=           1           1           1           1           1           1           1           1           1           1
 AtZEff=  -0.0000000  -0.0000000  -0.0000000  -0.0000000  -0.0000000  -0.0000000  -0.0000000  -0.0000000  -0.0000000  -0.0000000
 NQMom=    0.0000000   0.0000000   0.0000000   0.0000000   0.0000000   0.0000000   0.0000000   0.0000000   0.0000000   0.0000000
 NMagM=    2.7928460   2.7928460   2.7928460   2.7928460   2.7928460   2.7928460   2.7928460   2.7928460   2.7928460   2.7928460
 AtZNuc=   1.0000000   1.0000000   1.0000000   1.0000000   1.0000000   1.0000000   1.0000000   1.0000000   1.0000000   1.0000000

  Atom       131         132         133         134         135         136         137         138         139         140
 IAtWgt=           1           1           1           1           1           1           1           1           1           1
 AtmWgt=   1.0078250   1.0078250   1.0078250   1.0078250   1.0078250   1.0078250   1.0078250   1.0078250   1.0078250   1.0078250
 NucSpn=           1           1           1           1           1           1           1           1           1           1
 AtZEff=  -0.0000000  -0.0000000  -0.0000000  -0.0000000  -0.0000000  -0.0000000  -0.0000000  -0.0000000  -0.0000000  -0.0000000
 NQMom=    0.0000000   0.0000000   0.0000000   0.0000000   0.0000000   0.0000000   0.0000000   0.0000000   0.0000000   0.0000000
 NMagM=    2.7928460   2.7928460   2.7928460   2.7928460   2.7928460   2.7928460   2.7928460   2.7928460   2.7928460   2.7928460
 AtZNuc=   1.0000000   1.0000000   1.0000000   1.0000000   1.0000000   1.0000000   1.0000000   1.0000000   1.0000000   1.0000000
 Leave Link  101 at Wed May  4 14:00:25 2022, MaxMem= 10066329600 cpu:               2.9 elap:               0.1
 (Enter /sw/apps/gaussian-16.0/g16/l202.exe)
 Stoichiometry    C55H74MgN4O6
 Framework group  C1[X(C55H74MgN4O6)]
 Deg. of freedom   414
 Full point group                 C1      NOp   1
 Largest Abelian subgroup         C1      NOp   1
 Largest concise Abelian subgroup C1      NOp   1
                         Standard orientation:                         
 ---------------------------------------------------------------------
 Center     Atomic      Atomic             Coordinates (Angstroms)
 Number     Number       Type             X           Y           Z
 ---------------------------------------------------------------------
      1         12           0        6.287457    0.519837    0.261121
      2          6           0        4.220208   -2.408480   -0.503309
      3          6           0        3.734574    2.480846   -1.117312
      4          6           0        8.427162    3.036307    0.246707
      5          6           0        8.891496   -1.780242    0.633261
      6          7           0        4.216762    0.065354   -0.580161
      7          6           0        3.535020   -1.196561   -0.790094
      8          6           0        2.190681   -0.996673   -1.494965
      9          6           0        2.094096    0.613031   -1.690141
     10          6           0        3.404022    1.126998   -1.094151
     11          6           0        1.837503    0.994502   -3.122743
     12          6           0        0.921222   -1.475328   -0.760100
     13          6           0       -0.465287   -1.020417   -1.327701
     14          6           0       -1.659368   -1.896214   -1.041396
     15          8           0       -1.604313   -3.122728   -0.890437
     16          8           0       -2.804226   -1.163854   -1.095371
     17          7           0        6.064225    2.534001   -0.240005
     18          6           0        4.943827    3.205088   -0.742500
     19          6           0        5.145991    4.694604   -0.709920
     20          6           0        6.546122    4.825828   -0.298267
     21          6           0        7.056913    3.446130   -0.082962
     22          6           0        4.145277    5.715835   -1.086500
     23          6           0        7.405275    6.049943   -0.213211
     24          8           0        8.571332    5.949188    0.101384
     25          6           0        6.775063    7.479690   -0.325762
     26          7           0        8.362402    0.607361    0.270841
     27          6           0        8.938614    1.786479    0.473780
     28          6           0       10.489803    1.521576    0.641507
     29          6           0       10.540703    0.065633    1.040164
     30          6           0        9.177731   -0.427305    0.598258
     31          6           0       11.473169    2.027800   -0.382890
     32          6           0       10.772901   -0.151125    2.552063
     33          6           0        9.592162   -0.373466    3.593792
     34          7           0        6.503569   -1.557924    0.326621
     35          6           0        7.656077   -2.350815    0.487775
     36          6           0        7.313913   -3.770922    0.408501
     37          6           0        5.980559   -3.763623    0.111313
     38          6           0        5.555815   -2.406940   -0.079102
     39          6           0        8.100641   -4.989727    0.524398
     40          6           0        4.920124   -4.672942   -0.101653
     41          8           0        4.924137   -5.882208   -0.024986
     42          6           0        3.647904   -3.878829   -0.509975
     43          6           0        2.504519   -4.162085    0.394871
     44          8           0        2.378118   -3.695145    1.519740
     45          8           0        1.652327   -5.028193   -0.170917
     46          6           0        0.549796   -5.393789    0.601136
     47          6           0       -4.068751   -1.829753   -0.684962
     48          6           0       -5.311825   -1.083908   -1.024854
     49          6           0       -6.579970   -1.399979   -0.838002
     50          6           0       -7.012945   -2.683603   -0.020431
     51          6           0       -7.684001   -0.640371   -1.621370
     52          6           0       -9.000288   -0.353792   -0.917573
     53          6           0       -8.771381    0.394406    0.419159
     54          6           0       -9.306333    1.894841    0.592467
     55          6           0       -8.134167    2.946049    0.458455
     56          6           0      -10.090897    1.959830    1.885441
     57          6           0      -11.611579    1.813310    1.661121
     58          6           0      -12.497712    0.978041    2.608737
     59          6           0      -13.944164    1.499380    2.782245
     60          6           0      -14.331950    1.368442    4.216481
     61          6           0      -14.980565    0.781087    1.968420
     62          6           0      -15.139910    1.225298    0.478576
     63          6           0      -14.889256   -0.025945   -0.441502
     64          6           0      -14.600668    0.416512   -1.911094
     65          6           0      -15.379050   -0.416699   -2.929099
     66          6           0      -13.070244    0.479338   -2.201525
     67          1           0        3.038601    3.182368   -1.582459
     68          1           0        9.181463    3.811669    0.100079
     69          1           0        9.782537   -2.395744    0.768884
     70          1           0        2.181980   -1.596244   -2.405837
     71          1           0        1.368917    1.160446   -1.087637
     72          1           0        2.707321    1.407668   -3.632782
     73          1           0        1.037331    1.729820   -3.035602
     74          1           0        1.441187    0.138323   -3.667659
     75          1           0        1.002795   -1.164184    0.281698
     76          1           0        0.947089   -2.564309   -0.714092
     77          1           0       -0.417960   -0.814318   -2.397670
     78          1           0       -0.545454   -0.109872   -0.735280
     79          1           0        3.142625    5.318672   -1.240128
     80          1           0        4.408260    6.236403   -2.007131
     81          1           0        4.145076    6.507168   -0.336603
     82          1           0        5.979139    7.613881    0.405917
     83          1           0        6.245487    7.587859   -1.272314
     84          1           0        7.564576    8.183556   -0.060400
     85          1           0       10.737115    2.088899    1.538700
     86          1           0       11.281393   -0.537590    0.516399
     87          1           0       12.104737    2.792312    0.069301
     88          1           0       10.847350    2.572080   -1.089704
     89          1           0       12.095298    1.217635   -0.762100
     90          1           0       11.356730    0.674822    2.958115
     91          1           0       11.344097   -1.077575    2.597045
     92          1           0        9.374611   -1.438267    3.673525
     93          1           0        8.684682    0.224438    3.516488
     94          1           0        9.939451    0.000844    4.557209
     95          1           0        9.097547   -4.665811    0.825416
     96          1           0        8.051796   -5.583331   -0.387862
     97          1           0        7.760460   -5.599706    1.361051
     98          1           0        3.278030   -4.025405   -1.524196
     99          1           0        0.179995   -6.332309    0.187532
    100          1           0       -0.270071   -4.689494    0.460945
    101          1           0        0.789961   -5.453425    1.663246
    102          1           0       -4.070924   -1.998479    0.392517
    103          1           0       -4.084257   -2.840971   -1.090109
    104          1           0       -5.140234   -0.246318   -1.700980
    105          1           0       -7.038506   -2.354199    1.017494
    106          1           0       -6.248233   -3.455324   -0.112416
    107          1           0       -7.933661   -3.081770   -0.446504
    108          1           0       -8.000429   -1.329321   -2.405590
    109          1           0       -7.253428    0.307906   -1.943657
    110          1           0       -9.498013   -1.304887   -0.730106
    111          1           0       -9.596942    0.240042   -1.609324
    112          1           0       -7.690495    0.443315    0.552962
    113          1           0       -9.161315   -0.326948    1.137448
    114          1           0       -9.940943    2.104958   -0.268550
    115          1           0       -8.416109    3.740092   -0.231805
    116          1           0       -7.270865    2.412832    0.060560
    117          1           0       -7.998537    3.446491    1.417738
    118          1           0      -10.106813    2.947493    2.346658
    119          1           0       -9.804333    1.220317    2.633926
    120          1           0      -11.777658    1.318892    0.704194
    121          1           0      -12.078717    2.796740    1.612390
    122          1           0      -12.008045    0.988872    3.581986
    123          1           0      -12.544664   -0.029356    2.195742
    124          1           0      -14.028109    2.559224    2.545757
    125          1           0      -13.593971    0.961005    4.907484
    126          1           0      -15.345651    0.977338    4.299655
    127          1           0      -14.430613    2.387877    4.590723
    128          1           0      -15.983650    0.822516    2.392890
    129          1           0      -14.779746   -0.280454    2.110675
    130          1           0      -14.328047    1.936970    0.327053
    131          1           0      -16.139132    1.594926    0.249738
    132          1           0      -15.769751   -0.668339   -0.425823
    133          1           0      -14.112111   -0.663117   -0.019243
    134          1           0      -14.993181    1.421454   -2.063079
    135          1           0      -14.721150   -1.121946   -3.437250
    136          1           0      -15.910792    0.193194   -3.658287
    137          1           0      -16.169819   -1.023682   -2.488782
    138          1           0      -12.873070    0.103331   -3.204981
    139          1           0      -12.348093   -0.046539   -1.575602
    140          1           0      -12.842763    1.544783   -2.178794
 ---------------------------------------------------------------------
 Rotational constants (GHZ):           0.0523182           0.0079981           0.0072929
 Leave Link  202 at Wed May  4 14:00:25 2022, MaxMem= 10066329600 cpu:               0.2 elap:               0.0
 (Enter /sw/apps/gaussian-16.0/g16/l301.exe)
 Standard basis: def2SVP (5D, 7F)
 Ernie: Thresh=  0.10000D-02 Tol=  0.10000D-05 Strict=F.
 There are  1364 symmetry adapted cartesian basis functions of A   symmetry.
 There are  1298 symmetry adapted basis functions of A   symmetry.
  1298 basis functions,  2180 primitive gaussians,  1364 cartesian basis functions
   246 alpha electrons      246 beta electrons
       nuclear repulsion energy      9344.2264533194 Hartrees.
 IExCor= 1009 DFT=T Ex+Corr=PBE1PBE ExCW=0 ScaHFX=  0.250000
 ScaDFX=  0.750000  0.750000  1.000000  1.000000 ScalE2=  1.000000  1.000000
 IRadAn=      5 IRanWt=     -1 IRanGd=            0 ICorTp=0 IEmpDi=  4
 NAtoms=  140 NActive=  140 NUniq=  140 SFac= 1.00D+00 NAtFMM=   60 NAOKFM=T Big=T
 Integral buffers will be    131072 words long.
 Regular integral format.
 Two-electron integral symmetry is turned on.
 Leave Link  301 at Wed May  4 14:00:26 2022, MaxMem= 10066329600 cpu:               1.3 elap:               0.1
 (Enter /sw/apps/gaussian-16.0/g16/l302.exe)
 NPDir=0 NMtPBC=     1 NCelOv=     1 NCel=       1 NClECP=     1 NCelD=      1
         NCelK=      1 NCelE2=     1 NClLst=     1 CellRange=     0.0.
 One-electron integrals computed using PRISM.
 One-electron integral symmetry used in STVInt
   1 Symmetry operations used in ECPInt.
 ECPInt:  NShTT=  192510 NPrTT=  683786 LenC2=   89569 LenP2D=  199609.
 LDataN:  DoStor=T MaxTD1= 4 Len=   56
 NBasis=  1298 RedAO= T EigKep=  2.66D-04  NBF=  1298
 NBsUse=  1298 1.00D-06 EigRej= -1.00D+00 NBFU=  1298
 Precomputing XC quadrature grid using
 IXCGrd= 4 IRadAn=           5 IRanWt=          -1 IRanGd=           0 AccXCQ= 0.00D+00.
 Generated NRdTot=       0 NPtTot=           0 NUsed=           0 NTot=          32
 NSgBfM=  1031  1031  1031  1031  1031 MxSgAt=   140 MxSgA2=   140.
 Leave Link  302 at Wed May  4 14:00:29 2022, MaxMem= 10066329600 cpu:              73.3 elap:               3.1
 (Enter /sw/apps/gaussian-16.0/g16/l303.exe)
 DipDrv:  MaxL=1.
 Leave Link  303 at Wed May  4 14:00:29 2022, MaxMem= 10066329600 cpu:               5.9 elap:               0.3
 (Enter /sw/apps/gaussian-16.0/g16/l308.exe)
 Leave Link  308 at Wed May  4 14:00:29 2022, MaxMem= 10066329600 cpu:              10.7 elap:               0.5
 (Enter /sw/apps/gaussian-16.0/g16/l401.exe)
 ExpMin= 3.36D-02 ExpMax= 4.95D+03 ExpMxC= 7.45D+02 IAcc=3 IRadAn=         5 AccDes= 0.00D+00
 Harris functional with IExCor= 1009 and IRadAn=       5 diagonalized for initial guess.
 HarFok:  IExCor= 1009 AccDes= 0.00D+00 IRadAn=         5 IDoV= 1 UseB2=F ITyADJ=14
 ICtDFT=  3500011 ScaDFX=  1.000000  1.000000  1.000000  1.000000
 FoFCou: FMM=F IPFlag=           0 FMFlag=      100000 FMFlg1=        2001
         NFxFlg=           0 DoJE=T BraDBF=F KetDBF=T FulRan=T
         wScrn=  0.000000 ICntrl=       500 IOpCl=  0 I1Cent=   200000004 NGrid=           0
         NMat0=    1 NMatS0=      1 NMatT0=    0 NMatD0=    1 NMtDS0=    0 NMtDT0=    0
 Petite list used in FoFCou.
 Harris En= -3006.15496120314    
 JPrj=0 DoOrth=F DoCkMO=F.
 Leave Link  401 at Wed May  4 14:00:35 2022, MaxMem= 10066329600 cpu:             124.7 elap:               5.2
 (Enter /sw/apps/gaussian-16.0/g16/l502.exe)
 Integral symmetry usage will be decided dynamically.
 Closed shell SCF:
 Using DIIS extrapolation, IDIIS=  1040.
 NGot= 10066329600 LenX= 10062561258 LenY= 10060699398
 Requested convergence on RMS density matrix=1.00D-08 within 128 cycles.
 Requested convergence on MAX density matrix=1.00D-06.
 Requested convergence on             energy=1.00D-06.
 No special actions if energy rises.
 Fock matrices will be formed incrementally for  20 cycles.

 Cycle   1  Pass 1  IDiag  1:
 FoFJK:  IHMeth= 1 ICntrl=       0 DoSepK=F KAlg= 0 I1Cent=           0 FoldK=F
 IRaf= 510000000 NMat=       1 IRICut=       1 DoRegI=T DoRafI=F ISym2E= 0 IDoP0=0 IntGTp=1.
 FoFCou: FMM=T IPFlag=           0 FMFlag=      100000 FMFlg1=        2001
         NFxFlg=           0 DoJE=F BraDBF=F KetDBF=F FulRan=T
         wScrn=  0.000000 ICntrl=         0 IOpCl=  0 I1Cent=           0 NGrid=           0
         NMat0=    1 NMatS0=      1 NMatT0=    0 NMatD0=    1 NMtDS0=    0 NMtDT0=    0
 Symmetry not used in FoFCou.
 FMM levels:  10  Number of levels for PrismC:   9
 E= -3003.79909922040    
 DIIS: error= 1.80D-02 at cycle   1 NSaved=   1.
 NSaved= 1 IEnMin= 1 EnMin= -3003.79909922040     IErMin= 1 ErrMin= 1.80D-02
 ErrMax= 1.80D-02  0.00D+00 EMaxC= 1.00D-01 BMatC= 1.47D+00 BMatP= 1.47D+00
 IDIUse=3 WtCom= 8.20D-01 WtEn= 1.80D-01
 Coeff-Com:  0.100D+01
 Coeff-En:   0.100D+01
 Coeff:      0.100D+01
 Gap=     0.079 Goal=   None    Shift=    0.000
 GapD=    0.079 DampG=0.500 DampE=0.500 DampFc=0.2500 IDamp=-1.
 Damping current iteration by 2.50D-01
 RMSDP=2.73D-03 MaxDP=4.64D-01              OVMax= 3.20D-01

 Cycle   2  Pass 1  IDiag  1:
 RMSU=  6.76D-04    CP:  9.89D-01
 E= -3004.35224660003     Delta-E=       -0.553147379636 Rises=F Damp=T
 DIIS: error= 8.60D-03 at cycle   2 NSaved=   2.
 NSaved= 2 IEnMin= 2 EnMin= -3004.35224660003     IErMin= 2 ErrMin= 8.60D-03
 ErrMax= 8.60D-03  0.00D+00 EMaxC= 1.00D-01 BMatC= 3.67D-01 BMatP= 1.47D+00
 IDIUse=3 WtCom= 9.14D-01 WtEn= 8.60D-02
 Coeff-Com: -0.773D+00 0.177D+01
 Coeff-En:   0.000D+00 0.100D+01
 Coeff:     -0.706D+00 0.171D+01
 Gap=     0.178 Goal=   None    Shift=    0.000
 RMSDP=1.03D-03 MaxDP=6.20D-02 DE=-5.53D-01 OVMax= 3.82D-01

 Cycle   3  Pass 1  IDiag  1:
 RMSU=  8.99D-04    CP:  9.64D-01  1.65D+00
 E= -3005.14877967616     Delta-E=       -0.796533076131 Rises=F Damp=F
 DIIS: error= 1.22D-02 at cycle   3 NSaved=   3.
 NSaved= 3 IEnMin= 3 EnMin= -3005.14877967616     IErMin= 2 ErrMin= 8.60D-03
 ErrMax= 1.22D-02  0.00D+00 EMaxC= 1.00D-01 BMatC= 1.92D-01 BMatP= 3.67D-01
 IDIUse=3 WtCom= 8.78D-01 WtEn= 1.22D-01
 Coeff-Com: -0.513D+00 0.109D+01 0.427D+00
 Coeff-En:   0.000D+00 0.000D+00 0.100D+01
 Coeff:     -0.450D+00 0.954D+00 0.497D+00
 Gap=     0.069 Goal=   None    Shift=    0.000
 RMSDP=7.12D-04 MaxDP=6.70D-02 DE=-7.97D-01 OVMax= 3.52D-01

 Cycle   4  Pass 1  IDiag  1:
 RMSU=  4.73D-04    CP:  9.68D-01  1.94D+00  4.53D-01
 E= -3005.26733733945     Delta-E=       -0.118557663287 Rises=F Damp=F
 DIIS: error= 5.87D-03 at cycle   4 NSaved=   4.
 NSaved= 4 IEnMin= 4 EnMin= -3005.26733733945     IErMin= 4 ErrMin= 5.87D-03
 ErrMax= 5.87D-03  0.00D+00 EMaxC= 1.00D-01 BMatC= 6.41D-02 BMatP= 1.92D-01
 IDIUse=3 WtCom= 9.41D-01 WtEn= 5.87D-02
 Coeff-Com: -0.163D+00 0.348D+00 0.354D+00 0.462D+00
 Coeff-En:   0.000D+00 0.000D+00 0.334D+00 0.666D+00
 Coeff:     -0.154D+00 0.327D+00 0.353D+00 0.474D+00
 Gap=     0.068 Goal=   None    Shift=    0.000
 RMSDP=4.14D-04 MaxDP=3.22D-02 DE=-1.19D-01 OVMax= 2.79D-01

 Cycle   5  Pass 1  IDiag  1:
 RMSU=  1.99D-04    CP:  9.68D-01  1.80D+00  6.85D-01  4.04D-01
 E= -3005.32849175768     Delta-E=       -0.061154418228 Rises=F Damp=F
 DIIS: error= 2.74D-03 at cycle   5 NSaved=   5.
 NSaved= 5 IEnMin= 5 EnMin= -3005.32849175768     IErMin= 5 ErrMin= 2.74D-03
 ErrMax= 2.74D-03  0.00D+00 EMaxC= 1.00D-01 BMatC= 1.43D-02 BMatP= 6.41D-02
 IDIUse=3 WtCom= 9.73D-01 WtEn= 2.74D-02
 Coeff-Com: -0.361D-01 0.796D-01 0.205D+00 0.377D+00 0.375D+00
 Coeff-En:   0.000D+00 0.000D+00 0.000D+00 0.238D+00 0.762D+00
 Coeff:     -0.351D-01 0.774D-01 0.199D+00 0.373D+00 0.386D+00
 Gap=     0.071 Goal=   None    Shift=    0.000
 RMSDP=1.84D-04 MaxDP=1.45D-02 DE=-6.12D-02 OVMax= 1.40D-01

 Cycle   6  Pass 1  IDiag  1:
 RMSU=  7.30D-05    CP:  9.67D-01  1.81D+00  6.41D-01  6.00D-01  3.22D-01
 E= -3005.34710032338     Delta-E=       -0.018608565706 Rises=F Damp=F
 DIIS: error= 7.64D-04 at cycle   6 NSaved=   6.
 NSaved= 6 IEnMin= 6 EnMin= -3005.34710032338     IErMin= 6 ErrMin= 7.64D-04
 ErrMax= 7.64D-04  0.00D+00 EMaxC= 1.00D-01 BMatC= 1.01D-03 BMatP= 1.43D-02
 IDIUse=3 WtCom= 9.92D-01 WtEn= 7.64D-03
 Coeff-Com:  0.476D-03 0.416D-03 0.644D-01 0.144D+00 0.244D+00 0.548D+00
 Coeff-En:   0.000D+00 0.000D+00 0.000D+00 0.000D+00 0.738D-01 0.926D+00
 Coeff:      0.473D-03 0.412D-03 0.639D-01 0.143D+00 0.242D+00 0.550D+00
 Gap=     0.072 Goal=   None    Shift=    0.000
 RMSDP=5.72D-05 MaxDP=4.84D-03 DE=-1.86D-02 OVMax= 4.20D-02

 Cycle   7  Pass 1  IDiag  1:
 RMSU=  3.74D-05    CP:  9.67D-01  1.81D+00  6.50D-01  5.78D-01  4.62D-01
                    CP:  5.82D-01
 E= -3005.34797022833     Delta-E=       -0.000869904941 Rises=F Damp=F
 DIIS: error= 5.15D-04 at cycle   7 NSaved=   7.
 NSaved= 7 IEnMin= 7 EnMin= -3005.34797022833     IErMin= 7 ErrMin= 5.15D-04
 ErrMax= 5.15D-04  0.00D+00 EMaxC= 1.00D-01 BMatC= 3.41D-04 BMatP= 1.01D-03
 IDIUse=3 WtCom= 9.95D-01 WtEn= 5.15D-03
 Coeff-Com:  0.442D-02-0.890D-02 0.149D-01 0.420D-01 0.118D+00 0.414D+00
 Coeff-Com:  0.416D+00
 Coeff-En:   0.000D+00 0.000D+00 0.000D+00 0.000D+00 0.000D+00 0.292D+00
 Coeff-En:   0.708D+00
 Coeff:      0.440D-02-0.886D-02 0.148D-01 0.418D-01 0.117D+00 0.413D+00
 Coeff:      0.418D+00
 Gap=     0.073 Goal=   None    Shift=    0.000
 RMSDP=3.01D-05 MaxDP=2.47D-03 DE=-8.70D-04 OVMax= 1.94D-02

 Cycle   8  Pass 1  IDiag  1:
 RMSU=  1.31D-05    CP:  9.67D-01  1.81D+00  6.52D-01  5.79D-01  4.34D-01
                    CP:  7.51D-01  3.72D-01
 E= -3005.34839560789     Delta-E=       -0.000425379565 Rises=F Damp=F
 DIIS: error= 1.43D-04 at cycle   8 NSaved=   8.
 NSaved= 8 IEnMin= 8 EnMin= -3005.34839560789     IErMin= 8 ErrMin= 1.43D-04
 ErrMax= 1.43D-04  0.00D+00 EMaxC= 1.00D-01 BMatC= 4.20D-05 BMatP= 3.41D-04
 IDIUse=3 WtCom= 9.99D-01 WtEn= 1.43D-03
 Coeff-Com:  0.220D-02-0.468D-02-0.181D-04 0.379D-02 0.396D-01 0.190D+00
 Coeff-Com:  0.297D+00 0.473D+00
 Coeff-En:   0.000D+00 0.000D+00 0.000D+00 0.000D+00 0.000D+00 0.000D+00
 Coeff-En:   0.129D+00 0.871D+00
 Coeff:      0.220D-02-0.468D-02-0.181D-04 0.378D-02 0.396D-01 0.190D+00
 Coeff:      0.296D+00 0.473D+00
 Gap=     0.073 Goal=   None    Shift=    0.000
 RMSDP=8.47D-06 MaxDP=7.66D-04 DE=-4.25D-04 OVMax= 4.48D-03

 Cycle   9  Pass 1  IDiag  1:
 RMSU=  3.93D-06    CP:  9.67D-01  1.81D+00  6.51D-01  5.81D-01  4.42D-01
                    CP:  7.32D-01  4.99D-01  5.94D-01
 E= -3005.34844764850     Delta-E=       -0.000052040610 Rises=F Damp=F
 DIIS: error= 5.29D-05 at cycle   9 NSaved=   9.
 NSaved= 9 IEnMin= 9 EnMin= -3005.34844764850     IErMin= 9 ErrMin= 5.29D-05
 ErrMax= 5.29D-05  0.00D+00 EMaxC= 1.00D-01 BMatC= 2.47D-06 BMatP= 4.20D-05
 IDIUse=1 WtCom= 1.00D+00 WtEn= 0.00D+00
 Coeff-Com:  0.591D-03-0.127D-02-0.149D-02-0.305D-02 0.999D-02 0.600D-01
 Coeff-Com:  0.127D+00 0.260D+00 0.548D+00
 Coeff:      0.591D-03-0.127D-02-0.149D-02-0.305D-02 0.999D-02 0.600D-01
 Coeff:      0.127D+00 0.260D+00 0.548D+00
 Gap=     0.073 Goal=   None    Shift=    0.000
 RMSDP=2.03D-06 MaxDP=3.14D-04 DE=-5.20D-05 OVMax= 5.94D-04

 Cycle  10  Pass 1  IDiag  1:
 RMSU=  1.60D-06    CP:  9.67D-01  1.81D+00  6.51D-01  5.80D-01  4.42D-01
                    CP:  7.42D-01  5.02D-01  6.30D-01  8.57D-01
 E= -3005.34844984371     Delta-E=       -0.000002195209 Rises=F Damp=F
 DIIS: error= 1.96D-05 at cycle  10 NSaved=  10.
 NSaved=10 IEnMin=10 EnMin= -3005.34844984371     IErMin=10 ErrMin= 1.96D-05
 ErrMax= 1.96D-05  0.00D+00 EMaxC= 1.00D-01 BMatC= 4.08D-07 BMatP= 2.47D-06
 IDIUse=1 WtCom= 1.00D+00 WtEn= 0.00D+00
 Coeff-Com:  0.108D-04-0.111D-04-0.743D-03-0.251D-02 0.507D-03 0.591D-02
 Coeff-Com:  0.333D-01 0.817D-01 0.314D+00 0.568D+00
 Coeff:      0.108D-04-0.111D-04-0.743D-03-0.251D-02 0.507D-03 0.591D-02
 Coeff:      0.333D-01 0.817D-01 0.314D+00 0.568D+00
 Gap=     0.073 Goal=   None    Shift=    0.000
 RMSDP=7.72D-07 MaxDP=9.25D-05 DE=-2.20D-06 OVMax= 2.33D-04

 Cycle  11  Pass 1  IDiag  1:
 RMSU=  5.87D-07    CP:  9.67D-01  1.81D+00  6.51D-01  5.80D-01  4.42D-01
                    CP:  7.42D-01  5.05D-01  6.45D-01  9.40D-01  8.17D-01
 E= -3005.34845023105     Delta-E=       -0.000000387343 Rises=F Damp=F
 DIIS: error= 7.16D-06 at cycle  11 NSaved=  11.
 NSaved=11 IEnMin=11 EnMin= -3005.34845023105     IErMin=11 ErrMin= 7.16D-06
 ErrMax= 7.16D-06  0.00D+00 EMaxC= 1.00D-01 BMatC= 8.48D-08 BMatP= 4.08D-07
 IDIUse=1 WtCom= 1.00D+00 WtEn= 0.00D+00
 Coeff-Com: -0.480D-04 0.126D-03-0.235D-03-0.122D-02-0.969D-03-0.653D-02
 Coeff-Com:  0.194D-02 0.835D-02 0.103D+00 0.336D+00 0.560D+00
 Coeff:     -0.480D-04 0.126D-03-0.235D-03-0.122D-02-0.969D-03-0.653D-02
 Coeff:      0.194D-02 0.835D-02 0.103D+00 0.336D+00 0.560D+00
 Gap=     0.073 Goal=   None    Shift=    0.000
 RMSDP=3.53D-07 MaxDP=4.34D-05 DE=-3.87D-07 OVMax= 1.38D-04

 Cycle  12  Pass 1  IDiag  1:
 RMSU=  2.34D-07    CP:  9.67D-01  1.81D+00  6.51D-01  5.80D-01  4.42D-01
                    CP:  7.43D-01  5.07D-01  6.53D-01  9.70D-01  9.07D-01
                    CP:  9.45D-01
 E= -3005.34845032098     Delta-E=       -0.000000089924 Rises=F Damp=F
 DIIS: error= 2.79D-06 at cycle  12 NSaved=  12.
 NSaved=12 IEnMin=12 EnMin= -3005.34845032098     IErMin=12 ErrMin= 2.79D-06
 ErrMax= 2.79D-06  0.00D+00 EMaxC= 1.00D-01 BMatC= 1.61D-08 BMatP= 8.48D-08
 IDIUse=1 WtCom= 1.00D+00 WtEn= 0.00D+00
 Coeff-Com: -0.104D-04 0.422D-04 0.522D-04-0.170D-03-0.378D-03-0.531D-02
 Coeff-Com: -0.530D-02-0.141D-01-0.145D-01 0.524D-01 0.287D+00 0.700D+00
 Coeff:     -0.104D-04 0.422D-04 0.522D-04-0.170D-03-0.378D-03-0.531D-02
 Coeff:     -0.530D-02-0.141D-01-0.145D-01 0.524D-01 0.287D+00 0.700D+00
 Gap=     0.073 Goal=   None    Shift=    0.000
 RMSDP=1.99D-07 MaxDP=1.54D-05 DE=-8.99D-08 OVMax= 1.09D-04

 Cycle  13  Pass 1  IDiag  1:
 RMSU=  1.18D-07    CP:  9.67D-01  1.81D+00  6.51D-01  5.80D-01  4.42D-01
                    CP:  7.43D-01  5.08D-01  6.56D-01  9.92D-01  9.56D-01
                    CP:  1.06D+00  9.48D-01
 E= -3005.34845034314     Delta-E=       -0.000000022168 Rises=F Damp=F
 DIIS: error= 1.12D-06 at cycle  13 NSaved=  13.
 NSaved=13 IEnMin=13 EnMin= -3005.34845034314     IErMin=13 ErrMin= 1.12D-06
 ErrMax= 1.12D-06  0.00D+00 EMaxC= 1.00D-01 BMatC= 3.15D-09 BMatP= 1.61D-08
 IDIUse=1 WtCom= 1.00D+00 WtEn= 0.00D+00
 Coeff-Com:  0.492D-05-0.572D-06 0.732D-04 0.791D-04-0.143D-04-0.239D-02
 Coeff-Com: -0.345D-02-0.106D-01-0.269D-01-0.265D-01 0.772D-01 0.415D+00
 Coeff-Com:  0.577D+00
 Coeff:      0.492D-05-0.572D-06 0.732D-04 0.791D-04-0.143D-04-0.239D-02
 Coeff:     -0.345D-02-0.106D-01-0.269D-01-0.265D-01 0.772D-01 0.415D+00
 Coeff:      0.577D+00
 Gap=     0.073 Goal=   None    Shift=    0.000
 RMSDP=8.15D-08 MaxDP=5.11D-06 DE=-2.22D-08 OVMax= 3.43D-05

 Cycle  14  Pass 1  IDiag  1:
 RMSU=  5.00D-08    CP:  9.67D-01  1.81D+00  6.51D-01  5.80D-01  4.42D-01
                    CP:  7.43D-01  5.08D-01  6.57D-01  1.00D+00  9.70D-01
                    CP:  1.11D+00  1.08D+00  8.45D-01
 E= -3005.34845034678     Delta-E=       -0.000000003638 Rises=F Damp=F
 DIIS: error= 4.27D-07 at cycle  14 NSaved=  14.
 NSaved=14 IEnMin=14 EnMin= -3005.34845034678     IErMin=14 ErrMin= 4.27D-07
 ErrMax= 4.27D-07  0.00D+00 EMaxC= 1.00D-01 BMatC= 4.80D-10 BMatP= 3.15D-09
 IDIUse=1 WtCom= 1.00D+00 WtEn= 0.00D+00
 Coeff-Com:  0.538D-05-0.836D-05 0.355D-04 0.609D-04 0.959D-04-0.572D-03
 Coeff-Com: -0.913D-03-0.383D-02-0.120D-01-0.221D-01 0.168D-02 0.123D+00
 Coeff-Com:  0.320D+00 0.595D+00
 Coeff:      0.538D-05-0.836D-05 0.355D-04 0.609D-04 0.959D-04-0.572D-03
 Coeff:     -0.913D-03-0.383D-02-0.120D-01-0.221D-01 0.168D-02 0.123D+00
 Coeff:      0.320D+00 0.595D+00
 Gap=     0.073 Goal=   None    Shift=    0.000
 RMSDP=3.23D-08 MaxDP=3.07D-06 DE=-3.64D-09 OVMax= 1.74D-05

 Cycle  15  Pass 1  IDiag  1:
 RMSU=  1.88D-08    CP:  9.67D-01  1.81D+00  6.51D-01  5.80D-01  4.42D-01
                    CP:  7.43D-01  5.08D-01  6.57D-01  1.00D+00  9.74D-01
                    CP:  1.13D+00  1.12D+00  9.80D-01  8.96D-01
 E= -3005.34845034760     Delta-E=       -0.000000000820 Rises=F Damp=F
 DIIS: error= 1.79D-07 at cycle  15 NSaved=  15.
 NSaved=15 IEnMin=15 EnMin= -3005.34845034760     IErMin=15 ErrMin= 1.79D-07
 ErrMax= 1.79D-07  0.00D+00 EMaxC= 1.00D-01 BMatC= 9.54D-11 BMatP= 4.80D-10
 IDIUse=1 WtCom= 1.00D+00 WtEn= 0.00D+00
 Coeff-Com:  0.188D-05-0.408D-05 0.758D-05 0.165D-04 0.780D-04 0.123D-03
 Coeff-Com:  0.224D-03-0.198D-03-0.157D-02-0.836D-02-0.142D-01-0.120D-01
 Coeff-Com:  0.799D-01 0.365D+00 0.591D+00
 Coeff:      0.188D-05-0.408D-05 0.758D-05 0.165D-04 0.780D-04 0.123D-03
 Coeff:      0.224D-03-0.198D-03-0.157D-02-0.836D-02-0.142D-01-0.120D-01
 Coeff:      0.799D-01 0.365D+00 0.591D+00
 Gap=     0.073 Goal=   None    Shift=    0.000
 RMSDP=1.41D-08 MaxDP=1.26D-06 DE=-8.20D-10 OVMax= 6.78D-06

 Cycle  16  Pass 1  IDiag  1:
 RMSU=  8.43D-09    CP:  9.67D-01  1.81D+00  6.51D-01  5.80D-01  4.42D-01
                    CP:  7.43D-01  5.08D-01  6.57D-01  1.00D+00  9.76D-01
                    CP:  1.14D+00  1.14D+00  1.01D+00  1.03D+00  7.96D-01
 E= -3005.34845034765     Delta-E=       -0.000000000045 Rises=F Damp=F
 DIIS: error= 7.14D-08 at cycle  16 NSaved=  16.
 NSaved=16 IEnMin=16 EnMin= -3005.34845034765     IErMin=16 ErrMin= 7.14D-08
 ErrMax= 7.14D-08  0.00D+00 EMaxC= 1.00D-01 BMatC= 1.61D-11 BMatP= 9.54D-11
 IDIUse=1 WtCom= 1.00D+00 WtEn= 0.00D+00
 Coeff-Com:  0.118D-06-0.987D-06-0.205D-05-0.207D-05 0.371D-04 0.197D-03
 Coeff-Com:  0.357D-03 0.639D-03 0.156D-02-0.889D-03-0.921D-02-0.335D-01
 Coeff-Com: -0.157D-01 0.101D+00 0.357D+00 0.598D+00
 Coeff:      0.118D-06-0.987D-06-0.205D-05-0.207D-05 0.371D-04 0.197D-03
 Coeff:      0.357D-03 0.639D-03 0.156D-02-0.889D-03-0.921D-02-0.335D-01
 Coeff:     -0.157D-01 0.101D+00 0.357D+00 0.598D+00
 Gap=     0.073 Goal=   None    Shift=    0.000
 RMSDP=6.35D-09 MaxDP=4.77D-07 DE=-4.55D-11 OVMax= 2.87D-06

 SCF Done:  E(RPBE1PBE) =  -3005.34845035     A.U. after   16 cycles
            NFock= 16  Conv=0.63D-08     -V/T= 2.0102
 KE= 2.975125391699D+03 PE=-2.567975923306D+04 EE= 1.035505893770D+04
 Leave Link  502 at Wed May  4 14:04:55 2022, MaxMem= 10066329600 cpu:            6197.8 elap:             260.0
 (Enter /sw/apps/gaussian-16.0/g16/l801.exe)
 DoSCS=F DFT=T ScalE2(SS,OS)=  1.000000  1.000000
 ExpMin= 3.36D-02 ExpMax= 4.95D+03 ExpMxC= 7.45D+02 IAcc=3 IRadAn=         5 AccDes= 0.00D+00
 HarFok:  IExCor=  205 AccDes= 0.00D+00 IRadAn=         5 IDoV=-2 UseB2=F ITyADJ=14
 ICtDFT= 12500011 ScaDFX=  1.000000  1.000000  1.000000  1.000000
 GSVD:  LWork=       -5460 too small for GESVD, short by       25550 words or       25550 for optimal perf.
 Largest valence mixing into a core orbital is  1.37D-04
 Largest core mixing into a valence orbital is  5.76D-05
 Range of M.O.s used for correlation:    71  1298
 NBasis=  1298 NAE=   246 NBE=   246 NFC=    70 NFV=     0
 NROrb=   1228 NOA=   176 NOB=   176 NVA=  1052 NVB=  1052

 **** Warning!!: The smallest alpha delta epsilon is  0.73464294D-01

 Leave Link  801 at Wed May  4 14:04:55 2022, MaxMem= 10066329600 cpu:               6.5 elap:               0.3
 (Enter /sw/apps/gaussian-16.0/g16/l914.exe)
 RHF ground state
 Two-electron integrals replicated using symmetry.
 MDV= 10066329600 DFT=T DoStab=F Mixed=T DoRPA=T DoScal=F NonHer=T
 Making orbital integer symmetry assigments:
 Orbital symmetries:
       Occupied  (A) (A) (A) (A) (A) (A) (A) (A) (A) (A) (A) (A)
                 (A) (A) (A) (A) (A) (A) (A) (A) (A) (A) (A) (A)
                 (A) (A) (A) (A) (A) (A) (A) (A) (A) (A) (A) (A)
                 (A) (A) (A) (A) (A) (A) (A) (A) (A) (A) (A) (A)
                 (A) (A) (A) (A) (A) (A) (A) (A) (A) (A) (A) (A)
                 (A) (A) (A) (A) (A) (A) (A) (A) (A) (A) (A) (A)
                 (A) (A) (A) (A) (A) (A) (A) (A) (A) (A) (A) (A)
                 (A) (A) (A) (A) (A) (A) (A) (A) (A) (A) (A) (A)
                 (A) (A) (A) (A) (A) (A) (A) (A) (A) (A) (A) (A)
                 (A) (A) (A) (A) (A) (A) (A) (A) (A) (A) (A) (A)
                 (A) (A) (A) (A) (A) (A) (A) (A) (A) (A) (A) (A)
                 (A) (A) (A) (A) (A) (A) (A) (A) (A) (A) (A) (A)
                 (A) (A) (A) (A) (A) (A) (A) (A) (A) (A) (A) (A)
                 (A) (A) (A) (A) (A) (A) (A) (A) (A) (A) (A) (A)
                 (A) (A) (A) (A) (A) (A) (A) (A) (A) (A) (A) (A)
                 (A) (A) (A) (A) (A) (A) (A) (A) (A) (A) (A) (A)
                 (A) (A) (A) (A) (A) (A) (A) (A) (A) (A) (A) (A)
                 (A) (A) (A) (A) (A) (A) (A) (A) (A) (A) (A) (A)
                 (A) (A) (A) (A) (A) (A) (A) (A) (A) (A) (A) (A)
                 (A) (A) (A) (A) (A) (A) (A) (A) (A) (A) (A) (A)
                 (A) (A) (A) (A) (A) (A)
       Virtual   (A) (A) (A) (A) (A) (A) (A) (A) (A) (A) (A) (A)
                 (A) (A) (A) (A) (A) (A) (A) (A) (A) (A) (A) (A)
                 (A) (A) (A) (A) (A) (A) (A) (A) (A) (A) (A) (A)
                 (A) (A) (A) (A) (A) (A) (A) (A) (A) (A) (A) (A)
                 (A) (A) (A) (A) (A) (A) (A) (A) (A) (A) (A) (A)
                 (A) (A) (A) (A) (A) (A) (A) (A) (A) (A) (A) (A)
                 (A) (A) (A) (A) (A) (A) (A) (A) (A) (A) (A) (A)
                 (A) (A) (A) (A) (A) (A) (A) (A) (A) (A) (A) (A)
                 (A) (A) (A) (A) (A) (A) (A) (A) (A) (A) (A) (A)
                 (A) (A) (A) (A) (A) (A) (A) (A) (A) (A) (A) (A)
                 (A) (A) (A) (A) (A) (A) (A) (A) (A) (A) (A) (A)
                 (A) (A) (A) (A) (A) (A) (A) (A) (A) (A) (A) (A)
                 (A) (A) (A) (A) (A) (A) (A) (A) (A) (A) (A) (A)
                 (A) (A) (A) (A) (A) (A) (A) (A) (A) (A) (A) (A)
                 (A) (A) (A) (A) (A) (A) (A) (A) (A) (A) (A) (A)
                 (A) (A) (A) (A) (A) (A) (A) (A) (A) (A) (A) (A)
                 (A) (A) (A) (A) (A) (A) (A) (A) (A) (A) (A) (A)
                 (A) (A) (A) (A) (A) (A) (A) (A) (A) (A) (A) (A)
                 (A) (A) (A) (A) (A) (A) (A) (A) (A) (A) (A) (A)
                 (A) (A) (A) (A) (A) (A) (A) (A) (A) (A) (A) (A)
                 (A) (A) (A) (A) (A) (A) (A) (A) (A) (A) (A) (A)
                 (A) (A) (A) (A) (A) (A) (A) (A) (A) (A) (A) (A)
                 (A) (A) (A) (A) (A) (A) (A) (A) (A) (A) (A) (A)
                 (A) (A) (A) (A) (A) (A) (A) (A) (A) (A) (A) (A)
                 (A) (A) (A) (A) (A) (A) (A) (A) (A) (A) (A) (A)
                 (A) (A) (A) (A) (A) (A) (A) (A) (A) (A) (A) (A)
                 (A) (A) (A) (A) (A) (A) (A) (A) (A) (A) (A) (A)
                 (A) (A) (A) (A) (A) (A) (A) (A) (A) (A) (A) (A)
                 (A) (A) (A) (A) (A) (A) (A) (A) (A) (A) (A) (A)
                 (A) (A) (A) (A) (A) (A) (A) (A) (A) (A) (A) (A)
                 (A) (A) (A) (A) (A) (A) (A) (A) (A) (A) (A) (A)
                 (A) (A) (A) (A) (A) (A) (A) (A) (A) (A) (A) (A)
                 (A) (A) (A) (A) (A) (A) (A) (A) (A) (A) (A) (A)
                 (A) (A) (A) (A) (A) (A) (A) (A) (A) (A) (A) (A)
                 (A) (A) (A) (A) (A) (A) (A) (A) (A) (A) (A) (A)
                 (A) (A) (A) (A) (A) (A) (A) (A) (A) (A) (A) (A)
                 (A) (A) (A) (A) (A) (A) (A) (A) (A) (A) (A) (A)
                 (A) (A) (A) (A) (A) (A) (A) (A) (A) (A) (A) (A)
                 (A) (A) (A) (A) (A) (A) (A) (A) (A) (A) (A) (A)
                 (A) (A) (A) (A) (A) (A) (A) (A) (A) (A) (A) (A)
                 (A) (A) (A) (A) (A) (A) (A) (A) (A) (A) (A) (A)
                 (A) (A) (A) (A) (A) (A) (A) (A) (A) (A) (A) (A)
                 (A) (A) (A) (A) (A) (A) (A) (A) (A) (A) (A) (A)
                 (A) (A) (A) (A) (A) (A) (A) (A) (A) (A) (A) (A)
                 (A) (A) (A) (A) (A) (A) (A) (A) (A) (A) (A) (A)
                 (A) (A) (A) (A) (A) (A) (A) (A) (A) (A) (A) (A)
                 (A) (A) (A) (A) (A) (A) (A) (A) (A) (A) (A) (A)
                 (A) (A) (A) (A) (A) (A) (A) (A) (A) (A) (A) (A)
                 (A) (A) (A) (A) (A) (A) (A) (A) (A) (A) (A) (A)
                 (A) (A) (A) (A) (A) (A) (A) (A) (A) (A) (A) (A)
                 (A) (A) (A) (A) (A) (A) (A) (A) (A) (A) (A) (A)
                 (A) (A) (A) (A) (A) (A) (A) (A) (A) (A) (A) (A)
                 (A) (A) (A) (A) (A) (A) (A) (A) (A) (A) (A) (A)
                 (A) (A) (A) (A) (A) (A) (A) (A) (A) (A) (A) (A)
                 (A) (A) (A) (A) (A) (A) (A) (A) (A) (A) (A) (A)
                 (A) (A) (A) (A) (A) (A) (A) (A) (A) (A) (A) (A)
                 (A) (A) (A) (A) (A) (A) (A) (A) (A) (A) (A) (A)
                 (A) (A) (A) (A) (A) (A) (A) (A) (A) (A) (A) (A)
                 (A) (A) (A) (A) (A) (A) (A) (A) (A) (A) (A) (A)
                 (A) (A) (A) (A) (A) (A) (A) (A) (A) (A) (A) (A)
                 (A) (A) (A) (A) (A) (A) (A) (A) (A) (A) (A) (A)
                 (A) (A) (A) (A) (A) (A) (A) (A) (A) (A) (A) (A)
                 (A) (A) (A) (A) (A) (A) (A) (A) (A) (A) (A) (A)
                 (A) (A) (A) (A) (A) (A) (A) (A) (A) (A) (A) (A)
                 (A) (A) (A) (A) (A) (A) (A) (A) (A) (A) (A) (A)
                 (A) (A) (A) (A) (A) (A) (A) (A) (A) (A) (A) (A)
                 (A) (A) (A) (A) (A) (A) (A) (A) (A) (A) (A) (A)
                 (A) (A) (A) (A) (A) (A) (A) (A) (A) (A) (A) (A)
                 (A) (A) (A) (A) (A) (A) (A) (A) (A) (A) (A) (A)
                 (A) (A) (A) (A) (A) (A) (A) (A) (A) (A) (A) (A)
                 (A) (A) (A) (A) (A) (A) (A) (A) (A) (A) (A) (A)
                 (A) (A) (A) (A) (A) (A) (A) (A) (A) (A) (A) (A)
                 (A) (A) (A) (A) (A) (A) (A) (A) (A) (A) (A) (A)
                 (A) (A) (A) (A) (A) (A) (A) (A) (A) (A) (A) (A)
                 (A) (A) (A) (A) (A) (A) (A) (A) (A) (A) (A) (A)
                 (A) (A) (A) (A) (A) (A) (A) (A) (A) (A) (A) (A)
                 (A) (A) (A) (A) (A) (A) (A) (A) (A) (A) (A) (A)
                 (A) (A) (A) (A) (A) (A) (A) (A) (A) (A) (A) (A)
                 (A) (A) (A) (A) (A) (A) (A) (A) (A) (A) (A) (A)
                 (A) (A) (A) (A) (A) (A) (A) (A) (A) (A) (A) (A)
                 (A) (A) (A) (A) (A) (A) (A) (A) (A) (A) (A) (A)
                 (A) (A) (A) (A) (A) (A) (A) (A) (A) (A) (A) (A)
                 (A) (A) (A) (A) (A) (A) (A) (A) (A) (A) (A) (A)
                 (A) (A) (A) (A) (A) (A) (A) (A) (A) (A) (A) (A)
                 (A) (A) (A) (A) (A) (A) (A) (A) (A) (A) (A) (A)
                 (A) (A) (A) (A) (A) (A) (A) (A) (A) (A) (A) (A)
                 (A) (A) (A) (A) (A) (A) (A) (A) (A) (A) (A) (A)
                 (A) (A) (A) (A) (A) (A) (A) (A)
    20 initial guesses have been made.
 Convergence on wavefunction:    0.001000000000000
 Davidson Disk Diagonalization:  ConvIn= 1.00D-03 SkipCon=T Conv= 1.00D-03.
 Max sub-space:  2000 roots to seek:    20 dimension of matrix:       370304
 Iteration     1 Dimension    20 NMult     0 NNew     20
 CISAX will form    20 AO SS matrices at one time.
 NMat=    20 NSing=    20 JSym2X= 0.
 FoFJK:  IHMeth= 1 ICntrl=       0 DoSepK=F KAlg= 0 I1Cent=           0 FoldK=F
 IRaf= 510000000 NMat=      40 IRICut=       1 DoRegI=T DoRafI=F ISym2E= 0 IDoP0=3 IntGTp=3.
 FoFCou: FMM=T IPFlag=           0 FMFlag=      100000 FMFlg1=        2001
         NFxFlg=           0 DoJE=F BraDBF=F KetDBF=F FulRan=T
         wScrn=  0.000000 ICntrl=         0 IOpCl=  0 I1Cent=           0 NGrid=           0
         NMat0=   40 NMatS0=     20 NMatT0=    0 NMatD0=   40 NMtDS0=    0 NMtDT0=    0
 Symmetry not used in FoFCou.
 FMM levels:  10  Number of levels for PrismC:   9
 New state      3 was old state      5
 New state      4 was old state      6
 New state      5 was old state      4
 Excitation Energies [eV] at current iteration:
 Root      1 :     2.186857111207091
 Root      2 :     2.517435820031754
 Root      3 :     3.106276659557318
 Root      4 :     3.179364754894763
 Root      5 :     3.372136086204058
 Root      6 :     3.532861850491004
 Root      7 :     3.716770719436307
 Root      8 :     3.758923969883204
 Root      9 :     3.865075899583521
 Root     10 :     3.941222917824049
 Root     11 :     4.023617854555882
 Root     12 :     4.049871178454296
 Root     13 :     4.147372224531431
 Root     14 :     4.216775373495617
 Root     15 :     4.389639667660155
 Root     16 :     4.459085733936076
 Root     17 :     4.624771941252879
 Root     18 :     4.650389003310760
 Root     19 :     4.657323809146983
 Root     20 :     4.813550239488243
 Iteration     2 Dimension    30 NMult    20 NNew     10
 CISAX will form    10 AO SS matrices at one time.
 NMat=    10 NSing=    10 JSym2X= 0.
 Root      1 not converged, maximum delta is    0.056143578082999
 Root      2 not converged, maximum delta is    0.054522231418420
 Root      3 not converged, maximum delta is    0.119141804362431
 Root      4 not converged, maximum delta is    0.268744253287496
 Root      5 not converged, maximum delta is    0.233979960633077
 Excitation Energies [eV] at current iteration:
 Root      1 :     1.836940115632544   Change is   -0.349916995574547
 Root      2 :     2.246839836110876   Change is   -0.270595983920878
 Root      3 :     2.966023661021826   Change is   -0.140252998535491
 Root      4 :     3.055865122148529   Change is   -0.123499632746234
 Root      5 :     3.135661503437779   Change is   -0.236474582766279
 Iteration     3 Dimension    40 NMult    30 NNew     10
 CISAX will form    10 AO SS matrices at one time.
 NMat=    10 NSing=    10 JSym2X= 0.
 Root      1 not converged, maximum delta is    0.024587871436729
 Root      2 not converged, maximum delta is    0.026412303469755
 Root      3 not converged, maximum delta is    0.016889441416451
 Root      4 not converged, maximum delta is    0.017733454925801
 Root      5 not converged, maximum delta is    0.024520931900289
 Excitation Energies [eV] at current iteration:
 Root      1 :     1.806003582842369   Change is   -0.030936532790175
 Root      2 :     2.226721107675034   Change is   -0.020118728435842
 Root      3 :     2.954355552453090   Change is   -0.011668108568736
 Root      4 :     3.044248641295304   Change is   -0.011616480853225
 Root      5 :     3.120906549279687   Change is   -0.014754954158092
 Iteration     4 Dimension    50 NMult    40 NNew     10
 CISAX will form    10 AO SS matrices at one time.
 NMat=    10 NSing=    10 JSym2X= 0.
 Root      1 not converged, maximum delta is    0.002672110533122
 Root      2 not converged, maximum delta is    0.008735841863488
 Root      3 not converged, maximum delta is    0.009375058040404
 Root      4 not converged, maximum delta is    0.005537070326586
 Root      5 not converged, maximum delta is    0.004976782042337
 Excitation Energies [eV] at current iteration:
 Root      1 :     1.802795282741497   Change is   -0.003208300100872
 Root      2 :     2.223640041505471   Change is   -0.003081066169563
 Root      3 :     2.952822530617688   Change is   -0.001533021835402
 Root      4 :     3.042643183196803   Change is   -0.001605458098501
 Root      5 :     3.118922569850460   Change is   -0.001983979429227
 Iteration     5 Dimension    60 NMult    50 NNew     10
 CISAX will form    10 AO SS matrices at one time.
 NMat=    10 NSing=    10 JSym2X= 0.
 Root      1 not converged, maximum delta is    0.001064372352427
 Root      2 has converged.
 Root      3 not converged, maximum delta is    0.001010941966205
 Root      4 has converged.
 Root      5 not converged, maximum delta is    0.003513684123010
 Excitation Energies [eV] at current iteration:
 Root      1 :     1.802452823325085   Change is   -0.000342459416412
 Root      2 :     2.223389223961331   Change is   -0.000250817544140
 Root      3 :     2.952630402176692   Change is   -0.000192128440995
 Root      4 :     3.042447527223555   Change is   -0.000195655973248
 Root      5 :     3.118632937070558   Change is   -0.000289632779902
 Iteration     6 Dimension    66 NMult    60 NNew      6
 CISAX will form     6 AO SS matrices at one time.
 NMat=     6 NSing=     6 JSym2X= 0.
 Root      1 has converged.
 Root      2 has converged.
 Root      3 has converged.
 Root      4 has converged.
 Root      5 has converged.
 Excitation Energies [eV] at current iteration:
 Root      1 :     1.802424684966847   Change is   -0.000028138358238
 Root      2 :     2.223388503762539   Change is   -0.000000720198792
 Root      3 :     2.952605258394982   Change is   -0.000025143781710
 Root      4 :     3.042446444282336   Change is   -0.000001082941219
 Root      5 :     3.118600244926764   Change is   -0.000032692143794
 Convergence achieved on expansion vectors.
 ***********************************************************************
 Excited states from <AA,BB:AA,BB> singles matrix:
 ***********************************************************************
 
 1PDM for each excited state written to RWF  633
 Ground to excited state transition densities written to RWF  633
 Ground to excited state transition electric dipole moments (Au):
       state          X           Y           Z        Dip. S.      Osc.
         1         0.4359     -2.8458      0.4072      8.4543      0.3733
         2         1.2296      0.5507      0.2434      1.8745      0.1021
         3        -0.0628     -0.0377      0.0274      0.0061      0.0004
         4         0.0030      0.0315      0.0110      0.0011      0.0001
         5         0.0338      0.0344      0.0149      0.0025      0.0002
 Ground to excited state transition velocity dipole moments (Au):
       state          X           Y           Z        Dip. S.      Osc.
         1        -0.0265      0.1830     -0.0272      0.0349      0.3514
         2        -0.0952     -0.0435     -0.0176      0.0113      0.0919
         3         0.0070      0.0043     -0.0005      0.0001      0.0004
         4        -0.0023     -0.0036      0.0016      0.0000      0.0001
         5        -0.0036     -0.0033     -0.0005      0.0000      0.0001
 Ground to excited state transition magnetic dipole moments (Au):
       state          X           Y           Z
         1         0.0397      0.3390      2.3601
         2         0.0081      0.1843     -0.7959
         3        -0.1239     -0.4886      0.4135
         4        -0.1411     -0.1892     -0.5217
         5        -0.4234      0.1068      0.4530
 Ground to excited state transition velocity quadrupole moments (Au):
       state          XX          YY          ZZ          XY          XZ          YZ
         1        -0.7717      0.4421     -0.0037      2.1259     -0.3280     -0.0777
         2        -2.0420     -0.1155      0.0104     -0.5178     -0.1928     -0.0116
         3         0.1144      0.0074     -0.0056     -0.0621     -0.0026     -0.0233
         4        -0.0858      0.1321     -0.0017      0.0456      0.0265      0.0516
         5        -0.0569     -0.2329      0.0066     -0.2647     -0.0055     -0.0631
 <0|del|b> * <b|rxdel|0> + <0|del|b> * <b|delr+rdel|0>
 Rotatory Strengths (R) in cgs (10**-40 erg-esu-cm/Gauss)
       state          XX          YY          ZZ    R(velocity)    E-M Angle
         1         0.5918    -28.5970     -5.8982    -11.3011       90.41
         2        29.2831     22.6607     -6.5017     15.1474       86.53
         3        -7.4102     -4.1655     -9.1609     -6.9122      126.49
         4        -0.0071     -2.2474      3.2707      0.3387       86.48
         5        -1.4399      4.2704      3.0104      1.9470       72.15
 1/2[<0|r|b>*<b|rxdel|0> + (<0|rxdel|b>*<b|r|0>)*]
 Rotatory Strengths (R) in cgs (10**-40 erg-esu-cm/Gauss)
       state          XX          YY          ZZ     R(length)
         1       -12.2402    682.1629   -679.5497     -3.2090
         2        -7.0250    -71.7636    136.9990     19.4035
         3        -5.5041    -13.0242     -8.0067     -8.8450
         4         0.3028      4.2207      4.0591      2.8609
         5        10.1264     -2.5951     -4.7886      0.9142
  1/2[<0|del|b>*<b|r|0> + (<0|r|b>*<b|del|0>)*] (Au)
       state          X           Y           Z        Dip. S.   Osc.(frdel)
         1        -0.0116     -0.5206     -0.0111      0.5433      0.3622
         2        -0.1170     -0.0239     -0.0043      0.1453      0.0968
         3        -0.0004     -0.0002     -0.0000      0.0006      0.0004
         4        -0.0000     -0.0001      0.0000      0.0001      0.0001
         5        -0.0001     -0.0001     -0.0000      0.0002      0.0002

 Excitation energies and oscillator strengths:
 
 Excited State   1:      Singlet-A      1.8024 eV  687.87 nm  f=0.3733  <S**2>=0.000
     245 -> 248       -0.16783
     246 -> 247        0.69624
     246 <- 247       -0.11563
 This state for optimization and/or second-order correction.
 Total Energy, E(TD-HF/TD-DFT) =  -3005.28221246    
 Copying the excited state density for this state as the 1-particle RhoCI density.
 
 Excited State   2:      Singlet-A      2.2234 eV  557.64 nm  f=0.1021  <S**2>=0.000
     245 -> 247        0.64642
     246 -> 248        0.27642
 
 Excited State   3:      Singlet-A      2.9526 eV  419.91 nm  f=0.0004  <S**2>=0.000
     240 -> 247       -0.12854
     243 -> 247        0.60412
     243 -> 249       -0.14431
     244 -> 247       -0.27970
 
 Excited State   4:      Singlet-A      3.0424 eV  407.51 nm  f=0.0001  <S**2>=0.000
     242 -> 247        0.30870
     243 -> 247        0.22504
     244 -> 247        0.55837
     246 -> 248       -0.10781
 
 Excited State   5:      Singlet-A      3.1186 eV  397.56 nm  f=0.0002  <S**2>=0.000
     240 -> 247        0.10920
     242 -> 247        0.60172
     244 -> 247       -0.29234
 SavETr:  write IOETrn=   770 NScale= 10 NData=  16 NLR=1 NState=    5 LETran=     100.
 Leave Link  914 at Wed May  4 14:16:07 2022, MaxMem= 10066329600 cpu:           16103.9 elap:             672.3
 (Enter /sw/apps/gaussian-16.0/g16/l601.exe)
 Copying SCF densities to generalized density rwf, IOpCl= 0 IROHF=0.
 Hyperfine terms turned off by default for NAtoms > 100.

 **********************************************************************

            Population analysis using the SCF density.

 **********************************************************************

 Orbital symmetries:
       Occupied  (A) (A) (A) (A) (A) (A) (A) (A) (A) (A) (A) (A)
                 (A) (A) (A) (A) (A) (A) (A) (A) (A) (A) (A) (A)
                 (A) (A) (A) (A) (A) (A) (A) (A) (A) (A) (A) (A)
                 (A) (A) (A) (A) (A) (A) (A) (A) (A) (A) (A) (A)
                 (A) (A) (A) (A) (A) (A) (A) (A) (A) (A) (A) (A)
                 (A) (A) (A) (A) (A) (A) (A) (A) (A) (A) (A) (A)
                 (A) (A) (A) (A) (A) (A) (A) (A) (A) (A) (A) (A)
                 (A) (A) (A) (A) (A) (A) (A) (A) (A) (A) (A) (A)
                 (A) (A) (A) (A) (A) (A) (A) (A) (A) (A) (A) (A)
                 (A) (A) (A) (A) (A) (A) (A) (A) (A) (A) (A) (A)
                 (A) (A) (A) (A) (A) (A) (A) (A) (A) (A) (A) (A)
                 (A) (A) (A) (A) (A) (A) (A) (A) (A) (A) (A) (A)
                 (A) (A) (A) (A) (A) (A) (A) (A) (A) (A) (A) (A)
                 (A) (A) (A) (A) (A) (A) (A) (A) (A) (A) (A) (A)
                 (A) (A) (A) (A) (A) (A) (A) (A) (A) (A) (A) (A)
                 (A) (A) (A) (A) (A) (A) (A) (A) (A) (A) (A) (A)
                 (A) (A) (A) (A) (A) (A) (A) (A) (A) (A) (A) (A)
                 (A) (A) (A) (A) (A) (A) (A) (A) (A) (A) (A) (A)
                 (A) (A) (A) (A) (A) (A) (A) (A) (A) (A) (A) (A)
                 (A) (A) (A) (A) (A) (A) (A) (A) (A) (A) (A) (A)
                 (A) (A) (A) (A) (A) (A)
       Virtual   (A) (A) (A) (A) (A) (A) (A) (A) (A) (A) (A) (A)
                 (A) (A) (A) (A) (A) (A) (A) (A) (A) (A) (A) (A)
                 (A) (A) (A) (A) (A) (A) (A) (A) (A) (A) (A) (A)
                 (A) (A) (A) (A) (A) (A) (A) (A) (A) (A) (A) (A)
                 (A) (A) (A) (A) (A) (A) (A) (A) (A) (A) (A) (A)
                 (A) (A) (A) (A) (A) (A) (A) (A) (A) (A) (A) (A)
                 (A) (A) (A) (A) (A) (A) (A) (A) (A) (A) (A) (A)
                 (A) (A) (A) (A) (A) (A) (A) (A) (A) (A) (A) (A)
                 (A) (A) (A) (A) (A) (A) (A) (A) (A) (A) (A) (A)
                 (A) (A) (A) (A) (A) (A) (A) (A) (A) (A) (A) (A)
                 (A) (A) (A) (A) (A) (A) (A) (A) (A) (A) (A) (A)
                 (A) (A) (A) (A) (A) (A) (A) (A) (A) (A) (A) (A)
                 (A) (A) (A) (A) (A) (A) (A) (A) (A) (A) (A) (A)
                 (A) (A) (A) (A) (A) (A) (A) (A) (A) (A) (A) (A)
                 (A) (A) (A) (A) (A) (A) (A) (A) (A) (A) (A) (A)
                 (A) (A) (A) (A) (A) (A) (A) (A) (A) (A) (A) (A)
                 (A) (A) (A) (A) (A) (A) (A) (A) (A) (A) (A) (A)
                 (A) (A) (A) (A) (A) (A) (A) (A) (A) (A) (A) (A)
                 (A) (A) (A) (A) (A) (A) (A) (A) (A) (A) (A) (A)
                 (A) (A) (A) (A) (A) (A) (A) (A) (A) (A) (A) (A)
                 (A) (A) (A) (A) (A) (A) (A) (A) (A) (A) (A) (A)
                 (A) (A) (A) (A) (A) (A) (A) (A) (A) (A) (A) (A)
                 (A) (A) (A) (A) (A) (A) (A) (A) (A) (A) (A) (A)
                 (A) (A) (A) (A) (A) (A) (A) (A) (A) (A) (A) (A)
                 (A) (A) (A) (A) (A) (A) (A) (A) (A) (A) (A) (A)
                 (A) (A) (A) (A) (A) (A) (A) (A) (A) (A) (A) (A)
                 (A) (A) (A) (A) (A) (A) (A) (A) (A) (A) (A) (A)
                 (A) (A) (A) (A) (A) (A) (A) (A) (A) (A) (A) (A)
                 (A) (A) (A) (A) (A) (A) (A) (A) (A) (A) (A) (A)
                 (A) (A) (A) (A) (A) (A) (A) (A) (A) (A) (A) (A)
                 (A) (A) (A) (A) (A) (A) (A) (A) (A) (A) (A) (A)
                 (A) (A) (A) (A) (A) (A) (A) (A) (A) (A) (A) (A)
                 (A) (A) (A) (A) (A) (A) (A) (A) (A) (A) (A) (A)
                 (A) (A) (A) (A) (A) (A) (A) (A) (A) (A) (A) (A)
                 (A) (A) (A) (A) (A) (A) (A) (A) (A) (A) (A) (A)
                 (A) (A) (A) (A) (A) (A) (A) (A) (A) (A) (A) (A)
                 (A) (A) (A) (A) (A) (A) (A) (A) (A) (A) (A) (A)
                 (A) (A) (A) (A) (A) (A) (A) (A) (A) (A) (A) (A)
                 (A) (A) (A) (A) (A) (A) (A) (A) (A) (A) (A) (A)
                 (A) (A) (A) (A) (A) (A) (A) (A) (A) (A) (A) (A)
                 (A) (A) (A) (A) (A) (A) (A) (A) (A) (A) (A) (A)
                 (A) (A) (A) (A) (A) (A) (A) (A) (A) (A) (A) (A)
                 (A) (A) (A) (A) (A) (A) (A) (A) (A) (A) (A) (A)
                 (A) (A) (A) (A) (A) (A) (A) (A) (A) (A) (A) (A)
[...]
 Alpha virt. eigenvalues --    1.15251   1.15529   1.16083   1.16233   1.16774
 Alpha virt. eigenvalues --    1.17130   1.17455   1.17731   1.18377   1.18577
 Alpha virt. eigenvalues --    1.18732   1.19010   1.19759   1.20147   1.20938
 Alpha virt. eigenvalues --    1.21414   1.21684   1.23004   1.23262   1.23828
 Alpha virt. eigenvalues --    1.24084   1.24663   1.25314   1.26162   1.26314
 Alpha virt. eigenvalues --    1.27002   1.27419   1.27600   1.27785   1.27994
 Alpha virt. eigenvalues --    1.28568   1.28895   1.29503   1.29729   1.30057
 Alpha virt. eigenvalues --    1.31002   1.31124   1.31241   1.32063   1.32456
 Alpha virt. eigenvalues --    1.32563   1.33028   1.33210   1.33445   1.34787
 Alpha virt. eigenvalues --    1.35084   1.35580   1.35788   1.36156   1.36445
 Alpha virt. eigenvalues --    1.37076   1.37161   1.37612   1.37818   1.37882
 Alpha virt. eigenvalues --    1.38386   1.38678   1.39167   1.39294   1.40034
 Alpha virt. eigenvalues --    1.40192   1.40751   1.41356   1.41466   1.42010
 Alpha virt. eigenvalues --    1.42461   1.42909   1.43803   1.43871   1.44305
 Alpha virt. eigenvalues --    1.44644   1.45487   1.45812   1.45830   1.46701
 Alpha virt. eigenvalues --    1.47049   1.47927   1.48717   1.48795   1.48977
 Alpha virt. eigenvalues --    1.49606   1.50485   1.50751   1.51242   1.51450
 Alpha virt. eigenvalues --    1.51521   1.51755   1.52273   1.52322   1.52930
 Alpha virt. eigenvalues --    1.53184   1.53456   1.53628   1.53811   1.53999
 Alpha virt. eigenvalues --    1.54239   1.54444   1.54701   1.55035   1.55333
 Alpha virt. eigenvalues --    1.55388   1.55496   1.55553   1.55984   1.56007
 Alpha virt. eigenvalues --    1.56668   1.56742   1.57292   1.57356   1.57593
 Alpha virt. eigenvalues --    1.57808   1.58011   1.58115   1.58314   1.58844
 Alpha virt. eigenvalues --    1.58917   1.59070   1.59485   1.60049   1.60865
 Alpha virt. eigenvalues --    1.61037   1.61445   1.61991   1.62539   1.62696
 Alpha virt. eigenvalues --    1.63124   1.63493   1.63927   1.64034   1.65043
 Alpha virt. eigenvalues --    1.65522   1.65738   1.66230   1.66888   1.67081
 Alpha virt. eigenvalues --    1.68069   1.68600   1.68954   1.69262   1.69614
 Alpha virt. eigenvalues --    1.69873   1.70018   1.70131   1.70763   1.71288
 Alpha virt. eigenvalues --    1.71556   1.71890   1.72414   1.72633   1.72728
 Alpha virt. eigenvalues --    1.72906   1.73202   1.73587   1.73977   1.74169
 Alpha virt. eigenvalues --    1.74341   1.74771   1.74811   1.75192   1.75277
 Alpha virt. eigenvalues --    1.75401   1.76062   1.76203   1.76528   1.76814
 Alpha virt. eigenvalues --    1.76900   1.77017   1.77179   1.77324   1.77572
 Alpha virt. eigenvalues --    1.78071   1.78305   1.78625   1.78831   1.79104
 Alpha virt. eigenvalues --    1.79385   1.79466   1.79682   1.79748   1.79961
 Alpha virt. eigenvalues --    1.80160   1.80320   1.80698   1.80924   1.81077
 Alpha virt. eigenvalues --    1.81194   1.81545   1.81680   1.82009   1.82072
 Alpha virt. eigenvalues --    1.82091   1.82266   1.82730   1.82760   1.82843
 Alpha virt. eigenvalues --    1.83164   1.83359   1.83559   1.83726   1.83920
 Alpha virt. eigenvalues --    1.84030   1.84147   1.84278   1.84448   1.84480
 Alpha virt. eigenvalues --    1.84641   1.84939   1.85205   1.85327   1.85517
 Alpha virt. eigenvalues --    1.85650   1.86129   1.86417   1.86652   1.86822
 Alpha virt. eigenvalues --    1.86847   1.87366   1.87603   1.87805   1.88010
 Alpha virt. eigenvalues --    1.88289   1.88886   1.89089   1.89149   1.89418
 Alpha virt. eigenvalues --    1.89689   1.89918   1.90160   1.90226   1.90537
 Alpha virt. eigenvalues --    1.90658   1.91017   1.91225   1.91682   1.91703
 Alpha virt. eigenvalues --    1.92074   1.92280   1.92802   1.92857   1.93111
 Alpha virt. eigenvalues --    1.93271   1.93646   1.94089   1.94272   1.94356
 Alpha virt. eigenvalues --    1.94628   1.95151   1.95362   1.95508   1.95693
 Alpha virt. eigenvalues --    1.95974   1.96146   1.96371   1.96456   1.96848
 Alpha virt. eigenvalues --    1.97352   1.97909   1.98047   1.98300   1.98732
 Alpha virt. eigenvalues --    1.98875   1.99144   1.99252   1.99413   1.99644
 Alpha virt. eigenvalues --    1.99971   2.00121   2.00343   2.00545   2.00690
 Alpha virt. eigenvalues --    2.00943   2.01352   2.02157   2.02350   2.02696
 Alpha virt. eigenvalues --    2.02989   2.03208   2.03989   2.04184   2.04253
 Alpha virt. eigenvalues --    2.05256   2.05488   2.05717   2.06175   2.06543
 Alpha virt. eigenvalues --    2.07065   2.07135   2.07220   2.07540   2.07718
 Alpha virt. eigenvalues --    2.08583   2.08805   2.09067   2.09263   2.09596
 Alpha virt. eigenvalues --    2.09981   2.10161   2.10480   2.10722   2.11351
 Alpha virt. eigenvalues --    2.11746   2.11913   2.12146   2.12347   2.12875
 Alpha virt. eigenvalues --    2.13095   2.13337   2.13605   2.13672   2.13897
 Alpha virt. eigenvalues --    2.14577   2.14723   2.15236   2.15569   2.15641
 Alpha virt. eigenvalues --    2.15871   2.16196   2.16479   2.16982   2.17342
 Alpha virt. eigenvalues --    2.17590   2.17750   2.18018   2.18234   2.18528
 Alpha virt. eigenvalues --    2.19162   2.19267   2.20069   2.20173   2.20269
 Alpha virt. eigenvalues --    2.21585   2.22082   2.22697   2.23041   2.23593
 Alpha virt. eigenvalues --    2.23655   2.23934   2.24346   2.25008   2.25717
 Alpha virt. eigenvalues --    2.25974   2.26245   2.26535   2.26671   2.27197
 Alpha virt. eigenvalues --    2.27478   2.28472   2.28566   2.28696   2.29046
 Alpha virt. eigenvalues --    2.30145   2.30310   2.30401   2.30556   2.31182
 Alpha virt. eigenvalues --    2.31479   2.31829   2.32517   2.33292   2.33450
 Alpha virt. eigenvalues --    2.33818   2.34048   2.34212   2.34385   2.34808
 Alpha virt. eigenvalues --    2.35150   2.35577   2.36005   2.36660   2.36878
 Alpha virt. eigenvalues --    2.37312   2.37575   2.37995   2.38052   2.38164
 Alpha virt. eigenvalues --    2.38872   2.39484   2.39570   2.39833   2.39959
 Alpha virt. eigenvalues --    2.40648   2.40825   2.41251   2.41912   2.42012
 Alpha virt. eigenvalues --    2.42400   2.42546   2.43123   2.43243   2.43686
 Alpha virt. eigenvalues --    2.43764   2.44017   2.44435   2.44860   2.45010
 Alpha virt. eigenvalues --    2.45245   2.46362   2.46435   2.46891   2.47350
 Alpha virt. eigenvalues --    2.47480   2.47614   2.48684   2.48936   2.49819
 Alpha virt. eigenvalues --    2.50049   2.50650   2.50756   2.51137   2.52166
 Alpha virt. eigenvalues --    2.52763   2.53418   2.53546   2.53723   2.54545
 Alpha virt. eigenvalues --    2.54897   2.55530   2.55952   2.56196   2.56438
 Alpha virt. eigenvalues --    2.56531   2.56609   2.56747   2.57400   2.57489
 Alpha virt. eigenvalues --    2.57538   2.57992   2.58994   2.59595   2.59701
 Alpha virt. eigenvalues --    2.60164   2.60475   2.61131   2.61647   2.62130
 Alpha virt. eigenvalues --    2.62685   2.62951   2.63254   2.63580   2.63670
 Alpha virt. eigenvalues --    2.63913   2.64285   2.64560   2.65490   2.66180
 Alpha virt. eigenvalues --    2.66366   2.66747   2.67048   2.67596   2.68002
 Alpha virt. eigenvalues --    2.68410   2.69076   2.69292   2.69800   2.70607
 Alpha virt. eigenvalues --    2.70686   2.71481   2.71650   2.72094   2.72668
 Alpha virt. eigenvalues --    2.72914   2.73192   2.73499   2.73914   2.74170
 Alpha virt. eigenvalues --    2.74735   2.75067   2.75467   2.75912   2.76386
 Alpha virt. eigenvalues --    2.76774   2.77149   2.77347   2.77682   2.78836
 Alpha virt. eigenvalues --    2.79342   2.79638   2.80113   2.80392   2.81500
 Alpha virt. eigenvalues --    2.82010   2.82731   2.82978   2.83431   2.83844
 Alpha virt. eigenvalues --    2.84018   2.84750   2.84859   2.85330   2.86050
 Alpha virt. eigenvalues --    2.86655   2.87239   2.87650   2.88090   2.88410
 Alpha virt. eigenvalues --    2.88850   2.89076   2.89445   2.89709   2.90166
 Alpha virt. eigenvalues --    2.91042   2.91835   2.92439   2.92483   2.92799
 Alpha virt. eigenvalues --    2.93587   2.94059   2.94334   2.94349   2.94563
 Alpha virt. eigenvalues --    2.95097   2.95275   2.95604   2.95855   2.96118
 Alpha virt. eigenvalues --    2.96195   2.96387   2.96945   2.97136   2.97458
 Alpha virt. eigenvalues --    2.97773   2.98339   2.98458   2.98561   2.98827
 Alpha virt. eigenvalues --    2.99274   2.99535   2.99816   3.00469   3.00544
 Alpha virt. eigenvalues --    3.00639   3.01195   3.01303   3.01541   3.01624
 Alpha virt. eigenvalues --    3.02081   3.02188   3.02545   3.02882   3.03176
 Alpha virt. eigenvalues --    3.03416   3.03555   3.03598   3.04528   3.05676
 Alpha virt. eigenvalues --    3.05849   3.06023   3.06118   3.06854   3.07415
 Alpha virt. eigenvalues --    3.08017   3.08576   3.09079   3.09310   3.09476
 Alpha virt. eigenvalues --    3.09849   3.10923   3.11771   3.11832   3.12382
 Alpha virt. eigenvalues --    3.12834   3.13503   3.14572   3.15185   3.15294
 Alpha virt. eigenvalues --    3.16243   3.16957   3.17254   3.17694   3.18804
 Alpha virt. eigenvalues --    3.19439   3.21278   3.21964   3.22525   3.24645
 Alpha virt. eigenvalues --    3.25654   3.27272   3.36803   3.39498   3.40533
 Alpha virt. eigenvalues --    3.41730   3.45984   3.47930   3.49853   3.51250
 Alpha virt. eigenvalues --    3.57488   3.59663   3.64292   3.66367   3.66957
 Alpha virt. eigenvalues --    3.69536   3.71924
          Condensed to atoms (all electrons):
 Mulliken charges:
               1
     1  Mg   0.978078
     2  C   -0.112410
     3  C   -0.064973
     4  C   -0.052834
     5  C   -0.093788
     6  N   -0.426032
     7  C    0.100723
     8  C   -0.101482
     9  C   -0.161213
    10  C    0.127753
    11  C    0.019921
    12  C   -0.054148
    13  C   -0.021226
    14  C    0.262655
    15  O   -0.277540
    16  O   -0.364318
    17  N   -0.483369
    18  C    0.100038
    19  C   -0.152518
    20  C   -0.081255
    21  C    0.130983
    22  C    0.046470
    23  C    0.042752
    24  O   -0.236594
    25  C   -0.042530
    26  N   -0.410482
    27  C    0.092654
    28  C   -0.111970
    29  C   -0.115700
    30  C    0.079800
    31  C    0.047653
    32  C   -0.042752
    33  C   -0.063913
    34  N   -0.462834
    35  C    0.184064
    36  C   -0.197773
    37  C   -0.013919
    38  C    0.206731
    39  C    0.089628
    40  C    0.109767
    41  O   -0.208396
    42  C   -0.035104
    43  C    0.251476
    44  O   -0.263785
    45  O   -0.316335
    46  C    0.111565
    47  C    0.241401
    48  C   -0.125459
    49  C   -0.244651
    50  C    0.004689
    51  C    0.014146
    52  C   -0.066714
    53  C   -0.039872
    54  C   -0.211195
    55  C   -0.003856
    56  C    0.052853
    57  C   -0.120475
    58  C    0.026913
    59  C   -0.230404
    60  C    0.009636
    61  C   -0.019107
    62  C   -0.034132
    63  C   -0.036151
    64  C   -0.225741
    65  C   -0.020356
    66  C   -0.024479
    67  H   -0.005248
    68  H    0.040936
    69  H    0.002503
    70  H    0.054139
    71  H    0.058967
    72  H    0.058343
    73  H    0.034409
    74  H    0.043014
    75  H    0.047617
    76  H    0.075763
    77  H    0.073626
    78  H    0.067577
    79  H    0.044979
    80  H    0.059312
    81  H    0.050304
    82  H    0.057000
    83  H    0.052130
    84  H    0.061944
    85  H    0.037760
    86  H    0.036714
    87  H    0.038768
    88  H    0.046414
    89  H    0.044475
    90  H    0.043642
    91  H    0.035365
    92  H    0.053827
    93  H    0.043782
    94  H    0.036327
    95  H    0.022458
    96  H    0.072956
    97  H    0.063879
    98  H    0.066865
    99  H    0.046724
   100  H    0.057296
   101  H    0.058469
   102  H    0.053329
   103  H    0.067357
   104  H    0.028788
   105  H    0.067655
   106  H    0.042445
   107  H    0.051073
   108  H    0.044646
   109  H    0.037452
   110  H    0.027037
   111  H    0.045587
   112  H    0.042267
   113  H    0.028891
   114  H    0.038363
   115  H    0.032297
   116  H    0.038028
   117  H    0.037104
   118  H    0.021747
   119  H    0.032427
   120  H    0.034745
   121  H    0.028185
   122  H    0.024278
   123  H    0.025829
   124  H    0.027765
   125  H    0.034591
   126  H    0.025816
   127  H    0.017167
   128  H    0.018710
   129  H    0.016953
   130  H    0.039040
   131  H    0.041885
   132  H    0.021843
   133  H    0.026805
   134  H    0.037391
   135  H    0.030154
   136  H    0.033803
   137  H    0.023229
   138  H    0.024843
   139  H    0.049378
   140  H    0.037495
 Sum of Mulliken charges =  -0.00000
 Mulliken charges with hydrogens summed into heavy atoms:
               1
     1  Mg   0.978078
     2  C   -0.112410
     3  C   -0.070221
     4  C   -0.011898
     5  C   -0.091285
     6  N   -0.426032
     7  C    0.100723
     8  C   -0.047343
     9  C   -0.102246
    10  C    0.127753
    11  C    0.155688
    12  C    0.069232
    13  C    0.119977
    14  C    0.262655
    15  O   -0.277540
    16  O   -0.364318
    17  N   -0.483369
    18  C    0.100038
    19  C   -0.152518
    20  C   -0.081255
    21  C    0.130983
    22  C    0.201066
    23  C    0.042752
    24  O   -0.236594
    25  C    0.128544
    26  N   -0.410482
    27  C    0.092654
    28  C   -0.074210
    29  C   -0.078986
    30  C    0.079800
    31  C    0.177309
    32  C    0.036255
    33  C    0.070024
    34  N   -0.462834
    35  C    0.184064
    36  C   -0.197773
    37  C   -0.013919
    38  C    0.206731
    39  C    0.248921
    40  C    0.109767
    41  O   -0.208396
    42  C    0.031761
    43  C    0.251476
    44  O   -0.263785
    45  O   -0.316335
    46  C    0.274054
    47  C    0.362087
    48  C   -0.096672
    49  C   -0.244651
    50  C    0.165861
    51  C    0.096243
    52  C    0.005909
    53  C    0.031287
    54  C   -0.172831
    55  C    0.103574
    56  C    0.107027
    57  C   -0.057545
    58  C    0.077020
    59  C   -0.202638
    60  C    0.087210
    61  C    0.016556
    62  C    0.046793
    63  C    0.012498
    64  C   -0.188350
    65  C    0.066830
    66  C    0.087237
 Electronic spatial extent (au):  <R**2>=         142363.5880
 Charge=             -0.0000 electrons
 Dipole moment (field-independent basis, Debye):
    X=             -3.9491    Y=              3.4774    Z=             -1.1099  Tot=              5.3777
 Quadrupole moment (field-independent basis, Debye-Ang):
   XX=           -367.4333   YY=           -423.5073   ZZ=           -401.6740
   XY=             -6.6393   XZ=              9.6492   YZ=             -2.1244
 Traceless Quadrupole moment (field-independent basis, Debye-Ang):
   XX=             30.1049   YY=            -25.9691   ZZ=             -4.1358
   XY=             -6.6393   XZ=              9.6492   YZ=             -2.1244
 Octapole moment (field-independent basis, Debye-Ang**2):
  XXX=             50.4010  YYY=            159.6125  ZZZ=             -6.4922  XYY=           -210.5440
  XXY=           -258.3592  XXZ=             93.7220  XZZ=             46.9921  YZZ=             -5.1385
  YYZ=            -19.0109  XYZ=             -7.6151
 Hexadecapole moment (field-independent basis, Debye-Ang**3):
 XXXX=        -162386.3553 YYYY=         -21277.6727 ZZZZ=          -5604.6900 XXXY=          -3783.9109
 XXXZ=           1893.1233 YYYX=            444.7642 YYYZ=           -256.6777 ZZZX=            179.1780
 ZZZY=             46.7840 XXYY=         -33180.3271 XXZZ=         -29614.6993 YYZZ=          -4386.4764
 XXYZ=            -83.8306 YYXZ=           -124.9742 ZZXY=            -12.5925
 N-N= 9.344226453319D+03 E-N=-2.567975921147D+04  KE= 2.975125391699D+03
 Leave Link  601 at Wed May  4 14:16:08 2022, MaxMem= 10066329600 cpu:              13.1 elap:               0.6
 (Enter /sw/apps/gaussian-16.0/g16/l9999.exe)
 1\1\GINC-BP1-COMPUTE100\SP\RPBE1PBE TD-FC\def2SVP\C55H74Mg1N4O6\OF1564
 1\04-May-2022\0\\#p PBE1PBE/Def2SVP td=(nstates=5)\\step_1851_chromoph
 ore_1 TDDFT with PBE1PBE functional\\0,1\Mg,0,-1.776,17.478,25.57\C,0,
 -2.361,15.044,28.247\C,0,-2.558,19.979,27.893\C,0,-1.996,19.571,23.024
 \C,0,-2.014,14.733,23.421\N,0,-2.273,17.476,27.796\C,0,-2.444,16.379,2
 8.728\C,0,-2.89,16.878,30.105\C,0,-2.959,18.491,29.926\C,0,-2.567,18.7
 08,28.465\C,0,-4.297,19.048,30.33\C,0,-1.979,16.56,31.309\C,0,-2.266,1
 7.303,32.657\C,0,-1.835,16.626,33.934\O,0,-1.777,15.4,34.088\O,0,-1.64
 1,17.549,34.914\N,0,-2.097,19.539,25.486\C,0,-2.352,20.441,26.525\C,0,
 -2.257,21.862,26.043\C,0,-2.087,21.706,24.596\C,0,-2.055,20.244,24.327
 \C,0,-2.386,23.074,26.88\C,0,-2.072,22.747,23.519\O,0,-1.972,22.414,22
 .358\C,0,-1.979,24.269,23.878\N,0,-2.121,17.2,23.541\C,0,-1.944,18.235
 ,22.728\C,0,-2.066,17.688,21.248\C,0,-1.779,16.214,21.41\C,0,-2.009,16
 .012,22.894\C,0,-3.21,18.111,20.362\C,0,-0.348,15.815,20.986\C,0,0.866
 ,15.703,22.007\N,0,-1.886,15.398,25.742\C,0,-1.98,14.404,24.749\C,0,-2
 .092,13.08,25.361\C,0,-2.152,13.349,26.699\C,0,-2.176,14.771,26.885\C,
 0,-2.195,11.737,24.81\C,0,-2.237,12.664,27.932\O,0,-2.242,11.471,28.14
 4\C,0,-2.365,13.704,29.08\C,0,-1.296,13.539,30.098\O,0,-0.138,13.91,29
 .954\O,0,-1.761,12.894,31.177\C,0,-0.835,12.654,32.192\C,0,-1.062,17.0
 78,36.2\C,0,-1.131,18.059,37.318\C,0,-0.748,17.953,38.577\C,0,0.046,16
 .692,39.109\C,0,-1.276,18.966,39.628\C,0,-0.337,19.409,40.738\C,0,0.98
 6,19.973,40.163\C,0,1.348,21.52,40.371\C,0,1.082,22.358,39.058\C,0,2.7
 59,21.596,40.914\C,0,2.793,21.74,42.451\C,0,3.823,20.985,43.317\C,0,4.
 279,21.732,44.593\C,0,5.747,21.533,44.766\C,0,3.612,21.288,45.862\C,0,
 2.205,21.895,46.169\C,0,1.175,20.714,46.308\C,0,-0.29,21.239,46.178\C,
 0,-1.21,20.657,47.251\C,0,-0.837,21.061,44.729\H,0,-2.848,20.833,28.50
 9\H,0,-2.22,20.213,22.17\H,0,-2.076,13.961,22.652\H,0,-3.823,16.38,30.
 371\H,0,-2.205,19.096,30.43\H,0,-4.922,19.35,29.49\H,0,-4.024,19.9,30.
 953\H,0,-4.82,18.331,30.962\H,0,-0.949,16.75,31.006\H,0,-2.01,15.484,3
 1.482\H,0,-3.312,17.6,32.742\H,0,-1.61,18.152,32.469\H,0,-2.389,22.875
 ,27.951\H,0,-3.302,23.627,26.673\H,0,-1.597,23.777,26.612\H,0,-1.113,2
 4.469,24.508\H,0,-2.81,24.559,24.521\H,0,-1.809,24.795,22.938\H,0,-1.1
 9,18.114,20.759\H,0,-2.462,15.544,20.889\H,0,-2.825,18.706,19.534\H,0,
 -3.76,18.822,20.978\H,0,-3.744,17.245,19.972\H,0,0.004,16.483,20.2\H,0
 ,-0.464,14.803,20.6\H,0,0.912,14.69,22.406\H,0,0.987,16.455,22.786\H,0
 ,1.777,15.916,21.447\H,0,-2.051,11.851,23.735\H,0,-3.122,11.252,25.114
 \H,0,-1.354,11.118,25.122\H,0,-3.307,13.723,29.627\H,0,-1.239,11.839,3
 2.793\H,0,-0.784,13.501,32.876\H,0,0.163,12.451,31.802\H,0,-0.014,16.8
 09,36.063\H,0,-1.524,16.129,36.47\H,0,-1.77,18.915,37.101\H,0,1.092,16
 .919,38.907\H,0,-0.228,15.811,38.528\H,0,-0.239,16.504,40.144\H,0,-2.0
 37,18.422,40.189\H,0,-1.605,19.851,39.083\H,0,-0.129,18.546,41.37\H,0,
 -0.874,20.162,41.314\H,0,0.933,19.819,39.085\H,0,1.712,19.265,40.563\H
 ,0,0.626,21.92,41.083\H,0,0.505,23.252,39.291\H,0,0.506,21.723,38.385\
 H,0,2.034,22.732,38.68\H,0,3.28,22.522,40.67\H,0,3.396,20.749,40.657\H
 ,0,1.849,21.377,42.857\H,0,2.891,22.79,42.726\H,0,4.695,20.816,42.686\
 H,0,3.359,20.046,43.618\H,0,4.131,22.808,44.512\H,0,6.271,20.938,44.01
 8\H,0,5.979,21.319,45.809\H,0,6.199,22.513,44.61\H,0,4.206,21.463,46.7
 59\H,0,3.647,20.199,45.845\H,0,1.962,22.465,45.272\H,0,2.178,22.454,47
 .104\H,0,1.301,20.237,47.28\H,0,1.413,19.913,45.608\H,0,-0.305,22.307,
 46.393\H,0,-1.87,19.9,46.827\H,0,-1.794,21.418,47.767\H,0,-0.68,20.158
 ,48.062\H,0,-1.882,20.755,44.768\H,0,-0.382,20.359,44.029\H,0,-0.784,2
 2.063,44.304\\Version=ES64L-G16RevA.03\State=1-A\HF=-3005.3484503\RMSD
 =6.346e-09\PG=C01 [X(C55H74Mg1N4O6)]\\@


 IF I HAVE SEEN FARTHER, IT IS BY STANDING ON THE
 SHOULDERS OF GIANTS. -- SIR ISAAC NEWTON
 Job cpu time:       0 days  6 hours 15 minutes 48.5 seconds.
 Elapsed time:       0 days  0 hours 15 minutes 42.9 seconds.
 File lengths (MBytes):  RWF=   8929 Int=      0 D2E=      0 Chk=    390 Scr=      1
 Normal termination of Gaussian 16 at Wed May  4 14:16:09 2022.
