 Entering Gaussian System, Link 0=g16
 Initial command:
 /sw/apps/gaussian-16.0/g16/l1.exe "/tmp/Gau-164403.inp" -scrdir="/tmp/"
 Entering Link 1 = /sw/apps/gaussian-16.0/g16/l1.exe PID=    164404.
  
 Copyright (c) 1988,1990,1992,1993,1995,1998,2003,2009,2016,
            Gaussian, Inc.  All Rights Reserved.
  
 This is part of the Gaussian(R) 16 program.  It is based on
 the Gaussian(R) 09 system (copyright 2009, Gaussian, Inc.),
 the Gaussian(R) 03 system (copyright 2003, Gaussian, Inc.),
 the Gaussian(R) 98 system (copyright 1998, Gaussian, Inc.),
 the Gaussian(R) 94 system (copyright 1995, Gaussian, Inc.),
 the Gaussian 92(TM) system (copyright 1992, Gaussian, Inc.),
 the Gaussian 90(TM) system (copyright 1990, Gaussian, Inc.),
 the Gaussian 88(TM) system (copyright 1988, Gaussian, Inc.),
 the Gaussian 86(TM) system (copyright 1986, Carnegie Mellon
 University), and the Gaussian 82(TM) system (copyright 1983,
 Carnegie Mellon University). Gaussian is a federally registered
 trademark of Gaussian, Inc.
  
 This software contains proprietary and confidential information,
 including trade secrets, belonging to Gaussian, Inc.
  
 This software is provided under written license and may be
 used, copied, transmitted, or stored only in accord with that
 written license.
  
 The following legend is applicable only to US Government
 contracts under FAR:
  
                    RESTRICTED RIGHTS LEGEND
  
 Use, reproduction and disclosure by the US Government is
 subject to restrictions as set forth in subparagraphs (a)
 and (c) of the Commercial Computer Software - Restricted
 Rights clause in FAR 52.227-19.
  
 Gaussian, Inc.
 340 Quinnipiac St., Bldg. 40, Wallingford CT 06492
  
  
 ---------------------------------------------------------------
 Warning -- This program may not be used in any manner that
 competes with the business of Gaussian, Inc. or will provide
 assistance to any competitor of Gaussian, Inc.  The licensee
 of this program is prohibited from giving any competitor of
 Gaussian, Inc. access to this program.  By using this program,
 the user acknowledges that Gaussian, Inc. is engaged in the
 business of creating and licensing software in the field of
 computational chemistry and represents and warrants to the
 licensee that it is not a competitor of Gaussian, Inc. and that
 it will not use this program in any manner prohibited above.
 ---------------------------------------------------------------
  

 Cite this work as:
 Gaussian 16, Revision A.03,
 M. J. Frisch, G. W. Trucks, H. B. Schlegel, G. E. Scuseria, 
 M. A. Robb, J. R. Cheeseman, G. Scalmani, V. Barone, 
 G. A. Petersson, H. Nakatsuji, X. Li, M. Caricato, A. V. Marenich, 
 J. Bloino, B. G. Janesko, R. Gomperts, B. Mennucci, H. P. Hratchian, 
 J. V. Ortiz, A. F. Izmaylov, J. L. Sonnenberg, D. Williams-Young, 
 F. Ding, F. Lipparini, F. Egidi, J. Goings, B. Peng, A. Petrone, 
 T. Henderson, D. Ranasinghe, V. G. Zakrzewski, J. Gao, N. Rega, 
 G. Zheng, W. Liang, M. Hada, M. Ehara, K. Toyota, R. Fukuda, 
 J. Hasegawa, M. Ishida, T. Nakajima, Y. Honda, O. Kitao, H. Nakai, 
 T. Vreven, K. Throssell, J. A. Montgomery, Jr., J. E. Peralta, 
 F. Ogliaro, M. J. Bearpark, J. J. Heyd, E. N. Brothers, K. N. Kudin, 
 V. N. Staroverov, T. A. Keith, R. Kobayashi, J. Normand, 
 K. Raghavachari, A. P. Rendell, J. C. Burant, S. S. Iyengar, 
 J. Tomasi, M. Cossi, J. M. Millam, M. Klene, C. Adamo, R. Cammi, 
 J. W. Ochterski, R. L. Martin, K. Morokuma, O. Farkas, 
 J. B. Foresman, and D. J. Fox, Gaussian, Inc., Wallingford CT, 2016.
 
 ******************************************
 Gaussian 16:  ES64L-G16RevA.03 25-Dec-2016
                28-Apr-2022 
 ******************************************
 %nproc=24
 Will use up to   24 processors via shared memory.
 %mem=75GB
 --------------------------------
 #p wB97XD/Def2SVP td=(nstates=5)
 --------------------------------
 1/38=1,172=1/1;
 2/12=2,17=6,18=5,40=1/2;
 3/5=43,7=101,11=9,25=1,30=1,74=-58/1,2,3,8;
 4//1;
 5/5=2,38=5/2;
 8/6=1,10=1,108=5/1;
 9/41=5,42=1,70=2/14;
 6/7=2,8=2,9=2,10=2/1;
 99/5=1,9=1/99;
 Leave Link    1 at Thu Apr 28 10:17:57 2022, MaxMem= 10066329600 cpu:               0.6 elap:               0.0
 (Enter /sw/apps/gaussian-16.0/g16/l101.exe)
 ----------------------------------------------------
 step_151_chromophore_26 TDDFT with wB97XD functional
 ----------------------------------------------------
 Symbolic Z-matrix:
 Charge =  0 Multiplicity = 1
 Mg                   -9.638     18.532    42.886 
 C                    -6.202     18.07     43.088 
 C                    -9.173     21.907    42.576 
 C                    -12.876    18.788    42.27 
 C                    -10.015    14.957    43.283 
 N                    -7.906     19.863    42.749 
 C                    -6.632     19.421    42.992 
 C                    -5.641     20.63     43.134 
 C                    -6.607     21.808    43.19 
 C                    -7.955     21.192    42.891 
 C                    -6.528     22.77     44.387 
 C                    -4.597     20.716    41.943 
 C                    -5.018     20.142    40.553 
 C                    -5.373     21.098    39.42 
 O                    -5.801     22.221    39.5 
 O                    -5.09      20.468    38.248 
 N                    -10.898    20.096    42.439 
 C                    -10.489    21.407    42.316 
 C                    -11.646    22.201    41.933 
 C                    -12.647    21.266    41.578 
 C                    -12.195    19.978    42.156 
 C                    -11.673    23.712    41.725 
 C                    -13.991    21.686    40.968 
 O                    -14.184    22.87     40.652 
 C                    -15.142    20.77     40.824 
 N                    -11.233    16.994    42.769 
 C                    -12.535    17.445    42.527 
 C                    -13.555    16.291    42.65 
 C                    -12.623    15.22     43.36 
 C                    -11.193    15.719    43.14 
 C                    -14.771    16.791    43.471 
 C                    -12.832    13.758    42.832 
 C                    -12.662    12.465    43.781 
 N                    -8.412     16.802    43.017 
 C                    -8.722     15.448    43.267 
 C                    -7.494     14.775    43.518 
 C                    -6.443     15.699    43.466 
 C                    -7.049     16.899    43.091 
 C                    -7.323     13.338    43.858 
 C                    -5.028     16.047    43.711 
 O                    -4.136     15.348    44.146 
 C                    -4.814     17.56     43.307 
 C                    -4.191     18.113    44.537 
 O                    -4.721     18.036    45.64 
 O                    -2.943     18.629    44.189 
 C                    -2.117     19.381    45.153 
 C                    -5.106     21.221    36.995 
 C                    -6.142     20.754    35.986 
 C                    -6.139     19.525    35.422 
 C                    -5.301     18.333    35.895 
 C                    -7.127     19.329    34.286 
 C                    -8.327     18.376    34.55 
 C                    -9.109     18.248    33.254 
 C                    -10.587    18.553    33.416 
 C                    -11.573    17.367    33.42 
 C                    -11.214    19.513    32.42 
 C                    -10.584    20.875    32.366 
 C                    -9.808     21.262    31.084 
 C                    -10.229    22.732    30.636 
 C                    -9.593     23.823    31.443 
 C                    -9.929     22.84     29.08 
 C                    -11.212    23.434    28.327 
 C                    -11.601    22.607    27.063 
 C                    -10.509    22.609    25.848 
 C                    -10.956    23.349    24.626 
 C                    -10.158    21.159    25.463 
 H                    -9.09      22.995    42.541 
 H                    -13.924    18.846    41.969 
 H                    -10.091    13.889    43.499 
 H                    -5.133     20.506    44.09 
 H                    -6.328     22.474    42.374 
 H                    -7.247     22.506    45.162 
 H                    -6.764     23.807    44.147 
 H                    -5.561     22.773    44.891 
 H                    -3.693     20.276    42.366 
 H                    -4.436     21.781    41.781 
 H                    -5.9       19.512    40.671 
 H                    -4.219     19.496    40.19 
 H                    -12.592    24.141    42.124 
 H                    -11.505    24.078    40.712 
 H                    -10.828    24.094    42.298 
 H                    -15.521    20.368    41.764 
 H                    -14.653    19.943    40.309 
 H                    -15.753    21.291    40.087 
 H                    -13.9      15.952    41.673 
 H                    -12.886    15.16     44.416 
 H                    -15.499    17.155    42.746 
 H                    -14.501    17.594    44.157 
 H                    -15.164    15.937    44.023 
 H                    -12.029    13.826    42.098 
 H                    -13.74     13.717    42.23 
 H                    -11.726    11.961    43.539 
 H                    -13.501    11.774    43.695 
 H                    -12.595    12.824    44.808 
 H                    -7.154     12.675    43.01 
 H                    -8.269     12.99     44.273 
 H                    -6.482     13.123    44.517 
 H                    -4.006     17.499    42.578 
 H                    -2.656     20.149    45.708 
 H                    -1.285     19.731    44.542 
 H                    -1.828     18.721    45.971 
 H                    -4.091     21.172    36.601 
 H                    -5.272     22.286    37.158 
 H                    -6.901     21.457    35.642 
 H                    -4.555     18.714    36.592 
 H                    -4.939     17.777    35.03 
 H                    -5.951     17.599    36.37 
 H                    -6.544     18.994    33.428 
 H                    -7.595     20.258    33.96 
 H                    -8.979     18.64     35.383 
 H                    -7.882     17.394    34.708 
 H                    -9.117     17.184    33.02 
 H                    -8.651     18.678    32.363 
 H                    -10.623    19.102    34.357 
 H                    -11.989    17.04     32.467 
 H                    -12.405    17.518    34.106 
 H                    -11.002    16.511    33.781 
 H                    -12.259    19.704    32.664 
 H                    -11.171    19.048    31.435 
 H                    -9.903     21.125    33.179 
 H                    -11.481    21.444    32.608 
 H                    -10.11     20.507    30.358 
 H                    -8.728     21.25     31.231 
 H                    -11.289    22.907    30.818 
 H                    -10.134    24.2      32.311 
 H                    -9.599     24.723    30.828 
 H                    -8.607     23.486    31.762 
 H                    -9.579     21.857    28.765 
 H                    -9.154     23.597    28.961 
 H                    -11.02     24.483    28.1 
 H                    -12.09     23.396    28.97 
 H                    -12.566    22.924    26.667 
 H                    -11.915    21.586    27.278 
 H                    -9.595     23.104    26.176 
 H                    -10.145    23.95     24.215 
 H                    -11.883    23.893    24.806 
 H                    -11.279    22.63     23.874 
 H                    -10.967    20.586    25.01 
 H                    -9.767     20.649    26.343 
 H                    -9.297     21.271    24.804 
 
 ITRead=  0  0  0  0  0  0  0  0  0  0  0  0  0  0  0  0  0  0  0  0
 ITRead=  0  0  0  0  0  0  0  0  0  0  0  0  0  0  0  0  0  0  0  0
 ITRead=  0  0  0  0  0  0  0  0  0  0  0  0  0  0  0  0  0  0  0  0
 ITRead=  0  0  0  0  0  0  0  0  0  0  0  0  0  0  0  0  0  0  0  0
 ITRead=  0  0  0  0  0  0  0  0  0  0  0  0  0  0  0  0  0  0  0  0
 ITRead=  0  0  0  0  0  0  0  0  0  0  0  0  0  0  0  0  0  0  0  0
 ITRead=  0  0  0  0  0  0  0  0  0  0  0  0  0  0  0  0  0  0  0  0
 MicOpt= -1 -1 -1 -1 -1 -1 -1 -1 -1 -1 -1 -1 -1 -1 -1 -1 -1 -1 -1 -1
 MicOpt= -1 -1 -1 -1 -1 -1 -1 -1 -1 -1 -1 -1 -1 -1 -1 -1 -1 -1 -1 -1
 MicOpt= -1 -1 -1 -1 -1 -1 -1 -1 -1 -1 -1 -1 -1 -1 -1 -1 -1 -1 -1 -1
 MicOpt= -1 -1 -1 -1 -1 -1 -1 -1 -1 -1 -1 -1 -1 -1 -1 -1 -1 -1 -1 -1
 MicOpt= -1 -1 -1 -1 -1 -1 -1 -1 -1 -1 -1 -1 -1 -1 -1 -1 -1 -1 -1 -1
 MicOpt= -1 -1 -1 -1 -1 -1 -1 -1 -1 -1 -1 -1 -1 -1 -1 -1 -1 -1 -1 -1
 MicOpt= -1 -1 -1 -1 -1 -1 -1 -1 -1 -1 -1 -1 -1 -1 -1 -1 -1 -1 -1 -1
 NAtoms=    140 NQM=      140 NQMF=       0 NMMI=      0 NMMIF=      0
                NMic=       0 NMicF=      0.
                    Isotopes and Nuclear Properties:
 (Nuclear quadrupole moments (NQMom) in fm**2, nuclear magnetic moments (NMagM)
  in nuclear magnetons)

  Atom         1           2           3           4           5           6           7           8           9          10
 IAtWgt=          24          12          12          12          12          14          12          12          12          12
 AtmWgt=  23.9850450  12.0000000  12.0000000  12.0000000  12.0000000  14.0030740  12.0000000  12.0000000  12.0000000  12.0000000
 NucSpn=           0           0           0           0           0           2           0           0           0           0
 AtZEff=  -0.0000000  -0.0000000  -0.0000000  -0.0000000  -0.0000000  -0.0000000  -0.0000000  -0.0000000  -0.0000000  -0.0000000
 NQMom=    0.0000000   0.0000000   0.0000000   0.0000000   0.0000000   2.0440000   0.0000000   0.0000000   0.0000000   0.0000000
 NMagM=    0.0000000   0.0000000   0.0000000   0.0000000   0.0000000   0.4037610   0.0000000   0.0000000   0.0000000   0.0000000
 AtZNuc=  12.0000000   6.0000000   6.0000000   6.0000000   6.0000000   7.0000000   6.0000000   6.0000000   6.0000000   6.0000000

  Atom        11          12          13          14          15          16          17          18          19          20
 IAtWgt=          12          12          12          12          16          16          14          12          12          12
 AtmWgt=  12.0000000  12.0000000  12.0000000  12.0000000  15.9949146  15.9949146  14.0030740  12.0000000  12.0000000  12.0000000
 NucSpn=           0           0           0           0           0           0           2           0           0           0
 AtZEff=  -0.0000000  -0.0000000  -0.0000000  -0.0000000  -0.0000000  -0.0000000  -0.0000000  -0.0000000  -0.0000000  -0.0000000
 NQMom=    0.0000000   0.0000000   0.0000000   0.0000000   0.0000000   0.0000000   2.0440000   0.0000000   0.0000000   0.0000000
 NMagM=    0.0000000   0.0000000   0.0000000   0.0000000   0.0000000   0.0000000   0.4037610   0.0000000   0.0000000   0.0000000
 AtZNuc=   6.0000000   6.0000000   6.0000000   6.0000000   8.0000000   8.0000000   7.0000000   6.0000000   6.0000000   6.0000000

  Atom        21          22          23          24          25          26          27          28          29          30
 IAtWgt=          12          12          12          16          12          14          12          12          12          12
 AtmWgt=  12.0000000  12.0000000  12.0000000  15.9949146  12.0000000  14.0030740  12.0000000  12.0000000  12.0000000  12.0000000
 NucSpn=           0           0           0           0           0           2           0           0           0           0
 AtZEff=  -0.0000000  -0.0000000  -0.0000000  -0.0000000  -0.0000000  -0.0000000  -0.0000000  -0.0000000  -0.0000000  -0.0000000
 NQMom=    0.0000000   0.0000000   0.0000000   0.0000000   0.0000000   2.0440000   0.0000000   0.0000000   0.0000000   0.0000000
 NMagM=    0.0000000   0.0000000   0.0000000   0.0000000   0.0000000   0.4037610   0.0000000   0.0000000   0.0000000   0.0000000
 AtZNuc=   6.0000000   6.0000000   6.0000000   8.0000000   6.0000000   7.0000000   6.0000000   6.0000000   6.0000000   6.0000000

  Atom        31          32          33          34          35          36          37          38          39          40
 IAtWgt=          12          12          12          14          12          12          12          12          12          12
 AtmWgt=  12.0000000  12.0000000  12.0000000  14.0030740  12.0000000  12.0000000  12.0000000  12.0000000  12.0000000  12.0000000
 NucSpn=           0           0           0           2           0           0           0           0           0           0
 AtZEff=  -0.0000000  -0.0000000  -0.0000000  -0.0000000  -0.0000000  -0.0000000  -0.0000000  -0.0000000  -0.0000000  -0.0000000
 NQMom=    0.0000000   0.0000000   0.0000000   2.0440000   0.0000000   0.0000000   0.0000000   0.0000000   0.0000000   0.0000000
 NMagM=    0.0000000   0.0000000   0.0000000   0.4037610   0.0000000   0.0000000   0.0000000   0.0000000   0.0000000   0.0000000
 AtZNuc=   6.0000000   6.0000000   6.0000000   7.0000000   6.0000000   6.0000000   6.0000000   6.0000000   6.0000000   6.0000000

  Atom        41          42          43          44          45          46          47          48          49          50
 IAtWgt=          16          12          12          16          16          12          12          12          12          12
 AtmWgt=  15.9949146  12.0000000  12.0000000  15.9949146  15.9949146  12.0000000  12.0000000  12.0000000  12.0000000  12.0000000
 NucSpn=           0           0           0           0           0           0           0           0           0           0
 AtZEff=  -0.0000000  -0.0000000  -0.0000000  -0.0000000  -0.0000000  -0.0000000  -0.0000000  -0.0000000  -0.0000000  -0.0000000
 NQMom=    0.0000000   0.0000000   0.0000000   0.0000000   0.0000000   0.0000000   0.0000000   0.0000000   0.0000000   0.0000000
 NMagM=    0.0000000   0.0000000   0.0000000   0.0000000   0.0000000   0.0000000   0.0000000   0.0000000   0.0000000   0.0000000
 AtZNuc=   8.0000000   6.0000000   6.0000000   8.0000000   8.0000000   6.0000000   6.0000000   6.0000000   6.0000000   6.0000000

  Atom        51          52          53          54          55          56          57          58          59          60
 IAtWgt=          12          12          12          12          12          12          12          12          12          12
 AtmWgt=  12.0000000  12.0000000  12.0000000  12.0000000  12.0000000  12.0000000  12.0000000  12.0000000  12.0000000  12.0000000
 NucSpn=           0           0           0           0           0           0           0           0           0           0
 AtZEff=  -0.0000000  -0.0000000  -0.0000000  -0.0000000  -0.0000000  -0.0000000  -0.0000000  -0.0000000  -0.0000000  -0.0000000
 NQMom=    0.0000000   0.0000000   0.0000000   0.0000000   0.0000000   0.0000000   0.0000000   0.0000000   0.0000000   0.0000000
 NMagM=    0.0000000   0.0000000   0.0000000   0.0000000   0.0000000   0.0000000   0.0000000   0.0000000   0.0000000   0.0000000
 AtZNuc=   6.0000000   6.0000000   6.0000000   6.0000000   6.0000000   6.0000000   6.0000000   6.0000000   6.0000000   6.0000000

  Atom        61          62          63          64          65          66          67          68          69          70
 IAtWgt=          12          12          12          12          12          12           1           1           1           1
 AtmWgt=  12.0000000  12.0000000  12.0000000  12.0000000  12.0000000  12.0000000   1.0078250   1.0078250   1.0078250   1.0078250
 NucSpn=           0           0           0           0           0           0           1           1           1           1
 AtZEff=  -0.0000000  -0.0000000  -0.0000000  -0.0000000  -0.0000000  -0.0000000  -0.0000000  -0.0000000  -0.0000000  -0.0000000
 NQMom=    0.0000000   0.0000000   0.0000000   0.0000000   0.0000000   0.0000000   0.0000000   0.0000000   0.0000000   0.0000000
 NMagM=    0.0000000   0.0000000   0.0000000   0.0000000   0.0000000   0.0000000   2.7928460   2.7928460   2.7928460   2.7928460
 AtZNuc=   6.0000000   6.0000000   6.0000000   6.0000000   6.0000000   6.0000000   1.0000000   1.0000000   1.0000000   1.0000000

  Atom        71          72          73          74          75          76          77          78          79          80
 IAtWgt=           1           1           1           1           1           1           1           1           1           1
 AtmWgt=   1.0078250   1.0078250   1.0078250   1.0078250   1.0078250   1.0078250   1.0078250   1.0078250   1.0078250   1.0078250
 NucSpn=           1           1           1           1           1           1           1           1           1           1
 AtZEff=  -0.0000000  -0.0000000  -0.0000000  -0.0000000  -0.0000000  -0.0000000  -0.0000000  -0.0000000  -0.0000000  -0.0000000
 NQMom=    0.0000000   0.0000000   0.0000000   0.0000000   0.0000000   0.0000000   0.0000000   0.0000000   0.0000000   0.0000000
 NMagM=    2.7928460   2.7928460   2.7928460   2.7928460   2.7928460   2.7928460   2.7928460   2.7928460   2.7928460   2.7928460
 AtZNuc=   1.0000000   1.0000000   1.0000000   1.0000000   1.0000000   1.0000000   1.0000000   1.0000000   1.0000000   1.0000000

  Atom        81          82          83          84          85          86          87          88          89          90
 IAtWgt=           1           1           1           1           1           1           1           1           1           1
 AtmWgt=   1.0078250   1.0078250   1.0078250   1.0078250   1.0078250   1.0078250   1.0078250   1.0078250   1.0078250   1.0078250
 NucSpn=           1           1           1           1           1           1           1           1           1           1
 AtZEff=  -0.0000000  -0.0000000  -0.0000000  -0.0000000  -0.0000000  -0.0000000  -0.0000000  -0.0000000  -0.0000000  -0.0000000
 NQMom=    0.0000000   0.0000000   0.0000000   0.0000000   0.0000000   0.0000000   0.0000000   0.0000000   0.0000000   0.0000000
 NMagM=    2.7928460   2.7928460   2.7928460   2.7928460   2.7928460   2.7928460   2.7928460   2.7928460   2.7928460   2.7928460
 AtZNuc=   1.0000000   1.0000000   1.0000000   1.0000000   1.0000000   1.0000000   1.0000000   1.0000000   1.0000000   1.0000000

  Atom        91          92          93          94          95          96          97          98          99         100
 IAtWgt=           1           1           1           1           1           1           1           1           1           1
 AtmWgt=   1.0078250   1.0078250   1.0078250   1.0078250   1.0078250   1.0078250   1.0078250   1.0078250   1.0078250   1.0078250
 NucSpn=           1           1           1           1           1           1           1           1           1           1
 AtZEff=  -0.0000000  -0.0000000  -0.0000000  -0.0000000  -0.0000000  -0.0000000  -0.0000000  -0.0000000  -0.0000000  -0.0000000
 NQMom=    0.0000000   0.0000000   0.0000000   0.0000000   0.0000000   0.0000000   0.0000000   0.0000000   0.0000000   0.0000000
 NMagM=    2.7928460   2.7928460   2.7928460   2.7928460   2.7928460   2.7928460   2.7928460   2.7928460   2.7928460   2.7928460
 AtZNuc=   1.0000000   1.0000000   1.0000000   1.0000000   1.0000000   1.0000000   1.0000000   1.0000000   1.0000000   1.0000000

  Atom       101         102         103         104         105         106         107         108         109         110
 IAtWgt=           1           1           1           1           1           1           1           1           1           1
 AtmWgt=   1.0078250   1.0078250   1.0078250   1.0078250   1.0078250   1.0078250   1.0078250   1.0078250   1.0078250   1.0078250
 NucSpn=           1           1           1           1           1           1           1           1           1           1
 AtZEff=  -0.0000000  -0.0000000  -0.0000000  -0.0000000  -0.0000000  -0.0000000  -0.0000000  -0.0000000  -0.0000000  -0.0000000
 NQMom=    0.0000000   0.0000000   0.0000000   0.0000000   0.0000000   0.0000000   0.0000000   0.0000000   0.0000000   0.0000000
 NMagM=    2.7928460   2.7928460   2.7928460   2.7928460   2.7928460   2.7928460   2.7928460   2.7928460   2.7928460   2.7928460
 AtZNuc=   1.0000000   1.0000000   1.0000000   1.0000000   1.0000000   1.0000000   1.0000000   1.0000000   1.0000000   1.0000000

  Atom       111         112         113         114         115         116         117         118         119         120
 IAtWgt=           1           1           1           1           1           1           1           1           1           1
 AtmWgt=   1.0078250   1.0078250   1.0078250   1.0078250   1.0078250   1.0078250   1.0078250   1.0078250   1.0078250   1.0078250
 NucSpn=           1           1           1           1           1           1           1           1           1           1
 AtZEff=  -0.0000000  -0.0000000  -0.0000000  -0.0000000  -0.0000000  -0.0000000  -0.0000000  -0.0000000  -0.0000000  -0.0000000
 NQMom=    0.0000000   0.0000000   0.0000000   0.0000000   0.0000000   0.0000000   0.0000000   0.0000000   0.0000000   0.0000000
 NMagM=    2.7928460   2.7928460   2.7928460   2.7928460   2.7928460   2.7928460   2.7928460   2.7928460   2.7928460   2.7928460
 AtZNuc=   1.0000000   1.0000000   1.0000000   1.0000000   1.0000000   1.0000000   1.0000000   1.0000000   1.0000000   1.0000000

  Atom       121         122         123         124         125         126         127         128         129         130
 IAtWgt=           1           1           1           1           1           1           1           1           1           1
 AtmWgt=   1.0078250   1.0078250   1.0078250   1.0078250   1.0078250   1.0078250   1.0078250   1.0078250   1.0078250   1.0078250
 NucSpn=           1           1           1           1           1           1           1           1           1           1
 AtZEff=  -0.0000000  -0.0000000  -0.0000000  -0.0000000  -0.0000000  -0.0000000  -0.0000000  -0.0000000  -0.0000000  -0.0000000
 NQMom=    0.0000000   0.0000000   0.0000000   0.0000000   0.0000000   0.0000000   0.0000000   0.0000000   0.0000000   0.0000000
 NMagM=    2.7928460   2.7928460   2.7928460   2.7928460   2.7928460   2.7928460   2.7928460   2.7928460   2.7928460   2.7928460
 AtZNuc=   1.0000000   1.0000000   1.0000000   1.0000000   1.0000000   1.0000000   1.0000000   1.0000000   1.0000000   1.0000000

  Atom       131         132         133         134         135         136         137         138         139         140
 IAtWgt=           1           1           1           1           1           1           1           1           1           1
 AtmWgt=   1.0078250   1.0078250   1.0078250   1.0078250   1.0078250   1.0078250   1.0078250   1.0078250   1.0078250   1.0078250
 NucSpn=           1           1           1           1           1           1           1           1           1           1
 AtZEff=  -0.0000000  -0.0000000  -0.0000000  -0.0000000  -0.0000000  -0.0000000  -0.0000000  -0.0000000  -0.0000000  -0.0000000
 NQMom=    0.0000000   0.0000000   0.0000000   0.0000000   0.0000000   0.0000000   0.0000000   0.0000000   0.0000000   0.0000000
 NMagM=    2.7928460   2.7928460   2.7928460   2.7928460   2.7928460   2.7928460   2.7928460   2.7928460   2.7928460   2.7928460
 AtZNuc=   1.0000000   1.0000000   1.0000000   1.0000000   1.0000000   1.0000000   1.0000000   1.0000000   1.0000000   1.0000000
 Leave Link  101 at Thu Apr 28 10:17:57 2022, MaxMem= 10066329600 cpu:               3.2 elap:               0.2
 (Enter /sw/apps/gaussian-16.0/g16/l202.exe)
 Stoichiometry    C55H74MgN4O6
 Framework group  C1[X(C55H74MgN4O6)]
 Deg. of freedom   414
 Full point group                 C1      NOp   1
 Largest Abelian subgroup         C1      NOp   1
 Largest concise Abelian subgroup C1      NOp   1
                         Standard orientation:                         
 ---------------------------------------------------------------------
 Center     Atomic      Atomic             Coordinates (Angstroms)
 Number     Number       Type             X           Y           Z
 ---------------------------------------------------------------------
      1         12           0       -3.741863    1.194098    0.529890
      2          6           0       -4.573666   -2.022906   -0.479731
      3          6           0       -2.579250   -0.032480    3.504245
      4          6           0       -2.603891    4.228203    1.184766
      5          6           0       -5.055714    2.387143   -2.621428
      6          7           0       -3.500015   -0.794943    1.410446
      7          6           0       -4.043171   -1.913045    0.833975
      8          6           0       -3.989631   -3.130965    1.822778
      9          6           0       -3.571620   -2.448898    3.120479
     10          6           0       -3.258242   -1.029400    2.704811
     11          6           0       -4.452084   -2.633984    4.367483
     12          6           0       -2.990950   -4.268230    1.348354
     13          6           0       -1.768592   -3.853862    0.469175
     14          6           0       -0.374881   -3.820108    1.085681
     15          8           0       -0.075055   -3.646261    2.239195
     16          8           0        0.520182   -4.057973    0.089261
     17          7           0       -2.695469    2.032132    2.090743
     18          6           0       -2.275420    1.333651    3.202865
     19          6           0       -1.519032    2.247870    4.044207
     20          6           0       -1.292817    3.396141    3.248876
     21          6           0       -2.266511    3.293154    2.135931
     22          6           0       -0.897815    1.921077    5.398611
     23          6           0       -0.397060    4.554971    3.706661
     24          8           0        0.260524    4.452399    4.753572
     25          6           0       -0.343468    5.863186    3.020880
     26          7           0       -3.820577    3.073713   -0.646549
     27          6           0       -3.271700    4.217102   -0.056156
     28          6           0       -3.557129    5.474201   -0.907906
     29          6           0       -4.667293    4.868510   -1.867300
     30          6           0       -4.532852    3.349859   -1.733413
     31          6           0       -4.016249    6.616275    0.034205
     32          6           0       -4.541273    5.349213   -3.354900
     33          6           0       -5.826440    5.553694   -4.307728
     34          7           0       -4.529425    0.398201   -1.275499
     35          6           0       -5.096690    1.021180   -2.407765
     36          6           0       -5.704765   -0.000362   -3.189181
     37          6           0       -5.555234   -1.230389   -2.536682
     38          6           0       -4.775703   -0.940565   -1.415881
     39          6           0       -6.452140    0.181737   -4.461219
     40          6           0       -5.901803   -2.660303   -2.400333
     41          8           0       -6.641678   -3.333649   -3.087849
     42          6           0       -5.129917   -3.238759   -1.148230
     43          6           0       -6.236353   -3.858665   -0.374696
     44          8           0       -7.225573   -3.230297   -0.014091
     45          8           0       -5.948608   -5.215530   -0.229837
     46          6           0       -6.777552   -6.099974    0.611406
     47          6           0        1.920886   -4.318983    0.416639
     48          6           0        2.902994   -3.297676   -0.132783
     49          6           0        3.096339   -3.077648   -1.452916
     50          6           0        2.191473   -3.585985   -2.579703
     51          6           0        4.267114   -2.174126   -1.796412
     52          6           0        3.930526   -0.774403   -2.384111
     53          6           0        5.241355   -0.100025   -2.750805
     54          6           0        5.392480    1.282017   -2.141810
     55          6           0        5.206029    2.502767   -3.065831
     56          6           0        6.697798    1.591047   -1.429497
     57          6           0        7.033619    0.672671   -0.289905
     58          6           0        8.242201   -0.278974   -0.460697
     59          6           0        9.138471   -0.235040    0.855971
     60          6           0        8.581005   -1.023815    2.001873
     61          6           0       10.600463   -0.686560    0.429930
     62          6           0       11.671186    0.361952    0.995710
     63          6           0       12.698912    0.812332   -0.087749
     64          6           0       13.689882   -0.355039   -0.656884
     65          6           0       15.121746   -0.191866   -0.252122
     66          6           0       13.600123   -0.408350   -2.194098
     67          1           0       -2.256117   -0.357231    4.495194
     68          1           0       -2.146038    5.206821    1.342711
     69          1           0       -5.546104    2.716511   -3.540172
     70          1           0       -5.006999   -3.513163    1.901911
     71          1           0       -2.653743   -2.938876    3.444015
     72          1           0       -5.153833   -1.809340    4.489112
     73          1           0       -3.901063   -2.655569    5.308001
     74          1           0       -5.073576   -3.529678    4.343093
     75          1           0       -3.649267   -5.011671    0.897066
     76          1           0       -2.565300   -4.674758    2.264840
     77          1           0       -1.924247   -2.847335    0.080045
     78          1           0       -1.722578   -4.518495   -0.393166
     79          1           0       -1.020411    2.753489    6.091332
     80          1           0        0.140201    1.588128    5.402713
     81          1           0       -1.461321    1.065932    5.772064
     82          1           0       -1.290782    6.402644    3.000259
     83          1           0       -0.157320    5.526424    2.000971
     84          1           0        0.591705    6.276625    3.398307
     85          1           0       -2.672743    5.798845   -1.456488
     86          1           0       -5.646952    5.229684   -1.554688
     87          1           0       -3.118657    7.179183    0.290270
     88          1           0       -4.484388    6.236182    0.942324
     89          1           0       -4.718839    7.235514   -0.523808
     90          1           0       -3.945399    4.490006   -3.662940
     91          1           0       -3.846123    6.187446   -3.406679
     92          1           0       -5.876209    4.735135   -5.026171
     93          1           0       -5.811848    6.514116   -4.823650
     94          1           0       -6.711316    5.498991   -3.673614
     95          1           0       -5.856746    0.090268   -5.369170
     96          1           0       -6.801772    1.213939   -4.484914
     97          1           0       -7.262529   -0.529710   -4.619010
     98          1           0       -4.575374   -4.073800   -1.576265
     99          1           0       -7.010605   -5.698076    1.597577
    100          1           0       -6.224378   -7.039061    0.598814
    101          1           0       -7.780256   -6.162794    0.188460
    102          1           0        2.130014   -5.328393    0.062775
    103          1           0        2.086809   -4.379474    1.492353
    104          1           0        3.537811   -2.746419    0.561298
    105          1           0        1.524757   -4.333902   -2.151224
    106          1           0        2.803983   -3.890094   -3.428676
    107          1           0        1.633573   -2.750477   -3.001076
    108          1           0        4.901465   -2.741228   -2.477787
    109          1           0        4.904298   -1.953990   -0.939746
    110          1           0        3.310450   -0.126746   -1.763841
    111          1           0        3.441476   -0.975166   -3.336916
    112          1           0        5.169005    0.123018   -3.814729
    113          1           0        6.138181   -0.718122   -2.703863
    114          1           0        4.657347    1.277719   -1.336988
    115          1           0        6.081547    2.895809   -3.582726
    116          1           0        4.720872    3.337410   -2.562229
    117          1           0        4.540570    2.169486   -3.862817
    118          1           0        6.674942    2.584996   -0.982748
    119          1           0        7.496982    1.566082   -2.170429
    120          1           0        6.230102    0.027064    0.063341
    121          1           0        7.095638    1.438950    0.482043
    122          1           0        8.766403    0.118060   -1.330111
    123          1           0        7.938511   -1.312346   -0.628231
    124          1           0        9.172243    0.771594    1.271778
    125          1           0        7.942576   -0.505935    2.717724
    126          1           0        9.415589   -1.271252    2.658002
    127          1           0        8.037790   -1.878822    1.600119
    128          1           0       10.574168   -0.836248   -0.649382
    129          1           0       10.808287   -1.617397    0.957365
    130          1           0       12.149460   -0.076829    1.871792
    131          1           0       11.181179    1.279384    1.318180
    132          1           0       13.306517    1.644634    0.268087
    133          1           0       12.257976    1.362346   -0.918606
    134          1           0       13.380003   -1.323685   -0.264831
    135          1           0       15.557980   -1.148664    0.034374
    136          1           0       15.240127    0.603661    0.483261
    137          1           0       15.683752    0.215311   -1.091855
    138          1           0       13.991320    0.464658   -2.716439
    139          1           0       12.565063   -0.598042   -2.477027
    140          1           0       14.128407   -1.327070   -2.449083
 ---------------------------------------------------------------------
 Rotational constants (GHZ):           0.0363435           0.0137036           0.0123290
 Leave Link  202 at Thu Apr 28 10:17:57 2022, MaxMem= 10066329600 cpu:               1.1 elap:               0.1
 (Enter /sw/apps/gaussian-16.0/g16/l301.exe)
 Standard basis: def2SVP (5D, 7F)
 Ernie: Thresh=  0.10000D-02 Tol=  0.10000D-05 Strict=F.
 There are  1364 symmetry adapted cartesian basis functions of A   symmetry.
 There are  1298 symmetry adapted basis functions of A   symmetry.
  1298 basis functions,  2180 primitive gaussians,  1364 cartesian basis functions
   246 alpha electrons      246 beta electrons
       nuclear repulsion energy      9920.0670148842 Hartrees.
 IExCor= 4639 DFT=T Ex+Corr=wB97XD ExCW=0 ScaHFX=  1.000000
 ScaDFX=  1.000000  1.000000  1.000000  1.000000 ScalE2=  1.000000  1.000000
 IRadAn=      5 IRanWt=     -1 IRanGd=            0 ICorTp=0 IEmpDi=121
 HFx  wShort=  0.000000 wLong=  0.200000 cFull=  0.222036 cShort=  0.000000 cLong=  0.777964
 DFx  wShort=  0.000000 wLong=  0.200000 cFull=  0.000000 cShort=  0.000000 cLong=  1.000000
 NAtoms=  140 NActive=  140 NUniq=  140 SFac= 1.00D+00 NAtFMM=   60 NAOKFM=T Big=T
 Integral buffers will be    131072 words long.
 Raffenetti 1 integral format.
 Two-electron integral symmetry is turned on.
 R6Disp:  Grimme-D2 Dispersion energy=       -0.1351108135 Hartrees.
 Nuclear repulsion after empirical dispersion term =     9919.9319040707 Hartrees.
 Leave Link  301 at Thu Apr 28 10:17:57 2022, MaxMem= 10066329600 cpu:               2.1 elap:               0.1
 (Enter /sw/apps/gaussian-16.0/g16/l302.exe)
 NPDir=0 NMtPBC=     1 NCelOv=     1 NCel=       1 NClECP=     1 NCelD=      1
         NCelK=      1 NCelE2=     1 NClLst=     1 CellRange=     0.0.
 One-electron integrals computed using PRISM.
 One-electron integral symmetry used in STVInt
   1 Symmetry operations used in ECPInt.
 ECPInt:  NShTT=  192510 NPrTT=  683786 LenC2=  105546 LenP2D=  226592.
 LDataN:  DoStor=T MaxTD1= 4 Len=   56
 NBasis=  1298 RedAO= T EigKep=  2.90D-04  NBF=  1298
 NBsUse=  1298 1.00D-06 EigRej= -1.00D+00 NBFU=  1298
 Precomputing XC quadrature grid using
 IXCGrd= 4 IRadAn=           5 IRanWt=          -1 IRanGd=           0 AccXCQ= 0.00D+00.
 Generated NRdTot=       0 NPtTot=           0 NUsed=           0 NTot=          32
 NSgBfM=  1051  1042  1044  1050  1051 MxSgAt=   140 MxSgA2=   140.
 Leave Link  302 at Thu Apr 28 10:18:01 2022, MaxMem= 10066329600 cpu:              87.6 elap:               3.7
 (Enter /sw/apps/gaussian-16.0/g16/l303.exe)
 DipDrv:  MaxL=1.
 Leave Link  303 at Thu Apr 28 10:18:01 2022, MaxMem= 10066329600 cpu:               5.9 elap:               0.3
 (Enter /sw/apps/gaussian-16.0/g16/l308.exe)
 Leave Link  308 at Thu Apr 28 10:18:02 2022, MaxMem= 10066329600 cpu:              13.7 elap:               0.7
 (Enter /sw/apps/gaussian-16.0/g16/l401.exe)
 ExpMin= 3.36D-02 ExpMax= 4.95D+03 ExpMxC= 7.45D+02 IAcc=3 IRadAn=         5 AccDes= 0.00D+00
 Harris functional with IExCor= 4639 and IRadAn=       5 diagonalized for initial guess.
 HarFok:  IExCor= 4639 AccDes= 0.00D+00 IRadAn=         5 IDoV= 1 UseB2=F ITyADJ=14
 ICtDFT=  3500011 ScaDFX=  1.000000  1.000000  1.000000  1.000000
 FoFCou: FMM=F IPFlag=           0 FMFlag=      100000 FMFlg1=        2001
         NFxFlg=           0 DoJE=T BraDBF=F KetDBF=T FulRan=T
         wScrn=  0.000000 ICntrl=       500 IOpCl=  0 I1Cent=   200000004 NGrid=           0
         NMat0=    1 NMatS0=      1 NMatT0=    0 NMatD0=    1 NMtDS0=    0 NMtDT0=    0
 Petite list used in FoFCou.
 Harris En= -2878.02199312840    
 JPrj=0 DoOrth=F DoCkMO=F.
 Leave Link  401 at Thu Apr 28 10:18:07 2022, MaxMem= 10066329600 cpu:             139.0 elap:               5.8
 (Enter /sw/apps/gaussian-16.0/g16/l502.exe)
 Integral symmetry usage will be decided dynamically.
 Closed shell SCF:
 Using DIIS extrapolation, IDIIS=  1040.
 NGot= 10066329600 LenX= 10062561258 LenY= 10060699398
 Requested convergence on RMS density matrix=1.00D-08 within 128 cycles.
 Requested convergence on MAX density matrix=1.00D-06.
 Requested convergence on             energy=1.00D-06.
 No special actions if energy rises.
 Fock matrices will be formed incrementally for  20 cycles.

 Cycle   1  Pass 1  IDiag  1:
 FoFJK:  IHMeth= 1 ICntrl=       0 DoSepK=T KAlg= 0 I1Cent=           0 FoldK=F
 IRaf=         1 NMat=       1 IRICut=       1 DoRegI=T DoRafI=F ISym2E= 0 IDoP0=0 IntGTp=1.
 FoFCou: FMM=T IPFlag=           0 FMFlag=      100000 FMFlg1=        2001
         NFxFlg=           0 DoJE=T BraDBF=F KetDBF=F FulRan=T
         wScrn=  0.000000 ICntrl=       500 IOpCl=  0 I1Cent=           0 NGrid=           0
         NMat0=    1 NMatS0=      1 NMatT0=    0 NMatD0=    1 NMtDS0=    0 NMtDT0=    0
 Symmetry not used in FoFCou.
 FMM levels:  10  Number of levels for PrismC:   9
 E= -3007.20193174157    
 DIIS: error= 3.33D-02 at cycle   1 NSaved=   1.
 NSaved= 1 IEnMin= 1 EnMin= -3007.20193174157     IErMin= 1 ErrMin= 3.33D-02
 ErrMax= 3.33D-02  0.00D+00 EMaxC= 1.00D-01 BMatC= 1.49D+00 BMatP= 1.49D+00
 IDIUse=3 WtCom= 6.67D-01 WtEn= 3.33D-01
 Coeff-Com:  0.100D+01
 Coeff-En:   0.100D+01
 Coeff:      0.100D+01
 Gap=     0.157 Goal=   None    Shift=    0.000
 GapD=    0.157 DampG=1.000 DampE=0.500 DampFc=0.5000 IDamp=-1.
 Damping current iteration by 5.00D-01
 RMSDP=1.56D-03 MaxDP=2.13D-01              OVMax= 2.03D-01

 Cycle   2  Pass 1  IDiag  1:
 RMSU=  7.69D-04    CP:  9.86D-01
 E= -3007.52371037924     Delta-E=       -0.321778637672 Rises=F Damp=T
 DIIS: error= 1.37D-02 at cycle   2 NSaved=   2.
 NSaved= 2 IEnMin= 2 EnMin= -3007.52371037924     IErMin= 2 ErrMin= 1.37D-02
 ErrMax= 1.37D-02  0.00D+00 EMaxC= 1.00D-01 BMatC= 2.89D-01 BMatP= 1.49D+00
 IDIUse=3 WtCom= 8.63D-01 WtEn= 1.37D-01
 Coeff-Com: -0.345D+00 0.134D+01
 Coeff-En:   0.000D+00 0.100D+01
 Coeff:     -0.298D+00 0.130D+01
 Gap=     0.184 Goal=   None    Shift=    0.000
 RMSDP=7.11D-04 MaxDP=1.07D-01 DE=-3.22D-01 OVMax= 1.67D-01

 Cycle   3  Pass 1  IDiag  1:
 RMSU=  6.69D-04    CP:  9.77D-01  1.30D+00
 E= -3007.76015240975     Delta-E=       -0.236442030508 Rises=F Damp=F
 DIIS: error= 1.45D-02 at cycle   3 NSaved=   3.
 NSaved= 3 IEnMin= 3 EnMin= -3007.76015240975     IErMin= 2 ErrMin= 1.37D-02
 ErrMax= 1.45D-02  0.00D+00 EMaxC= 1.00D-01 BMatC= 1.38D-01 BMatP= 2.89D-01
 IDIUse=3 WtCom= 8.55D-01 WtEn= 1.45D-01
 Coeff-Com: -0.307D+00 0.681D+00 0.626D+00
 Coeff-En:   0.000D+00 0.000D+00 0.100D+01
 Coeff:     -0.263D+00 0.582D+00 0.681D+00
 Gap=     0.162 Goal=   None    Shift=    0.000
 RMSDP=4.40D-04 MaxDP=4.45D-02 DE=-2.36D-01 OVMax= 1.11D-01

 Cycle   4  Pass 1  IDiag  1:
 RMSU=  2.23D-04    CP:  9.73D-01  1.61D+00  5.64D-01
 E= -3007.86145555956     Delta-E=       -0.101303149810 Rises=F Damp=F
 DIIS: error= 5.64D-03 at cycle   4 NSaved=   4.
 NSaved= 4 IEnMin= 4 EnMin= -3007.86145555956     IErMin= 4 ErrMin= 5.64D-03
 ErrMax= 5.64D-03  0.00D+00 EMaxC= 1.00D-01 BMatC= 2.19D-02 BMatP= 1.38D-01
 IDIUse=3 WtCom= 9.44D-01 WtEn= 5.64D-02
 Coeff-Com: -0.113D+00 0.228D+00 0.376D+00 0.510D+00
 Coeff-En:   0.000D+00 0.000D+00 0.112D+00 0.888D+00
 Coeff:     -0.107D+00 0.215D+00 0.361D+00 0.531D+00
 Gap=     0.160 Goal=   None    Shift=    0.000
 RMSDP=1.43D-04 MaxDP=1.55D-02 DE=-1.01D-01 OVMax= 3.23D-02

 Cycle   5  Pass 1  IDiag  1:
 RMSU=  6.51D-05    CP:  9.73D-01  1.56D+00  7.03D-01  6.42D-01
 E= -3007.87982543771     Delta-E=       -0.018369878153 Rises=F Damp=F
 DIIS: error= 9.23D-04 at cycle   5 NSaved=   5.
 NSaved= 5 IEnMin= 5 EnMin= -3007.87982543771     IErMin= 5 ErrMin= 9.23D-04
 ErrMax= 9.23D-04  0.00D+00 EMaxC= 1.00D-01 BMatC= 4.74D-04 BMatP= 2.19D-02
 IDIUse=3 WtCom= 9.91D-01 WtEn= 9.23D-03
 Coeff-Com: -0.286D-01 0.543D-01 0.122D+00 0.232D+00 0.620D+00
 Coeff-En:   0.000D+00 0.000D+00 0.000D+00 0.000D+00 0.100D+01
 Coeff:     -0.283D-01 0.538D-01 0.121D+00 0.230D+00 0.624D+00
 Gap=     0.159 Goal=   None    Shift=    0.000
 RMSDP=2.78D-05 MaxDP=5.40D-03 DE=-1.84D-02 OVMax= 5.18D-03

 Cycle   6  Pass 1  IDiag  1:
 RMSU=  2.24D-05    CP:  9.73D-01  1.57D+00  7.03D-01  7.02D-01  8.80D-01
 E= -3007.88020513958     Delta-E=       -0.000379701869 Rises=F Damp=F
 DIIS: error= 3.15D-04 at cycle   6 NSaved=   6.
 NSaved= 6 IEnMin= 6 EnMin= -3007.88020513958     IErMin= 6 ErrMin= 3.15D-04
 ErrMax= 3.15D-04  0.00D+00 EMaxC= 1.00D-01 BMatC= 6.87D-05 BMatP= 4.74D-04
 IDIUse=3 WtCom= 9.97D-01 WtEn= 3.15D-03
 Coeff-Com:  0.980D-02-0.211D-01-0.166D-01 0.242D-02 0.286D+00 0.739D+00
 Coeff-En:   0.000D+00 0.000D+00 0.000D+00 0.000D+00 0.000D+00 0.100D+01
 Coeff:      0.977D-02-0.210D-01-0.166D-01 0.242D-02 0.285D+00 0.740D+00
 Gap=     0.160 Goal=   None    Shift=    0.000
 RMSDP=1.24D-05 MaxDP=1.46D-03 DE=-3.80D-04 OVMax= 4.58D-03

 Cycle   7  Pass 1  IDiag  1:
 RMSU=  8.32D-06    CP:  9.73D-01  1.57D+00  7.08D-01  7.16D-01  9.90D-01
                    CP:  9.40D-01
 E= -3007.88028736019     Delta-E=       -0.000082220609 Rises=F Damp=F
 DIIS: error= 1.04D-04 at cycle   7 NSaved=   7.
 NSaved= 7 IEnMin= 7 EnMin= -3007.88028736019     IErMin= 7 ErrMin= 1.04D-04
 ErrMax= 1.04D-04  0.00D+00 EMaxC= 1.00D-01 BMatC= 7.23D-06 BMatP= 6.87D-05
 IDIUse=3 WtCom= 9.99D-01 WtEn= 1.04D-03
 Coeff-Com:  0.644D-02-0.131D-01-0.171D-01-0.216D-01 0.503D-01 0.296D+00
 Coeff-Com:  0.699D+00
 Coeff-En:   0.000D+00 0.000D+00 0.000D+00 0.000D+00 0.000D+00 0.000D+00
 Coeff-En:   0.100D+01
 Coeff:      0.644D-02-0.131D-01-0.171D-01-0.216D-01 0.503D-01 0.296D+00
 Coeff:      0.699D+00
 Gap=     0.160 Goal=   None    Shift=    0.000
 RMSDP=5.17D-06 MaxDP=1.06D-03 DE=-8.22D-05 OVMax= 1.65D-03

 Cycle   8  Pass 1  IDiag  1:
 RMSU=  3.48D-06    CP:  9.73D-01  1.57D+00  7.10D-01  7.21D-01  1.01D+00
                    CP:  1.08D+00  1.05D+00
 E= -3007.88029985593     Delta-E=       -0.000012495741 Rises=F Damp=F
 DIIS: error= 3.87D-05 at cycle   8 NSaved=   8.
 NSaved= 8 IEnMin= 8 EnMin= -3007.88029985593     IErMin= 8 ErrMin= 3.87D-05
 ErrMax= 3.87D-05  0.00D+00 EMaxC= 1.00D-01 BMatC= 1.62D-06 BMatP= 7.23D-06
 IDIUse=1 WtCom= 1.00D+00 WtEn= 0.00D+00
 Coeff-Com:  0.129D-02-0.235D-02-0.514D-02-0.117D-01-0.339D-01-0.315D-02
 Coeff-Com:  0.326D+00 0.729D+00
 Coeff:      0.129D-02-0.235D-02-0.514D-02-0.117D-01-0.339D-01-0.315D-02
 Coeff:      0.326D+00 0.729D+00
 Gap=     0.160 Goal=   None    Shift=    0.000
 RMSDP=2.78D-06 MaxDP=2.16D-04 DE=-1.25D-05 OVMax= 1.53D-03

 Cycle   9  Pass 1  IDiag  1:
 RMSU=  1.65D-06    CP:  9.73D-01  1.57D+00  7.10D-01  7.23D-01  1.03D+00
                    CP:  1.12D+00  1.25D+00  1.19D+00
 E= -3007.88030459483     Delta-E=       -0.000004738904 Rises=F Damp=F
 DIIS: error= 1.70D-05 at cycle   9 NSaved=   9.
 NSaved= 9 IEnMin= 9 EnMin= -3007.88030459483     IErMin= 9 ErrMin= 1.70D-05
 ErrMax= 1.70D-05  0.00D+00 EMaxC= 1.00D-01 BMatC= 3.06D-07 BMatP= 1.62D-06
 IDIUse=1 WtCom= 1.00D+00 WtEn= 0.00D+00
 Coeff-Com: -0.865D-03 0.181D-02 0.185D-02 0.724D-03-0.192D-01-0.560D-01
 Coeff-Com: -0.414D-01 0.222D+00 0.891D+00
 Coeff:     -0.865D-03 0.181D-02 0.185D-02 0.724D-03-0.192D-01-0.560D-01
 Coeff:     -0.414D-01 0.222D+00 0.891D+00
 Gap=     0.160 Goal=   None    Shift=    0.000
 RMSDP=2.03D-06 MaxDP=2.14D-04 DE=-4.74D-06 OVMax= 1.10D-03

 Cycle  10  Pass 1  IDiag  1:
 RMSU=  8.97D-07    CP:  9.73D-01  1.57D+00  7.10D-01  7.24D-01  1.03D+00
                    CP:  1.15D+00  1.36D+00  1.52D+00  1.46D+00
 E= -3007.88030656803     Delta-E=       -0.000001973192 Rises=F Damp=F
 DIIS: error= 1.16D-05 at cycle  10 NSaved=  10.
 NSaved=10 IEnMin=10 EnMin= -3007.88030656803     IErMin=10 ErrMin= 1.16D-05
 ErrMax= 1.16D-05  0.00D+00 EMaxC= 1.00D-01 BMatC= 1.07D-07 BMatP= 3.06D-07
 IDIUse=1 WtCom= 1.00D+00 WtEn= 0.00D+00
 Coeff-Com: -0.777D-03 0.152D-02 0.243D-02 0.416D-02 0.288D-02-0.226D-01
 Coeff-Com: -0.128D+00-0.133D+00 0.352D+00 0.921D+00
 Coeff:     -0.777D-03 0.152D-02 0.243D-02 0.416D-02 0.288D-02-0.226D-01
 Coeff:     -0.128D+00-0.133D+00 0.352D+00 0.921D+00
 Gap=     0.160 Goal=   None    Shift=    0.000
 RMSDP=1.61D-06 MaxDP=1.03D-04 DE=-1.97D-06 OVMax= 9.89D-04

 Cycle  11  Pass 1  IDiag  1:
 RMSU=  5.26D-07    CP:  9.73D-01  1.57D+00  7.11D-01  7.24D-01  1.03D+00
                    CP:  1.16D+00  1.43D+00  1.75D+00  2.01D+00  1.54D+00
 E= -3007.88030759232     Delta-E=       -0.000001024289 Rises=F Damp=F
 DIIS: error= 7.55D-06 at cycle  11 NSaved=  11.
 NSaved=11 IEnMin=11 EnMin= -3007.88030759232     IErMin=11 ErrMin= 7.55D-06
 ErrMax= 7.55D-06  0.00D+00 EMaxC= 1.00D-01 BMatC= 4.73D-08 BMatP= 1.07D-07
 IDIUse=1 WtCom= 1.00D+00 WtEn= 0.00D+00
 Coeff-Com: -0.973D-04 0.160D-03 0.549D-03 0.177D-02 0.689D-02 0.699D-02
 Coeff-Com: -0.478D-01-0.118D+00-0.122D+00 0.422D+00 0.849D+00
 Coeff:     -0.973D-04 0.160D-03 0.549D-03 0.177D-02 0.689D-02 0.699D-02
 Coeff:     -0.478D-01-0.118D+00-0.122D+00 0.422D+00 0.849D+00
 Gap=     0.160 Goal=   None    Shift=    0.000
 RMSDP=1.05D-06 MaxDP=6.56D-05 DE=-1.02D-06 OVMax= 6.23D-04

 Cycle  12  Pass 1  IDiag  1:
 RMSU=  2.92D-07    CP:  9.73D-01  1.57D+00  7.10D-01  7.24D-01  1.03D+00
                    CP:  1.17D+00  1.47D+00  1.90D+00  2.35D+00  2.13D+00
                    CP:  1.43D+00
 E= -3007.88030799959     Delta-E=       -0.000000407279 Rises=F Damp=F
 DIIS: error= 4.96D-06 at cycle  12 NSaved=  12.
 NSaved=12 IEnMin=12 EnMin= -3007.88030799959     IErMin=12 ErrMin= 4.96D-06
 ErrMax= 4.96D-06  0.00D+00 EMaxC= 1.00D-01 BMatC= 1.40D-08 BMatP= 4.73D-08
 IDIUse=1 WtCom= 1.00D+00 WtEn= 0.00D+00
 Coeff-Com:  0.324D-03-0.645D-03-0.940D-03-0.120D-02 0.862D-03 0.133D-01
 Coeff-Com:  0.414D-01 0.296D-01-0.210D+00-0.305D+00 0.267D+00 0.117D+01
 Coeff:      0.324D-03-0.645D-03-0.940D-03-0.120D-02 0.862D-03 0.133D-01
 Coeff:      0.414D-01 0.296D-01-0.210D+00-0.305D+00 0.267D+00 0.117D+01
 Gap=     0.160 Goal=   None    Shift=    0.000
 RMSDP=9.61D-07 MaxDP=6.27D-05 DE=-4.07D-07 OVMax= 6.14D-04

 Cycle  13  Pass 1  IDiag  1:
 RMSU=  1.75D-07    CP:  9.73D-01  1.57D+00  7.11D-01  7.24D-01  1.03D+00
                    CP:  1.17D+00  1.50D+00  2.00D+00  2.66D+00  2.68D+00
                    CP:  2.24D+00  1.60D+00
 E= -3007.88030819730     Delta-E=       -0.000000197706 Rises=F Damp=F
 DIIS: error= 1.58D-06 at cycle  13 NSaved=  13.
 NSaved=13 IEnMin=13 EnMin= -3007.88030819730     IErMin=13 ErrMin= 1.58D-06
 ErrMax= 1.58D-06  0.00D+00 EMaxC= 1.00D-01 BMatC= 5.00D-09 BMatP= 1.40D-08
 IDIUse=1 WtCom= 1.00D+00 WtEn= 0.00D+00
 Coeff-Com:  0.186D-03-0.363D-03-0.618D-03-0.104D-02-0.151D-02 0.442D-02
 Coeff-Com:  0.316D-01 0.483D-01-0.644D-01-0.265D+00-0.131D+00 0.586D+00
 Coeff-Com:  0.794D+00
 Coeff:      0.186D-03-0.363D-03-0.618D-03-0.104D-02-0.151D-02 0.442D-02
 Coeff:      0.316D-01 0.483D-01-0.644D-01-0.265D+00-0.131D+00 0.586D+00
 Coeff:      0.794D+00
 Gap=     0.160 Goal=   None    Shift=    0.000
 RMSDP=4.12D-07 MaxDP=2.68D-05 DE=-1.98D-07 OVMax= 2.56D-04

 Cycle  14  Pass 1  IDiag  1:
 RMSU=  8.37D-08    CP:  9.73D-01  1.57D+00  7.10D-01  7.24D-01  1.03D+00
                    CP:  1.17D+00  1.51D+00  2.04D+00  2.77D+00  2.93D+00
                    CP:  2.59D+00  2.05D+00  1.23D+00
 E= -3007.88030823134     Delta-E=       -0.000000034044 Rises=F Damp=F
 DIIS: error= 1.13D-06 at cycle  14 NSaved=  14.
 NSaved=14 IEnMin=14 EnMin= -3007.88030823134     IErMin=14 ErrMin= 1.13D-06
 ErrMax= 1.13D-06  0.00D+00 EMaxC= 1.00D-01 BMatC= 8.06D-10 BMatP= 5.00D-09
 IDIUse=1 WtCom= 1.00D+00 WtEn= 0.00D+00
 Coeff-Com:  0.167D-05 0.217D-06-0.384D-04-0.137D-03-0.811D-03-0.125D-02
 Coeff-Com:  0.255D-02 0.138D-01 0.234D-01-0.364D-01-0.122D+00 0.248D-02
 Coeff-Com:  0.278D+00 0.841D+00
 Coeff:      0.167D-05 0.217D-06-0.384D-04-0.137D-03-0.811D-03-0.125D-02
 Coeff:      0.255D-02 0.138D-01 0.234D-01-0.364D-01-0.122D+00 0.248D-02
 Coeff:      0.278D+00 0.841D+00
 Gap=     0.160 Goal=   None    Shift=    0.000
 RMSDP=1.40D-07 MaxDP=2.32D-05 DE=-3.40D-08 OVMax= 9.05D-05

 Cycle  15  Pass 1  IDiag  1:
 RMSU=  4.53D-08    CP:  9.73D-01  1.57D+00  7.10D-01  7.24D-01  1.03D+00
                    CP:  1.17D+00  1.51D+00  2.04D+00  2.80D+00  3.00D+00
                    CP:  2.72D+00  2.22D+00  1.53D+00  1.28D+00
 E= -3007.88030823657     Delta-E=       -0.000000005224 Rises=F Damp=F
 DIIS: error= 6.02D-07 at cycle  15 NSaved=  15.
 NSaved=15 IEnMin=15 EnMin= -3007.88030823657     IErMin=15 ErrMin= 6.02D-07
 ErrMax= 6.02D-07  0.00D+00 EMaxC= 1.00D-01 BMatC= 3.25D-10 BMatP= 8.06D-10
 IDIUse=1 WtCom= 1.00D+00 WtEn= 0.00D+00
 Coeff-Com: -0.496D-04 0.985D-04 0.147D-03 0.216D-03 0.590D-06-0.170D-02
 Coeff-Com: -0.764D-02-0.629D-02 0.263D-01 0.533D-01-0.248D-01-0.134D+00
 Coeff-Com: -0.110D+00 0.414D+00 0.791D+00
 Coeff:     -0.496D-04 0.985D-04 0.147D-03 0.216D-03 0.590D-06-0.170D-02
 Coeff:     -0.764D-02-0.629D-02 0.263D-01 0.533D-01-0.248D-01-0.134D+00
 Coeff:     -0.110D+00 0.414D+00 0.791D+00
 Gap=     0.160 Goal=   None    Shift=    0.000
 RMSDP=6.95D-08 MaxDP=3.91D-06 DE=-5.22D-09 OVMax= 4.72D-05

 Cycle  16  Pass 1  IDiag  1:
 RMSU=  3.28D-08    CP:  9.73D-01  1.57D+00  7.10D-01  7.24D-01  1.03D+00
                    CP:  1.17D+00  1.51D+00  2.05D+00  2.81D+00  3.00D+00
                    CP:  2.77D+00  2.30D+00  1.69D+00  1.66D+00  1.32D+00
 E= -3007.88030823835     Delta-E=       -0.000000001779 Rises=F Damp=F
 DIIS: error= 4.28D-07 at cycle  16 NSaved=  16.
 NSaved=16 IEnMin=16 EnMin= -3007.88030823835     IErMin=16 ErrMin= 4.28D-07
 ErrMax= 4.28D-07  0.00D+00 EMaxC= 1.00D-01 BMatC= 8.92D-11 BMatP= 3.25D-10
 IDIUse=1 WtCom= 1.00D+00 WtEn= 0.00D+00
 Coeff-Com: -0.161D-04 0.309D-04 0.547D-04 0.101D-03 0.181D-03-0.164D-03
 Coeff-Com: -0.325D-02-0.482D-02 0.335D-02 0.273D-01 0.147D-01-0.347D-01
 Coeff-Com: -0.124D+00-0.685D-01 0.251D+00 0.938D+00
 Coeff:     -0.161D-04 0.309D-04 0.547D-04 0.101D-03 0.181D-03-0.164D-03
 Coeff:     -0.325D-02-0.482D-02 0.335D-02 0.273D-01 0.147D-01-0.347D-01
 Coeff:     -0.124D+00-0.685D-01 0.251D+00 0.938D+00
 Gap=     0.160 Goal=   None    Shift=    0.000
 RMSDP=4.78D-08 MaxDP=4.86D-06 DE=-1.78D-09 OVMax= 3.17D-05

 Cycle  17  Pass 1  IDiag  1:
 RMSU=  1.31D-08    CP:  9.73D-01  1.57D+00  7.10D-01  7.24D-01  1.03D+00
                    CP:  1.17D+00  1.51D+00  2.05D+00  2.81D+00  3.00D+00
                    CP:  2.80D+00  2.34D+00  1.79D+00  1.93D+00  1.81D+00
                    CP:  1.57D+00
 E= -3007.88030823910     Delta-E=       -0.000000000749 Rises=F Damp=F
 DIIS: error= 2.60D-07 at cycle  17 NSaved=  17.
 NSaved=17 IEnMin=17 EnMin= -3007.88030823910     IErMin=17 ErrMin= 2.60D-07
 ErrMax= 2.60D-07  0.00D+00 EMaxC= 1.00D-01 BMatC= 3.36D-11 BMatP= 8.92D-11
 IDIUse=1 WtCom= 1.00D+00 WtEn= 0.00D+00
 Coeff-Com:  0.159D-04-0.320D-04-0.472D-04-0.599D-04 0.528D-04 0.752D-03
 Coeff-Com:  0.213D-02 0.151D-02-0.112D-01-0.139D-01 0.112D-01 0.600D-01
 Coeff-Com: -0.190D-02-0.192D+00-0.245D+00 0.272D+00 0.112D+01
 Coeff:      0.159D-04-0.320D-04-0.472D-04-0.599D-04 0.528D-04 0.752D-03
 Coeff:      0.213D-02 0.151D-02-0.112D-01-0.139D-01 0.112D-01 0.600D-01
 Coeff:     -0.190D-02-0.192D+00-0.245D+00 0.272D+00 0.112D+01
 Gap=     0.160 Goal=   None    Shift=    0.000
 RMSDP=3.92D-08 MaxDP=2.82D-06 DE=-7.49D-10 OVMax= 2.68D-05

 Cycle  18  Pass 1  IDiag  1:
 RMSU=  1.13D-08    CP:  9.73D-01  1.57D+00  7.10D-01  7.24D-01  1.03D+00
                    CP:  1.17D+00  1.51D+00  2.05D+00  2.81D+00  3.00D+00
                    CP:  2.81D+00  2.36D+00  1.85D+00  2.15D+00  2.25D+00
                    CP:  2.17D+00  1.68D+00
 E= -3007.88030823964     Delta-E=       -0.000000000546 Rises=F Damp=F
 DIIS: error= 1.45D-07 at cycle  18 NSaved=  18.
 NSaved=18 IEnMin=18 EnMin= -3007.88030823964     IErMin=18 ErrMin= 1.45D-07
 ErrMax= 1.45D-07  0.00D+00 EMaxC= 1.00D-01 BMatC= 1.33D-11 BMatP= 3.36D-11
 IDIUse=1 WtCom= 1.00D+00 WtEn= 0.00D+00
 Coeff-Com:  0.134D-04-0.262D-04-0.440D-04-0.666D-04-0.552D-04 0.411D-03
 Coeff-Com:  0.219D-02 0.284D-02-0.651D-02-0.165D-01-0.295D-02 0.446D-01
 Coeff-Com:  0.445D-01-0.617D-01-0.210D+00-0.280D+00 0.517D+00 0.967D+00
 Coeff:      0.134D-04-0.262D-04-0.440D-04-0.666D-04-0.552D-04 0.411D-03
 Coeff:      0.219D-02 0.284D-02-0.651D-02-0.165D-01-0.295D-02 0.446D-01
 Coeff:      0.445D-01-0.617D-01-0.210D+00-0.280D+00 0.517D+00 0.967D+00
 Gap=     0.160 Goal=   None    Shift=    0.000
 RMSDP=2.77D-08 MaxDP=1.84D-06 DE=-5.46D-10 OVMax= 1.86D-05

 Cycle  19  Pass 1  IDiag  1:
 RMSU=  5.10D-09    CP:  9.73D-01  1.57D+00  7.10D-01  7.24D-01  1.03D+00
                    CP:  1.17D+00  1.51D+00  2.05D+00  2.81D+00  3.00D+00
                    CP:  2.82D+00  2.37D+00  1.90D+00  2.29D+00  2.56D+00
                    CP:  2.57D+00  2.42D+00  1.55D+00
 E= -3007.88030823982     Delta-E=       -0.000000000182 Rises=F Damp=F
 DIIS: error= 4.29D-08 at cycle  19 NSaved=  19.
 NSaved=19 IEnMin=19 EnMin= -3007.88030823982     IErMin=19 ErrMin= 4.29D-08
 ErrMax= 4.29D-08  0.00D+00 EMaxC= 1.00D-01 BMatC= 2.78D-12 BMatP= 1.33D-11
 IDIUse=1 WtCom= 1.00D+00 WtEn= 0.00D+00
 Coeff-Com:  0.226D-06-0.222D-06-0.288D-05-0.605D-05-0.399D-04-0.658D-04
 Coeff-Com:  0.152D-03 0.680D-03 0.692D-03-0.216D-02-0.522D-02-0.248D-04
 Coeff-Com:  0.158D-01 0.339D-01-0.104D-02-0.186D+00-0.133D+00 0.375D+00
 Coeff-Com:  0.901D+00
 Coeff:      0.226D-06-0.222D-06-0.288D-05-0.605D-05-0.399D-04-0.658D-04
 Coeff:      0.152D-03 0.680D-03 0.692D-03-0.216D-02-0.522D-02-0.248D-04
 Coeff:      0.158D-01 0.339D-01-0.104D-02-0.186D+00-0.133D+00 0.375D+00
 Coeff:      0.901D+00
 Gap=     0.160 Goal=   None    Shift=    0.000
 RMSDP=1.12D-08 MaxDP=8.40D-07 DE=-1.82D-10 OVMax= 7.55D-06

 Cycle  20  Pass 1  IDiag  1:
 RMSU=  2.44D-09    CP:  9.73D-01  1.57D+00  7.10D-01  7.24D-01  1.03D+00
                    CP:  1.17D+00  1.51D+00  2.05D+00  2.81D+00  3.00D+00
                    CP:  2.82D+00  2.37D+00  1.91D+00  2.34D+00  2.68D+00
                    CP:  2.75D+00  2.72D+00  1.86D+00  1.04D+00
 E= -3007.88030823977     Delta-E=        0.000000000053 Rises=F Damp=F
 DIIS: error= 1.43D-08 at cycle  20 NSaved=  20.
 NSaved=20 IEnMin=19 EnMin= -3007.88030823982     IErMin=20 ErrMin= 1.43D-08
 ErrMax= 1.43D-08  0.00D+00 EMaxC= 1.00D-01 BMatC= 5.68D-13 BMatP= 2.78D-12
 IDIUse=1 WtCom= 1.00D+00 WtEn= 0.00D+00
 Coeff-Com: -0.284D-05 0.566D-05 0.841D-05 0.126D-04-0.676D-05-0.119D-03
 Coeff-Com: -0.432D-03-0.313D-03 0.182D-02 0.281D-02-0.149D-02-0.973D-02
 Coeff-Com: -0.300D-02 0.277D-01 0.467D-01-0.251D-01-0.177D+00-0.391D-01
 Coeff-Com:  0.398D+00 0.780D+00
 Coeff:     -0.284D-05 0.566D-05 0.841D-05 0.126D-04-0.676D-05-0.119D-03
 Coeff:     -0.432D-03-0.313D-03 0.182D-02 0.281D-02-0.149D-02-0.973D-02
 Coeff:     -0.300D-02 0.277D-01 0.467D-01-0.251D-01-0.177D+00-0.391D-01
 Coeff:      0.398D+00 0.780D+00
 Gap=     0.160 Goal=   None    Shift=    0.000
 RMSDP=3.72D-09 MaxDP=2.40D-07 DE= 5.28D-11 OVMax= 2.30D-06

 SCF Done:  E(RwB97XD) =  -3007.88030824     A.U. after   20 cycles
            NFock= 20  Conv=0.37D-08     -V/T= 2.0109
 KE= 2.975581234565D+03 PE=-2.683274758202D+04 EE= 1.092935413515D+04
 Leave Link  502 at Thu Apr 28 10:25:18 2022, MaxMem= 10066329600 cpu:            9900.5 elap:             430.7
 (Enter /sw/apps/gaussian-16.0/g16/l801.exe)
 DoSCS=F DFT=T ScalE2(SS,OS)=  1.000000  1.000000
 ExpMin= 3.36D-02 ExpMax= 4.95D+03 ExpMxC= 7.45D+02 IAcc=3 IRadAn=         5 AccDes= 0.00D+00
 HarFok:  IExCor=  205 AccDes= 0.00D+00 IRadAn=         5 IDoV=-2 UseB2=F ITyADJ=14
 ICtDFT= 12500011 ScaDFX=  1.000000  1.000000  1.000000  1.000000
 GSVD:  LWork=       -5460 too small for GESVD, short by       25550 words or       25550 for optimal perf.
 Largest valence mixing into a core orbital is  1.45D-04
 Largest core mixing into a valence orbital is  5.61D-05
 Range of M.O.s used for correlation:    71  1298
 NBasis=  1298 NAE=   246 NBE=   246 NFC=    70 NFV=     0
 NROrb=   1228 NOA=   176 NOB=   176 NVA=  1052 NVB=  1052
 Leave Link  801 at Thu Apr 28 10:25:18 2022, MaxMem= 10066329600 cpu:               6.1 elap:               0.3
 (Enter /sw/apps/gaussian-16.0/g16/l914.exe)
 RHF ground state
 Two-electron integrals replicated using symmetry.
 MDV= 10066329600 DFT=T DoStab=F Mixed=T DoRPA=T DoScal=F NonHer=T
 Making orbital integer symmetry assigments:
 Orbital symmetries:
       Occupied  (A) (A) (A) (A) (A) (A) (A) (A) (A) (A) (A) (A)
                 (A) (A) (A) (A) (A) (A) (A) (A) (A) (A) (A) (A)
                 (A) (A) (A) (A) (A) (A) (A) (A) (A) (A) (A) (A)
                 (A) (A) (A) (A) (A) (A) (A) (A) (A) (A) (A) (A)
                 (A) (A) (A) (A) (A) (A) (A) (A) (A) (A) (A) (A)
                 (A) (A) (A) (A) (A) (A) (A) (A) (A) (A) (A) (A)
                 (A) (A) (A) (A) (A) (A) (A) (A) (A) (A) (A) (A)
                 (A) (A) (A) (A) (A) (A) (A) (A) (A) (A) (A) (A)
                 (A) (A) (A) (A) (A) (A) (A) (A) (A) (A) (A) (A)
                 (A) (A) (A) (A) (A) (A) (A) (A) (A) (A) (A) (A)
                 (A) (A) (A) (A) (A) (A) (A) (A) (A) (A) (A) (A)
                 (A) (A) (A) (A) (A) (A) (A) (A) (A) (A) (A) (A)
                 (A) (A) (A) (A) (A) (A) (A) (A) (A) (A) (A) (A)
                 (A) (A) (A) (A) (A) (A) (A) (A) (A) (A) (A) (A)
                 (A) (A) (A) (A) (A) (A) (A) (A) (A) (A) (A) (A)
                 (A) (A) (A) (A) (A) (A) (A) (A) (A) (A) (A) (A)
                 (A) (A) (A) (A) (A) (A) (A) (A) (A) (A) (A) (A)
                 (A) (A) (A) (A) (A) (A) (A) (A) (A) (A) (A) (A)
                 (A) (A) (A) (A) (A) (A) (A) (A) (A) (A) (A) (A)
                 (A) (A) (A) (A) (A) (A) (A) (A) (A) (A) (A) (A)
                 (A) (A) (A) (A) (A) (A)
       Virtual   (A) (A) (A) (A) (A) (A) (A) (A) (A) (A) (A) (A)
                 (A) (A) (A) (A) (A) (A) (A) (A) (A) (A) (A) (A)
                 (A) (A) (A) (A) (A) (A) (A) (A) (A) (A) (A) (A)
                 (A) (A) (A) (A) (A) (A) (A) (A) (A) (A) (A) (A)
                 (A) (A) (A) (A) (A) (A) (A) (A) (A) (A) (A) (A)
                 (A) (A) (A) (A) (A) (A) (A) (A) (A) (A) (A) (A)
                 (A) (A) (A) (A) (A) (A) (A) (A) (A) (A) (A) (A)
                 (A) (A) (A) (A) (A) (A) (A) (A) (A) (A) (A) (A)
                 (A) (A) (A) (A) (A) (A) (A) (A) (A) (A) (A) (A)
                 (A) (A) (A) (A) (A) (A) (A) (A) (A) (A) (A) (A)
                 (A) (A) (A) (A) (A) (A) (A) (A) (A) (A) (A) (A)
                 (A) (A) (A) (A) (A) (A) (A) (A) (A) (A) (A) (A)
                 (A) (A) (A) (A) (A) (A) (A) (A) (A) (A) (A) (A)
                 (A) (A) (A) (A) (A) (A) (A) (A) (A) (A) (A) (A)
                 (A) (A) (A) (A) (A) (A) (A) (A) (A) (A) (A) (A)
                 (A) (A) (A) (A) (A) (A) (A) (A) (A) (A) (A) (A)
                 (A) (A) (A) (A) (A) (A) (A) (A) (A) (A) (A) (A)
                 (A) (A) (A) (A) (A) (A) (A) (A) (A) (A) (A) (A)
                 (A) (A) (A) (A) (A) (A) (A) (A) (A) (A) (A) (A)
                 (A) (A) (A) (A) (A) (A) (A) (A) (A) (A) (A) (A)
                 (A) (A) (A) (A) (A) (A) (A) (A) (A) (A) (A) (A)
                 (A) (A) (A) (A) (A) (A) (A) (A) (A) (A) (A) (A)
                 (A) (A) (A) (A) (A) (A) (A) (A) (A) (A) (A) (A)
                 (A) (A) (A) (A) (A) (A) (A) (A) (A) (A) (A) (A)
                 (A) (A) (A) (A) (A) (A) (A) (A) (A) (A) (A) (A)
                 (A) (A) (A) (A) (A) (A) (A) (A) (A) (A) (A) (A)
                 (A) (A) (A) (A) (A) (A) (A) (A) (A) (A) (A) (A)
                 (A) (A) (A) (A) (A) (A) (A) (A) (A) (A) (A) (A)
                 (A) (A) (A) (A) (A) (A) (A) (A) (A) (A) (A) (A)
                 (A) (A) (A) (A) (A) (A) (A) (A) (A) (A) (A) (A)
                 (A) (A) (A) (A) (A) (A) (A) (A) (A) (A) (A) (A)
                 (A) (A) (A) (A) (A) (A) (A) (A) (A) (A) (A) (A)
                 (A) (A) (A) (A) (A) (A) (A) (A) (A) (A) (A) (A)
                 (A) (A) (A) (A) (A) (A) (A) (A) (A) (A) (A) (A)
                 (A) (A) (A) (A) (A) (A) (A) (A) (A) (A) (A) (A)
                 (A) (A) (A) (A) (A) (A) (A) (A) (A) (A) (A) (A)
                 (A) (A) (A) (A) (A) (A) (A) (A) (A) (A) (A) (A)
                 (A) (A) (A) (A) (A) (A) (A) (A) (A) (A) (A) (A)
                 (A) (A) (A) (A) (A) (A) (A) (A) (A) (A) (A) (A)
                 (A) (A) (A) (A) (A) (A) (A) (A) (A) (A) (A) (A)
                 (A) (A) (A) (A) (A) (A) (A) (A) (A) (A) (A) (A)
                 (A) (A) (A) (A) (A) (A) (A) (A) (A) (A) (A) (A)
                 (A) (A) (A) (A) (A) (A) (A) (A) (A) (A) (A) (A)
                 (A) (A) (A) (A) (A) (A) (A) (A) (A) (A) (A) (A)
                 (A) (A) (A) (A) (A) (A) (A) (A) (A) (A) (A) (A)
                 (A) (A) (A) (A) (A) (A) (A) (A) (A) (A) (A) (A)
                 (A) (A) (A) (A) (A) (A) (A) (A) (A) (A) (A) (A)
                 (A) (A) (A) (A) (A) (A) (A) (A) (A) (A) (A) (A)
                 (A) (A) (A) (A) (A) (A) (A) (A) (A) (A) (A) (A)
                 (A) (A) (A) (A) (A) (A) (A) (A) (A) (A) (A) (A)
                 (A) (A) (A) (A) (A) (A) (A) (A) (A) (A) (A) (A)
                 (A) (A) (A) (A) (A) (A) (A) (A) (A) (A) (A) (A)
                 (A) (A) (A) (A) (A) (A) (A) (A) (A) (A) (A) (A)
                 (A) (A) (A) (A) (A) (A) (A) (A) (A) (A) (A) (A)
                 (A) (A) (A) (A) (A) (A) (A) (A) (A) (A) (A) (A)
                 (A) (A) (A) (A) (A) (A) (A) (A) (A) (A) (A) (A)
                 (A) (A) (A) (A) (A) (A) (A) (A) (A) (A) (A) (A)
                 (A) (A) (A) (A) (A) (A) (A) (A) (A) (A) (A) (A)
                 (A) (A) (A) (A) (A) (A) (A) (A) (A) (A) (A) (A)
                 (A) (A) (A) (A) (A) (A) (A) (A) (A) (A) (A) (A)
                 (A) (A) (A) (A) (A) (A) (A) (A) (A) (A) (A) (A)
                 (A) (A) (A) (A) (A) (A) (A) (A) (A) (A) (A) (A)
                 (A) (A) (A) (A) (A) (A) (A) (A) (A) (A) (A) (A)
                 (A) (A) (A) (A) (A) (A) (A) (A) (A) (A) (A) (A)
                 (A) (A) (A) (A) (A) (A) (A) (A) (A) (A) (A) (A)
                 (A) (A) (A) (A) (A) (A) (A) (A) (A) (A) (A) (A)
                 (A) (A) (A) (A) (A) (A) (A) (A) (A) (A) (A) (A)
                 (A) (A) (A) (A) (A) (A) (A) (A) (A) (A) (A) (A)
                 (A) (A) (A) (A) (A) (A) (A) (A) (A) (A) (A) (A)
                 (A) (A) (A) (A) (A) (A) (A) (A) (A) (A) (A) (A)
                 (A) (A) (A) (A) (A) (A) (A) (A) (A) (A) (A) (A)
                 (A) (A) (A) (A) (A) (A) (A) (A) (A) (A) (A) (A)
                 (A) (A) (A) (A) (A) (A) (A) (A) (A) (A) (A) (A)
                 (A) (A) (A) (A) (A) (A) (A) (A) (A) (A) (A) (A)
                 (A) (A) (A) (A) (A) (A) (A) (A) (A) (A) (A) (A)
                 (A) (A) (A) (A) (A) (A) (A) (A) (A) (A) (A) (A)
                 (A) (A) (A) (A) (A) (A) (A) (A) (A) (A) (A) (A)
                 (A) (A) (A) (A) (A) (A) (A) (A) (A) (A) (A) (A)
                 (A) (A) (A) (A) (A) (A) (A) (A) (A) (A) (A) (A)
                 (A) (A) (A) (A) (A) (A) (A) (A) (A) (A) (A) (A)
                 (A) (A) (A) (A) (A) (A) (A) (A) (A) (A) (A) (A)
                 (A) (A) (A) (A) (A) (A) (A) (A) (A) (A) (A) (A)
                 (A) (A) (A) (A) (A) (A) (A) (A) (A) (A) (A) (A)
                 (A) (A) (A) (A) (A) (A) (A) (A) (A) (A) (A) (A)
                 (A) (A) (A) (A) (A) (A) (A) (A) (A) (A) (A) (A)
                 (A) (A) (A) (A) (A) (A) (A) (A) (A) (A) (A) (A)
                 (A) (A) (A) (A) (A) (A) (A) (A) (A) (A) (A) (A)
                 (A) (A) (A) (A) (A) (A) (A) (A)
    20 initial guesses have been made.
 Convergence on wavefunction:    0.001000000000000
 Davidson Disk Diagonalization:  ConvIn= 1.00D-03 SkipCon=T Conv= 1.00D-03.
 Max sub-space:  2000 roots to seek:    20 dimension of matrix:       370304
 Iteration     1 Dimension    20 NMult     0 NNew     20
 CISAX will form    20 AO SS matrices at one time.
 NMat=    20 NSing=    20 JSym2X= 0.
 FoFJK:  IHMeth= 1 ICntrl=       0 DoSepK=T KAlg= 0 I1Cent=           0 FoldK=F
 IRaf=         1 NMat=      40 IRICut=       1 DoRegI=T DoRafI=F ISym2E= 0 IDoP0=3 IntGTp=3.
 FoFCou: FMM=T IPFlag=           0 FMFlag=      100000 FMFlg1=        2001
         NFxFlg=           0 DoJE=F BraDBF=F KetDBF=F FulRan=T
         wScrn=  0.000000 ICntrl=       500 IOpCl=  0 I1Cent=           0 NGrid=           0
         NMat0=   20 NMatS0=     20 NMatT0=    0 NMatD0=   20 NMtDS0=    0 NMtDT0=    0
 Symmetry not used in FoFCou.
 FMM levels:  10  Number of levels for PrismC:   9
 New state      3 was old state      4
 New state      4 was old state      7
 New state      5 was old state      9
 Excitation Energies [eV] at current iteration:
 Root      1 :     2.191085114759976
 Root      2 :     2.629722680498317
 Root      3 :     3.745971019260405
 Root      4 :     4.004671826990231
 Root      5 :     4.221413769543678
 Root      6 :     4.349383825494497
 Root      7 :     4.468328721599277
 Root      8 :     4.503885873526016
 Root      9 :     4.520475149057694
 Root     10 :     4.637017151219633
 Root     11 :     4.708341332982733
 Root     12 :     4.993897756903801
 Root     13 :     5.102445706231096
 Root     14 :     5.187766711518396
 Root     15 :     5.235542515781160
 Root     16 :     5.389449541668063
 Root     17 :     5.608475649645318
 Root     18 :     5.683552240525692
 Root     19 :     5.856089386602928
 Root     20 :     6.247309579398617
 Iteration     2 Dimension    30 NMult    20 NNew     10
 CISAX will form    10 AO SS matrices at one time.
 NMat=    10 NSing=    10 JSym2X= 0.
 Root      1 not converged, maximum delta is    0.078620673787654
 Root      2 not converged, maximum delta is    0.061453494316581
 Root      3 not converged, maximum delta is    0.074112840226742
 Root      4 not converged, maximum delta is    0.208276794056458
 Root      5 not converged, maximum delta is    0.301457059779272
 Excitation Energies [eV] at current iteration:
 Root      1 :     1.701208892938419   Change is   -0.489876221821557
 Root      2 :     2.227681855172017   Change is   -0.402040825326299
 Root      3 :     3.396689040799067   Change is   -0.349281978461338
 Root      4 :     3.504460156001621   Change is   -0.500211670988611
 Root      5 :     3.676283851534824   Change is   -0.545129918008854
 Iteration     3 Dimension    40 NMult    30 NNew     10
 CISAX will form    10 AO SS matrices at one time.
 NMat=    10 NSing=    10 JSym2X= 0.
 Root      1 not converged, maximum delta is    0.016654126820036
 Root      2 not converged, maximum delta is    0.009944144522515
 Root      3 not converged, maximum delta is    0.039112487884557
 Root      4 not converged, maximum delta is    0.068039237222187
 Root      5 not converged, maximum delta is    0.049321732158497
 Excitation Energies [eV] at current iteration:
 Root      1 :     1.665102435888590   Change is   -0.036106457049829
 Root      2 :     2.209871803083108   Change is   -0.017810052088909
 Root      3 :     3.380528053003574   Change is   -0.016160987795493
 Root      4 :     3.458042131180224   Change is   -0.046418024821397
 Root      5 :     3.625578808017712   Change is   -0.050705043517111
 Iteration     4 Dimension    50 NMult    40 NNew     10
 CISAX will form    10 AO SS matrices at one time.
 NMat=    10 NSing=    10 JSym2X= 0.
 Root      1 not converged, maximum delta is    0.003378843355922
 Root      2 not converged, maximum delta is    0.004318190523392
 Root      3 not converged, maximum delta is    0.009719436338213
 Root      4 not converged, maximum delta is    0.037690433396829
 Root      5 not converged, maximum delta is    0.129378817458946
 Excitation Energies [eV] at current iteration:
 Root      1 :     1.661421136587734   Change is   -0.003681299300857
 Root      2 :     2.207186555734207   Change is   -0.002685247348901
 Root      3 :     3.376687700277301   Change is   -0.003840352726272
 Root      4 :     3.445278103417900   Change is   -0.012764027762324
 Root      5 :     3.596937281292883   Change is   -0.028641526724829
 Iteration     5 Dimension    60 NMult    50 NNew     10
 CISAX will form    10 AO SS matrices at one time.
 NMat=    10 NSing=    10 JSym2X= 0.
 Root      1 not converged, maximum delta is    0.001241128041804
 Root      2 has converged.
 Root      3 not converged, maximum delta is    0.011220825196448
 Root      4 not converged, maximum delta is    0.041736183283981
 Root      5 not converged, maximum delta is    0.153099475255770
 Excitation Energies [eV] at current iteration:
 Root      1 :     1.661074165487696   Change is   -0.000346971100038
 Root      2 :     2.206975079635912   Change is   -0.000211476098294
 Root      3 :     3.375731813533448   Change is   -0.000955886743854
 Root      4 :     3.439589611492560   Change is   -0.005688491925340
 Root      5 :     3.569629211901721   Change is   -0.027308069391162
 Iteration     6 Dimension    68 NMult    60 NNew      8
 CISAX will form     8 AO SS matrices at one time.
 NMat=     8 NSing=     8 JSym2X= 0.
 Root      1 has converged.
 Root      2 has converged.
 Root      3 not converged, maximum delta is    0.007176355169736
 Root      4 not converged, maximum delta is    0.020990999939375
 Root      5 not converged, maximum delta is    0.060266404472643
 Excitation Energies [eV] at current iteration:
 Root      1 :     1.661039927825861   Change is   -0.000034237661835
 Root      2 :     2.206969072949207   Change is   -0.000006006686705
 Root      3 :     3.375364457333923   Change is   -0.000367356199524
 Root      4 :     3.437143058990737   Change is   -0.002446552501823
 Root      5 :     3.557537143532314   Change is   -0.012092068369407
 Iteration     7 Dimension    74 NMult    68 NNew      6
 CISAX will form     6 AO SS matrices at one time.
 NMat=     6 NSing=     6 JSym2X= 0.
 Root      1 has converged.
 Root      2 has converged.
 Root      3 not converged, maximum delta is    0.002887998493774
 Root      4 not converged, maximum delta is    0.007461242680602
 Root      5 not converged, maximum delta is    0.028309627122462
 Excitation Energies [eV] at current iteration:
 Root      1 :     1.661039822706105   Change is   -0.000000105119756
 Root      2 :     2.206968048985293   Change is   -0.000001023963914
 Root      3 :     3.375278831761622   Change is   -0.000085625572301
 Root      4 :     3.436555394108591   Change is   -0.000587664882146
 Root      5 :     3.553839922692838   Change is   -0.003697220839476
 Iteration     8 Dimension    80 NMult    74 NNew      6
 CISAX will form     6 AO SS matrices at one time.
 NMat=     6 NSing=     6 JSym2X= 0.
 Root      1 has converged.
 Root      2 has converged.
 Root      3 has converged.
 Root      4 not converged, maximum delta is    0.001744484062304
 Root      5 not converged, maximum delta is    0.008660976359790
 Excitation Energies [eV] at current iteration:
 Root      1 :     1.661039732624514   Change is   -0.000000090081591
 Root      2 :     2.206967928305405   Change is   -0.000000120679888
 Root      3 :     3.375267723535871   Change is   -0.000011108225751
 Root      4 :     3.436481359740431   Change is   -0.000074034368160
 Root      5 :     3.553246571548252   Change is   -0.000593351144586
 Iteration     9 Dimension    84 NMult    80 NNew      4
 CISAX will form     4 AO SS matrices at one time.
 NMat=     4 NSing=     4 JSym2X= 0.
 Root      1 has converged.
 Root      2 has converged.
 Root      3 has converged.
 Root      4 has converged.
 Root      5 not converged, maximum delta is    0.002004276252928
 Excitation Energies [eV] at current iteration:
 Root      1 :     1.661039489587971   Change is   -0.000000243036543
 Root      2 :     2.206967814362677   Change is   -0.000000113942728
 Root      3 :     3.375266813445323   Change is   -0.000000910090548
 Root      4 :     3.436473018371426   Change is   -0.000008341369005
 Root      5 :     3.553165747809651   Change is   -0.000080823738600
 Iteration    10 Dimension    86 NMult    84 NNew      2
 CISAX will form     2 AO SS matrices at one time.
 NMat=     2 NSing=     2 JSym2X= 0.
 Root      1 has converged.
 Root      2 has converged.
 Root      3 has converged.
 Root      4 has converged.
 Root      5 has converged.
 Excitation Energies [eV] at current iteration:
 Root      1 :     1.661039480061134   Change is   -0.000000009526838
 Root      2 :     2.206967753400201   Change is   -0.000000060962475
 Root      3 :     3.375266717138561   Change is   -0.000000096306762
 Root      4 :     3.436472298582717   Change is   -0.000000719788709
 Root      5 :     3.553153858912617   Change is   -0.000011888897034
 Convergence achieved on expansion vectors.
 ***********************************************************************
 Excited states from <AA,BB:AA,BB> singles matrix:
 ***********************************************************************
 
 1PDM for each excited state written to RWF  633
 Ground to excited state transition densities written to RWF  633
 Ground to excited state transition electric dipole moments (Au):
       state          X           Y           Z        Dip. S.      Osc.
         1         1.4165      0.8385      2.3408      8.1888      0.3332
         2        -0.0560     -1.0185      0.3028      1.1322      0.0612
         3        -0.0526     -0.6575      0.0150      0.4353      0.0360
         4         0.0505      2.1650     -0.3244      4.7951      0.4037
         5         0.2526      1.9954     -0.2527      4.1092      0.3577
 Ground to excited state transition velocity dipole moments (Au):
       state          X           Y           Z        Dip. S.      Osc.
         1        -0.0831     -0.0501     -0.1378      0.0284      0.3102
         2         0.0049      0.0782     -0.0226      0.0067      0.0547
         3         0.0073      0.0766      0.0016      0.0059      0.0319
         4        -0.0088     -0.2672      0.0412      0.0732      0.3862
         5        -0.0301     -0.2533      0.0292      0.0659      0.3364
 Ground to excited state transition magnetic dipole moments (Au):
       state          X           Y           Z
         1        -0.3364     -1.0874      0.5964
         2        -0.5834     -0.0520     -0.3752
         3        -0.8075      0.1831     -0.3822
         4        -0.2900      0.3384      1.9777
         5         0.4918     -0.0094      2.3639
 Ground to excited state transition velocity quadrupole moments (Au):
[...]
 Alpha virt. eigenvalues --    1.27350   1.27775   1.28157   1.28251   1.28663
 Alpha virt. eigenvalues --    1.29335   1.29562   1.30391   1.30772   1.31312
 Alpha virt. eigenvalues --    1.32170   1.32436   1.32840   1.33197   1.33404
 Alpha virt. eigenvalues --    1.34001   1.34534   1.35137   1.35244   1.35719
 Alpha virt. eigenvalues --    1.36003   1.36172   1.36566   1.37291   1.38294
 Alpha virt. eigenvalues --    1.38536   1.38956   1.39269   1.39882   1.40122
 Alpha virt. eigenvalues --    1.40627   1.40898   1.42197   1.42628   1.42744
 Alpha virt. eigenvalues --    1.42986   1.43051   1.43412   1.43845   1.44542
 Alpha virt. eigenvalues --    1.44741   1.44880   1.45301   1.45882   1.45922
 Alpha virt. eigenvalues --    1.46449   1.46765   1.46991   1.47193   1.48011
 Alpha virt. eigenvalues --    1.48384   1.48705   1.48948   1.49433   1.49814
 Alpha virt. eigenvalues --    1.50023   1.50185   1.50369   1.51158   1.51530
 Alpha virt. eigenvalues --    1.51755   1.52315   1.52808   1.52865   1.53486
 Alpha virt. eigenvalues --    1.53672   1.54381   1.54506   1.55028   1.55768
 Alpha virt. eigenvalues --    1.56220   1.57663   1.57786   1.58267   1.58398
 Alpha virt. eigenvalues --    1.58506   1.58983   1.59292   1.59585   1.60205
 Alpha virt. eigenvalues --    1.60347   1.61207   1.61411   1.61721   1.61963
 Alpha virt. eigenvalues --    1.62062   1.62797   1.63172   1.63214   1.63378
 Alpha virt. eigenvalues --    1.63570   1.63707   1.63893   1.64241   1.64326
 Alpha virt. eigenvalues --    1.64493   1.64940   1.65042   1.65548   1.65655
 Alpha virt. eigenvalues --    1.65873   1.66248   1.66265   1.66418   1.67142
 Alpha virt. eigenvalues --    1.67689   1.67755   1.67869   1.68334   1.68869
 Alpha virt. eigenvalues --    1.69718   1.70227   1.70337   1.70727   1.71274
 Alpha virt. eigenvalues --    1.71444   1.72125   1.72844   1.73326   1.73373
 Alpha virt. eigenvalues --    1.74390   1.74771   1.75073   1.75303   1.75642
 Alpha virt. eigenvalues --    1.75938   1.76087   1.76873   1.77348   1.77462
 Alpha virt. eigenvalues --    1.77751   1.77860   1.78266   1.78740   1.78799
 Alpha virt. eigenvalues --    1.79371   1.79503   1.79808   1.80329   1.80525
 Alpha virt. eigenvalues --    1.80697   1.81215   1.81382   1.81430   1.81722
 Alpha virt. eigenvalues --    1.82141   1.82161   1.82349   1.82524   1.82557
 Alpha virt. eigenvalues --    1.83174   1.83260   1.83366   1.83423   1.83804
 Alpha virt. eigenvalues --    1.84165   1.84282   1.84784   1.84812   1.84977
 Alpha virt. eigenvalues --    1.85335   1.85458   1.85943   1.86096   1.86264
 Alpha virt. eigenvalues --    1.86318   1.86523   1.86641   1.86735   1.86934
 Alpha virt. eigenvalues --    1.87036   1.87315   1.87518   1.87627   1.88165
 Alpha virt. eigenvalues --    1.88303   1.88374   1.88861   1.89059   1.89351
 Alpha virt. eigenvalues --    1.89408   1.89443   1.89700   1.90052   1.90132
 Alpha virt. eigenvalues --    1.90456   1.90610   1.90772   1.91044   1.91165
 Alpha virt. eigenvalues --    1.91290   1.91547   1.91783   1.91811   1.91857
 Alpha virt. eigenvalues --    1.92003   1.92665   1.92923   1.93065   1.93245
 Alpha virt. eigenvalues --    1.93404   1.93627   1.93964   1.94094   1.94555
 Alpha virt. eigenvalues --    1.94651   1.94820   1.94979   1.95150   1.95510
 Alpha virt. eigenvalues --    1.95837   1.96003   1.96379   1.96573   1.96677
 Alpha virt. eigenvalues --    1.96939   1.97073   1.97150   1.97799   1.98208
 Alpha virt. eigenvalues --    1.98547   1.98812   1.98958   1.99204   1.99416
 Alpha virt. eigenvalues --    1.99471   1.99851   2.00059   2.00298   2.00396
 Alpha virt. eigenvalues --    2.00561   2.00775   2.00875   2.01411   2.01712
 Alpha virt. eigenvalues --    2.02025   2.02270   2.02417   2.02754   2.02789
 Alpha virt. eigenvalues --    2.03164   2.03180   2.03654   2.04278   2.04418
 Alpha virt. eigenvalues --    2.04646   2.04799   2.04894   2.05325   2.05674
 Alpha virt. eigenvalues --    2.06190   2.06619   2.07215   2.07516   2.07713
 Alpha virt. eigenvalues --    2.08027   2.08220   2.08442   2.08780   2.09018
 Alpha virt. eigenvalues --    2.09171   2.09529   2.09842   2.10222   2.10428
 Alpha virt. eigenvalues --    2.10634   2.10819   2.10991   2.11626   2.11711
 Alpha virt. eigenvalues --    2.11850   2.11892   2.12944   2.13391   2.13611
 Alpha virt. eigenvalues --    2.13711   2.14135   2.14365   2.14757   2.14876
 Alpha virt. eigenvalues --    2.15161   2.15661   2.16061   2.16230   2.16410
 Alpha virt. eigenvalues --    2.16517   2.16726   2.17312   2.17550   2.17796
 Alpha virt. eigenvalues --    2.18203   2.18426   2.18803   2.18996   2.19177
 Alpha virt. eigenvalues --    2.19452   2.19511   2.19967   2.20165   2.20701
 Alpha virt. eigenvalues --    2.21206   2.21310   2.21456   2.21745   2.22016
 Alpha virt. eigenvalues --    2.22195   2.22556   2.22884   2.23045   2.23898
 Alpha virt. eigenvalues --    2.24367   2.25363   2.25858   2.25913   2.26456
 Alpha virt. eigenvalues --    2.26598   2.27254   2.27601   2.27700   2.28135
 Alpha virt. eigenvalues --    2.28213   2.28536   2.29158   2.29369   2.29700
 Alpha virt. eigenvalues --    2.30536   2.31734   2.31891   2.32346   2.32796
 Alpha virt. eigenvalues --    2.32942   2.33495   2.33877   2.34587   2.35467
 Alpha virt. eigenvalues --    2.35851   2.36001   2.36157   2.36324   2.37047
 Alpha virt. eigenvalues --    2.37368   2.37811   2.38456   2.38807   2.39256
 Alpha virt. eigenvalues --    2.39604   2.39973   2.40504   2.40521   2.41045
 Alpha virt. eigenvalues --    2.41133   2.41587   2.41673   2.41786   2.42075
 Alpha virt. eigenvalues --    2.42733   2.43231   2.43370   2.43908   2.44380
 Alpha virt. eigenvalues --    2.44563   2.44647   2.44933   2.45030   2.45460
 Alpha virt. eigenvalues --    2.45765   2.45983   2.46576   2.46761   2.47208
 Alpha virt. eigenvalues --    2.47531   2.47942   2.48148   2.49086   2.49477
 Alpha virt. eigenvalues --    2.49554   2.50018   2.50311   2.50924   2.50972
 Alpha virt. eigenvalues --    2.51492   2.52127   2.52181   2.52643   2.53019
 Alpha virt. eigenvalues --    2.53160   2.53417   2.53976   2.54457   2.54795
 Alpha virt. eigenvalues --    2.55082   2.55548   2.56238   2.56568   2.57325
 Alpha virt. eigenvalues --    2.57520   2.57725   2.58549   2.58795   2.58992
 Alpha virt. eigenvalues --    2.59356   2.59554   2.60544   2.60826   2.61833
 Alpha virt. eigenvalues --    2.61926   2.62210   2.62635   2.63047   2.63980
 Alpha virt. eigenvalues --    2.64079   2.64403   2.64574   2.64666   2.65097
 Alpha virt. eigenvalues --    2.65262   2.65496   2.66367   2.66987   2.67184
 Alpha virt. eigenvalues --    2.67359   2.67466   2.67702   2.68868   2.69072
 Alpha virt. eigenvalues --    2.69521   2.70185   2.70339   2.70428   2.70884
 Alpha virt. eigenvalues --    2.71555   2.71765   2.72582   2.72613   2.73108
 Alpha virt. eigenvalues --    2.73671   2.74077   2.74148   2.74433   2.75000
 Alpha virt. eigenvalues --    2.76043   2.76188   2.76586   2.76930   2.77805
 Alpha virt. eigenvalues --    2.78121   2.78315   2.78865   2.79058   2.79784
 Alpha virt. eigenvalues --    2.80238   2.80579   2.80729   2.81082   2.81514
 Alpha virt. eigenvalues --    2.82124   2.82535   2.82826   2.83173   2.83210
 Alpha virt. eigenvalues --    2.83610   2.83986   2.84206   2.84643   2.84814
 Alpha virt. eigenvalues --    2.85192   2.85347   2.86014   2.86369   2.87612
 Alpha virt. eigenvalues --    2.88410   2.89827   2.90305   2.91138   2.91227
 Alpha virt. eigenvalues --    2.91672   2.92094   2.92233   2.92344   2.93312
 Alpha virt. eigenvalues --    2.93799   2.93822   2.94898   2.95204   2.95942
 Alpha virt. eigenvalues --    2.96229   2.96782   2.96966   2.97365   2.98086
 Alpha virt. eigenvalues --    2.98273   2.98626   2.98883   2.99283   2.99585
 Alpha virt. eigenvalues --    2.99654   3.00665   3.00745   3.01326   3.01519
 Alpha virt. eigenvalues --    3.02190   3.02350   3.02525   3.02704   3.03234
 Alpha virt. eigenvalues --    3.03302   3.03655   3.03782   3.04240   3.04400
 Alpha virt. eigenvalues --    3.04745   3.04867   3.05072   3.05144   3.05430
 Alpha virt. eigenvalues --    3.05687   3.05888   3.06075   3.06716   3.06973
 Alpha virt. eigenvalues --    3.07421   3.07930   3.08232   3.08560   3.08808
 Alpha virt. eigenvalues --    3.08943   3.09665   3.09780   3.10055   3.10126
 Alpha virt. eigenvalues --    3.10194   3.10442   3.10964   3.11185   3.11375
 Alpha virt. eigenvalues --    3.11436   3.11548   3.11697   3.12466   3.13547
 Alpha virt. eigenvalues --    3.13891   3.14160   3.14610   3.15505   3.15640
 Alpha virt. eigenvalues --    3.16582   3.16661   3.17904   3.18363   3.18790
 Alpha virt. eigenvalues --    3.19558   3.19761   3.22035   3.22627   3.23864
 Alpha virt. eigenvalues --    3.24086   3.25104   3.25838   3.26732   3.27014
 Alpha virt. eigenvalues --    3.27245   3.27787   3.28989   3.30638   3.31201
 Alpha virt. eigenvalues --    3.33561   3.34699   3.43757   3.45619   3.48303
 Alpha virt. eigenvalues --    3.50396   3.50489   3.51546   3.56454   3.57658
 Alpha virt. eigenvalues --    3.63661   3.67844   3.69468   3.70254   3.74446
 Alpha virt. eigenvalues --    3.75259   3.77381
          Condensed to atoms (all electrons):
 Mulliken charges:
               1
     1  Mg   0.948135
     2  C    0.016395
     3  C   -0.077840
     4  C   -0.081597
     5  C   -0.085388
     6  N   -0.340744
     7  C   -0.026921
     8  C   -0.084466
     9  C   -0.054218
    10  C    0.066923
    11  C    0.009533
    12  C    0.039654
    13  C   -0.036308
    14  C    0.207456
    15  O   -0.242668
    16  O   -0.364878
    17  N   -0.460435
    18  C    0.161611
    19  C   -0.172199
    20  C   -0.072988
    21  C    0.206174
    22  C    0.095932
    23  C    0.017852
    24  O   -0.256305
    25  C    0.018454
    26  N   -0.331326
    27  C    0.029747
    28  C   -0.103316
    29  C   -0.070727
    30  C    0.074733
    31  C    0.019452
    32  C   -0.064757
    33  C   -0.040121
    34  N   -0.452573
    35  C    0.157057
    36  C   -0.207771
    37  C    0.001047
    38  C    0.112525
    39  C    0.072966
    40  C    0.097259
    41  O   -0.198687
    42  C   -0.060212
    43  C    0.254157
    44  O   -0.240767
    45  O   -0.390004
    46  C    0.141446
    47  C    0.243280
    48  C   -0.159356
    49  C   -0.168900
    50  C    0.059254
    51  C   -0.012692
    52  C   -0.014542
    53  C    0.042444
    54  C   -0.197260
    55  C    0.020106
    56  C   -0.004877
    57  C   -0.016505
    58  C    0.003062
    59  C   -0.204957
    60  C    0.012579
    61  C    0.021315
    62  C   -0.027679
    63  C    0.002089
    64  C   -0.224130
    65  C    0.020817
    66  C   -0.014351
    67  H    0.005236
    68  H   -0.047903
    69  H   -0.019221
    70  H    0.038928
    71  H    0.053515
    72  H    0.032203
    73  H    0.040657
    74  H    0.035832
    75  H    0.041406
    76  H    0.037033
    77  H    0.086342
    78  H    0.058962
    79  H    0.061145
    80  H    0.065619
    81  H    0.011532
    82  H    0.084228
    83  H    0.041435
    84  H    0.061969
    85  H    0.048290
    86  H    0.035777
    87  H    0.042629
    88  H    0.049242
    89  H    0.042402
    90  H    0.027276
    91  H    0.029726
    92  H    0.051223
    93  H    0.048093
    94  H    0.036252
    95  H    0.044274
    96  H    0.019522
    97  H    0.058896
    98  H    0.067517
    99  H    0.049358
   100  H    0.072205
   101  H    0.059776
   102  H    0.047882
   103  H    0.046016
   104  H    0.028145
   105  H    0.054010
   106  H    0.028905
   107  H    0.051581
   108  H    0.029900
   109  H    0.015068
   110  H    0.038124
   111  H    0.017349
   112  H    0.000504
   113  H    0.017443
   114  H    0.011292
   115  H    0.029389
   116  H    0.031024
   117  H    0.008083
   118  H    0.016214
   119  H    0.007142
   120  H    0.009296
   121  H    0.010529
   122  H    0.017816
   123  H    0.027385
   124  H    0.018914
   125  H    0.026710
   126  H    0.019644
   127  H    0.024434
   128  H    0.027743
   129  H    0.014920
   130  H    0.028269
   131  H    0.025833
   132  H   -0.000903
   133  H    0.006635
   134  H    0.025124
   135  H    0.035964
   136  H    0.021777
   137  H    0.011982
   138  H    0.040488
   139  H    0.023312
   140  H    0.023690
 Sum of Mulliken charges =  -0.00000
 Mulliken charges with hydrogens summed into heavy atoms:
               1
     1  Mg   0.948135
     2  C    0.016395
     3  C   -0.072604
     4  C   -0.129500
     5  C   -0.104609
     6  N   -0.340744
     7  C   -0.026921
     8  C   -0.045538
     9  C   -0.000703
    10  C    0.066923
    11  C    0.118226
    12  C    0.118093
    13  C    0.108996
    14  C    0.207456
    15  O   -0.242668
    16  O   -0.364878
    17  N   -0.460435
    18  C    0.161611
    19  C   -0.172199
    20  C   -0.072988
    21  C    0.206174
    22  C    0.234228
    23  C    0.017852
    24  O   -0.256305
    25  C    0.206087
    26  N   -0.331326
    27  C    0.029747
    28  C   -0.055026
    29  C   -0.034950
    30  C    0.074733
    31  C    0.153726
    32  C   -0.007754
    33  C    0.095447
    34  N   -0.452573
    35  C    0.157057
    36  C   -0.207771
    37  C    0.001047
    38  C    0.112525
    39  C    0.195659
    40  C    0.097259
    41  O   -0.198687
    42  C    0.007305
    43  C    0.254157
    44  O   -0.240767
    45  O   -0.390004
    46  C    0.322785
    47  C    0.337177
    48  C   -0.131210
    49  C   -0.168900
    50  C    0.193750
    51  C    0.032276
    52  C    0.040931
    53  C    0.060390
    54  C   -0.185968
    55  C    0.088601
    56  C    0.018480
    57  C    0.003320
    58  C    0.048263
    59  C   -0.186043
    60  C    0.083366
    61  C    0.063978
    62  C    0.026424
    63  C    0.007821
    64  C   -0.199006
    65  C    0.090540
    66  C    0.073140
 Electronic spatial extent (au):  <R**2>=          92473.2816
 Charge=             -0.0000 electrons
 Dipole moment (field-independent basis, Debye):
    X=              1.0150    Y=              1.3083    Z=             -0.5265  Tot=              1.7376
 Quadrupole moment (field-independent basis, Debye-Ang):
   XX=           -423.0081   YY=           -362.4711   ZZ=           -410.8218
   XY=            -17.7195   XZ=            -24.6821   YZ=            -29.2758
 Traceless Quadrupole moment (field-independent basis, Debye-Ang):
   XX=            -24.2411   YY=             36.2959   ZZ=            -12.0548
   XY=            -17.7195   XZ=            -24.6821   YZ=            -29.2758
 Octapole moment (field-independent basis, Debye-Ang**2):
  XXX=            110.2540  YYY=            -82.0342  ZZZ=            -48.7456  XYY=           -195.5070
  XXY=             78.7692  XXZ=            143.0227  XZZ=            -56.3685  YZZ=            -59.3212
  YYZ=            -13.6494  XYZ=            139.2537
 Hexadecapole moment (field-independent basis, Debye-Ang**3):
 XXXX=         -92996.0051 YYYY=         -22133.6981 ZZZZ=         -13864.9508 XXXY=           -333.3083
 XXXZ=           -641.5894 YYYX=            607.3277 YYYZ=           -598.0730 ZZZX=            -87.7877
 ZZZY=           -593.7794 XXYY=         -17676.3472 XXZZ=         -17099.4820 YYZZ=          -6712.8473
 XXYZ=          -1016.1500 YYXZ=           -415.4075 ZZXY=           -234.7579
 N-N= 9.919931904071D+03 E-N=-2.683274758942D+04  KE= 2.975581234565D+03
 Leave Link  601 at Thu Apr 28 10:45:40 2022, MaxMem= 10066329600 cpu:              10.0 elap:               0.5
 (Enter /sw/apps/gaussian-16.0/g16/l9999.exe)
 1\1\GINC-BP1-COMPUTE155\SP\RwB97XD TD-FC\def2SVP\C55H74Mg1N4O6\OF15641
 \28-Apr-2022\0\\#p wB97XD/Def2SVP td=(nstates=5)\\step_151_chromophore
 _26 TDDFT with wB97XD functional\\0,1\Mg,0,-9.638,18.532,42.886\C,0,-6
 .202,18.07,43.088\C,0,-9.173,21.907,42.576\C,0,-12.876,18.788,42.27\C,
 0,-10.015,14.957,43.283\N,0,-7.906,19.863,42.749\C,0,-6.632,19.421,42.
 992\C,0,-5.641,20.63,43.134\C,0,-6.607,21.808,43.19\C,0,-7.955,21.192,
 42.891\C,0,-6.528,22.77,44.387\C,0,-4.597,20.716,41.943\C,0,-5.018,20.
 142,40.553\C,0,-5.373,21.098,39.42\O,0,-5.801,22.221,39.5\O,0,-5.09,20
 .468,38.248\N,0,-10.898,20.096,42.439\C,0,-10.489,21.407,42.316\C,0,-1
 1.646,22.201,41.933\C,0,-12.647,21.266,41.578\C,0,-12.195,19.978,42.15
 6\C,0,-11.673,23.712,41.725\C,0,-13.991,21.686,40.968\O,0,-14.184,22.8
 7,40.652\C,0,-15.142,20.77,40.824\N,0,-11.233,16.994,42.769\C,0,-12.53
 5,17.445,42.527\C,0,-13.555,16.291,42.65\C,0,-12.623,15.22,43.36\C,0,-
 11.193,15.719,43.14\C,0,-14.771,16.791,43.471\C,0,-12.832,13.758,42.83
 2\C,0,-12.662,12.465,43.781\N,0,-8.412,16.802,43.017\C,0,-8.722,15.448
 ,43.267\C,0,-7.494,14.775,43.518\C,0,-6.443,15.699,43.466\C,0,-7.049,1
 6.899,43.091\C,0,-7.323,13.338,43.858\C,0,-5.028,16.047,43.711\O,0,-4.
 136,15.348,44.146\C,0,-4.814,17.56,43.307\C,0,-4.191,18.113,44.537\O,0
 ,-4.721,18.036,45.64\O,0,-2.943,18.629,44.189\C,0,-2.117,19.381,45.153
 \C,0,-5.106,21.221,36.995\C,0,-6.142,20.754,35.986\C,0,-6.139,19.525,3
 5.422\C,0,-5.301,18.333,35.895\C,0,-7.127,19.329,34.286\C,0,-8.327,18.
 376,34.55\C,0,-9.109,18.248,33.254\C,0,-10.587,18.553,33.416\C,0,-11.5
 73,17.367,33.42\C,0,-11.214,19.513,32.42\C,0,-10.584,20.875,32.366\C,0
 ,-9.808,21.262,31.084\C,0,-10.229,22.732,30.636\C,0,-9.593,23.823,31.4
 43\C,0,-9.929,22.84,29.08\C,0,-11.212,23.434,28.327\C,0,-11.601,22.607
 ,27.063\C,0,-10.509,22.609,25.848\C,0,-10.956,23.349,24.626\C,0,-10.15
 8,21.159,25.463\H,0,-9.09,22.995,42.541\H,0,-13.924,18.846,41.969\H,0,
 -10.091,13.889,43.499\H,0,-5.133,20.506,44.09\H,0,-6.328,22.474,42.374
 \H,0,-7.247,22.506,45.162\H,0,-6.764,23.807,44.147\H,0,-5.561,22.773,4
 4.891\H,0,-3.693,20.276,42.366\H,0,-4.436,21.781,41.781\H,0,-5.9,19.51
 2,40.671\H,0,-4.219,19.496,40.19\H,0,-12.592,24.141,42.124\H,0,-11.505
 ,24.078,40.712\H,0,-10.828,24.094,42.298\H,0,-15.521,20.368,41.764\H,0
 ,-14.653,19.943,40.309\H,0,-15.753,21.291,40.087\H,0,-13.9,15.952,41.6
 73\H,0,-12.886,15.16,44.416\H,0,-15.499,17.155,42.746\H,0,-14.501,17.5
 94,44.157\H,0,-15.164,15.937,44.023\H,0,-12.029,13.826,42.098\H,0,-13.
 74,13.717,42.23\H,0,-11.726,11.961,43.539\H,0,-13.501,11.774,43.695\H,
 0,-12.595,12.824,44.808\H,0,-7.154,12.675,43.01\H,0,-8.269,12.99,44.27
 3\H,0,-6.482,13.123,44.517\H,0,-4.006,17.499,42.578\H,0,-2.656,20.149,
 45.708\H,0,-1.285,19.731,44.542\H,0,-1.828,18.721,45.971\H,0,-4.091,21
 .172,36.601\H,0,-5.272,22.286,37.158\H,0,-6.901,21.457,35.642\H,0,-4.5
 55,18.714,36.592\H,0,-4.939,17.777,35.03\H,0,-5.951,17.599,36.37\H,0,-
 6.544,18.994,33.428\H,0,-7.595,20.258,33.96\H,0,-8.979,18.64,35.383\H,
 0,-7.882,17.394,34.708\H,0,-9.117,17.184,33.02\H,0,-8.651,18.678,32.36
 3\H,0,-10.623,19.102,34.357\H,0,-11.989,17.04,32.467\H,0,-12.405,17.51
 8,34.106\H,0,-11.002,16.511,33.781\H,0,-12.259,19.704,32.664\H,0,-11.1
 71,19.048,31.435\H,0,-9.903,21.125,33.179\H,0,-11.481,21.444,32.608\H,
 0,-10.11,20.507,30.358\H,0,-8.728,21.25,31.231\H,0,-11.289,22.907,30.8
 18\H,0,-10.134,24.2,32.311\H,0,-9.599,24.723,30.828\H,0,-8.607,23.486,
 31.762\H,0,-9.579,21.857,28.765\H,0,-9.154,23.597,28.961\H,0,-11.02,24
 .483,28.1\H,0,-12.09,23.396,28.97\H,0,-12.566,22.924,26.667\H,0,-11.91
 5,21.586,27.278\H,0,-9.595,23.104,26.176\H,0,-10.145,23.95,24.215\H,0,
 -11.883,23.893,24.806\H,0,-11.279,22.63,23.874\H,0,-10.967,20.586,25.0
 1\H,0,-9.767,20.649,26.343\H,0,-9.297,21.271,24.804\\Version=ES64L-G16
 RevA.03\State=1-A\HF=-3007.8803082\RMSD=3.724e-09\PG=C01 [X(C55H74Mg1N
 4O6)]\\@


 BE NOT THE FIRST BY WHOM THE NEW ARE TRIED,
 NOR YET THE THE LAST TO LAY THE OLD ASIDE.

                          -- ALEXANDER POPE
 Job cpu time:       0 days 10 hours 53 minutes 26.0 seconds.
 Elapsed time:       0 days  0 hours 27 minutes 43.5 seconds.
 File lengths (MBytes):  RWF=   8929 Int=      0 D2E=      0 Chk=    390 Scr=      1
 Normal termination of Gaussian 16 at Thu Apr 28 10:45:41 2022.
