 Entering Gaussian System, Link 0=g16
 Initial command:
 /sw/apps/gaussian-16.0/g16/l1.exe "/tmp/Gau-76880.inp" -scrdir="/tmp/"
 Entering Link 1 = /sw/apps/gaussian-16.0/g16/l1.exe PID=     76881.
  
 Copyright (c) 1988,1990,1992,1993,1995,1998,2003,2009,2016,
            Gaussian, Inc.  All Rights Reserved.
  
 This is part of the Gaussian(R) 16 program.  It is based on
 the Gaussian(R) 09 system (copyright 2009, Gaussian, Inc.),
 the Gaussian(R) 03 system (copyright 2003, Gaussian, Inc.),
 the Gaussian(R) 98 system (copyright 1998, Gaussian, Inc.),
 the Gaussian(R) 94 system (copyright 1995, Gaussian, Inc.),
 the Gaussian 92(TM) system (copyright 1992, Gaussian, Inc.),
 the Gaussian 90(TM) system (copyright 1990, Gaussian, Inc.),
 the Gaussian 88(TM) system (copyright 1988, Gaussian, Inc.),
 the Gaussian 86(TM) system (copyright 1986, Carnegie Mellon
 University), and the Gaussian 82(TM) system (copyright 1983,
 Carnegie Mellon University). Gaussian is a federally registered
 trademark of Gaussian, Inc.
  
 This software contains proprietary and confidential information,
 including trade secrets, belonging to Gaussian, Inc.
  
 This software is provided under written license and may be
 used, copied, transmitted, or stored only in accord with that
 written license.
  
 The following legend is applicable only to US Government
 contracts under FAR:
  
                    RESTRICTED RIGHTS LEGEND
  
 Use, reproduction and disclosure by the US Government is
 subject to restrictions as set forth in subparagraphs (a)
 and (c) of the Commercial Computer Software - Restricted
 Rights clause in FAR 52.227-19.
  
 Gaussian, Inc.
 340 Quinnipiac St., Bldg. 40, Wallingford CT 06492
  
  
 ---------------------------------------------------------------
 Warning -- This program may not be used in any manner that
 competes with the business of Gaussian, Inc. or will provide
 assistance to any competitor of Gaussian, Inc.  The licensee
 of this program is prohibited from giving any competitor of
 Gaussian, Inc. access to this program.  By using this program,
 the user acknowledges that Gaussian, Inc. is engaged in the
 business of creating and licensing software in the field of
 computational chemistry and represents and warrants to the
 licensee that it is not a competitor of Gaussian, Inc. and that
 it will not use this program in any manner prohibited above.
 ---------------------------------------------------------------
  

 Cite this work as:
 Gaussian 16, Revision A.03,
 M. J. Frisch, G. W. Trucks, H. B. Schlegel, G. E. Scuseria, 
 M. A. Robb, J. R. Cheeseman, G. Scalmani, V. Barone, 
 G. A. Petersson, H. Nakatsuji, X. Li, M. Caricato, A. V. Marenich, 
 J. Bloino, B. G. Janesko, R. Gomperts, B. Mennucci, H. P. Hratchian, 
 J. V. Ortiz, A. F. Izmaylov, J. L. Sonnenberg, D. Williams-Young, 
 F. Ding, F. Lipparini, F. Egidi, J. Goings, B. Peng, A. Petrone, 
 T. Henderson, D. Ranasinghe, V. G. Zakrzewski, J. Gao, N. Rega, 
 G. Zheng, W. Liang, M. Hada, M. Ehara, K. Toyota, R. Fukuda, 
 J. Hasegawa, M. Ishida, T. Nakajima, Y. Honda, O. Kitao, H. Nakai, 
 T. Vreven, K. Throssell, J. A. Montgomery, Jr., J. E. Peralta, 
 F. Ogliaro, M. J. Bearpark, J. J. Heyd, E. N. Brothers, K. N. Kudin, 
 V. N. Staroverov, T. A. Keith, R. Kobayashi, J. Normand, 
 K. Raghavachari, A. P. Rendell, J. C. Burant, S. S. Iyengar, 
 J. Tomasi, M. Cossi, J. M. Millam, M. Klene, C. Adamo, R. Cammi, 
 J. W. Ochterski, R. L. Martin, K. Morokuma, O. Farkas, 
 J. B. Foresman, and D. J. Fox, Gaussian, Inc., Wallingford CT, 2016.
 
 ******************************************
 Gaussian 16:  ES64L-G16RevA.03 25-Dec-2016
                29-Apr-2022 
 ******************************************
 %nproc=24
 Will use up to   24 processors via shared memory.
 %mem=75GB
 ---------------------------------
 #p PBE1PBE/Def2SVP td=(nstates=5)
 ---------------------------------
 1/38=1,172=1/1;
 2/12=2,17=6,18=5,40=1/2;
 3/5=43,7=101,11=9,25=1,30=1,74=-13/1,2,3,8;
 4//1;
 5/5=2,38=5/2;
 8/6=1,10=1,108=5/1;
 9/41=5,42=1,70=2/14;
 6/7=2,8=2,9=2,10=2/1;
 99/5=1,9=1/99;
 Leave Link    1 at Fri Apr 29 00:14:26 2022, MaxMem= 10066329600 cpu:               0.7 elap:               0.0
 (Enter /sw/apps/gaussian-16.0/g16/l101.exe)
 ------------------------------------------------------
 step_1801_chromophore_16 TDDFT with PBE1PBE functional
 ------------------------------------------------------
 Symbolic Z-matrix:
 Charge =  0 Multiplicity = 1
 Mg                    40.457    40.665    27.146 
 C                     39.802    43.033    29.593 
 C                     41.793    38.656    29.549 
 C                     41.524    38.688    24.637 
 C                     39.824    43.187    24.698 
 N                     40.798    40.849    29.353 
 C                     40.363    41.877    30.101 
 C                     40.639    41.641    31.625 
 C                     41.203    40.137    31.612 
 C                     41.367    39.855    30.087 
 C                     42.473    40.069    32.45 
 C                     39.4      41.641    32.497 
 C                     39.288    42.71     33.617 
 C                     38.413    42.379    34.826 
 O                     37.627    41.449    34.939 
 O                     38.605    43.406    35.746 
 N                     41.443    38.855    27.098 
 C                     41.946    38.176    28.134 
 C                     42.472    36.885    27.744 
 C                     42.45     36.913    26.309 
 C                     41.792    38.209    25.912 
 C                     43.148    36.014    28.738 
 C                     42.944    35.809    25.317 
 O                     42.819    35.84     24.104 
 C                     43.377    34.489    25.878 
 N                     40.747    41.012    24.977 
 C                     40.915    39.824    24.232 
 C                     40.462    40.102    22.79 
 C                     39.792    41.513    22.823 
 C                     40.138    41.981    24.252 
 C                     41.678    40.148    21.82 
 C                     38.267    41.66     22.443 
 C                     37.26     40.835    23.221 
 N                     39.772    42.622    27.092 
 C                     39.681    43.591    26.041 
 C                     39.269    44.845    26.52 
 C                     39.257    44.652    27.904 
 C                     39.621    43.311    28.225 
 C                     38.824    45.996    25.68 
 C                     38.867    45.32     29.126 
 O                     38.302    46.393    29.364 
 C                     39.278    44.253    30.3 
 C                     40.302    44.992    31.142 
 O                     41.5      45.045    30.885 
 O                     39.698    45.534    32.205 
 C                     40.61     46.503    32.97 
 C                     37.593    43.397    36.845 
 C                     38.09     42.5      37.93 
 C                     38.065    42.639    39.28 
 C                     37.449    43.758    40.084 
 C                     38.857    41.673    40.098 
 C                     38.03     40.478    40.707 
 C                     38.181    40.229    42.207 
 C                     39.208    39.044    42.54 
 C                     38.673    37.572    42.202 
 C                     39.74     39.323    44.037 
 C                     38.623    39.274    45.112 
 C                     38.909    38.233    46.281 
 C                     38.234    38.821    47.507 
 C                     39.15     39.695    48.369 
 C                     37.617    37.624    48.35 
 C                     36.204    37.256    47.914 
 C                     36.185    35.988    46.992 
 C                     35.363    36.215    45.659 
 C                     36.039    35.61     44.436 
 C                     33.925    35.736    45.729 
 H                     42.062    37.889    30.278 
 H                     41.781    37.967    23.859 
 H                     39.465    43.78     23.855 
 H                     41.34     42.366    32.039 
 H                     40.542    39.352    31.978 
 H                     42.356    39.035    32.777 
 H                     42.509    40.823    33.236 
 H                     43.333    40.209    31.796 
 H                     39.258    40.705    33.037 
 H                     38.497    41.863    31.927 
 H                     38.683    43.438    33.076 
 H                     40.293    43.039    33.88 
 H                     42.724    35.011    28.681 
 H                     43.184    36.287    29.793 
 H                     44.173    35.77     28.459 
 H                     44.118    34.561    26.674 
 H                     43.751    33.869    25.063 
 H                     42.504    33.909    26.179 
 H                     39.765    39.272    22.676 
 H                     40.335    42.221    22.197 
 H                     41.753    39.265    21.185 
 H                     42.541    40.097    22.484 
 H                     41.905    41.067    21.281 
 H                     38.2      41.35     21.4 
 H                     38.02     42.721    22.468 
 H                     37.714    40.213    23.993 
 H                     36.735    40.133    22.573 
 H                     36.511    41.477    23.684 
 H                     38.314    45.693    24.765 
 H                     39.683    46.624    25.443 
 H                     38.186    46.601    26.323 
 H                     38.333    43.963    30.759 
 H                     40.197    46.826    33.925 
 H                     40.685    47.306    32.236 
 H                     41.557    46.047    33.259 
 H                     36.596    43.042    36.585 
 H                     37.462    44.396    37.26 
 H                     38.781    41.734    37.579 
 H                     38.255    44.361    40.503 
 H                     36.877    43.336    40.91 
 H                     36.895    44.43     39.428 
 H                     39.445    42.105    40.908 
 H                     39.675    41.274    39.498 
 H                     38.429    39.594    40.209 
 H                     36.97     40.619    40.499 
 H                     37.176    39.935    42.51 
 H                     38.545    41.031    42.849 
 H                     40.038    39.197    41.849 
 H                     38.567    37.052    43.154 
 H                     39.442    36.977    41.71 
 H                     37.708    37.605    41.695 
 H                     40.211    40.285    44.242 
 H                     40.497    38.549    44.161 
 H                     37.679    39.127    44.587 
 H                     38.621    40.272    45.551 
 H                     39.965    37.966    46.326 
 H                     38.292    37.396    45.952 
 H                     37.441    39.508    47.21 
 H                     39.019    39.508    49.435 
 H                     38.635    40.631    48.155 
 H                     40.21     39.719    48.117 
 H                     37.474    37.843    49.408 
 H                     38.29     36.77     48.28 
 H                     35.828    38.134    47.389 
 H                     35.565    37.073    48.778 
 H                     35.616    35.227    47.525 
 H                     37.17     35.587    46.75 
 H                     35.128    37.274    45.542 
 H                     37.121    35.739    44.456 
 H                     35.697    36.235    43.612 
 H                     35.762    34.566    44.289 
 H                     33.365    35.772    44.795 
 H                     33.433    36.394    46.445 
 H                     33.829    34.693    46.029 
 
 ITRead=  0  0  0  0  0  0  0  0  0  0  0  0  0  0  0  0  0  0  0  0
 ITRead=  0  0  0  0  0  0  0  0  0  0  0  0  0  0  0  0  0  0  0  0
 ITRead=  0  0  0  0  0  0  0  0  0  0  0  0  0  0  0  0  0  0  0  0
 ITRead=  0  0  0  0  0  0  0  0  0  0  0  0  0  0  0  0  0  0  0  0
 ITRead=  0  0  0  0  0  0  0  0  0  0  0  0  0  0  0  0  0  0  0  0
 ITRead=  0  0  0  0  0  0  0  0  0  0  0  0  0  0  0  0  0  0  0  0
 ITRead=  0  0  0  0  0  0  0  0  0  0  0  0  0  0  0  0  0  0  0  0
 MicOpt= -1 -1 -1 -1 -1 -1 -1 -1 -1 -1 -1 -1 -1 -1 -1 -1 -1 -1 -1 -1
 MicOpt= -1 -1 -1 -1 -1 -1 -1 -1 -1 -1 -1 -1 -1 -1 -1 -1 -1 -1 -1 -1
 MicOpt= -1 -1 -1 -1 -1 -1 -1 -1 -1 -1 -1 -1 -1 -1 -1 -1 -1 -1 -1 -1
 MicOpt= -1 -1 -1 -1 -1 -1 -1 -1 -1 -1 -1 -1 -1 -1 -1 -1 -1 -1 -1 -1
 MicOpt= -1 -1 -1 -1 -1 -1 -1 -1 -1 -1 -1 -1 -1 -1 -1 -1 -1 -1 -1 -1
 MicOpt= -1 -1 -1 -1 -1 -1 -1 -1 -1 -1 -1 -1 -1 -1 -1 -1 -1 -1 -1 -1
 MicOpt= -1 -1 -1 -1 -1 -1 -1 -1 -1 -1 -1 -1 -1 -1 -1 -1 -1 -1 -1 -1
 NAtoms=    140 NQM=      140 NQMF=       0 NMMI=      0 NMMIF=      0
                NMic=       0 NMicF=      0.
                    Isotopes and Nuclear Properties:
 (Nuclear quadrupole moments (NQMom) in fm**2, nuclear magnetic moments (NMagM)
  in nuclear magnetons)

  Atom         1           2           3           4           5           6           7           8           9          10
 IAtWgt=          24          12          12          12          12          14          12          12          12          12
 AtmWgt=  23.9850450  12.0000000  12.0000000  12.0000000  12.0000000  14.0030740  12.0000000  12.0000000  12.0000000  12.0000000
 NucSpn=           0           0           0           0           0           2           0           0           0           0
 AtZEff=  -0.0000000  -0.0000000  -0.0000000  -0.0000000  -0.0000000  -0.0000000  -0.0000000  -0.0000000  -0.0000000  -0.0000000
 NQMom=    0.0000000   0.0000000   0.0000000   0.0000000   0.0000000   2.0440000   0.0000000   0.0000000   0.0000000   0.0000000
 NMagM=    0.0000000   0.0000000   0.0000000   0.0000000   0.0000000   0.4037610   0.0000000   0.0000000   0.0000000   0.0000000
 AtZNuc=  12.0000000   6.0000000   6.0000000   6.0000000   6.0000000   7.0000000   6.0000000   6.0000000   6.0000000   6.0000000

  Atom        11          12          13          14          15          16          17          18          19          20
 IAtWgt=          12          12          12          12          16          16          14          12          12          12
 AtmWgt=  12.0000000  12.0000000  12.0000000  12.0000000  15.9949146  15.9949146  14.0030740  12.0000000  12.0000000  12.0000000
 NucSpn=           0           0           0           0           0           0           2           0           0           0
 AtZEff=  -0.0000000  -0.0000000  -0.0000000  -0.0000000  -0.0000000  -0.0000000  -0.0000000  -0.0000000  -0.0000000  -0.0000000
 NQMom=    0.0000000   0.0000000   0.0000000   0.0000000   0.0000000   0.0000000   2.0440000   0.0000000   0.0000000   0.0000000
 NMagM=    0.0000000   0.0000000   0.0000000   0.0000000   0.0000000   0.0000000   0.4037610   0.0000000   0.0000000   0.0000000
 AtZNuc=   6.0000000   6.0000000   6.0000000   6.0000000   8.0000000   8.0000000   7.0000000   6.0000000   6.0000000   6.0000000

  Atom        21          22          23          24          25          26          27          28          29          30
 IAtWgt=          12          12          12          16          12          14          12          12          12          12
 AtmWgt=  12.0000000  12.0000000  12.0000000  15.9949146  12.0000000  14.0030740  12.0000000  12.0000000  12.0000000  12.0000000
 NucSpn=           0           0           0           0           0           2           0           0           0           0
 AtZEff=  -0.0000000  -0.0000000  -0.0000000  -0.0000000  -0.0000000  -0.0000000  -0.0000000  -0.0000000  -0.0000000  -0.0000000
 NQMom=    0.0000000   0.0000000   0.0000000   0.0000000   0.0000000   2.0440000   0.0000000   0.0000000   0.0000000   0.0000000
 NMagM=    0.0000000   0.0000000   0.0000000   0.0000000   0.0000000   0.4037610   0.0000000   0.0000000   0.0000000   0.0000000
 AtZNuc=   6.0000000   6.0000000   6.0000000   8.0000000   6.0000000   7.0000000   6.0000000   6.0000000   6.0000000   6.0000000

  Atom        31          32          33          34          35          36          37          38          39          40
 IAtWgt=          12          12          12          14          12          12          12          12          12          12
 AtmWgt=  12.0000000  12.0000000  12.0000000  14.0030740  12.0000000  12.0000000  12.0000000  12.0000000  12.0000000  12.0000000
 NucSpn=           0           0           0           2           0           0           0           0           0           0
 AtZEff=  -0.0000000  -0.0000000  -0.0000000  -0.0000000  -0.0000000  -0.0000000  -0.0000000  -0.0000000  -0.0000000  -0.0000000
 NQMom=    0.0000000   0.0000000   0.0000000   2.0440000   0.0000000   0.0000000   0.0000000   0.0000000   0.0000000   0.0000000
 NMagM=    0.0000000   0.0000000   0.0000000   0.4037610   0.0000000   0.0000000   0.0000000   0.0000000   0.0000000   0.0000000
 AtZNuc=   6.0000000   6.0000000   6.0000000   7.0000000   6.0000000   6.0000000   6.0000000   6.0000000   6.0000000   6.0000000

  Atom        41          42          43          44          45          46          47          48          49          50
 IAtWgt=          16          12          12          16          16          12          12          12          12          12
 AtmWgt=  15.9949146  12.0000000  12.0000000  15.9949146  15.9949146  12.0000000  12.0000000  12.0000000  12.0000000  12.0000000
 NucSpn=           0           0           0           0           0           0           0           0           0           0
 AtZEff=  -0.0000000  -0.0000000  -0.0000000  -0.0000000  -0.0000000  -0.0000000  -0.0000000  -0.0000000  -0.0000000  -0.0000000
 NQMom=    0.0000000   0.0000000   0.0000000   0.0000000   0.0000000   0.0000000   0.0000000   0.0000000   0.0000000   0.0000000
 NMagM=    0.0000000   0.0000000   0.0000000   0.0000000   0.0000000   0.0000000   0.0000000   0.0000000   0.0000000   0.0000000
 AtZNuc=   8.0000000   6.0000000   6.0000000   8.0000000   8.0000000   6.0000000   6.0000000   6.0000000   6.0000000   6.0000000

  Atom        51          52          53          54          55          56          57          58          59          60
 IAtWgt=          12          12          12          12          12          12          12          12          12          12
 AtmWgt=  12.0000000  12.0000000  12.0000000  12.0000000  12.0000000  12.0000000  12.0000000  12.0000000  12.0000000  12.0000000
 NucSpn=           0           0           0           0           0           0           0           0           0           0
 AtZEff=  -0.0000000  -0.0000000  -0.0000000  -0.0000000  -0.0000000  -0.0000000  -0.0000000  -0.0000000  -0.0000000  -0.0000000
 NQMom=    0.0000000   0.0000000   0.0000000   0.0000000   0.0000000   0.0000000   0.0000000   0.0000000   0.0000000   0.0000000
 NMagM=    0.0000000   0.0000000   0.0000000   0.0000000   0.0000000   0.0000000   0.0000000   0.0000000   0.0000000   0.0000000
 AtZNuc=   6.0000000   6.0000000   6.0000000   6.0000000   6.0000000   6.0000000   6.0000000   6.0000000   6.0000000   6.0000000

  Atom        61          62          63          64          65          66          67          68          69          70
 IAtWgt=          12          12          12          12          12          12           1           1           1           1
 AtmWgt=  12.0000000  12.0000000  12.0000000  12.0000000  12.0000000  12.0000000   1.0078250   1.0078250   1.0078250   1.0078250
 NucSpn=           0           0           0           0           0           0           1           1           1           1
 AtZEff=  -0.0000000  -0.0000000  -0.0000000  -0.0000000  -0.0000000  -0.0000000  -0.0000000  -0.0000000  -0.0000000  -0.0000000
 NQMom=    0.0000000   0.0000000   0.0000000   0.0000000   0.0000000   0.0000000   0.0000000   0.0000000   0.0000000   0.0000000
 NMagM=    0.0000000   0.0000000   0.0000000   0.0000000   0.0000000   0.0000000   2.7928460   2.7928460   2.7928460   2.7928460
 AtZNuc=   6.0000000   6.0000000   6.0000000   6.0000000   6.0000000   6.0000000   1.0000000   1.0000000   1.0000000   1.0000000

  Atom        71          72          73          74          75          76          77          78          79          80
 IAtWgt=           1           1           1           1           1           1           1           1           1           1
 AtmWgt=   1.0078250   1.0078250   1.0078250   1.0078250   1.0078250   1.0078250   1.0078250   1.0078250   1.0078250   1.0078250
 NucSpn=           1           1           1           1           1           1           1           1           1           1
 AtZEff=  -0.0000000  -0.0000000  -0.0000000  -0.0000000  -0.0000000  -0.0000000  -0.0000000  -0.0000000  -0.0000000  -0.0000000
 NQMom=    0.0000000   0.0000000   0.0000000   0.0000000   0.0000000   0.0000000   0.0000000   0.0000000   0.0000000   0.0000000
 NMagM=    2.7928460   2.7928460   2.7928460   2.7928460   2.7928460   2.7928460   2.7928460   2.7928460   2.7928460   2.7928460
 AtZNuc=   1.0000000   1.0000000   1.0000000   1.0000000   1.0000000   1.0000000   1.0000000   1.0000000   1.0000000   1.0000000

  Atom        81          82          83          84          85          86          87          88          89          90
 IAtWgt=           1           1           1           1           1           1           1           1           1           1
 AtmWgt=   1.0078250   1.0078250   1.0078250   1.0078250   1.0078250   1.0078250   1.0078250   1.0078250   1.0078250   1.0078250
 NucSpn=           1           1           1           1           1           1           1           1           1           1
 AtZEff=  -0.0000000  -0.0000000  -0.0000000  -0.0000000  -0.0000000  -0.0000000  -0.0000000  -0.0000000  -0.0000000  -0.0000000
 NQMom=    0.0000000   0.0000000   0.0000000   0.0000000   0.0000000   0.0000000   0.0000000   0.0000000   0.0000000   0.0000000
 NMagM=    2.7928460   2.7928460   2.7928460   2.7928460   2.7928460   2.7928460   2.7928460   2.7928460   2.7928460   2.7928460
 AtZNuc=   1.0000000   1.0000000   1.0000000   1.0000000   1.0000000   1.0000000   1.0000000   1.0000000   1.0000000   1.0000000

  Atom        91          92          93          94          95          96          97          98          99         100
 IAtWgt=           1           1           1           1           1           1           1           1           1           1
 AtmWgt=   1.0078250   1.0078250   1.0078250   1.0078250   1.0078250   1.0078250   1.0078250   1.0078250   1.0078250   1.0078250
 NucSpn=           1           1           1           1           1           1           1           1           1           1
 AtZEff=  -0.0000000  -0.0000000  -0.0000000  -0.0000000  -0.0000000  -0.0000000  -0.0000000  -0.0000000  -0.0000000  -0.0000000
 NQMom=    0.0000000   0.0000000   0.0000000   0.0000000   0.0000000   0.0000000   0.0000000   0.0000000   0.0000000   0.0000000
 NMagM=    2.7928460   2.7928460   2.7928460   2.7928460   2.7928460   2.7928460   2.7928460   2.7928460   2.7928460   2.7928460
 AtZNuc=   1.0000000   1.0000000   1.0000000   1.0000000   1.0000000   1.0000000   1.0000000   1.0000000   1.0000000   1.0000000

  Atom       101         102         103         104         105         106         107         108         109         110
 IAtWgt=           1           1           1           1           1           1           1           1           1           1
 AtmWgt=   1.0078250   1.0078250   1.0078250   1.0078250   1.0078250   1.0078250   1.0078250   1.0078250   1.0078250   1.0078250
 NucSpn=           1           1           1           1           1           1           1           1           1           1
 AtZEff=  -0.0000000  -0.0000000  -0.0000000  -0.0000000  -0.0000000  -0.0000000  -0.0000000  -0.0000000  -0.0000000  -0.0000000
 NQMom=    0.0000000   0.0000000   0.0000000   0.0000000   0.0000000   0.0000000   0.0000000   0.0000000   0.0000000   0.0000000
 NMagM=    2.7928460   2.7928460   2.7928460   2.7928460   2.7928460   2.7928460   2.7928460   2.7928460   2.7928460   2.7928460
 AtZNuc=   1.0000000   1.0000000   1.0000000   1.0000000   1.0000000   1.0000000   1.0000000   1.0000000   1.0000000   1.0000000

  Atom       111         112         113         114         115         116         117         118         119         120
 IAtWgt=           1           1           1           1           1           1           1           1           1           1
 AtmWgt=   1.0078250   1.0078250   1.0078250   1.0078250   1.0078250   1.0078250   1.0078250   1.0078250   1.0078250   1.0078250
 NucSpn=           1           1           1           1           1           1           1           1           1           1
 AtZEff=  -0.0000000  -0.0000000  -0.0000000  -0.0000000  -0.0000000  -0.0000000  -0.0000000  -0.0000000  -0.0000000  -0.0000000
 NQMom=    0.0000000   0.0000000   0.0000000   0.0000000   0.0000000   0.0000000   0.0000000   0.0000000   0.0000000   0.0000000
 NMagM=    2.7928460   2.7928460   2.7928460   2.7928460   2.7928460   2.7928460   2.7928460   2.7928460   2.7928460   2.7928460
 AtZNuc=   1.0000000   1.0000000   1.0000000   1.0000000   1.0000000   1.0000000   1.0000000   1.0000000   1.0000000   1.0000000

  Atom       121         122         123         124         125         126         127         128         129         130
 IAtWgt=           1           1           1           1           1           1           1           1           1           1
 AtmWgt=   1.0078250   1.0078250   1.0078250   1.0078250   1.0078250   1.0078250   1.0078250   1.0078250   1.0078250   1.0078250
 NucSpn=           1           1           1           1           1           1           1           1           1           1
 AtZEff=  -0.0000000  -0.0000000  -0.0000000  -0.0000000  -0.0000000  -0.0000000  -0.0000000  -0.0000000  -0.0000000  -0.0000000
 NQMom=    0.0000000   0.0000000   0.0000000   0.0000000   0.0000000   0.0000000   0.0000000   0.0000000   0.0000000   0.0000000
 NMagM=    2.7928460   2.7928460   2.7928460   2.7928460   2.7928460   2.7928460   2.7928460   2.7928460   2.7928460   2.7928460
 AtZNuc=   1.0000000   1.0000000   1.0000000   1.0000000   1.0000000   1.0000000   1.0000000   1.0000000   1.0000000   1.0000000

  Atom       131         132         133         134         135         136         137         138         139         140
 IAtWgt=           1           1           1           1           1           1           1           1           1           1
 AtmWgt=   1.0078250   1.0078250   1.0078250   1.0078250   1.0078250   1.0078250   1.0078250   1.0078250   1.0078250   1.0078250
 NucSpn=           1           1           1           1           1           1           1           1           1           1
 AtZEff=  -0.0000000  -0.0000000  -0.0000000  -0.0000000  -0.0000000  -0.0000000  -0.0000000  -0.0000000  -0.0000000  -0.0000000
 NQMom=    0.0000000   0.0000000   0.0000000   0.0000000   0.0000000   0.0000000   0.0000000   0.0000000   0.0000000   0.0000000
 NMagM=    2.7928460   2.7928460   2.7928460   2.7928460   2.7928460   2.7928460   2.7928460   2.7928460   2.7928460   2.7928460
 AtZNuc=   1.0000000   1.0000000   1.0000000   1.0000000   1.0000000   1.0000000   1.0000000   1.0000000   1.0000000   1.0000000
 Leave Link  101 at Fri Apr 29 00:14:26 2022, MaxMem= 10066329600 cpu:               3.1 elap:               0.2
 (Enter /sw/apps/gaussian-16.0/g16/l202.exe)
 Stoichiometry    C55H74MgN4O6
 Framework group  C1[X(C55H74MgN4O6)]
 Deg. of freedom   414
 Full point group                 C1      NOp   1
 Largest Abelian subgroup         C1      NOp   1
 Largest concise Abelian subgroup C1      NOp   1
                         Standard orientation:                         
 ---------------------------------------------------------------------
 Center     Atomic      Atomic             Coordinates (Angstroms)
 Number     Number       Type             X           Y           Z
 ---------------------------------------------------------------------
      1         12           0        6.088175    0.633027    0.204736
      2          6           0        3.850441   -1.996037   -0.119038
      3          6           0        3.716156    2.715149   -1.073419
      4          6           0        8.495854    2.983369    0.059573
      5          6           0        8.673199   -1.779656    0.705227
      6          7           0        3.997740    0.371368   -0.558548
      7          6           0        3.310791   -0.781872   -0.498119
      8          6           0        1.832859   -0.601049   -0.985425
      9          6           0        1.765641    0.989667   -1.198462
     10          6           0        3.255871    1.413646   -1.020975
     11          6           0        1.136742    1.289437   -2.552859
     12          6           0        0.781514   -0.953633    0.046982
     13          6           0       -0.214678   -2.098867   -0.278204
     14          6           0       -1.576287   -2.070578    0.416122
     15          8           0       -1.916024   -1.359958    1.351570
     16          8           0       -2.332933   -3.089601   -0.155780
     17          7           0        6.087605    2.621274   -0.340674
     18          6           0        5.074468    3.320474   -0.862227
     19          6           0        5.395032    4.723563   -1.017268
     20          6           0        6.802426    4.797003   -0.744614
     21          6           0        7.233594    3.416322   -0.322709
     22          6           0        4.428858    5.652310   -1.655695
     23          6           0        7.729519    6.055650   -0.801392
     24          8           0        8.903184    6.085856   -0.470403
     25          6           0        7.099191    7.395160   -1.031628
     26          7           0        8.300831    0.523799    0.240648
     27          6           0        8.924622    1.769840    0.470558
     28          6           0       10.298849    1.501055    1.103893
     29          6           0       10.319225   -0.025617    1.435206
     30          6           0        9.024735   -0.504208    0.745260
     31          6           0       11.447867    1.810897    0.101184
     32          6           0       10.467392   -0.495081    2.934967
     33          6           0        9.452158    0.013294    3.940359
     34          7           0        6.252935   -1.420210    0.447769
     35          6           0        7.378551   -2.303649    0.513830
     36          6           0        6.984545   -3.650883    0.551515
     37          6           0        5.603247   -3.568470    0.356391
     38          6           0        5.195084   -2.206973    0.240001
     39          6           0        7.867665   -4.808746    0.879966
     40          6           0        4.417934   -4.397047    0.366541
     41          8           0        4.215796   -5.586609    0.633523
     42          6           0        3.211234   -3.353161   -0.007441
     43          6           0        2.630275   -3.893523   -1.301333
     44          8           0        3.077788   -3.647184   -2.416282
     45          8           0        1.552930   -4.638001   -1.029987
     46          6           0        1.055666   -5.421799   -2.252411
     47          6           0       -3.572081   -3.397351    0.619997
     48          6           0       -4.658754   -2.491752    0.142635
     49          6           0       -5.971414   -2.731816   -0.105839
     50          6           0       -6.731684   -4.019552    0.098509
     51          6           0       -6.757275   -1.670981   -0.803403
     52          6           0       -7.619871   -0.749458    0.139760
     53          6           0       -9.095488   -0.583351   -0.220470
     54          6           0       -9.393039    0.780278   -1.009028
     55          6           0       -9.311617    2.108140   -0.116052
     56          6           0      -10.746082    0.523247   -1.848720
     57          6           0      -11.982788    0.231619   -0.959211
     58          6           0      -13.201425    1.221569   -1.217979
     59          6           0      -14.444725    0.403952   -0.917728
     60          6           0      -15.047198   -0.293935   -2.140822
     61          6           0      -15.503893    1.359048   -0.217655
     62          6           0      -15.341002    1.419195    1.296260
     63          6           0      -14.582143    2.712336    1.754723
     64          6           0      -13.378930    2.399102    2.733633
     65          6           0      -12.140326    3.233217    2.435567
     66          6           0      -13.728859    2.523797    4.204750
     67          1           0        2.957284    3.467845   -1.296248
     68          1           0        9.218614    3.799681    0.108827
     69          1           0        9.510102   -2.376163    1.072583
     70          1           0        1.619115   -1.171475   -1.889499
     71          1           0        1.213787    1.570127   -0.459797
     72          1           0        0.681163    2.240839   -2.275270
     73          1           0        0.456177    0.508722   -2.891862
     74          1           0        1.930047    1.401994   -3.291043
     75          1           0        0.124052   -0.118775    0.289092
     76          1           0        1.222859   -1.337077    0.967730
     77          1           0        0.302250   -2.905788    0.241751
     78          1           0       -0.276759   -2.203401   -1.361095
     79          1           0        4.304921    6.530492   -1.021289
     80          1           0        3.430307    5.318228   -1.938778
     81          1           0        4.837192    6.148025   -2.536338
     82          1           0        6.443591    7.439148   -1.901188
     83          1           0        7.888109    8.143482   -1.109888
     84          1           0        6.600635    7.732272   -0.122273
     85          1           0       10.207117    2.152135    1.973022
     86          1           0       11.098818   -0.539714    0.873131
     87          1           0       11.983346    2.731418    0.334512
     88          1           0       10.927216    2.012280   -0.835103
     89          1           0       12.115877    1.012233   -0.218988
     90          1           0       11.445107   -0.133216    3.253660
     91          1           0       10.523140   -1.583309    2.937633
     92          1           0        8.696665    0.665264    3.500870
     93          1           0        9.925871    0.619614    4.712568
     94          1           0        8.951727   -0.817703    4.436893
     95          1           0        8.650550   -4.566195    1.599267
     96          1           0        8.306622   -5.200378   -0.037844
     97          1           0        7.204045   -5.591290    1.245687
     98          1           0        2.578912   -3.325672    0.879813
     99          1           0        0.089839   -5.901495   -2.097514
    100          1           0        1.877887   -6.128981   -2.366587
    101          1           0        0.870619   -4.780493   -3.114241
    102          1           0       -3.514602   -3.265963    1.700305
    103          1           0       -3.887550   -4.427189    0.454769
    104          1           0       -4.291311   -1.562254   -0.291484
    105          1           0       -6.947450   -4.447601   -0.880789
    106          1           0       -7.679895   -3.804286    0.590547
    107          1           0       -6.100176   -4.751826    0.602302
    108          1           0       -7.410313   -2.012741   -1.606652
    109          1           0       -6.084207   -1.049482   -1.394203
    110          1           0       -7.167668    0.237343    0.037799
    111          1           0       -7.567581   -1.117558    1.163729
    112          1           0       -9.584713   -0.554454    0.753231
    113          1           0       -9.577526   -1.323672   -0.858771
    114          1           0       -8.566720    0.875972   -1.714598
    115          1           0      -10.320767    2.517609   -0.072576
    116          1           0       -8.774288    2.900350   -0.636755
    117          1           0       -8.963135    1.888909    0.893830
    118          1           0      -10.764512   -0.315140   -2.545913
    119          1           0      -10.835074    1.440870   -2.429710
    120          1           0      -11.633572    0.193156    0.072748
    121          1           0      -12.301515   -0.768996   -1.252319
    122          1           0      -13.108617    1.722934   -2.181550
    123          1           0      -13.070380    1.913894   -0.385505
    124          1           0      -14.201499   -0.424937   -0.252287
    125          1           0      -16.134682   -0.221608   -2.165966
    126          1           0      -14.813429   -1.305708   -1.810996
    127          1           0      -14.629674   -0.051956   -3.117960
    128          1           0      -16.539764    1.035453   -0.317809
    129          1           0      -15.424853    2.348994   -0.665880
    130          1           0      -14.786689    0.518926    1.561096
    131          1           0      -16.310205    1.384299    1.793989
    132          1           0      -15.280576    3.278629    2.369925
    133          1           0      -14.234088    3.348266    0.939836
    134          1           0      -13.182208    1.326067    2.750708
    135          1           0      -11.974344    3.358454    1.365740
    136          1           0      -11.315774    2.608235    2.776266
    137          1           0      -12.157340    4.191999    2.953951
    138          1           0      -12.897114    2.427366    4.901997
    139          1           0      -14.435043    1.718456    4.405782
    140          1           0      -14.155643    3.490803    4.468984
 ---------------------------------------------------------------------
 Rotational constants (GHZ):           0.0505676           0.0081741           0.0073929
 Leave Link  202 at Fri Apr 29 00:14:26 2022, MaxMem= 10066329600 cpu:               0.2 elap:               0.0
 (Enter /sw/apps/gaussian-16.0/g16/l301.exe)
 Standard basis: def2SVP (5D, 7F)
 Ernie: Thresh=  0.10000D-02 Tol=  0.10000D-05 Strict=F.
 There are  1364 symmetry adapted cartesian basis functions of A   symmetry.
 There are  1298 symmetry adapted basis functions of A   symmetry.
  1298 basis functions,  2180 primitive gaussians,  1364 cartesian basis functions
   246 alpha electrons      246 beta electrons
       nuclear repulsion energy      9378.5160490864 Hartrees.
 IExCor= 1009 DFT=T Ex+Corr=PBE1PBE ExCW=0 ScaHFX=  0.250000
 ScaDFX=  0.750000  0.750000  1.000000  1.000000 ScalE2=  1.000000  1.000000
 IRadAn=      5 IRanWt=     -1 IRanGd=            0 ICorTp=0 IEmpDi=  4
 NAtoms=  140 NActive=  140 NUniq=  140 SFac= 1.00D+00 NAtFMM=   60 NAOKFM=T Big=T
 Integral buffers will be    131072 words long.
 Regular integral format.
 Two-electron integral symmetry is turned on.
 Leave Link  301 at Fri Apr 29 00:14:26 2022, MaxMem= 10066329600 cpu:               1.3 elap:               0.1
 (Enter /sw/apps/gaussian-16.0/g16/l302.exe)
 NPDir=0 NMtPBC=     1 NCelOv=     1 NCel=       1 NClECP=     1 NCelD=      1
         NCelK=      1 NCelE2=     1 NClLst=     1 CellRange=     0.0.
 One-electron integrals computed using PRISM.
 One-electron integral symmetry used in STVInt
   1 Symmetry operations used in ECPInt.
 ECPInt:  NShTT=  192510 NPrTT=  683786 LenC2=   89986 LenP2D=  200569.
 LDataN:  DoStor=T MaxTD1= 4 Len=   56
 NBasis=  1298 RedAO= T EigKep=  3.05D-04  NBF=  1298
 NBsUse=  1298 1.00D-06 EigRej= -1.00D+00 NBFU=  1298
 Precomputing XC quadrature grid using
 IXCGrd= 4 IRadAn=           5 IRanWt=          -1 IRanGd=           0 AccXCQ= 0.00D+00.
 Generated NRdTot=       0 NPtTot=           0 NUsed=           0 NTot=          32
 NSgBfM=   996   996   996   996   996 MxSgAt=   140 MxSgA2=   140.
 Leave Link  302 at Fri Apr 29 00:14:30 2022, MaxMem= 10066329600 cpu:              80.1 elap:               3.4
 (Enter /sw/apps/gaussian-16.0/g16/l303.exe)
 DipDrv:  MaxL=1.
 Leave Link  303 at Fri Apr 29 00:14:30 2022, MaxMem= 10066329600 cpu:               6.6 elap:               0.3
 (Enter /sw/apps/gaussian-16.0/g16/l308.exe)
 Leave Link  308 at Fri Apr 29 00:14:30 2022, MaxMem= 10066329600 cpu:               8.6 elap:               0.4
 (Enter /sw/apps/gaussian-16.0/g16/l401.exe)
 ExpMin= 3.36D-02 ExpMax= 4.95D+03 ExpMxC= 7.45D+02 IAcc=3 IRadAn=         5 AccDes= 0.00D+00
 Harris functional with IExCor= 1009 and IRadAn=       5 diagonalized for initial guess.
 HarFok:  IExCor= 1009 AccDes= 0.00D+00 IRadAn=         5 IDoV= 1 UseB2=F ITyADJ=14
 ICtDFT=  3500011 ScaDFX=  1.000000  1.000000  1.000000  1.000000
 FoFCou: FMM=F IPFlag=           0 FMFlag=      100000 FMFlg1=        2001
         NFxFlg=           0 DoJE=T BraDBF=F KetDBF=T FulRan=T
         wScrn=  0.000000 ICntrl=       500 IOpCl=  0 I1Cent=   200000004 NGrid=           0
         NMat0=    1 NMatS0=      1 NMatT0=    0 NMatD0=    1 NMtDS0=    0 NMtDT0=    0
 Petite list used in FoFCou.
 Harris En= -3006.13592754984    
 JPrj=0 DoOrth=F DoCkMO=F.
 Leave Link  401 at Fri Apr 29 00:14:36 2022, MaxMem= 10066329600 cpu:             141.4 elap:               5.9
 (Enter /sw/apps/gaussian-16.0/g16/l502.exe)
 Integral symmetry usage will be decided dynamically.
 Closed shell SCF:
 Using DIIS extrapolation, IDIIS=  1040.
 NGot= 10066329600 LenX= 10062561258 LenY= 10060699398
 Requested convergence on RMS density matrix=1.00D-08 within 128 cycles.
 Requested convergence on MAX density matrix=1.00D-06.
 Requested convergence on             energy=1.00D-06.
 No special actions if energy rises.
 Fock matrices will be formed incrementally for  20 cycles.

 Cycle   1  Pass 1  IDiag  1:
 FoFJK:  IHMeth= 1 ICntrl=       0 DoSepK=F KAlg= 0 I1Cent=           0 FoldK=F
 IRaf= 510000000 NMat=       1 IRICut=       1 DoRegI=T DoRafI=F ISym2E= 0 IDoP0=0 IntGTp=1.
 FoFCou: FMM=T IPFlag=           0 FMFlag=      100000 FMFlg1=        2001
         NFxFlg=           0 DoJE=F BraDBF=F KetDBF=F FulRan=T
         wScrn=  0.000000 ICntrl=         0 IOpCl=  0 I1Cent=           0 NGrid=           0
         NMat0=    1 NMatS0=      1 NMatT0=    0 NMatD0=    1 NMtDS0=    0 NMtDT0=    0
 Symmetry not used in FoFCou.
 FMM levels:  10  Number of levels for PrismC:   9
 E= -3003.79072767083    
 DIIS: error= 2.10D-02 at cycle   1 NSaved=   1.
 NSaved= 1 IEnMin= 1 EnMin= -3003.79072767083     IErMin= 1 ErrMin= 2.10D-02
 ErrMax= 2.10D-02  0.00D+00 EMaxC= 1.00D-01 BMatC= 1.46D+00 BMatP= 1.46D+00
 IDIUse=3 WtCom= 7.90D-01 WtEn= 2.10D-01
 Coeff-Com:  0.100D+01
 Coeff-En:   0.100D+01
 Coeff:      0.100D+01
 Gap=     0.075 Goal=   None    Shift=    0.000
 GapD=    0.075 DampG=0.500 DampE=0.500 DampFc=0.2500 IDamp=-1.
 Damping current iteration by 2.50D-01
 RMSDP=2.71D-03 MaxDP=5.78D-01              OVMax= 3.52D-01

 Cycle   2  Pass 1  IDiag  1:
 RMSU=  6.71D-04    CP:  9.89D-01
 E= -3004.34041843150     Delta-E=       -0.549690760668 Rises=F Damp=T
 DIIS: error= 8.43D-03 at cycle   2 NSaved=   2.
 NSaved= 2 IEnMin= 2 EnMin= -3004.34041843150     IErMin= 2 ErrMin= 8.43D-03
 ErrMax= 8.43D-03  0.00D+00 EMaxC= 1.00D-01 BMatC= 3.66D-01 BMatP= 1.46D+00
 IDIUse=3 WtCom= 9.16D-01 WtEn= 8.43D-02
 Coeff-Com: -0.775D+00 0.178D+01
 Coeff-En:   0.000D+00 0.100D+01
 Coeff:     -0.710D+00 0.171D+01
 Gap=     0.159 Goal=   None    Shift=    0.000
 RMSDP=1.01D-03 MaxDP=6.14D-02 DE=-5.50D-01 OVMax= 3.49D-01

 Cycle   3  Pass 1  IDiag  1:
 RMSU=  8.66D-04    CP:  9.65D-01  1.69D+00
 E= -3005.13997729655     Delta-E=       -0.799558865046 Rises=F Damp=F
 DIIS: error= 1.41D-02 at cycle   3 NSaved=   3.
 NSaved= 3 IEnMin= 3 EnMin= -3005.13997729655     IErMin= 2 ErrMin= 8.43D-03
 ErrMax= 1.41D-02  0.00D+00 EMaxC= 1.00D-01 BMatC= 1.89D-01 BMatP= 3.66D-01
 IDIUse=3 WtCom= 8.59D-01 WtEn= 1.41D-01
 Coeff-Com: -0.514D+00 0.109D+01 0.429D+00
 Coeff-En:   0.000D+00 0.000D+00 0.100D+01
 Coeff:     -0.442D+00 0.932D+00 0.509D+00
 Gap=     0.073 Goal=   None    Shift=    0.000
 RMSDP=7.14D-04 MaxDP=8.95D-02 DE=-8.00D-01 OVMax= 3.99D-01

 Cycle   4  Pass 1  IDiag  1:
 RMSU=  4.64D-04    CP:  9.70D-01  2.00D+00  4.23D-01
 E= -3005.24614981237     Delta-E=       -0.106172515825 Rises=F Damp=F
 DIIS: error= 1.01D-02 at cycle   4 NSaved=   4.
 NSaved= 4 IEnMin= 4 EnMin= -3005.24614981237     IErMin= 2 ErrMin= 8.43D-03
 ErrMax= 1.01D-02  0.00D+00 EMaxC= 1.00D-01 BMatC= 6.84D-02 BMatP= 1.89D-01
 IDIUse=3 WtCom= 8.99D-01 WtEn= 1.01D-01
 Coeff-Com: -0.151D+00 0.324D+00 0.362D+00 0.465D+00
 Coeff-En:   0.000D+00 0.000D+00 0.349D+00 0.651D+00
 Coeff:     -0.136D+00 0.291D+00 0.361D+00 0.483D+00
 Gap=     0.067 Goal=   None    Shift=    0.000
 RMSDP=4.36D-04 MaxDP=3.96D-02 DE=-1.06D-01 OVMax= 2.98D-01

 Cycle   5  Pass 1  IDiag  1:
 RMSU=  2.08D-04    CP:  9.70D-01  1.84D+00  6.82D-01  3.67D-01
 E= -3005.30728253675     Delta-E=       -0.061132724377 Rises=F Damp=F
 DIIS: error= 4.64D-03 at cycle   5 NSaved=   5.
 NSaved= 5 IEnMin= 5 EnMin= -3005.30728253675     IErMin= 5 ErrMin= 4.64D-03
 ErrMax= 4.64D-03  0.00D+00 EMaxC= 1.00D-01 BMatC= 1.57D-02 BMatP= 6.84D-02
 IDIUse=3 WtCom= 9.54D-01 WtEn= 4.64D-02
 Coeff-Com: -0.345D-01 0.786D-01 0.222D+00 0.386D+00 0.348D+00
 Coeff-En:   0.000D+00 0.000D+00 0.000D+00 0.253D+00 0.747D+00
 Coeff:     -0.329D-01 0.750D-01 0.211D+00 0.380D+00 0.367D+00
 Gap=     0.073 Goal=   None    Shift=    0.000
 RMSDP=1.97D-04 MaxDP=1.97D-02 DE=-6.11D-02 OVMax= 1.46D-01

 Cycle   6  Pass 1  IDiag  1:
 RMSU=  7.05D-05    CP:  9.69D-01  1.85D+00  6.28D-01  5.85D-01  2.97D-01
 E= -3005.32862202317     Delta-E=       -0.021339486417 Rises=F Damp=F
 DIIS: error= 9.33D-04 at cycle   6 NSaved=   6.
 NSaved= 6 IEnMin= 6 EnMin= -3005.32862202317     IErMin= 6 ErrMin= 9.33D-04
 ErrMax= 9.33D-04  0.00D+00 EMaxC= 1.00D-01 BMatC= 1.05D-03 BMatP= 1.57D-02
 IDIUse=3 WtCom= 9.91D-01 WtEn= 9.33D-03
 Coeff-Com:  0.164D-02-0.162D-02 0.627D-01 0.142D+00 0.233D+00 0.562D+00
 Coeff-En:   0.000D+00 0.000D+00 0.000D+00 0.000D+00 0.592D-01 0.941D+00
 Coeff:      0.162D-02-0.161D-02 0.621D-01 0.141D+00 0.231D+00 0.566D+00
 Gap=     0.074 Goal=   None    Shift=    0.000
 RMSDP=5.20D-05 MaxDP=6.78D-03 DE=-2.13D-02 OVMax= 3.31D-02

 Cycle   7  Pass 1  IDiag  1:
 RMSU=  3.41D-05    CP:  9.69D-01  1.86D+00  6.36D-01  5.62D-01  4.38D-01
                    CP:  6.81D-01
 E= -3005.32960497506     Delta-E=       -0.000982951891 Rises=F Damp=F
 DIIS: error= 4.84D-04 at cycle   7 NSaved=   7.
 NSaved= 7 IEnMin= 7 EnMin= -3005.32960497506     IErMin= 7 ErrMin= 4.84D-04
 ErrMax= 4.84D-04  0.00D+00 EMaxC= 1.00D-01 BMatC= 2.27D-04 BMatP= 1.05D-03
 IDIUse=3 WtCom= 9.95D-01 WtEn= 4.84D-03
 Coeff-Com:  0.432D-02-0.879D-02 0.117D-01 0.395D-01 0.105D+00 0.388D+00
 Coeff-Com:  0.460D+00
 Coeff-En:   0.000D+00 0.000D+00 0.000D+00 0.000D+00 0.000D+00 0.198D+00
 Coeff-En:   0.802D+00
 Coeff:      0.430D-02-0.875D-02 0.117D-01 0.393D-01 0.105D+00 0.387D+00
 Coeff:      0.462D+00
 Gap=     0.075 Goal=   None    Shift=    0.000
 RMSDP=2.64D-05 MaxDP=3.16D-03 DE=-9.83D-04 OVMax= 1.33D-02

 Cycle   8  Pass 1  IDiag  1:
 RMSU=  1.36D-05    CP:  9.69D-01  1.86D+00  6.37D-01  5.63D-01  4.15D-01
                    CP:  7.77D-01  3.86D-01
 E= -3005.32982427586     Delta-E=       -0.000219300799 Rises=F Damp=F
 DIIS: error= 3.10D-04 at cycle   8 NSaved=   8.
 NSaved= 8 IEnMin= 8 EnMin= -3005.32982427586     IErMin= 8 ErrMin= 3.10D-04
 ErrMax= 3.10D-04  0.00D+00 EMaxC= 1.00D-01 BMatC= 4.83D-05 BMatP= 2.27D-04
 IDIUse=3 WtCom= 9.97D-01 WtEn= 3.10D-03
 Coeff-Com:  0.218D-02-0.471D-02-0.131D-02 0.473D-02 0.368D-01 0.185D+00
 Coeff-Com:  0.344D+00 0.434D+00
 Coeff-En:   0.000D+00 0.000D+00 0.000D+00 0.000D+00 0.000D+00 0.000D+00
 Coeff-En:   0.226D+00 0.774D+00
 Coeff:      0.217D-02-0.469D-02-0.130D-02 0.472D-02 0.367D-01 0.184D+00
 Coeff:      0.343D+00 0.435D+00
 Gap=     0.075 Goal=   None    Shift=    0.000
 RMSDP=1.04D-05 MaxDP=9.63D-04 DE=-2.19D-04 OVMax= 6.10D-03

 Cycle   9  Pass 1  IDiag  1:
 RMSU=  4.33D-06    CP:  9.69D-01  1.86D+00  6.37D-01  5.65D-01  4.23D-01
                    CP:  7.65D-01  5.56D-01  4.72D-01
 E= -3005.32988477877     Delta-E=       -0.000060502918 Rises=F Damp=F
 DIIS: error= 7.42D-05 at cycle   9 NSaved=   9.
 NSaved= 9 IEnMin= 9 EnMin= -3005.32988477877     IErMin= 9 ErrMin= 7.42D-05
 ErrMax= 7.42D-05  0.00D+00 EMaxC= 1.00D-01 BMatC= 3.69D-06 BMatP= 4.83D-05
 IDIUse=1 WtCom= 1.00D+00 WtEn= 0.00D+00
 Coeff-Com:  0.611D-03-0.136D-02-0.217D-02-0.243D-02 0.934D-02 0.640D-01
 Coeff-Com:  0.161D+00 0.275D+00 0.497D+00
 Coeff:      0.611D-03-0.136D-02-0.217D-02-0.243D-02 0.934D-02 0.640D-01
 Coeff:      0.161D+00 0.275D+00 0.497D+00
 Gap=     0.075 Goal=   None    Shift=    0.000
 RMSDP=2.74D-06 MaxDP=2.60D-04 DE=-6.05D-05 OVMax= 1.37D-03

 Cycle  10  Pass 1  IDiag  1:
 RMSU=  1.94D-06    CP:  9.69D-01  1.86D+00  6.37D-01  5.64D-01  4.23D-01
                    CP:  7.74D-01  5.49D-01  5.49D-01  6.70D-01
 E= -3005.32988845040     Delta-E=       -0.000003671628 Rises=F Damp=F
 DIIS: error= 1.50D-05 at cycle  10 NSaved=  10.
 NSaved=10 IEnMin=10 EnMin= -3005.32988845040     IErMin=10 ErrMin= 1.50D-05
 ErrMax= 1.50D-05  0.00D+00 EMaxC= 1.00D-01 BMatC= 4.90D-07 BMatP= 3.69D-06
 IDIUse=1 WtCom= 1.00D+00 WtEn= 0.00D+00
 Coeff-Com:  0.579D-04-0.121D-03-0.112D-02-0.235D-02 0.527D-03 0.125D-01
 Coeff-Com:  0.538D-01 0.114D+00 0.311D+00 0.512D+00
 Coeff:      0.579D-04-0.121D-03-0.112D-02-0.235D-02 0.527D-03 0.125D-01
 Coeff:      0.538D-01 0.114D+00 0.311D+00 0.512D+00
 Gap=     0.075 Goal=   None    Shift=    0.000
 RMSDP=9.53D-07 MaxDP=9.13D-05 DE=-3.67D-06 OVMax= 3.56D-04

 Cycle  11  Pass 1  IDiag  1:
 RMSU=  6.04D-07    CP:  9.69D-01  1.86D+00  6.37D-01  5.64D-01  4.23D-01
                    CP:  7.75D-01  5.52D-01  5.49D-01  7.54D-01  6.76D-01
 E= -3005.32988895240     Delta-E=       -0.000000501994 Rises=F Damp=F
 DIIS: error= 5.00D-06 at cycle  11 NSaved=  11.
 NSaved=11 IEnMin=11 EnMin= -3005.32988895240     IErMin=11 ErrMin= 5.00D-06
 ErrMax= 5.00D-06  0.00D+00 EMaxC= 1.00D-01 BMatC= 6.50D-08 BMatP= 4.90D-07
 IDIUse=1 WtCom= 1.00D+00 WtEn= 0.00D+00
 Coeff-Com: -0.247D-04 0.755D-04-0.398D-03-0.119D-02-0.102D-02-0.218D-02
 Coeff-Com:  0.106D-01 0.310D-01 0.118D+00 0.306D+00 0.539D+00
 Coeff:     -0.247D-04 0.755D-04-0.398D-03-0.119D-02-0.102D-02-0.218D-02
 Coeff:      0.106D-01 0.310D-01 0.118D+00 0.306D+00 0.539D+00
 Gap=     0.075 Goal=   None    Shift=    0.000
 RMSDP=3.47D-07 MaxDP=2.92D-05 DE=-5.02D-07 OVMax= 1.14D-04

 Cycle  12  Pass 1  IDiag  1:
 RMSU=  2.17D-07    CP:  9.69D-01  1.86D+00  6.37D-01  5.64D-01  4.23D-01
                    CP:  7.75D-01  5.54D-01  5.58D-01  7.54D-01  7.70D-01
                    CP:  8.00D-01
 E= -3005.32988901947     Delta-E=       -0.000000067075 Rises=F Damp=F
 DIIS: error= 2.41D-06 at cycle  12 NSaved=  12.
 NSaved=12 IEnMin=12 EnMin= -3005.32988901947     IErMin=12 ErrMin= 2.41D-06
 ErrMax= 2.41D-06  0.00D+00 EMaxC= 1.00D-01 BMatC= 8.27D-09 BMatP= 6.50D-08
 IDIUse=1 WtCom= 1.00D+00 WtEn= 0.00D+00
 Coeff-Com: -0.216D-05 0.263D-04-0.357D-04-0.277D-03-0.510D-03-0.320D-02
 Coeff-Com: -0.181D-02-0.736D-03 0.135D-01 0.741D-01 0.287D+00 0.632D+00
 Coeff:     -0.216D-05 0.263D-04-0.357D-04-0.277D-03-0.510D-03-0.320D-02
 Coeff:     -0.181D-02-0.736D-03 0.135D-01 0.741D-01 0.287D+00 0.632D+00
 Gap=     0.075 Goal=   None    Shift=    0.000
 RMSDP=1.33D-07 MaxDP=1.54D-05 DE=-6.71D-08 OVMax= 4.35D-05

 Cycle  13  Pass 1  IDiag  1:
 RMSU=  9.11D-08    CP:  9.69D-01  1.86D+00  6.37D-01  5.64D-01  4.23D-01
                    CP:  7.75D-01  5.54D-01  5.59D-01  7.66D-01  7.75D-01
                    CP:  8.93D-01  7.97D-01
 E= -3005.32988902828     Delta-E=       -0.000000008808 Rises=F Damp=F
 DIIS: error= 8.55D-07 at cycle  13 NSaved=  13.
 NSaved=13 IEnMin=13 EnMin= -3005.32988902828     IErMin=13 ErrMin= 8.55D-07
 ErrMax= 8.55D-07  0.00D+00 EMaxC= 1.00D-01 BMatC= 1.84D-09 BMatP= 8.27D-09
 IDIUse=1 WtCom= 1.00D+00 WtEn= 0.00D+00
 Coeff-Com:  0.495D-05 0.170D-05 0.459D-04 0.935D-05-0.168D-03-0.196D-02
 Coeff-Com: -0.325D-02-0.637D-02-0.130D-01-0.790D-02 0.912D-01 0.394D+00
 Coeff-Com:  0.548D+00
 Coeff:      0.495D-05 0.170D-05 0.459D-04 0.935D-05-0.168D-03-0.196D-02
 Coeff:     -0.325D-02-0.637D-02-0.130D-01-0.790D-02 0.912D-01 0.394D+00
 Coeff:      0.548D+00
 Gap=     0.075 Goal=   None    Shift=    0.000
 RMSDP=5.75D-08 MaxDP=5.43D-06 DE=-8.81D-09 OVMax= 2.00D-05

 Cycle  14  Pass 1  IDiag  1:
 RMSU=  3.68D-08    CP:  9.69D-01  1.86D+00  6.37D-01  5.64D-01  4.23D-01
                    CP:  7.75D-01  5.54D-01  5.59D-01  7.69D-01  7.85D-01
                    CP:  9.08D-01  8.90D-01  7.09D-01
 E= -3005.32988903019     Delta-E=       -0.000000001915 Rises=F Damp=F
 DIIS: error= 3.98D-07 at cycle  14 NSaved=  14.
 NSaved=14 IEnMin=14 EnMin= -3005.32988903019     IErMin=14 ErrMin= 3.98D-07
 ErrMax= 3.98D-07  0.00D+00 EMaxC= 1.00D-01 BMatC= 2.60D-10 BMatP= 1.84D-09
 IDIUse=1 WtCom= 1.00D+00 WtEn= 0.00D+00
 Coeff-Com:  0.525D-05-0.561D-05 0.348D-04 0.400D-04-0.189D-04-0.811D-03
 Coeff-Com: -0.174D-02-0.388D-02-0.986D-02-0.153D-01 0.187D-01 0.155D+00
 Coeff-Com:  0.333D+00 0.525D+00
 Coeff:      0.525D-05-0.561D-05 0.348D-04 0.400D-04-0.189D-04-0.811D-03
 Coeff:     -0.174D-02-0.388D-02-0.986D-02-0.153D-01 0.187D-01 0.155D+00
 Coeff:      0.333D+00 0.525D+00
 Gap=     0.075 Goal=   None    Shift=    0.000
 RMSDP=2.11D-08 MaxDP=2.34D-06 DE=-1.92D-09 OVMax= 7.13D-06

 Cycle  15  Pass 1  IDiag  1:
 RMSU=  1.50D-08    CP:  9.69D-01  1.86D+00  6.37D-01  5.64D-01  4.23D-01
                    CP:  7.75D-01  5.55D-01  5.60D-01  7.69D-01  7.86D-01
                    CP:  9.20D-01  9.06D-01  8.06D-01  8.56D-01
 E= -3005.32988903039     Delta-E=       -0.000000000200 Rises=F Damp=F
 DIIS: error= 1.37D-07 at cycle  15 NSaved=  15.
 NSaved=15 IEnMin=15 EnMin= -3005.32988903039     IErMin=15 ErrMin= 1.37D-07
 ErrMax= 1.37D-07  0.00D+00 EMaxC= 1.00D-01 BMatC= 3.69D-11 BMatP= 2.60D-10
 IDIUse=1 WtCom= 1.00D+00 WtEn= 0.00D+00
 Coeff-Com:  0.243D-05-0.365D-05 0.115D-04 0.140D-04 0.292D-04-0.120D-03
 Coeff-Com: -0.321D-03-0.906D-03-0.273D-02-0.619D-02-0.223D-02 0.205D-01
 Coeff-Com:  0.966D-01 0.284D+00 0.611D+00
 Coeff:      0.243D-05-0.365D-05 0.115D-04 0.140D-04 0.292D-04-0.120D-03
 Coeff:     -0.321D-03-0.906D-03-0.273D-02-0.619D-02-0.223D-02 0.205D-01
 Coeff:      0.966D-01 0.284D+00 0.611D+00
 Gap=     0.075 Goal=   None    Shift=    0.000
 RMSDP=7.91D-09 MaxDP=5.68D-07 DE=-2.00D-10 OVMax= 3.55D-06

 SCF Done:  E(RPBE1PBE) =  -3005.32988903     A.U. after   15 cycles
            NFock= 15  Conv=0.79D-08     -V/T= 2.0102
 KE= 2.974865162374D+03 PE=-2.574837760538D+04 EE= 1.038966650489D+04
 Leave Link  502 at Fri Apr 29 00:19:09 2022, MaxMem= 10066329600 cpu:            6504.8 elap:             272.6
 (Enter /sw/apps/gaussian-16.0/g16/l801.exe)
 DoSCS=F DFT=T ScalE2(SS,OS)=  1.000000  1.000000
 ExpMin= 3.36D-02 ExpMax= 4.95D+03 ExpMxC= 7.45D+02 IAcc=3 IRadAn=         5 AccDes= 0.00D+00
 HarFok:  IExCor=  205 AccDes= 0.00D+00 IRadAn=         5 IDoV=-2 UseB2=F ITyADJ=14
 ICtDFT= 12500011 ScaDFX=  1.000000  1.000000  1.000000  1.000000
 GSVD:  LWork=       -5460 too small for GESVD, short by       25550 words or       25550 for optimal perf.
 Largest valence mixing into a core orbital is  1.47D-04
 Largest core mixing into a valence orbital is  5.46D-05
 Range of M.O.s used for correlation:    71  1298
 NBasis=  1298 NAE=   246 NBE=   246 NFC=    70 NFV=     0
 NROrb=   1228 NOA=   176 NOB=   176 NVA=  1052 NVB=  1052

 **** Warning!!: The smallest alpha delta epsilon is  0.75478706D-01

 Leave Link  801 at Fri Apr 29 00:19:09 2022, MaxMem= 10066329600 cpu:               5.9 elap:               0.3
 (Enter /sw/apps/gaussian-16.0/g16/l914.exe)
 RHF ground state
 Two-electron integrals replicated using symmetry.
 MDV= 10066329600 DFT=T DoStab=F Mixed=T DoRPA=T DoScal=F NonHer=T
 Making orbital integer symmetry assigments:
 Orbital symmetries:
       Occupied  (A) (A) (A) (A) (A) (A) (A) (A) (A) (A) (A) (A)
                 (A) (A) (A) (A) (A) (A) (A) (A) (A) (A) (A) (A)
                 (A) (A) (A) (A) (A) (A) (A) (A) (A) (A) (A) (A)
                 (A) (A) (A) (A) (A) (A) (A) (A) (A) (A) (A) (A)
                 (A) (A) (A) (A) (A) (A) (A) (A) (A) (A) (A) (A)
                 (A) (A) (A) (A) (A) (A) (A) (A) (A) (A) (A) (A)
                 (A) (A) (A) (A) (A) (A) (A) (A) (A) (A) (A) (A)
                 (A) (A) (A) (A) (A) (A) (A) (A) (A) (A) (A) (A)
                 (A) (A) (A) (A) (A) (A) (A) (A) (A) (A) (A) (A)
                 (A) (A) (A) (A) (A) (A) (A) (A) (A) (A) (A) (A)
                 (A) (A) (A) (A) (A) (A) (A) (A) (A) (A) (A) (A)
                 (A) (A) (A) (A) (A) (A) (A) (A) (A) (A) (A) (A)
                 (A) (A) (A) (A) (A) (A) (A) (A) (A) (A) (A) (A)
                 (A) (A) (A) (A) (A) (A) (A) (A) (A) (A) (A) (A)
                 (A) (A) (A) (A) (A) (A) (A) (A) (A) (A) (A) (A)
                 (A) (A) (A) (A) (A) (A) (A) (A) (A) (A) (A) (A)
                 (A) (A) (A) (A) (A) (A) (A) (A) (A) (A) (A) (A)
                 (A) (A) (A) (A) (A) (A) (A) (A) (A) (A) (A) (A)
                 (A) (A) (A) (A) (A) (A) (A) (A) (A) (A) (A) (A)
                 (A) (A) (A) (A) (A) (A) (A) (A) (A) (A) (A) (A)
                 (A) (A) (A) (A) (A) (A)
       Virtual   (A) (A) (A) (A) (A) (A) (A) (A) (A) (A) (A) (A)
                 (A) (A) (A) (A) (A) (A) (A) (A) (A) (A) (A) (A)
                 (A) (A) (A) (A) (A) (A) (A) (A) (A) (A) (A) (A)
                 (A) (A) (A) (A) (A) (A) (A) (A) (A) (A) (A) (A)
                 (A) (A) (A) (A) (A) (A) (A) (A) (A) (A) (A) (A)
                 (A) (A) (A) (A) (A) (A) (A) (A) (A) (A) (A) (A)
                 (A) (A) (A) (A) (A) (A) (A) (A) (A) (A) (A) (A)
                 (A) (A) (A) (A) (A) (A) (A) (A) (A) (A) (A) (A)
                 (A) (A) (A) (A) (A) (A) (A) (A) (A) (A) (A) (A)
                 (A) (A) (A) (A) (A) (A) (A) (A) (A) (A) (A) (A)
                 (A) (A) (A) (A) (A) (A) (A) (A) (A) (A) (A) (A)
                 (A) (A) (A) (A) (A) (A) (A) (A) (A) (A) (A) (A)
                 (A) (A) (A) (A) (A) (A) (A) (A) (A) (A) (A) (A)
                 (A) (A) (A) (A) (A) (A) (A) (A) (A) (A) (A) (A)
                 (A) (A) (A) (A) (A) (A) (A) (A) (A) (A) (A) (A)
                 (A) (A) (A) (A) (A) (A) (A) (A) (A) (A) (A) (A)
                 (A) (A) (A) (A) (A) (A) (A) (A) (A) (A) (A) (A)
                 (A) (A) (A) (A) (A) (A) (A) (A) (A) (A) (A) (A)
                 (A) (A) (A) (A) (A) (A) (A) (A) (A) (A) (A) (A)
                 (A) (A) (A) (A) (A) (A) (A) (A) (A) (A) (A) (A)
                 (A) (A) (A) (A) (A) (A) (A) (A) (A) (A) (A) (A)
                 (A) (A) (A) (A) (A) (A) (A) (A) (A) (A) (A) (A)
                 (A) (A) (A) (A) (A) (A) (A) (A) (A) (A) (A) (A)
                 (A) (A) (A) (A) (A) (A) (A) (A) (A) (A) (A) (A)
                 (A) (A) (A) (A) (A) (A) (A) (A) (A) (A) (A) (A)
                 (A) (A) (A) (A) (A) (A) (A) (A) (A) (A) (A) (A)
                 (A) (A) (A) (A) (A) (A) (A) (A) (A) (A) (A) (A)
                 (A) (A) (A) (A) (A) (A) (A) (A) (A) (A) (A) (A)
                 (A) (A) (A) (A) (A) (A) (A) (A) (A) (A) (A) (A)
                 (A) (A) (A) (A) (A) (A) (A) (A) (A) (A) (A) (A)
                 (A) (A) (A) (A) (A) (A) (A) (A) (A) (A) (A) (A)
                 (A) (A) (A) (A) (A) (A) (A) (A) (A) (A) (A) (A)
                 (A) (A) (A) (A) (A) (A) (A) (A) (A) (A) (A) (A)
                 (A) (A) (A) (A) (A) (A) (A) (A) (A) (A) (A) (A)
                 (A) (A) (A) (A) (A) (A) (A) (A) (A) (A) (A) (A)
                 (A) (A) (A) (A) (A) (A) (A) (A) (A) (A) (A) (A)
                 (A) (A) (A) (A) (A) (A) (A) (A) (A) (A) (A) (A)
                 (A) (A) (A) (A) (A) (A) (A) (A) (A) (A) (A) (A)
                 (A) (A) (A) (A) (A) (A) (A) (A) (A) (A) (A) (A)
                 (A) (A) (A) (A) (A) (A) (A) (A) (A) (A) (A) (A)
                 (A) (A) (A) (A) (A) (A) (A) (A) (A) (A) (A) (A)
                 (A) (A) (A) (A) (A) (A) (A) (A) (A) (A) (A) (A)
                 (A) (A) (A) (A) (A) (A) (A) (A) (A) (A) (A) (A)
                 (A) (A) (A) (A) (A) (A) (A) (A) (A) (A) (A) (A)
                 (A) (A) (A) (A) (A) (A) (A) (A) (A) (A) (A) (A)
                 (A) (A) (A) (A) (A) (A) (A) (A) (A) (A) (A) (A)
                 (A) (A) (A) (A) (A) (A) (A) (A) (A) (A) (A) (A)
                 (A) (A) (A) (A) (A) (A) (A) (A) (A) (A) (A) (A)
                 (A) (A) (A) (A) (A) (A) (A) (A) (A) (A) (A) (A)
                 (A) (A) (A) (A) (A) (A) (A) (A) (A) (A) (A) (A)
                 (A) (A) (A) (A) (A) (A) (A) (A) (A) (A) (A) (A)
                 (A) (A) (A) (A) (A) (A) (A) (A) (A) (A) (A) (A)
                 (A) (A) (A) (A) (A) (A) (A) (A) (A) (A) (A) (A)
                 (A) (A) (A) (A) (A) (A) (A) (A) (A) (A) (A) (A)
                 (A) (A) (A) (A) (A) (A) (A) (A) (A) (A) (A) (A)
                 (A) (A) (A) (A) (A) (A) (A) (A) (A) (A) (A) (A)
                 (A) (A) (A) (A) (A) (A) (A) (A) (A) (A) (A) (A)
                 (A) (A) (A) (A) (A) (A) (A) (A) (A) (A) (A) (A)
                 (A) (A) (A) (A) (A) (A) (A) (A) (A) (A) (A) (A)
                 (A) (A) (A) (A) (A) (A) (A) (A) (A) (A) (A) (A)
                 (A) (A) (A) (A) (A) (A) (A) (A) (A) (A) (A) (A)
                 (A) (A) (A) (A) (A) (A) (A) (A) (A) (A) (A) (A)
                 (A) (A) (A) (A) (A) (A) (A) (A) (A) (A) (A) (A)
                 (A) (A) (A) (A) (A) (A) (A) (A) (A) (A) (A) (A)
                 (A) (A) (A) (A) (A) (A) (A) (A) (A) (A) (A) (A)
                 (A) (A) (A) (A) (A) (A) (A) (A) (A) (A) (A) (A)
                 (A) (A) (A) (A) (A) (A) (A) (A) (A) (A) (A) (A)
                 (A) (A) (A) (A) (A) (A) (A) (A) (A) (A) (A) (A)
                 (A) (A) (A) (A) (A) (A) (A) (A) (A) (A) (A) (A)
                 (A) (A) (A) (A) (A) (A) (A) (A) (A) (A) (A) (A)
                 (A) (A) (A) (A) (A) (A) (A) (A) (A) (A) (A) (A)
                 (A) (A) (A) (A) (A) (A) (A) (A) (A) (A) (A) (A)
                 (A) (A) (A) (A) (A) (A) (A) (A) (A) (A) (A) (A)
                 (A) (A) (A) (A) (A) (A) (A) (A) (A) (A) (A) (A)
                 (A) (A) (A) (A) (A) (A) (A) (A) (A) (A) (A) (A)
                 (A) (A) (A) (A) (A) (A) (A) (A) (A) (A) (A) (A)
                 (A) (A) (A) (A) (A) (A) (A) (A) (A) (A) (A) (A)
                 (A) (A) (A) (A) (A) (A) (A) (A) (A) (A) (A) (A)
                 (A) (A) (A) (A) (A) (A) (A) (A) (A) (A) (A) (A)
                 (A) (A) (A) (A) (A) (A) (A) (A) (A) (A) (A) (A)
                 (A) (A) (A) (A) (A) (A) (A) (A) (A) (A) (A) (A)
                 (A) (A) (A) (A) (A) (A) (A) (A) (A) (A) (A) (A)
                 (A) (A) (A) (A) (A) (A) (A) (A) (A) (A) (A) (A)
                 (A) (A) (A) (A) (A) (A) (A) (A) (A) (A) (A) (A)
                 (A) (A) (A) (A) (A) (A) (A) (A) (A) (A) (A) (A)
                 (A) (A) (A) (A) (A) (A) (A) (A) (A) (A) (A) (A)
                 (A) (A) (A) (A) (A) (A) (A) (A) (A) (A) (A) (A)
                 (A) (A) (A) (A) (A) (A) (A) (A)
    20 initial guesses have been made.
 Convergence on wavefunction:    0.001000000000000
 Davidson Disk Diagonalization:  ConvIn= 1.00D-03 SkipCon=T Conv= 1.00D-03.
 Max sub-space:  2000 roots to seek:    20 dimension of matrix:       370304
 Iteration     1 Dimension    20 NMult     0 NNew     20
 CISAX will form    20 AO SS matrices at one time.
 NMat=    20 NSing=    20 JSym2X= 0.
 FoFJK:  IHMeth= 1 ICntrl=       0 DoSepK=F KAlg= 0 I1Cent=           0 FoldK=F
 IRaf= 510000000 NMat=      40 IRICut=       1 DoRegI=T DoRafI=F ISym2E= 0 IDoP0=3 IntGTp=3.
 FoFCou: FMM=T IPFlag=           0 FMFlag=      100000 FMFlg1=        2001
         NFxFlg=           0 DoJE=F BraDBF=F KetDBF=F FulRan=T
         wScrn=  0.000000 ICntrl=         0 IOpCl=  0 I1Cent=           0 NGrid=           0
         NMat0=   40 NMatS0=     20 NMatT0=    0 NMatD0=   40 NMtDS0=    0 NMtDT0=    0
 Symmetry not used in FoFCou.
 FMM levels:  10  Number of levels for PrismC:   9
 New state      3 was old state      4
 New state      4 was old state      8
 New state      5 was old state      3
 Excitation Energies [eV] at current iteration:
 Root      1 :     2.269364398683529
 Root      2 :     2.488857091751109
 Root      3 :     2.991581146924305
 Root      4 :     3.218480943223220
 Root      5 :     3.241727315467566
 Root      6 :     3.299873906960960
 Root      7 :     3.438834795662170
 Root      8 :     3.786036986151774
 Root      9 :     3.876249468760499
 Root     10 :     3.885540907112786
 Root     11 :     4.023188014306833
 Root     12 :     4.110002349642630
 Root     13 :     4.140955401216615
 Root     14 :     4.314642412199846
 Root     15 :     4.321617451520487
 Root     16 :     4.369819034374052
 Root     17 :     4.585951241065760
 Root     18 :     4.665036045786416
 Root     19 :     4.706553733830924
 Root     20 :     4.876767407710346
 Iteration     2 Dimension    30 NMult    20 NNew     10
 CISAX will form    10 AO SS matrices at one time.
 NMat=    10 NSing=    10 JSym2X= 0.
 Root      1 not converged, maximum delta is    0.058304974732556
 Root      2 not converged, maximum delta is    0.062489735593942
 Root      3 not converged, maximum delta is    0.093522909726783
 New state      4 was old state      6
 Root      4 not converged, maximum delta is    0.337182521765724
 New state      5 was old state      4
 Root      5 not converged, maximum delta is    0.412551281779921
 Excitation Energies [eV] at current iteration:
 Root      1 :     1.909991540084983   Change is   -0.359372858598546
 Root      2 :     2.184451950041662   Change is   -0.304405141709447
 Root      3 :     2.876462948524843   Change is   -0.115118198399462
 Root      4 :     3.087035896487825   Change is   -0.212838010473135
 Root      5 :     3.145409894573511   Change is   -0.073071048649709
 Iteration     3 Dimension    40 NMult    30 NNew     10
 CISAX will form    10 AO SS matrices at one time.
 NMat=    10 NSing=    10 JSym2X= 0.
 Root      1 not converged, maximum delta is    0.025679600127700
 Root      2 not converged, maximum delta is    0.023640098300593
 Root      3 not converged, maximum delta is    0.011351752239428
 Root      4 not converged, maximum delta is    0.158479115602322
 Root      5 not converged, maximum delta is    0.183525479645610
 Excitation Energies [eV] at current iteration:
 Root      1 :     1.873562493250703   Change is   -0.036429046834280
 Root      2 :     2.160579663575680   Change is   -0.023872286465982
 Root      3 :     2.867116003244949   Change is   -0.009346945279894
 Root      4 :     3.052450608681536   Change is   -0.034585287806288
 Root      5 :     3.115032481145014   Change is   -0.030377413428496
 Iteration     4 Dimension    50 NMult    40 NNew     10
 CISAX will form    10 AO SS matrices at one time.
 NMat=    10 NSing=    10 JSym2X= 0.
 Root      1 not converged, maximum delta is    0.002674645604404
 Root      2 not converged, maximum delta is    0.007334962483820
 Root      3 not converged, maximum delta is    0.004058324529917
 Root      4 not converged, maximum delta is    0.035841752913762
 Root      5 not converged, maximum delta is    0.028028233503295
 Excitation Energies [eV] at current iteration:
 Root      1 :     1.869591531433099   Change is   -0.003970961817604
 Root      2 :     2.157257018712239   Change is   -0.003322644863440
 Root      3 :     2.865875574055494   Change is   -0.001240429189454
 Root      4 :     3.046267666546049   Change is   -0.006182942135487
 Root      5 :     3.111670687310368   Change is   -0.003361793834646
 Iteration     5 Dimension    60 NMult    50 NNew     10
 CISAX will form    10 AO SS matrices at one time.
 NMat=    10 NSing=    10 JSym2X= 0.
 Root      1 has converged.
 Root      2 has converged.
 Root      3 has converged.
 Root      4 not converged, maximum delta is    0.014217592628379
 Root      5 not converged, maximum delta is    0.024549271316362
 Excitation Energies [eV] at current iteration:
 Root      1 :     1.869108960210046   Change is   -0.000482571223053
 Root      2 :     2.156948475009260   Change is   -0.000308543702979
 Root      3 :     2.865718230585161   Change is   -0.000157343470333
 Root      4 :     3.045356179719227   Change is   -0.000911486826822
 Root      5 :     3.110858241716760   Change is   -0.000812445593608
 Iteration     6 Dimension    64 NMult    60 NNew      4
 CISAX will form     4 AO SS matrices at one time.
 NMat=     4 NSing=     4 JSym2X= 0.
 Root      1 has converged.
 Root      2 has converged.
 Root      3 has converged.
 Root      4 not converged, maximum delta is    0.004849653846585
 Root      5 not converged, maximum delta is    0.017431310575847
 Excitation Energies [eV] at current iteration:
 Root      1 :     1.869107713303390   Change is   -0.000001246906656
 Root      2 :     2.156947307276263   Change is   -0.000001167732997
 Root      3 :     2.865716818710334   Change is   -0.000001411874827
 Root      4 :     3.045213150762313   Change is   -0.000143028956914
 Root      5 :     3.110555613600828   Change is   -0.000302628115932
 Iteration     7 Dimension    68 NMult    64 NNew      4
 CISAX will form     4 AO SS matrices at one time.
 NMat=     4 NSing=     4 JSym2X= 0.
 Root      1 has converged.
 Root      2 has converged.
 Root      3 has converged.
 Root      4 not converged, maximum delta is    0.001259141702597
 Root      5 not converged, maximum delta is    0.007674199515634
 Excitation Energies [eV] at current iteration:
 Root      1 :     1.869105869532735   Change is   -0.000001843770656
 Root      2 :     2.156947055883869   Change is   -0.000000251392394
 Root      3 :     2.865716380380259   Change is   -0.000000438330075
 Root      4 :     3.045195578201806   Change is   -0.000017572560507
 Root      5 :     3.110466621385753   Change is   -0.000088992215075
 Iteration     8 Dimension    72 NMult    68 NNew      4
 CISAX will form     4 AO SS matrices at one time.
 NMat=     4 NSing=     4 JSym2X= 0.
 Root      1 has converged.
 Root      2 has converged.
 Root      3 has converged.
 Root      4 has converged.
 Root      5 not converged, maximum delta is    0.002546682755744
 Excitation Energies [eV] at current iteration:
 Root      1 :     1.869105628473999   Change is   -0.000000241058735
 Root      2 :     2.156946990822244   Change is   -0.000000065061625
 Root      3 :     2.865716302673816   Change is   -0.000000077706443
 Root      4 :     3.045192646320130   Change is   -0.000002931881677
 Root      5 :     3.110446514322001   Change is   -0.000020107063752
 Iteration     9 Dimension    74 NMult    72 NNew      2
 CISAX will form     2 AO SS matrices at one time.
 NMat=     2 NSing=     2 JSym2X= 0.
 Root      1 has converged.
 Root      2 has converged.
 Root      3 has converged.
 Root      4 has converged.
 Root      5 has converged.
 Excitation Energies [eV] at current iteration:
 Root      1 :     1.869105593607755   Change is   -0.000000034866244
 Root      2 :     2.156946926545896   Change is   -0.000000064276348
 Root      3 :     2.865716214693282   Change is   -0.000000087980533
 Root      4 :     3.045192385270780   Change is   -0.000000261049350
 Root      5 :     3.110444452422151   Change is   -0.000002061899850
 Convergence achieved on expansion vectors.
 ***********************************************************************
 Excited states from <AA,BB:AA,BB> singles matrix:
 ***********************************************************************
 
 1PDM for each excited state written to RWF  633
 Ground to excited state transition densities written to RWF  633
 Ground to excited state transition electric dipole moments (Au):
       state          X           Y           Z        Dip. S.      Osc.
         1         0.1641      2.9603     -0.4756      9.0167      0.4129
         2         1.6069      0.3646      0.3047      2.8077      0.1484
         3        -0.1149     -0.0706      0.0291      0.0190      0.0013
         4         0.1892      0.0720      0.0162      0.0413      0.0031
         5        -0.2005     -0.1424      0.0014      0.0605      0.0046
 Ground to excited state transition velocity dipole moments (Au):
       state          X           Y           Z        Dip. S.      Osc.
         1        -0.0112     -0.1977      0.0324      0.0403      0.3907
         2        -0.1205     -0.0281     -0.0234      0.0159      0.1334
         3         0.0125      0.0070     -0.0001      0.0002      0.0013
         4        -0.0237     -0.0078     -0.0013      0.0006      0.0037
         5         0.0237      0.0138      0.0011      0.0008      0.0044
 Ground to excited state transition magnetic dipole moments (Au):
       state          X           Y           Z
         1         0.0029     -0.4152     -2.4953
         2        -0.0864      0.2761     -0.0116
         3        -0.1764     -0.4232      0.3896
         4         0.0529     -0.1959     -0.9911
         5        -0.3015     -0.1073      0.1072
 Ground to excited state transition velocity quadrupole moments (Au):
       state          XX          YY          ZZ          XY          XZ          YZ
         1        -0.0791     -0.4492     -0.0005     -2.3020      0.4076      0.1524
         2        -2.4803     -0.0896     -0.0065     -0.3114     -0.2606      0.0198
         3         0.2640      0.0682      0.0076      0.0651      0.0049      0.0003
         4        -0.4471      0.0365      0.0133      0.2492      0.0034      0.0413
         5         0.5217     -0.0029     -0.0216      0.1544     -0.0134     -0.0004
 <0|del|b> * <b|rxdel|0> + <0|del|b> * <b|delr+rdel|0>
 Rotatory Strengths (R) in cgs (10**-40 erg-esu-cm/Gauss)
       state          XX          YY          ZZ    R(velocity)    E-M Angle
         1        37.1889    -41.2156     16.3744      4.1159       89.86
         2       -33.5608      4.5243     55.1302      8.6979       85.40
         3       -10.1875     -7.4919    -17.2668    -11.6487      127.06
         4         8.0718     -1.7835      3.8789      3.3891       86.35
         5        -3.1111    -22.2601    -27.2054    -17.5255      156.60
 1/2[<0|r|b>*<b|rxdel|0> + (<0|rxdel|b>*<b|r|0>)*]
 Rotatory Strengths (R) in cgs (10**-40 erg-esu-cm/Gauss)
       state          XX          YY          ZZ     R(length)
         1        -0.3336    869.2213   -839.2578      9.8766
         2        98.1937    -71.1801      2.5028      9.8388
         3       -14.3296    -21.1349     -8.0174    -14.4939
         4        -7.0830      9.9796     11.3525      4.7497
         5       -42.7464    -10.8023     -0.1059    -17.8849
  1/2[<0|del|b>*<b|r|0> + (<0|r|b>*<b|del|0>)*] (Au)
       state          X           Y           Z        Dip. S.   Osc.(frdel)
         1        -0.0018     -0.5852     -0.0154      0.6025      0.4017
         2        -0.1936     -0.0102     -0.0071      0.2110      0.1407
         3        -0.0014     -0.0005     -0.0000      0.0019      0.0013
         4        -0.0045     -0.0006     -0.0000      0.0051      0.0034
         5        -0.0047     -0.0020      0.0000      0.0067      0.0045

 Excitation energies and oscillator strengths:
 
 Excited State   1:      Singlet-A      1.8691 eV  663.33 nm  f=0.4129  <S**2>=0.000
     245 -> 248       -0.15900
     246 -> 247        0.69372
     246 <- 247       -0.11348
 This state for optimization and/or second-order correction.
 Total Energy, E(TD-HF/TD-DFT) =  -3005.26120066    
 Copying the excited state density for this state as the 1-particle RhoCI density.
 
 Excited State   2:      Singlet-A      2.1569 eV  574.81 nm  f=0.1484  <S**2>=0.000
     245 -> 247        0.66855
     246 -> 248        0.19956
 
 Excited State   3:      Singlet-A      2.8657 eV  432.65 nm  f=0.0013  <S**2>=0.000
     242 -> 247        0.24745
     243 -> 247        0.63346
     243 -> 249       -0.11027
 
 Excited State   4:      Singlet-A      3.0452 eV  407.15 nm  f=0.0031  <S**2>=0.000
     242 -> 247        0.64532
     243 -> 247       -0.25080
 
 Excited State   5:      Singlet-A      3.1104 eV  398.61 nm  f=0.0046  <S**2>=0.000
     240 -> 247        0.45552
     240 -> 248        0.10191
     240 -> 249        0.10220
     241 -> 247        0.50206
 SavETr:  write IOETrn=   770 NScale= 10 NData=  16 NLR=1 NState=    5 LETran=     100.
 Leave Link  914 at Fri Apr 29 00:35:13 2022, MaxMem= 10066329600 cpu:           23089.9 elap:             963.9
 (Enter /sw/apps/gaussian-16.0/g16/l601.exe)
 Copying SCF densities to generalized density rwf, IOpCl= 0 IROHF=0.
 Hyperfine terms turned off by default for NAtoms > 100.

 **********************************************************************

            Population analysis using the SCF density.

 **********************************************************************

 Orbital symmetries:
       Occupied  (A) (A) (A) (A) (A) (A) (A) (A) (A) (A) (A) (A)
                 (A) (A) (A) (A) (A) (A) (A) (A) (A) (A) (A) (A)
                 (A) (A) (A) (A) (A) (A) (A) (A) (A) (A) (A) (A)
                 (A) (A) (A) (A) (A) (A) (A) (A) (A) (A) (A) (A)
                 (A) (A) (A) (A) (A) (A) (A) (A) (A) (A) (A) (A)
                 (A) (A) (A) (A) (A) (A) (A) (A) (A) (A) (A) (A)
                 (A) (A) (A) (A) (A) (A) (A) (A) (A) (A) (A) (A)
                 (A) (A) (A) (A) (A) (A) (A) (A) (A) (A) (A) (A)
                 (A) (A) (A) (A) (A) (A) (A) (A) (A) (A) (A) (A)
                 (A) (A) (A) (A) (A) (A) (A) (A) (A) (A) (A) (A)
                 (A) (A) (A) (A) (A) (A) (A) (A) (A) (A) (A) (A)
                 (A) (A) (A) (A) (A) (A) (A) (A) (A) (A) (A) (A)
                 (A) (A) (A) (A) (A) (A) (A) (A) (A) (A) (A) (A)
                 (A) (A) (A) (A) (A) (A) (A) (A) (A) (A) (A) (A)
                 (A) (A) (A) (A) (A) (A) (A) (A) (A) (A) (A) (A)
                 (A) (A) (A) (A) (A) (A) (A) (A) (A) (A) (A) (A)
                 (A) (A) (A) (A) (A) (A) (A) (A) (A) (A) (A) (A)
                 (A) (A) (A) (A) (A) (A) (A) (A) (A) (A) (A) (A)
                 (A) (A) (A) (A) (A) (A) (A) (A) (A) (A) (A) (A)
                 (A) (A) (A) (A) (A) (A) (A) (A) (A) (A) (A) (A)
                 (A) (A) (A) (A) (A) (A)
       Virtual   (A) (A) (A) (A) (A) (A) (A) (A) (A) (A) (A) (A)
                 (A) (A) (A) (A) (A) (A) (A) (A) (A) (A) (A) (A)
                 (A) (A) (A) (A) (A) (A) (A) (A) (A) (A) (A) (A)
                 (A) (A) (A) (A) (A) (A) (A) (A) (A) (A) (A) (A)
                 (A) (A) (A) (A) (A) (A) (A) (A) (A) (A) (A) (A)
                 (A) (A) (A) (A) (A) (A) (A) (A) (A) (A) (A) (A)
                 (A) (A) (A) (A) (A) (A) (A) (A) (A) (A) (A) (A)
                 (A) (A) (A) (A) (A) (A) (A) (A) (A) (A) (A) (A)
                 (A) (A) (A) (A) (A) (A) (A) (A) (A) (A) (A) (A)
                 (A) (A) (A) (A) (A) (A) (A) (A) (A) (A) (A) (A)
                 (A) (A) (A) (A) (A) (A) (A) (A) (A) (A) (A) (A)
                 (A) (A) (A) (A) (A) (A) (A) (A) (A) (A) (A) (A)
                 (A) (A) (A) (A) (A) (A) (A) (A) (A) (A) (A) (A)
                 (A) (A) (A) (A) (A) (A) (A) (A) (A) (A) (A) (A)
                 (A) (A) (A) (A) (A) (A) (A) (A) (A) (A) (A) (A)
                 (A) (A) (A) (A) (A) (A) (A) (A) (A) (A) (A) (A)
                 (A) (A) (A) (A) (A) (A) (A) (A) (A) (A) (A) (A)
                 (A) (A) (A) (A) (A) (A) (A) (A) (A) (A) (A) (A)
                 (A) (A) (A) (A) (A) (A) (A) (A) (A) (A) (A) (A)
                 (A) (A) (A) (A) (A) (A) (A) (A) (A) (A) (A) (A)
                 (A) (A) (A) (A) (A) (A) (A) (A) (A) (A) (A) (A)
                 (A) (A) (A) (A) (A) (A) (A) (A) (A) (A) (A) (A)
                 (A) (A) (A) (A) (A) (A) (A) (A) (A) (A) (A) (A)
                 (A) (A) (A) (A) (A) (A) (A) (A) (A) (A) (A) (A)
                 (A) (A) (A) (A) (A) (A) (A) (A) (A) (A) (A) (A)
                 (A) (A) (A) (A) (A) (A) (A) (A) (A) (A) (A) (A)
[...]
 Alpha virt. eigenvalues --    1.14969   1.15548   1.16118   1.16629   1.16800
 Alpha virt. eigenvalues --    1.17054   1.17690   1.17964   1.18135   1.18494
 Alpha virt. eigenvalues --    1.18814   1.19433   1.19682   1.20164   1.21355
 Alpha virt. eigenvalues --    1.21915   1.22645   1.22778   1.23135   1.23215
 Alpha virt. eigenvalues --    1.23725   1.24110   1.24112   1.24587   1.24931
 Alpha virt. eigenvalues --    1.26040   1.26165   1.26588   1.27233   1.27826
 Alpha virt. eigenvalues --    1.27969   1.28647   1.29067   1.29094   1.29561
 Alpha virt. eigenvalues --    1.30275   1.30514   1.30636   1.30650   1.31372
 Alpha virt. eigenvalues --    1.32033   1.32274   1.32478   1.33139   1.33854
 Alpha virt. eigenvalues --    1.34681   1.34908   1.35126   1.36239   1.36393
 Alpha virt. eigenvalues --    1.36774   1.37089   1.37864   1.38184   1.38368
 Alpha virt. eigenvalues --    1.38538   1.38606   1.39414   1.40299   1.40747
 Alpha virt. eigenvalues --    1.40903   1.40942   1.41415   1.42048   1.42454
 Alpha virt. eigenvalues --    1.42667   1.43189   1.43409   1.43556   1.44765
 Alpha virt. eigenvalues --    1.45146   1.45290   1.45830   1.46076   1.46694
 Alpha virt. eigenvalues --    1.47121   1.47438   1.48487   1.48850   1.49253
 Alpha virt. eigenvalues --    1.49679   1.50484   1.50839   1.51079   1.51432
 Alpha virt. eigenvalues --    1.51682   1.51889   1.52215   1.52799   1.53310
 Alpha virt. eigenvalues --    1.53373   1.53444   1.54166   1.54243   1.54439
 Alpha virt. eigenvalues --    1.54538   1.54633   1.55128   1.55218   1.55519
 Alpha virt. eigenvalues --    1.55598   1.56164   1.56258   1.56808   1.56906
 Alpha virt. eigenvalues --    1.57008   1.57106   1.57319   1.57610   1.57729
 Alpha virt. eigenvalues --    1.58134   1.58190   1.58509   1.58793   1.58981
 Alpha virt. eigenvalues --    1.59304   1.59765   1.60102   1.60573   1.61488
 Alpha virt. eigenvalues --    1.62179   1.62412   1.62738   1.63403   1.63499
 Alpha virt. eigenvalues --    1.64142   1.64455   1.65264   1.65570   1.65753
 Alpha virt. eigenvalues --    1.65974   1.66585   1.66944   1.67402   1.67712
 Alpha virt. eigenvalues --    1.68004   1.68209   1.68583   1.69319   1.69442
 Alpha virt. eigenvalues --    1.69530   1.69799   1.70211   1.70436   1.70500
 Alpha virt. eigenvalues --    1.70987   1.71369   1.71771   1.72109   1.72140
 Alpha virt. eigenvalues --    1.72462   1.73052   1.73174   1.73439   1.73814
 Alpha virt. eigenvalues --    1.73900   1.74488   1.74642   1.74811   1.75177
 Alpha virt. eigenvalues --    1.75282   1.75421   1.75490   1.75686   1.76088
 Alpha virt. eigenvalues --    1.76201   1.76877   1.76960   1.77174   1.77330
 Alpha virt. eigenvalues --    1.77547   1.77611   1.78068   1.78235   1.78296
 Alpha virt. eigenvalues --    1.78608   1.78865   1.79063   1.79135   1.79305
 Alpha virt. eigenvalues --    1.79575   1.79709   1.80055   1.80299   1.80416
 Alpha virt. eigenvalues --    1.80718   1.81207   1.81270   1.81497   1.81626
 Alpha virt. eigenvalues --    1.81790   1.82013   1.82876   1.82994   1.83374
 Alpha virt. eigenvalues --    1.83415   1.83521   1.83601   1.83754   1.83829
 Alpha virt. eigenvalues --    1.83972   1.84326   1.84611   1.84825   1.85055
 Alpha virt. eigenvalues --    1.85081   1.85332   1.85463   1.85834   1.85942
 Alpha virt. eigenvalues --    1.86135   1.86177   1.86354   1.86679   1.86929
 Alpha virt. eigenvalues --    1.87087   1.87331   1.87480   1.87539   1.87801
 Alpha virt. eigenvalues --    1.88079   1.88214   1.88605   1.88774   1.88869
 Alpha virt. eigenvalues --    1.88956   1.89137   1.89335   1.89539   1.89717
 Alpha virt. eigenvalues --    1.89999   1.90172   1.90651   1.90825   1.91416
 Alpha virt. eigenvalues --    1.91501   1.91920   1.92236   1.92550   1.92896
 Alpha virt. eigenvalues --    1.93012   1.93645   1.93983   1.94285   1.94369
 Alpha virt. eigenvalues --    1.94560   1.94776   1.95156   1.95303   1.95795
 Alpha virt. eigenvalues --    1.95988   1.96143   1.96267   1.96988   1.97484
 Alpha virt. eigenvalues --    1.97600   1.97917   1.98082   1.98587   1.98822
 Alpha virt. eigenvalues --    1.98892   1.99338   1.99488   1.99681   1.99928
 Alpha virt. eigenvalues --    2.00463   2.00951   2.01299   2.01581   2.01700
 Alpha virt. eigenvalues --    2.02034   2.02727   2.03287   2.03683   2.03786
 Alpha virt. eigenvalues --    2.03912   2.04301   2.04538   2.04631   2.04703
 Alpha virt. eigenvalues --    2.04930   2.05134   2.05217   2.05640   2.05988
 Alpha virt. eigenvalues --    2.06087   2.06406   2.06831   2.07349   2.07649
 Alpha virt. eigenvalues --    2.07815   2.08003   2.08398   2.08872   2.09156
 Alpha virt. eigenvalues --    2.09401   2.09601   2.10109   2.10210   2.10750
 Alpha virt. eigenvalues --    2.10878   2.10952   2.11453   2.11944   2.12046
 Alpha virt. eigenvalues --    2.12224   2.12453   2.12741   2.13221   2.13478
 Alpha virt. eigenvalues --    2.13584   2.14044   2.14578   2.14796   2.14849
 Alpha virt. eigenvalues --    2.15457   2.15689   2.16027   2.16486   2.16902
 Alpha virt. eigenvalues --    2.17243   2.17471   2.18059   2.18615   2.19581
 Alpha virt. eigenvalues --    2.19882   2.19988   2.20028   2.20377   2.21253
 Alpha virt. eigenvalues --    2.21447   2.21654   2.21954   2.22182   2.22393
 Alpha virt. eigenvalues --    2.22772   2.23949   2.24277   2.24537   2.25413
 Alpha virt. eigenvalues --    2.26184   2.26468   2.26538   2.26805   2.27236
 Alpha virt. eigenvalues --    2.28158   2.28563   2.28688   2.29090   2.29772
 Alpha virt. eigenvalues --    2.30044   2.30413   2.30501   2.30751   2.31415
 Alpha virt. eigenvalues --    2.31933   2.32471   2.32597   2.32922   2.33156
 Alpha virt. eigenvalues --    2.33345   2.33803   2.34019   2.34143   2.34488
 Alpha virt. eigenvalues --    2.34799   2.34918   2.35107   2.35853   2.36437
 Alpha virt. eigenvalues --    2.36918   2.37049   2.37845   2.38106   2.38469
 Alpha virt. eigenvalues --    2.38601   2.39236   2.39265   2.39578   2.39683
 Alpha virt. eigenvalues --    2.40225   2.40309   2.40512   2.41073   2.41406
 Alpha virt. eigenvalues --    2.41582   2.41789   2.42616   2.43008   2.43541
 Alpha virt. eigenvalues --    2.43677   2.44287   2.44977   2.45251   2.45442
 Alpha virt. eigenvalues --    2.45928   2.46476   2.46846   2.47042   2.47679
 Alpha virt. eigenvalues --    2.47777   2.48040   2.48791   2.49631   2.49749
 Alpha virt. eigenvalues --    2.49975   2.50660   2.51259   2.51364   2.51547
 Alpha virt. eigenvalues --    2.53326   2.53614   2.54093   2.54190   2.54255
 Alpha virt. eigenvalues --    2.55050   2.55135   2.55762   2.55889   2.56341
 Alpha virt. eigenvalues --    2.56979   2.57865   2.58388   2.58582   2.59027
 Alpha virt. eigenvalues --    2.59257   2.59336   2.60102   2.60218   2.60924
 Alpha virt. eigenvalues --    2.61151   2.61372   2.61456   2.62092   2.62212
 Alpha virt. eigenvalues --    2.62772   2.62837   2.63369   2.63801   2.63961
 Alpha virt. eigenvalues --    2.64184   2.65078   2.65373   2.65787   2.66214
 Alpha virt. eigenvalues --    2.66597   2.66989   2.67023   2.67316   2.67678
 Alpha virt. eigenvalues --    2.68255   2.68758   2.69230   2.69283   2.69916
 Alpha virt. eigenvalues --    2.70723   2.71110   2.71418   2.71662   2.71908
 Alpha virt. eigenvalues --    2.72156   2.72695   2.73057   2.73283   2.73607
 Alpha virt. eigenvalues --    2.73856   2.73919   2.74337   2.74838   2.75697
 Alpha virt. eigenvalues --    2.75787   2.76266   2.77201   2.77518   2.77680
 Alpha virt. eigenvalues --    2.78079   2.78252   2.78962   2.80036   2.81112
 Alpha virt. eigenvalues --    2.82212   2.82794   2.83098   2.83690   2.83859
 Alpha virt. eigenvalues --    2.83903   2.84429   2.85160   2.85749   2.86601
 Alpha virt. eigenvalues --    2.87127   2.87933   2.88276   2.88569   2.88623
 Alpha virt. eigenvalues --    2.88872   2.89288   2.89510   2.90601   2.91145
 Alpha virt. eigenvalues --    2.91197   2.91506   2.91783   2.92642   2.92855
 Alpha virt. eigenvalues --    2.92974   2.93124   2.93458   2.93757   2.93938
 Alpha virt. eigenvalues --    2.94301   2.94733   2.95006   2.95151   2.95265
 Alpha virt. eigenvalues --    2.95720   2.96055   2.96378   2.96635   2.96786
 Alpha virt. eigenvalues --    2.97174   2.97555   2.97814   2.97884   2.98204
 Alpha virt. eigenvalues --    2.99322   2.99356   2.99650   3.00249   3.00386
 Alpha virt. eigenvalues --    3.00555   3.00592   3.01374   3.01884   3.02165
 Alpha virt. eigenvalues --    3.02319   3.03087   3.03227   3.03243   3.03635
 Alpha virt. eigenvalues --    3.03893   3.04243   3.04263   3.05103   3.05194
 Alpha virt. eigenvalues --    3.05553   3.06281   3.06531   3.07035   3.07192
 Alpha virt. eigenvalues --    3.07357   3.07909   3.07981   3.08282   3.08980
 Alpha virt. eigenvalues --    3.09220   3.09809   3.09963   3.10810   3.11861
 Alpha virt. eigenvalues --    3.12256   3.13479   3.14133   3.14341   3.16009
 Alpha virt. eigenvalues --    3.16539   3.16865   3.17442   3.17562   3.18891
 Alpha virt. eigenvalues --    3.20767   3.21702   3.22218   3.22758   3.23912
 Alpha virt. eigenvalues --    3.24868   3.26316   3.36392   3.37052   3.38625
 Alpha virt. eigenvalues --    3.41759   3.44069   3.46339   3.49059   3.52292
 Alpha virt. eigenvalues --    3.54806   3.60555   3.63303   3.64596   3.65082
 Alpha virt. eigenvalues --    3.66733   3.68864
          Condensed to atoms (all electrons):
 Mulliken charges:
               1
     1  Mg   0.954543
     2  C    0.023488
     3  C   -0.062344
     4  C   -0.036443
     5  C   -0.060713
     6  N   -0.375356
     7  C    0.058330
     8  C   -0.099186
     9  C   -0.168434
    10  C    0.107612
    11  C    0.021187
    12  C    0.006525
    13  C   -0.080763
    14  C    0.250525
    15  O   -0.257861
    16  O   -0.380436
    17  N   -0.492054
    18  C    0.125269
    19  C   -0.133765
    20  C   -0.105185
    21  C    0.147003
    22  C    0.026544
    23  C    0.082233
    24  O   -0.234287
    25  C   -0.039086
    26  N   -0.381369
    27  C    0.055025
    28  C   -0.099363
    29  C   -0.076728
    30  C    0.033433
    31  C    0.011740
    32  C   -0.021107
    33  C   -0.068256
    34  N   -0.494987
    35  C    0.159373
    36  C   -0.167855
    37  C   -0.039614
    38  C    0.159151
    39  C    0.085531
    40  C    0.123911
    41  O   -0.228431
    42  C   -0.171965
    43  C    0.301237
    44  O   -0.268366
    45  O   -0.351894
    46  C    0.117996
    47  C    0.261530
    48  C   -0.129093
    49  C   -0.230461
    50  C    0.044618
    51  C   -0.000345
    52  C   -0.026467
    53  C   -0.032503
    54  C   -0.233106
    55  C   -0.013835
    56  C   -0.030998
    57  C   -0.109056
    58  C    0.038177
    59  C   -0.250067
    60  C    0.018119
    61  C   -0.024894
    62  C   -0.033700
    63  C   -0.009907
    64  C   -0.243463
    65  C   -0.016862
    66  C   -0.036763
    67  H   -0.007029
    68  H    0.027774
    69  H   -0.004363
    70  H    0.064235
    71  H    0.063726
    72  H    0.041256
    73  H    0.050469
    74  H    0.051483
    75  H    0.051870
    76  H    0.036833
    77  H    0.093890
    78  H    0.059602
    79  H    0.043066
    80  H    0.051561
    81  H    0.056273
    82  H    0.048418
    83  H    0.049872
    84  H    0.070822
    85  H    0.050040
    86  H    0.041419
    87  H    0.055929
    88  H    0.041937
    89  H    0.046509
    90  H    0.043479
    91  H    0.033449
    92  H    0.045623
    93  H    0.040548
    94  H    0.048468
    95  H    0.050003
    96  H    0.058293
    97  H    0.061521
    98  H    0.081407
    99  H    0.065774
   100  H    0.079900
   101  H    0.068632
   102  H    0.069796
   103  H    0.044795
   104  H    0.027387
   105  H    0.049374
   106  H    0.049119
   107  H    0.029190
   108  H    0.020297
   109  H    0.020690
   110  H    0.040711
   111  H    0.037593
   112  H    0.029298
   113  H    0.029558
   114  H    0.030758
   115  H    0.029675
   116  H    0.039452
   117  H    0.051586
   118  H    0.034654
   119  H    0.026562
   120  H    0.048321
   121  H    0.027413
   122  H    0.040023
   123  H    0.033725
   124  H    0.040120
   125  H    0.031352
   126  H    0.026686
   127  H    0.039132
   128  H    0.014109
   129  H    0.033193
   130  H    0.025688
   131  H    0.031645
   132  H    0.023181
   133  H    0.031552
   134  H    0.032455
   135  H    0.038842
   136  H    0.032608
   137  H    0.039770
   138  H    0.032004
   139  H    0.031521
   140  H    0.027747
 Sum of Mulliken charges =  -0.00000
 Mulliken charges with hydrogens summed into heavy atoms:
               1
     1  Mg   0.954543
     2  C    0.023488
     3  C   -0.069373
     4  C   -0.008670
     5  C   -0.065076
     6  N   -0.375356
     7  C    0.058330
     8  C   -0.034951
     9  C   -0.104709
    10  C    0.107612
    11  C    0.164396
    12  C    0.095227
    13  C    0.072729
    14  C    0.250525
    15  O   -0.257861
    16  O   -0.380436
    17  N   -0.492054
    18  C    0.125269
    19  C   -0.133765
    20  C   -0.105185
    21  C    0.147003
    22  C    0.177444
    23  C    0.082233
    24  O   -0.234287
    25  C    0.130027
    26  N   -0.381369
    27  C    0.055025
    28  C   -0.049324
    29  C   -0.035309
    30  C    0.033433
    31  C    0.156115
    32  C    0.055821
    33  C    0.066382
    34  N   -0.494987
    35  C    0.159373
    36  C   -0.167855
    37  C   -0.039614
    38  C    0.159151
    39  C    0.255349
    40  C    0.123911
    41  O   -0.228431
    42  C   -0.090558
    43  C    0.301237
    44  O   -0.268366
    45  O   -0.351894
    46  C    0.332301
    47  C    0.376121
    48  C   -0.101706
    49  C   -0.230461
    50  C    0.172300
    51  C    0.040642
    52  C    0.051837
    53  C    0.026353
    54  C   -0.202348
    55  C    0.106878
    56  C    0.030217
    57  C   -0.033321
    58  C    0.111925
    59  C   -0.209946
    60  C    0.115288
    61  C    0.022407
    62  C    0.023633
    63  C    0.044826
    64  C   -0.211007
    65  C    0.094358
    66  C    0.054508
 Electronic spatial extent (au):  <R**2>=         140466.7264
 Charge=              0.0000 electrons
 Dipole moment (field-independent basis, Debye):
    X=             -2.3088    Y=              1.4576    Z=              0.1988  Tot=              2.7376
 Quadrupole moment (field-independent basis, Debye-Ang):
   XX=           -382.7389   YY=           -402.7954   ZZ=           -402.7494
   XY=              3.2113   XZ=             24.0067   YZ=             -1.5625
 Traceless Quadrupole moment (field-independent basis, Debye-Ang):
   XX=             13.3557   YY=             -6.7009   ZZ=             -6.6548
   XY=              3.2113   XZ=             24.0067   YZ=             -1.5625
 Octapole moment (field-independent basis, Debye-Ang**2):
  XXX=            168.0080  YYY=             57.8915  ZZZ=              4.1680  XYY=           -163.0040
  XXY=           -340.7162  XXZ=            211.5722  XZZ=             39.0186  YZZ=             -9.9456
  YYZ=            -80.1076  XYZ=             -7.0831
 Hexadecapole moment (field-independent basis, Debye-Ang**3):
 XXXX=        -163402.9607 YYYY=         -21579.5044 ZZZZ=          -5399.3980 XXXY=          -2604.3426
 XXXZ=           1424.8623 YYYX=            494.8903 YYYZ=            174.4836 ZZZX=            209.2549
 ZZZY=             24.1305 XXYY=         -32756.0226 XXZZ=         -28719.5395 YYZZ=          -4419.6229
 XXYZ=           -251.9729 YYXZ=           -133.5771 ZZXY=            154.0900
 N-N= 9.378516049086D+03 E-N=-2.574837763440D+04  KE= 2.974865162374D+03
 Leave Link  601 at Fri Apr 29 00:35:14 2022, MaxMem= 10066329600 cpu:              10.3 elap:               0.5
 (Enter /sw/apps/gaussian-16.0/g16/l9999.exe)
 1\1\GINC-BP1-COMPUTE166\SP\RPBE1PBE TD-FC\def2SVP\C55H74Mg1N4O6\OF1564
 1\29-Apr-2022\0\\#p PBE1PBE/Def2SVP td=(nstates=5)\\step_1801_chromoph
 ore_16 TDDFT with PBE1PBE functional\\0,1\Mg,0,40.457,40.665,27.146\C,
 0,39.802,43.033,29.593\C,0,41.793,38.656,29.549\C,0,41.524,38.688,24.6
 37\C,0,39.824,43.187,24.698\N,0,40.798,40.849,29.353\C,0,40.363,41.877
 ,30.101\C,0,40.639,41.641,31.625\C,0,41.203,40.137,31.612\C,0,41.367,3
 9.855,30.087\C,0,42.473,40.069,32.45\C,0,39.4,41.641,32.497\C,0,39.288
 ,42.71,33.617\C,0,38.413,42.379,34.826\O,0,37.627,41.449,34.939\O,0,38
 .605,43.406,35.746\N,0,41.443,38.855,27.098\C,0,41.946,38.176,28.134\C
 ,0,42.472,36.885,27.744\C,0,42.45,36.913,26.309\C,0,41.792,38.209,25.9
 12\C,0,43.148,36.014,28.738\C,0,42.944,35.809,25.317\O,0,42.819,35.84,
 24.104\C,0,43.377,34.489,25.878\N,0,40.747,41.012,24.977\C,0,40.915,39
 .824,24.232\C,0,40.462,40.102,22.79\C,0,39.792,41.513,22.823\C,0,40.13
 8,41.981,24.252\C,0,41.678,40.148,21.82\C,0,38.267,41.66,22.443\C,0,37
 .26,40.835,23.221\N,0,39.772,42.622,27.092\C,0,39.681,43.591,26.041\C,
 0,39.269,44.845,26.52\C,0,39.257,44.652,27.904\C,0,39.621,43.311,28.22
 5\C,0,38.824,45.996,25.68\C,0,38.867,45.32,29.126\O,0,38.302,46.393,29
 .364\C,0,39.278,44.253,30.3\C,0,40.302,44.992,31.142\O,0,41.5,45.045,3
 0.885\O,0,39.698,45.534,32.205\C,0,40.61,46.503,32.97\C,0,37.593,43.39
 7,36.845\C,0,38.09,42.5,37.93\C,0,38.065,42.639,39.28\C,0,37.449,43.75
 8,40.084\C,0,38.857,41.673,40.098\C,0,38.03,40.478,40.707\C,0,38.181,4
 0.229,42.207\C,0,39.208,39.044,42.54\C,0,38.673,37.572,42.202\C,0,39.7
 4,39.323,44.037\C,0,38.623,39.274,45.112\C,0,38.909,38.233,46.281\C,0,
 38.234,38.821,47.507\C,0,39.15,39.695,48.369\C,0,37.617,37.624,48.35\C
 ,0,36.204,37.256,47.914\C,0,36.185,35.988,46.992\C,0,35.363,36.215,45.
 659\C,0,36.039,35.61,44.436\C,0,33.925,35.736,45.729\H,0,42.062,37.889
 ,30.278\H,0,41.781,37.967,23.859\H,0,39.465,43.78,23.855\H,0,41.34,42.
 366,32.039\H,0,40.542,39.352,31.978\H,0,42.356,39.035,32.777\H,0,42.50
 9,40.823,33.236\H,0,43.333,40.209,31.796\H,0,39.258,40.705,33.037\H,0,
 38.497,41.863,31.927\H,0,38.683,43.438,33.076\H,0,40.293,43.039,33.88\
 H,0,42.724,35.011,28.681\H,0,43.184,36.287,29.793\H,0,44.173,35.77,28.
 459\H,0,44.118,34.561,26.674\H,0,43.751,33.869,25.063\H,0,42.504,33.90
 9,26.179\H,0,39.765,39.272,22.676\H,0,40.335,42.221,22.197\H,0,41.753,
 39.265,21.185\H,0,42.541,40.097,22.484\H,0,41.905,41.067,21.281\H,0,38
 .2,41.35,21.4\H,0,38.02,42.721,22.468\H,0,37.714,40.213,23.993\H,0,36.
 735,40.133,22.573\H,0,36.511,41.477,23.684\H,0,38.314,45.693,24.765\H,
 0,39.683,46.624,25.443\H,0,38.186,46.601,26.323\H,0,38.333,43.963,30.7
 59\H,0,40.197,46.826,33.925\H,0,40.685,47.306,32.236\H,0,41.557,46.047
 ,33.259\H,0,36.596,43.042,36.585\H,0,37.462,44.396,37.26\H,0,38.781,41
 .734,37.579\H,0,38.255,44.361,40.503\H,0,36.877,43.336,40.91\H,0,36.89
 5,44.43,39.428\H,0,39.445,42.105,40.908\H,0,39.675,41.274,39.498\H,0,3
 8.429,39.594,40.209\H,0,36.97,40.619,40.499\H,0,37.176,39.935,42.51\H,
 0,38.545,41.031,42.849\H,0,40.038,39.197,41.849\H,0,38.567,37.052,43.1
 54\H,0,39.442,36.977,41.71\H,0,37.708,37.605,41.695\H,0,40.211,40.285,
 44.242\H,0,40.497,38.549,44.161\H,0,37.679,39.127,44.587\H,0,38.621,40
 .272,45.551\H,0,39.965,37.966,46.326\H,0,38.292,37.396,45.952\H,0,37.4
 41,39.508,47.21\H,0,39.019,39.508,49.435\H,0,38.635,40.631,48.155\H,0,
 40.21,39.719,48.117\H,0,37.474,37.843,49.408\H,0,38.29,36.77,48.28\H,0
 ,35.828,38.134,47.389\H,0,35.565,37.073,48.778\H,0,35.616,35.227,47.52
 5\H,0,37.17,35.587,46.75\H,0,35.128,37.274,45.542\H,0,37.121,35.739,44
 .456\H,0,35.697,36.235,43.612\H,0,35.762,34.566,44.289\H,0,33.365,35.7
 72,44.795\H,0,33.433,36.394,46.445\H,0,33.829,34.693,46.029\\Version=E
 S64L-G16RevA.03\State=1-A\HF=-3005.329889\RMSD=7.909e-09\PG=C01 [X(C55
 H74Mg1N4O6)]\\@


 SACRED COWS MAKE GREAT HAMBURGERS -- ROBERT REISNER
 Job cpu time:       0 days  8 hours 17 minutes 40.2 seconds.
 Elapsed time:       0 days  0 hours 20 minutes 48.0 seconds.
 File lengths (MBytes):  RWF=   8929 Int=      0 D2E=      0 Chk=    390 Scr=      1
 Normal termination of Gaussian 16 at Fri Apr 29 00:35:15 2022.
