 Entering Gaussian System, Link 0=g16
 Initial command:
 /sw/apps/gaussian-16.0/g16/l1.exe "/tmp/Gau-57269.inp" -scrdir="/tmp/"
 Entering Link 1 = /sw/apps/gaussian-16.0/g16/l1.exe PID=     57270.
  
 Copyright (c) 1988,1990,1992,1993,1995,1998,2003,2009,2016,
            Gaussian, Inc.  All Rights Reserved.
  
 This is part of the Gaussian(R) 16 program.  It is based on
 the Gaussian(R) 09 system (copyright 2009, Gaussian, Inc.),
 the Gaussian(R) 03 system (copyright 2003, Gaussian, Inc.),
 the Gaussian(R) 98 system (copyright 1998, Gaussian, Inc.),
 the Gaussian(R) 94 system (copyright 1995, Gaussian, Inc.),
 the Gaussian 92(TM) system (copyright 1992, Gaussian, Inc.),
 the Gaussian 90(TM) system (copyright 1990, Gaussian, Inc.),
 the Gaussian 88(TM) system (copyright 1988, Gaussian, Inc.),
 the Gaussian 86(TM) system (copyright 1986, Carnegie Mellon
 University), and the Gaussian 82(TM) system (copyright 1983,
 Carnegie Mellon University). Gaussian is a federally registered
 trademark of Gaussian, Inc.
  
 This software contains proprietary and confidential information,
 including trade secrets, belonging to Gaussian, Inc.
  
 This software is provided under written license and may be
 used, copied, transmitted, or stored only in accord with that
 written license.
  
 The following legend is applicable only to US Government
 contracts under FAR:
  
                    RESTRICTED RIGHTS LEGEND
  
 Use, reproduction and disclosure by the US Government is
 subject to restrictions as set forth in subparagraphs (a)
 and (c) of the Commercial Computer Software - Restricted
 Rights clause in FAR 52.227-19.
  
 Gaussian, Inc.
 340 Quinnipiac St., Bldg. 40, Wallingford CT 06492
  
  
 ---------------------------------------------------------------
 Warning -- This program may not be used in any manner that
 competes with the business of Gaussian, Inc. or will provide
 assistance to any competitor of Gaussian, Inc.  The licensee
 of this program is prohibited from giving any competitor of
 Gaussian, Inc. access to this program.  By using this program,
 the user acknowledges that Gaussian, Inc. is engaged in the
 business of creating and licensing software in the field of
 computational chemistry and represents and warrants to the
 licensee that it is not a competitor of Gaussian, Inc. and that
 it will not use this program in any manner prohibited above.
 ---------------------------------------------------------------
  

 Cite this work as:
 Gaussian 16, Revision A.03,
 M. J. Frisch, G. W. Trucks, H. B. Schlegel, G. E. Scuseria, 
 M. A. Robb, J. R. Cheeseman, G. Scalmani, V. Barone, 
 G. A. Petersson, H. Nakatsuji, X. Li, M. Caricato, A. V. Marenich, 
 J. Bloino, B. G. Janesko, R. Gomperts, B. Mennucci, H. P. Hratchian, 
 J. V. Ortiz, A. F. Izmaylov, J. L. Sonnenberg, D. Williams-Young, 
 F. Ding, F. Lipparini, F. Egidi, J. Goings, B. Peng, A. Petrone, 
 T. Henderson, D. Ranasinghe, V. G. Zakrzewski, J. Gao, N. Rega, 
 G. Zheng, W. Liang, M. Hada, M. Ehara, K. Toyota, R. Fukuda, 
 J. Hasegawa, M. Ishida, T. Nakajima, Y. Honda, O. Kitao, H. Nakai, 
 T. Vreven, K. Throssell, J. A. Montgomery, Jr., J. E. Peralta, 
 F. Ogliaro, M. J. Bearpark, J. J. Heyd, E. N. Brothers, K. N. Kudin, 
 V. N. Staroverov, T. A. Keith, R. Kobayashi, J. Normand, 
 K. Raghavachari, A. P. Rendell, J. C. Burant, S. S. Iyengar, 
 J. Tomasi, M. Cossi, J. M. Millam, M. Klene, C. Adamo, R. Cammi, 
 J. W. Ochterski, R. L. Martin, K. Morokuma, O. Farkas, 
 J. B. Foresman, and D. J. Fox, Gaussian, Inc., Wallingford CT, 2016.
 
 ******************************************
 Gaussian 16:  ES64L-G16RevA.03 25-Dec-2016
                29-Apr-2022 
 ******************************************
 %nproc=24
 Will use up to   24 processors via shared memory.
 %mem=75GB
 --------------------------------
 #p wB97XD/Def2SVP td=(nstates=5)
 --------------------------------
 1/38=1,172=1/1;
 2/12=2,17=6,18=5,40=1/2;
 3/5=43,7=101,11=9,25=1,30=1,74=-58/1,2,3,8;
 4//1;
 5/5=2,38=5/2;
 8/6=1,10=1,108=5/1;
 9/41=5,42=1,70=2/14;
 6/7=2,8=2,9=2,10=2/1;
 99/5=1,9=1/99;
 Leave Link    1 at Fri Apr 29 16:40:03 2022, MaxMem= 10066329600 cpu:               0.6 elap:               0.0
 (Enter /sw/apps/gaussian-16.0/g16/l101.exe)
 ----------------------------------------------------
 step_401_chromophore_13 TDDFT with wB97XD functional
 ----------------------------------------------------
 Symbolic Z-matrix:
 Charge =  0 Multiplicity = 1
 Mg                    46.504    24.866    28.215 
 C                     47.357    27.1      30.885 
 C                     46.065    22.352    30.356 
 C                     46.563    22.794    25.532 
 C                     47.591    27.529    26.079 
 N                     46.721    24.755    30.302 
 C                     46.789    25.817    31.21 
 C                     46.398    25.447    32.625 
 C                     46.182    23.899    32.421 
 C                     46.248    23.647    30.93 
 C                     47.128    22.965    33.245 
 C                     45.112    26.21     33.181 
 C                     45.402    27.001    34.479 
 C                     44.546    26.821    35.709 
 O                     43.379    26.498    35.704 
 O                     45.213    26.981    36.887 
 N                     46.247    22.85     27.919 
 C                     46.074    21.962    28.983 
 C                     46.051    20.587    28.42 
 C                     46.306    20.674    26.981 
 C                     46.407    22.161    26.743 
 C                     45.792    19.361    29.372 
 C                     46.444    19.624    25.909 
 O                     46.822    19.78     24.742 
 C                     46.259    18.199    26.46 
 N                     46.859    25.18     26.111 
 C                     46.638    24.181    25.221 
 C                     47.132    24.617    23.877 
 C                     47.039    26.173    24.004 
 C                     47.266    26.318    25.501 
 C                     48.58     24.141    23.482 
 C                     45.739    26.81     23.506 
 C                     44.39     26.389    24.084 
 N                     47.363    26.882    28.365 
 C                     47.731    27.8      27.436 
 C                     48.189    29.001    28.068 
 C                     48.011    28.824    29.471 
 C                     47.565    27.449    29.612 
 C                     48.608    30.271    27.421 
 C                     48.186    29.333    30.788 
 O                     48.563    30.442    31.249 
 C                     47.795    28.224    31.769 
 C                     48.896    27.959    32.756 
 O                     49.954    27.506    32.464 
 O                     48.464    28.435    33.996 
 C                     49.382    28.124    35.131 
 C                     44.495    26.978    38.121 
 C                     44.675    25.695    38.886 
 C                     44.083    25.427    40.057 
 C                     43.174    26.388    40.806 
 C                     44.371    24.148    40.74 
 C                     43.07     23.268    40.884 
 C                     42.952    22.943    42.441 
 C                     41.401    22.777    42.813 
 C                     40.628    21.681    41.939 
 C                     40.658    24.161    42.73 
 C                     39.529    24.236    43.813 
 C                     40.026    24.955    45.163 
 C                     39.856    24.042    46.404 
 C                     38.485    24.285    47.142 
 C                     41.015    24.397    47.404 
 C                     41.994    23.213    47.595 
 C                     43.381    23.675    48.093 
 C                     44.489    22.9      47.348 
 C                     45.745    22.809    48.191 
 C                     44.836    23.537    45.999 
 H                     45.86     21.575    31.096 
 H                     46.535    22.211    24.61 
 H                     47.865    28.374    25.444 
 H                     47.247    25.495    33.307 
 H                     45.126    23.693    32.595 
 H                     46.525    22.391    33.95 
 H                     48.037    23.448    33.603 
 H                     47.603    22.206    32.623 
 H                     44.385    25.431    33.41 
 H                     44.718    26.835    32.381 
 H                     45.368    28.075    34.297 
 H                     46.423    26.744    34.759 
 H                     45.001    18.749    28.938 
 H                     45.503    19.79     30.332 
 H                     46.68     18.741    29.488 
 H                     47.098    18.02     27.133 
 H                     46.349    17.387    25.738 
 H                     45.301    18.128    26.975 
 H                     46.495    24.425    23.013 
 H                     47.87     26.602    23.442 
 H                     48.953    23.567    24.33 
 H                     49.365    24.896    23.433 
 H                     48.5      23.578    22.552 
 H                     45.727    26.505    22.46 
 H                     45.765    27.898    23.443 
 H                     43.957    27.278    24.544 
 H                     44.558    25.53     24.734 
 H                     43.758    26.111    23.241 
 H                     49.57     30.538    27.859 
 H                     47.876    31.072    27.517 
 H                     48.889    30.055    26.39 
 H                     46.848    28.452    32.257 
 H                     50.428    27.958    34.875 
 H                     49.148    27.119    35.482 
 H                     49.19     28.747    36.006 
 H                     43.426    27.187    38.151 
 H                     45.012    27.847    38.527 
 H                     45.219    24.892    38.389 
 H                     43.135    27.426    40.475 
 H                     43.364    26.497    41.874 
 H                     42.158    26.024    40.656 
 H                     44.704    24.408    41.745 
 H                     45.163    23.584    40.248 
 H                     43.377    22.29     40.512 
 H                     42.191    23.65     40.366 
 H                     43.272    23.835    42.98 
 H                     43.374    21.961    42.654 
 H                     41.348    22.354    43.816 
 H                     40.626    22.044    40.911 
 H                     39.605    21.448    42.233 
 H                     41.084    20.692    41.992 
 H                     40.055    24.241    41.825 
 H                     41.365    24.986    42.804 
 H                     39.275    23.201    44.041 
 H                     38.662    24.722    43.364 
 H                     39.414    25.852    45.258 
 H                     41.047    25.318    45.039 
 H                     39.747    22.969    46.251 
 H                     38.12     23.343    47.549 
 H                     37.717    24.549    46.414 
 H                     38.429    25.191    47.746 
 H                     40.597    24.686    48.368 
 H                     41.579    25.268    47.071 
 H                     41.968    22.635    46.671 
 H                     41.61     22.427    48.246 
 H                     43.416    23.45     49.159 
 H                     43.455    24.74     47.871 
 H                     44.166    21.903    47.049 
 H                     45.97     21.742    48.206 
 H                     45.498    22.942    49.245 
 H                     46.645    23.332    47.867 
 H                     43.992    24.054    45.543 
 H                     45.017    22.796    45.22 
 H                     45.755    24.111    45.883 
 
 ITRead=  0  0  0  0  0  0  0  0  0  0  0  0  0  0  0  0  0  0  0  0
 ITRead=  0  0  0  0  0  0  0  0  0  0  0  0  0  0  0  0  0  0  0  0
 ITRead=  0  0  0  0  0  0  0  0  0  0  0  0  0  0  0  0  0  0  0  0
 ITRead=  0  0  0  0  0  0  0  0  0  0  0  0  0  0  0  0  0  0  0  0
 ITRead=  0  0  0  0  0  0  0  0  0  0  0  0  0  0  0  0  0  0  0  0
 ITRead=  0  0  0  0  0  0  0  0  0  0  0  0  0  0  0  0  0  0  0  0
 ITRead=  0  0  0  0  0  0  0  0  0  0  0  0  0  0  0  0  0  0  0  0
 MicOpt= -1 -1 -1 -1 -1 -1 -1 -1 -1 -1 -1 -1 -1 -1 -1 -1 -1 -1 -1 -1
 MicOpt= -1 -1 -1 -1 -1 -1 -1 -1 -1 -1 -1 -1 -1 -1 -1 -1 -1 -1 -1 -1
 MicOpt= -1 -1 -1 -1 -1 -1 -1 -1 -1 -1 -1 -1 -1 -1 -1 -1 -1 -1 -1 -1
 MicOpt= -1 -1 -1 -1 -1 -1 -1 -1 -1 -1 -1 -1 -1 -1 -1 -1 -1 -1 -1 -1
 MicOpt= -1 -1 -1 -1 -1 -1 -1 -1 -1 -1 -1 -1 -1 -1 -1 -1 -1 -1 -1 -1
 MicOpt= -1 -1 -1 -1 -1 -1 -1 -1 -1 -1 -1 -1 -1 -1 -1 -1 -1 -1 -1 -1
 MicOpt= -1 -1 -1 -1 -1 -1 -1 -1 -1 -1 -1 -1 -1 -1 -1 -1 -1 -1 -1 -1
 NAtoms=    140 NQM=      140 NQMF=       0 NMMI=      0 NMMIF=      0
                NMic=       0 NMicF=      0.
                    Isotopes and Nuclear Properties:
 (Nuclear quadrupole moments (NQMom) in fm**2, nuclear magnetic moments (NMagM)
  in nuclear magnetons)

  Atom         1           2           3           4           5           6           7           8           9          10
 IAtWgt=          24          12          12          12          12          14          12          12          12          12
 AtmWgt=  23.9850450  12.0000000  12.0000000  12.0000000  12.0000000  14.0030740  12.0000000  12.0000000  12.0000000  12.0000000
 NucSpn=           0           0           0           0           0           2           0           0           0           0
 AtZEff=  -0.0000000  -0.0000000  -0.0000000  -0.0000000  -0.0000000  -0.0000000  -0.0000000  -0.0000000  -0.0000000  -0.0000000
 NQMom=    0.0000000   0.0000000   0.0000000   0.0000000   0.0000000   2.0440000   0.0000000   0.0000000   0.0000000   0.0000000
 NMagM=    0.0000000   0.0000000   0.0000000   0.0000000   0.0000000   0.4037610   0.0000000   0.0000000   0.0000000   0.0000000
 AtZNuc=  12.0000000   6.0000000   6.0000000   6.0000000   6.0000000   7.0000000   6.0000000   6.0000000   6.0000000   6.0000000

  Atom        11          12          13          14          15          16          17          18          19          20
 IAtWgt=          12          12          12          12          16          16          14          12          12          12
 AtmWgt=  12.0000000  12.0000000  12.0000000  12.0000000  15.9949146  15.9949146  14.0030740  12.0000000  12.0000000  12.0000000
 NucSpn=           0           0           0           0           0           0           2           0           0           0
 AtZEff=  -0.0000000  -0.0000000  -0.0000000  -0.0000000  -0.0000000  -0.0000000  -0.0000000  -0.0000000  -0.0000000  -0.0000000
 NQMom=    0.0000000   0.0000000   0.0000000   0.0000000   0.0000000   0.0000000   2.0440000   0.0000000   0.0000000   0.0000000
 NMagM=    0.0000000   0.0000000   0.0000000   0.0000000   0.0000000   0.0000000   0.4037610   0.0000000   0.0000000   0.0000000
 AtZNuc=   6.0000000   6.0000000   6.0000000   6.0000000   8.0000000   8.0000000   7.0000000   6.0000000   6.0000000   6.0000000

  Atom        21          22          23          24          25          26          27          28          29          30
 IAtWgt=          12          12          12          16          12          14          12          12          12          12
 AtmWgt=  12.0000000  12.0000000  12.0000000  15.9949146  12.0000000  14.0030740  12.0000000  12.0000000  12.0000000  12.0000000
 NucSpn=           0           0           0           0           0           2           0           0           0           0
 AtZEff=  -0.0000000  -0.0000000  -0.0000000  -0.0000000  -0.0000000  -0.0000000  -0.0000000  -0.0000000  -0.0000000  -0.0000000
 NQMom=    0.0000000   0.0000000   0.0000000   0.0000000   0.0000000   2.0440000   0.0000000   0.0000000   0.0000000   0.0000000
 NMagM=    0.0000000   0.0000000   0.0000000   0.0000000   0.0000000   0.4037610   0.0000000   0.0000000   0.0000000   0.0000000
 AtZNuc=   6.0000000   6.0000000   6.0000000   8.0000000   6.0000000   7.0000000   6.0000000   6.0000000   6.0000000   6.0000000

  Atom        31          32          33          34          35          36          37          38          39          40
 IAtWgt=          12          12          12          14          12          12          12          12          12          12
 AtmWgt=  12.0000000  12.0000000  12.0000000  14.0030740  12.0000000  12.0000000  12.0000000  12.0000000  12.0000000  12.0000000
 NucSpn=           0           0           0           2           0           0           0           0           0           0
 AtZEff=  -0.0000000  -0.0000000  -0.0000000  -0.0000000  -0.0000000  -0.0000000  -0.0000000  -0.0000000  -0.0000000  -0.0000000
 NQMom=    0.0000000   0.0000000   0.0000000   2.0440000   0.0000000   0.0000000   0.0000000   0.0000000   0.0000000   0.0000000
 NMagM=    0.0000000   0.0000000   0.0000000   0.4037610   0.0000000   0.0000000   0.0000000   0.0000000   0.0000000   0.0000000
 AtZNuc=   6.0000000   6.0000000   6.0000000   7.0000000   6.0000000   6.0000000   6.0000000   6.0000000   6.0000000   6.0000000

  Atom        41          42          43          44          45          46          47          48          49          50
 IAtWgt=          16          12          12          16          16          12          12          12          12          12
 AtmWgt=  15.9949146  12.0000000  12.0000000  15.9949146  15.9949146  12.0000000  12.0000000  12.0000000  12.0000000  12.0000000
 NucSpn=           0           0           0           0           0           0           0           0           0           0
 AtZEff=  -0.0000000  -0.0000000  -0.0000000  -0.0000000  -0.0000000  -0.0000000  -0.0000000  -0.0000000  -0.0000000  -0.0000000
 NQMom=    0.0000000   0.0000000   0.0000000   0.0000000   0.0000000   0.0000000   0.0000000   0.0000000   0.0000000   0.0000000
 NMagM=    0.0000000   0.0000000   0.0000000   0.0000000   0.0000000   0.0000000   0.0000000   0.0000000   0.0000000   0.0000000
 AtZNuc=   8.0000000   6.0000000   6.0000000   8.0000000   8.0000000   6.0000000   6.0000000   6.0000000   6.0000000   6.0000000

  Atom        51          52          53          54          55          56          57          58          59          60
 IAtWgt=          12          12          12          12          12          12          12          12          12          12
 AtmWgt=  12.0000000  12.0000000  12.0000000  12.0000000  12.0000000  12.0000000  12.0000000  12.0000000  12.0000000  12.0000000
 NucSpn=           0           0           0           0           0           0           0           0           0           0
 AtZEff=  -0.0000000  -0.0000000  -0.0000000  -0.0000000  -0.0000000  -0.0000000  -0.0000000  -0.0000000  -0.0000000  -0.0000000
 NQMom=    0.0000000   0.0000000   0.0000000   0.0000000   0.0000000   0.0000000   0.0000000   0.0000000   0.0000000   0.0000000
 NMagM=    0.0000000   0.0000000   0.0000000   0.0000000   0.0000000   0.0000000   0.0000000   0.0000000   0.0000000   0.0000000
 AtZNuc=   6.0000000   6.0000000   6.0000000   6.0000000   6.0000000   6.0000000   6.0000000   6.0000000   6.0000000   6.0000000

  Atom        61          62          63          64          65          66          67          68          69          70
 IAtWgt=          12          12          12          12          12          12           1           1           1           1
 AtmWgt=  12.0000000  12.0000000  12.0000000  12.0000000  12.0000000  12.0000000   1.0078250   1.0078250   1.0078250   1.0078250
 NucSpn=           0           0           0           0           0           0           1           1           1           1
 AtZEff=  -0.0000000  -0.0000000  -0.0000000  -0.0000000  -0.0000000  -0.0000000  -0.0000000  -0.0000000  -0.0000000  -0.0000000
 NQMom=    0.0000000   0.0000000   0.0000000   0.0000000   0.0000000   0.0000000   0.0000000   0.0000000   0.0000000   0.0000000
 NMagM=    0.0000000   0.0000000   0.0000000   0.0000000   0.0000000   0.0000000   2.7928460   2.7928460   2.7928460   2.7928460
 AtZNuc=   6.0000000   6.0000000   6.0000000   6.0000000   6.0000000   6.0000000   1.0000000   1.0000000   1.0000000   1.0000000

  Atom        71          72          73          74          75          76          77          78          79          80
 IAtWgt=           1           1           1           1           1           1           1           1           1           1
 AtmWgt=   1.0078250   1.0078250   1.0078250   1.0078250   1.0078250   1.0078250   1.0078250   1.0078250   1.0078250   1.0078250
 NucSpn=           1           1           1           1           1           1           1           1           1           1
 AtZEff=  -0.0000000  -0.0000000  -0.0000000  -0.0000000  -0.0000000  -0.0000000  -0.0000000  -0.0000000  -0.0000000  -0.0000000
 NQMom=    0.0000000   0.0000000   0.0000000   0.0000000   0.0000000   0.0000000   0.0000000   0.0000000   0.0000000   0.0000000
 NMagM=    2.7928460   2.7928460   2.7928460   2.7928460   2.7928460   2.7928460   2.7928460   2.7928460   2.7928460   2.7928460
 AtZNuc=   1.0000000   1.0000000   1.0000000   1.0000000   1.0000000   1.0000000   1.0000000   1.0000000   1.0000000   1.0000000

  Atom        81          82          83          84          85          86          87          88          89          90
 IAtWgt=           1           1           1           1           1           1           1           1           1           1
 AtmWgt=   1.0078250   1.0078250   1.0078250   1.0078250   1.0078250   1.0078250   1.0078250   1.0078250   1.0078250   1.0078250
 NucSpn=           1           1           1           1           1           1           1           1           1           1
 AtZEff=  -0.0000000  -0.0000000  -0.0000000  -0.0000000  -0.0000000  -0.0000000  -0.0000000  -0.0000000  -0.0000000  -0.0000000
 NQMom=    0.0000000   0.0000000   0.0000000   0.0000000   0.0000000   0.0000000   0.0000000   0.0000000   0.0000000   0.0000000
 NMagM=    2.7928460   2.7928460   2.7928460   2.7928460   2.7928460   2.7928460   2.7928460   2.7928460   2.7928460   2.7928460
 AtZNuc=   1.0000000   1.0000000   1.0000000   1.0000000   1.0000000   1.0000000   1.0000000   1.0000000   1.0000000   1.0000000

  Atom        91          92          93          94          95          96          97          98          99         100
 IAtWgt=           1           1           1           1           1           1           1           1           1           1
 AtmWgt=   1.0078250   1.0078250   1.0078250   1.0078250   1.0078250   1.0078250   1.0078250   1.0078250   1.0078250   1.0078250
 NucSpn=           1           1           1           1           1           1           1           1           1           1
 AtZEff=  -0.0000000  -0.0000000  -0.0000000  -0.0000000  -0.0000000  -0.0000000  -0.0000000  -0.0000000  -0.0000000  -0.0000000
 NQMom=    0.0000000   0.0000000   0.0000000   0.0000000   0.0000000   0.0000000   0.0000000   0.0000000   0.0000000   0.0000000
 NMagM=    2.7928460   2.7928460   2.7928460   2.7928460   2.7928460   2.7928460   2.7928460   2.7928460   2.7928460   2.7928460
 AtZNuc=   1.0000000   1.0000000   1.0000000   1.0000000   1.0000000   1.0000000   1.0000000   1.0000000   1.0000000   1.0000000

  Atom       101         102         103         104         105         106         107         108         109         110
 IAtWgt=           1           1           1           1           1           1           1           1           1           1
 AtmWgt=   1.0078250   1.0078250   1.0078250   1.0078250   1.0078250   1.0078250   1.0078250   1.0078250   1.0078250   1.0078250
 NucSpn=           1           1           1           1           1           1           1           1           1           1
 AtZEff=  -0.0000000  -0.0000000  -0.0000000  -0.0000000  -0.0000000  -0.0000000  -0.0000000  -0.0000000  -0.0000000  -0.0000000
 NQMom=    0.0000000   0.0000000   0.0000000   0.0000000   0.0000000   0.0000000   0.0000000   0.0000000   0.0000000   0.0000000
 NMagM=    2.7928460   2.7928460   2.7928460   2.7928460   2.7928460   2.7928460   2.7928460   2.7928460   2.7928460   2.7928460
 AtZNuc=   1.0000000   1.0000000   1.0000000   1.0000000   1.0000000   1.0000000   1.0000000   1.0000000   1.0000000   1.0000000

  Atom       111         112         113         114         115         116         117         118         119         120
 IAtWgt=           1           1           1           1           1           1           1           1           1           1
 AtmWgt=   1.0078250   1.0078250   1.0078250   1.0078250   1.0078250   1.0078250   1.0078250   1.0078250   1.0078250   1.0078250
 NucSpn=           1           1           1           1           1           1           1           1           1           1
 AtZEff=  -0.0000000  -0.0000000  -0.0000000  -0.0000000  -0.0000000  -0.0000000  -0.0000000  -0.0000000  -0.0000000  -0.0000000
 NQMom=    0.0000000   0.0000000   0.0000000   0.0000000   0.0000000   0.0000000   0.0000000   0.0000000   0.0000000   0.0000000
 NMagM=    2.7928460   2.7928460   2.7928460   2.7928460   2.7928460   2.7928460   2.7928460   2.7928460   2.7928460   2.7928460
 AtZNuc=   1.0000000   1.0000000   1.0000000   1.0000000   1.0000000   1.0000000   1.0000000   1.0000000   1.0000000   1.0000000

  Atom       121         122         123         124         125         126         127         128         129         130
 IAtWgt=           1           1           1           1           1           1           1           1           1           1
 AtmWgt=   1.0078250   1.0078250   1.0078250   1.0078250   1.0078250   1.0078250   1.0078250   1.0078250   1.0078250   1.0078250
 NucSpn=           1           1           1           1           1           1           1           1           1           1
 AtZEff=  -0.0000000  -0.0000000  -0.0000000  -0.0000000  -0.0000000  -0.0000000  -0.0000000  -0.0000000  -0.0000000  -0.0000000
 NQMom=    0.0000000   0.0000000   0.0000000   0.0000000   0.0000000   0.0000000   0.0000000   0.0000000   0.0000000   0.0000000
 NMagM=    2.7928460   2.7928460   2.7928460   2.7928460   2.7928460   2.7928460   2.7928460   2.7928460   2.7928460   2.7928460
 AtZNuc=   1.0000000   1.0000000   1.0000000   1.0000000   1.0000000   1.0000000   1.0000000   1.0000000   1.0000000   1.0000000

  Atom       131         132         133         134         135         136         137         138         139         140
 IAtWgt=           1           1           1           1           1           1           1           1           1           1
 AtmWgt=   1.0078250   1.0078250   1.0078250   1.0078250   1.0078250   1.0078250   1.0078250   1.0078250   1.0078250   1.0078250
 NucSpn=           1           1           1           1           1           1           1           1           1           1
 AtZEff=  -0.0000000  -0.0000000  -0.0000000  -0.0000000  -0.0000000  -0.0000000  -0.0000000  -0.0000000  -0.0000000  -0.0000000
 NQMom=    0.0000000   0.0000000   0.0000000   0.0000000   0.0000000   0.0000000   0.0000000   0.0000000   0.0000000   0.0000000
 NMagM=    2.7928460   2.7928460   2.7928460   2.7928460   2.7928460   2.7928460   2.7928460   2.7928460   2.7928460   2.7928460
 AtZNuc=   1.0000000   1.0000000   1.0000000   1.0000000   1.0000000   1.0000000   1.0000000   1.0000000   1.0000000   1.0000000
 Leave Link  101 at Fri Apr 29 16:40:04 2022, MaxMem= 10066329600 cpu:               2.8 elap:               0.1
 (Enter /sw/apps/gaussian-16.0/g16/l202.exe)
 Stoichiometry    C55H74MgN4O6
 Framework group  C1[X(C55H74MgN4O6)]
 Deg. of freedom   414
 Full point group                 C1      NOp   1
 Largest Abelian subgroup         C1      NOp   1
 Largest concise Abelian subgroup C1      NOp   1
                         Standard orientation:                         
 ---------------------------------------------------------------------
 Center     Atomic      Atomic             Coordinates (Angstroms)
 Number     Number       Type             X           Y           Z
 ---------------------------------------------------------------------
      1         12           0       -5.895208    0.438586   -0.316171
      2          6           0       -3.642355   -2.287027    0.269452
      3          6           0       -3.596242    2.647082    0.650317
      4          6           0       -8.402085    2.713933   -0.133100
      5          6           0       -8.362532   -2.123415   -0.745239
      6          7           0       -3.930726    0.192153    0.387434
      7          6           0       -3.122025   -0.944076    0.278263
      8          6           0       -1.638147   -0.658320    0.370212
      9          6           0       -1.706159    0.886923    0.673813
     10          6           0       -3.150542    1.299775    0.488740
     11          6           0       -1.108757    1.338054    2.047072
     12          6           0       -0.807990   -1.021823   -0.942727
     13          6           0        0.333198   -2.030009   -0.667342
     14          6           0        1.748639   -1.743871   -1.106305
     15          8           0        2.058301   -1.056680   -2.053997
     16          8           0        2.707326   -2.270538   -0.292847
     17          7           0       -6.019289    2.447035    0.094509
     18          6           0       -4.905536    3.191944    0.488506
     19          6           0       -5.377828    4.559818    0.826125
     20          6           0       -6.836566    4.586592    0.704961
     21          6           0       -7.162892    3.195281    0.219392
     22          6           0       -4.334095    5.663933    1.236018
     23          6           0       -7.856971    5.665606    0.960364
     24          8           0       -9.087923    5.551034    0.987553
     25          6           0       -7.209883    6.984865    1.417841
     26          7           0       -8.032372    0.309030   -0.575372
     27          6           0       -8.787470    1.434401   -0.623398
     28          6           0      -10.232343    1.043531   -0.629116
     29          6           0      -10.159841   -0.397063   -1.233554
     30          6           0       -8.779686   -0.807282   -0.743191
     31          6           0      -10.962232    1.063904    0.765929
     32          6           0      -10.337660   -0.497459   -2.750813
     33          6           0       -9.413848    0.263471   -3.698802
     34          7           0       -6.066391   -1.748785   -0.212530
     35          6           0       -7.101222   -2.604030   -0.409683
     36          6           0       -6.665552   -3.961864   -0.275263
     37          6           0       -5.257030   -3.925093   -0.060475
     38          6           0       -4.941237   -2.511799    0.050416
     39          6           0       -7.457936   -5.200561   -0.486984
     40          6           0       -4.054619   -4.634346    0.214051
     41          8           0       -3.758901   -5.856664    0.269003
     42          6           0       -2.954613   -3.599949    0.469261
     43          6           0       -2.271372   -3.846938    1.784089
     44          8           0       -2.802946   -3.733273    2.839715
     45          8           0       -0.986137   -4.315003    1.501448
     46          6           0       -0.110919   -4.478444    2.699342
     47          6           0        4.082843   -2.195848   -0.667898
     48          6           0        4.836221   -1.158183    0.119113
     49          6           0        6.131213   -0.868932   -0.062161
     50          6           0        7.041649   -1.567519   -1.059099
     51          6           0        6.777553    0.140347    0.803214
     52          6           0        7.291882    1.372401   -0.036576
     53          6           0        8.840732    1.507159    0.319373
     54          6           0        9.605329    2.123840   -0.948160
     55          6           0        9.011782    3.519671   -1.459998
     56          6           0        9.649882    1.086278   -2.129631
     57          6           0       10.981266    1.243692   -2.939440
     58          6           0       12.123017    0.227630   -2.438946
     59          6           0       13.408068    0.971284   -1.993779
     60          6           0       14.460431    1.097505   -3.159941
     61          6           0       14.059528    0.123970   -0.841840
     62          6           0       14.049241    0.882400    0.507773
     63          6           0       14.152532   -0.073041    1.716772
     64          6           0       13.186108    0.385581    2.829878
     65          6           0       13.682328   -0.055895    4.191984
     66          6           0       11.764537   -0.144032    2.618631
     67          1           0       -2.792358    3.342054    0.903570
     68          1           0       -9.257319    3.391158   -0.159528
     69          1           0       -9.085965   -2.918705   -0.936249
     70          1           0       -1.199637   -1.074069    1.277456
     71          1           0       -1.257699    1.404277   -0.174171
     72          1           0       -0.246289    1.979148    1.859300
     73          1           0       -1.019096    0.539225    2.782984
     74          1           0       -1.794936    1.973933    2.606899
     75          1           0       -0.363535   -0.084704   -1.277508
     76          1           0       -1.509033   -1.369294   -1.700133
     77          1           0        0.115167   -2.998299   -1.117491
     78          1           0        0.354014   -2.163710    0.413667
     79          1           0       -4.521244    6.554586    0.635773
     80          1           0       -3.353599    5.230049    1.037183
     81          1           0       -4.420265    5.935237    2.287383
     82          1           0       -6.766711    6.785776    2.393983
     83          1           0       -7.891397    7.810525    1.624122
     84          1           0       -6.463751    7.298213    0.687683
     85          1           0      -10.894057    1.548294   -1.333728
     86          1           0      -10.935807   -0.996876   -0.755487
     87          1           0      -10.211889    1.364220    1.497028
     88          1           0      -11.246638    0.106066    1.202176
     89          1           0      -11.812810    1.740643    0.683411
     90          1           0      -11.329919   -0.068779   -2.888441
     91          1           0      -10.456852   -1.514498   -3.124730
     92          1           0       -8.901011   -0.486123   -4.302555
     93          1           0       -8.788567    0.924162   -3.097873
     94          1           0      -10.052484    0.844160   -4.363860
     95          1           0       -7.294363   -5.825660    0.391123
     96          1           0       -7.215687   -5.720757   -1.412917
     97          1           0       -8.515048   -4.953638   -0.386382
     98          1           0       -2.251577   -3.566076   -0.362322
     99          1           0       -0.618301   -4.633870    3.650979
    100          1           0        0.335686   -3.508878    2.919494
    101          1           0        0.753432   -5.114268    2.501244
    102          1           0        4.375893   -2.042855   -1.706193
    103          1           0        4.300982   -3.232654   -0.413467
    104          1           0        4.255124   -0.520612    0.785134
    105          1           0        6.682763   -2.480620   -1.534467
    106          1           0        8.018834   -1.874616   -0.685729
    107          1           0        7.174568   -0.872417   -1.887602
    108          1           0        7.650085   -0.346600    1.239200
    109          1           0        6.126354    0.472133    1.611473
    110          1           0        6.900529    2.234956    0.503756
    111          1           0        6.998956    1.374247   -1.085900
    112          1           0        9.236677    0.496029    0.416472
    113          1           0        8.984862    2.257441    1.096599
    114          1           0       10.607333    2.402739   -0.622659
    115          1           0        8.002592    3.318317   -1.819928
    116          1           0        9.568916    4.035362   -2.241611
    117          1           0        8.993062    4.286652   -0.685236
    118          1           0        8.926943    1.331088   -2.908388
    119          1           0        9.500890    0.072302   -1.761388
    120          1           0       11.315677    2.264312   -2.754430
    121          1           0       10.746937    1.135169   -3.999062
    122          1           0       12.328979   -0.421708   -3.289896
    123          1           0       11.724339   -0.431601   -1.666899
    124          1           0       13.339291    2.030500   -1.748932
    125          1           0       14.991685    2.043890   -3.068487
    126          1           0       13.941922    1.201093   -4.113840
    127          1           0       15.014843    0.188539   -3.394877
    128          1           0       15.083605   -0.137082   -1.107657
    129          1           0       13.552079   -0.831526   -0.710880
    130          1           0       13.191326    1.554560    0.480952
    131          1           0       14.813514    1.656666    0.581619
    132          1           0       15.183390   -0.016616    2.066562
    133          1           0       13.868628   -1.063174    1.358974
    134          1           0       13.027623    1.463792    2.820797
    135          1           0       13.689842    0.865197    4.775825
    136          1           0       14.756874   -0.239521    4.156677
    137          1           0       13.113979   -0.798083    4.752912
    138          1           0       11.516081   -0.288175    1.567416
    139          1           0       11.001294    0.592887    2.869815
    140          1           0       11.389701   -0.967921    3.225424
 ---------------------------------------------------------------------
 Rotational constants (GHZ):           0.0543863           0.0087102           0.0080147
 Leave Link  202 at Fri Apr 29 16:40:04 2022, MaxMem= 10066329600 cpu:               0.2 elap:               0.0
 (Enter /sw/apps/gaussian-16.0/g16/l301.exe)
 Standard basis: def2SVP (5D, 7F)
 Ernie: Thresh=  0.10000D-02 Tol=  0.10000D-05 Strict=F.
 There are  1364 symmetry adapted cartesian basis functions of A   symmetry.
 There are  1298 symmetry adapted basis functions of A   symmetry.
  1298 basis functions,  2180 primitive gaussians,  1364 cartesian basis functions
   246 alpha electrons      246 beta electrons
       nuclear repulsion energy      9492.8813020522 Hartrees.
 IExCor= 4639 DFT=T Ex+Corr=wB97XD ExCW=0 ScaHFX=  1.000000
 ScaDFX=  1.000000  1.000000  1.000000  1.000000 ScalE2=  1.000000  1.000000
 IRadAn=      5 IRanWt=     -1 IRanGd=            0 ICorTp=0 IEmpDi=121
 HFx  wShort=  0.000000 wLong=  0.200000 cFull=  0.222036 cShort=  0.000000 cLong=  0.777964
 DFx  wShort=  0.000000 wLong=  0.200000 cFull=  0.000000 cShort=  0.000000 cLong=  1.000000
 NAtoms=  140 NActive=  140 NUniq=  140 SFac= 1.00D+00 NAtFMM=   60 NAOKFM=T Big=T
 Integral buffers will be    131072 words long.
 Raffenetti 1 integral format.
 Two-electron integral symmetry is turned on.
 R6Disp:  Grimme-D2 Dispersion energy=       -0.1376998026 Hartrees.
 Nuclear repulsion after empirical dispersion term =     9492.7436022496 Hartrees.
 Leave Link  301 at Fri Apr 29 16:40:04 2022, MaxMem= 10066329600 cpu:               1.4 elap:               0.1
 (Enter /sw/apps/gaussian-16.0/g16/l302.exe)
 NPDir=0 NMtPBC=     1 NCelOv=     1 NCel=       1 NClECP=     1 NCelD=      1
         NCelK=      1 NCelE2=     1 NClLst=     1 CellRange=     0.0.
 One-electron integrals computed using PRISM.
 One-electron integral symmetry used in STVInt
   1 Symmetry operations used in ECPInt.
 ECPInt:  NShTT=  192510 NPrTT=  683786 LenC2=   92783 LenP2D=  205652.
 LDataN:  DoStor=T MaxTD1= 4 Len=   56
 NBasis=  1298 RedAO= T EigKep=  2.53D-04  NBF=  1298
 NBsUse=  1298 1.00D-06 EigRej= -1.00D+00 NBFU=  1298
 Precomputing XC quadrature grid using
 IXCGrd= 4 IRadAn=           5 IRanWt=          -1 IRanGd=           0 AccXCQ= 0.00D+00.
 Generated NRdTot=       0 NPtTot=           0 NUsed=           0 NTot=          32
 NSgBfM=  1006   982   989  1000  1006 MxSgAt=   140 MxSgA2=   140.
 Leave Link  302 at Fri Apr 29 16:40:07 2022, MaxMem= 10066329600 cpu:              80.3 elap:               3.4
 (Enter /sw/apps/gaussian-16.0/g16/l303.exe)
 DipDrv:  MaxL=1.
 Leave Link  303 at Fri Apr 29 16:40:07 2022, MaxMem= 10066329600 cpu:               6.0 elap:               0.3
 (Enter /sw/apps/gaussian-16.0/g16/l308.exe)
 Leave Link  308 at Fri Apr 29 16:40:08 2022, MaxMem= 10066329600 cpu:               9.2 elap:               0.4
 (Enter /sw/apps/gaussian-16.0/g16/l401.exe)
 ExpMin= 3.36D-02 ExpMax= 4.95D+03 ExpMxC= 7.45D+02 IAcc=3 IRadAn=         5 AccDes= 0.00D+00
 Harris functional with IExCor= 4639 and IRadAn=       5 diagonalized for initial guess.
 HarFok:  IExCor= 4639 AccDes= 0.00D+00 IRadAn=         5 IDoV= 1 UseB2=F ITyADJ=14
 ICtDFT=  3500011 ScaDFX=  1.000000  1.000000  1.000000  1.000000
 FoFCou: FMM=F IPFlag=           0 FMFlag=      100000 FMFlg1=        2001
         NFxFlg=           0 DoJE=T BraDBF=F KetDBF=T FulRan=T
         wScrn=  0.000000 ICntrl=       500 IOpCl=  0 I1Cent=   200000004 NGrid=           0
         NMat0=    1 NMatS0=      1 NMatT0=    0 NMatD0=    1 NMtDS0=    0 NMtDT0=    0
 Petite list used in FoFCou.
 Harris En= -2877.99932888602    
 JPrj=0 DoOrth=F DoCkMO=F.
 Leave Link  401 at Fri Apr 29 16:40:13 2022, MaxMem= 10066329600 cpu:             130.3 elap:               5.5
 (Enter /sw/apps/gaussian-16.0/g16/l502.exe)
 Integral symmetry usage will be decided dynamically.
 Closed shell SCF:
 Using DIIS extrapolation, IDIIS=  1040.
 NGot= 10066329600 LenX= 10062561258 LenY= 10060699398
 Requested convergence on RMS density matrix=1.00D-08 within 128 cycles.
 Requested convergence on MAX density matrix=1.00D-06.
 Requested convergence on             energy=1.00D-06.
 No special actions if energy rises.
 Fock matrices will be formed incrementally for  20 cycles.

 Cycle   1  Pass 1  IDiag  1:
 FoFJK:  IHMeth= 1 ICntrl=       0 DoSepK=T KAlg= 0 I1Cent=           0 FoldK=F
 IRaf=         1 NMat=       1 IRICut=       1 DoRegI=T DoRafI=F ISym2E= 0 IDoP0=0 IntGTp=1.
 FoFCou: FMM=T IPFlag=           0 FMFlag=      100000 FMFlg1=        2001
         NFxFlg=           0 DoJE=T BraDBF=F KetDBF=F FulRan=T
         wScrn=  0.000000 ICntrl=       500 IOpCl=  0 I1Cent=           0 NGrid=           0
         NMat0=    1 NMatS0=      1 NMatT0=    0 NMatD0=    1 NMtDS0=    0 NMtDT0=    0
 Symmetry not used in FoFCou.
 FMM levels:  10  Number of levels for PrismC:   9
 E= -3007.17436487991    
 DIIS: error= 2.23D-02 at cycle   1 NSaved=   1.
 NSaved= 1 IEnMin= 1 EnMin= -3007.17436487991     IErMin= 1 ErrMin= 2.23D-02
 ErrMax= 2.23D-02  0.00D+00 EMaxC= 1.00D-01 BMatC= 1.48D+00 BMatP= 1.48D+00
 IDIUse=3 WtCom= 7.77D-01 WtEn= 2.23D-01
 Coeff-Com:  0.100D+01
 Coeff-En:   0.100D+01
 Coeff:      0.100D+01
 Gap=     0.159 Goal=   None    Shift=    0.000
 GapD=    0.159 DampG=1.000 DampE=0.500 DampFc=0.5000 IDamp=-1.
 Damping current iteration by 5.00D-01
 RMSDP=1.57D-03 MaxDP=2.16D-01              OVMax= 2.09D-01

 Cycle   2  Pass 1  IDiag  1:
 RMSU=  7.73D-04    CP:  9.86D-01
 E= -3007.49162378407     Delta-E=       -0.317258904161 Rises=F Damp=T
 DIIS: error= 1.20D-02 at cycle   2 NSaved=   2.
 NSaved= 2 IEnMin= 2 EnMin= -3007.49162378407     IErMin= 2 ErrMin= 1.20D-02
 ErrMax= 1.20D-02  0.00D+00 EMaxC= 1.00D-01 BMatC= 2.90D-01 BMatP= 1.48D+00
 IDIUse=3 WtCom= 8.80D-01 WtEn= 1.20D-01
 Coeff-Com: -0.347D+00 0.135D+01
 Coeff-En:   0.000D+00 0.100D+01
 Coeff:     -0.306D+00 0.131D+01
 Gap=     0.184 Goal=   None    Shift=    0.000
 RMSDP=7.33D-04 MaxDP=8.41D-02 DE=-3.17D-01 OVMax= 1.77D-01

 Cycle   3  Pass 1  IDiag  1:
 RMSU=  6.98D-04    CP:  9.79D-01  1.28D+00
 E= -3007.71831866042     Delta-E=       -0.226694876343 Rises=F Damp=F
 DIIS: error= 1.21D-02 at cycle   3 NSaved=   3.
 NSaved= 3 IEnMin= 3 EnMin= -3007.71831866042     IErMin= 2 ErrMin= 1.20D-02
 ErrMax= 1.21D-02  0.00D+00 EMaxC= 1.00D-01 BMatC= 1.46D-01 BMatP= 2.90D-01
 IDIUse=3 WtCom= 8.79D-01 WtEn= 1.21D-01
 Coeff-Com: -0.315D+00 0.696D+00 0.619D+00
 Coeff-En:   0.000D+00 0.000D+00 0.100D+01
 Coeff:     -0.277D+00 0.612D+00 0.665D+00
 Gap=     0.162 Goal=   None    Shift=    0.000
 RMSDP=4.57D-04 MaxDP=5.77D-02 DE=-2.27D-01 OVMax= 1.17D-01

 Cycle   4  Pass 1  IDiag  1:
 RMSU=  2.28D-04    CP:  9.74D-01  1.60D+00  5.58D-01
 E= -3007.82864473629     Delta-E=       -0.110326075872 Rises=F Damp=F
 DIIS: error= 4.02D-03 at cycle   4 NSaved=   4.
 NSaved= 4 IEnMin= 4 EnMin= -3007.82864473629     IErMin= 4 ErrMin= 4.02D-03
 ErrMax= 4.02D-03  0.00D+00 EMaxC= 1.00D-01 BMatC= 1.94D-02 BMatP= 1.46D-01
 IDIUse=3 WtCom= 9.60D-01 WtEn= 4.02D-02
 Coeff-Com: -0.119D+00 0.240D+00 0.363D+00 0.517D+00
 Coeff-En:   0.000D+00 0.000D+00 0.793D-01 0.921D+00
 Coeff:     -0.114D+00 0.230D+00 0.351D+00 0.533D+00
 Gap=     0.159 Goal=   None    Shift=    0.000
 RMSDP=1.40D-04 MaxDP=1.37D-02 DE=-1.10D-01 OVMax= 3.03D-02

 Cycle   5  Pass 1  IDiag  1:
 RMSU=  6.31D-05    CP:  9.74D-01  1.56D+00  6.90D-01  6.55D-01
 E= -3007.84497350781     Delta-E=       -0.016328771519 Rises=F Damp=F
 DIIS: error= 6.02D-04 at cycle   5 NSaved=   5.
 NSaved= 5 IEnMin= 5 EnMin= -3007.84497350781     IErMin= 5 ErrMin= 6.02D-04
 ErrMax= 6.02D-04  0.00D+00 EMaxC= 1.00D-01 BMatC= 4.72D-04 BMatP= 1.94D-02
 IDIUse=3 WtCom= 9.94D-01 WtEn= 6.02D-03
 Coeff-Com: -0.326D-01 0.623D-01 0.122D+00 0.237D+00 0.611D+00
 Coeff-En:   0.000D+00 0.000D+00 0.000D+00 0.000D+00 0.100D+01
 Coeff:     -0.324D-01 0.619D-01 0.122D+00 0.235D+00 0.614D+00
 Gap=     0.159 Goal=   None    Shift=    0.000
 RMSDP=3.19D-05 MaxDP=9.24D-03 DE=-1.63D-02 OVMax= 5.91D-03

 Cycle   6  Pass 1  IDiag  1:
 RMSU=  2.53D-05    CP:  9.74D-01  1.56D+00  6.89D-01  7.25D-01  8.47D-01
 E= -3007.84534985135     Delta-E=       -0.000376343547 Rises=F Damp=F
 DIIS: error= 2.43D-04 at cycle   6 NSaved=   6.
 NSaved= 6 IEnMin= 6 EnMin= -3007.84534985135     IErMin= 6 ErrMin= 2.43D-04
 ErrMax= 2.43D-04  0.00D+00 EMaxC= 1.00D-01 BMatC= 7.25D-05 BMatP= 4.72D-04
 IDIUse=3 WtCom= 9.98D-01 WtEn= 2.43D-03
 Coeff-Com:  0.984D-02-0.212D-01-0.156D-01 0.698D-03 0.285D+00 0.742D+00
 Coeff-En:   0.000D+00 0.000D+00 0.000D+00 0.000D+00 0.000D+00 0.100D+01
 Coeff:      0.981D-02-0.211D-01-0.155D-01 0.696D-03 0.284D+00 0.742D+00
 Gap=     0.160 Goal=   None    Shift=    0.000
 RMSDP=1.28D-05 MaxDP=1.96D-03 DE=-3.76D-04 OVMax= 4.33D-03

 Cycle   7  Pass 1  IDiag  1:
 RMSU=  8.73D-06    CP:  9.74D-01  1.56D+00  6.95D-01  7.34D-01  9.65D-01
                    CP:  8.89D-01
 E= -3007.84543236052     Delta-E=       -0.000082509167 Rises=F Damp=F
 DIIS: error= 7.45D-05 at cycle   7 NSaved=   7.
 NSaved= 7 IEnMin= 7 EnMin= -3007.84543236052     IErMin= 7 ErrMin= 7.45D-05
 ErrMax= 7.45D-05  0.00D+00 EMaxC= 1.00D-01 BMatC= 8.73D-06 BMatP= 7.25D-05
 IDIUse=1 WtCom= 1.00D+00 WtEn= 0.00D+00
 Coeff-Com:  0.710D-02-0.145D-01-0.171D-01-0.229D-01 0.584D-01 0.324D+00
 Coeff-Com:  0.665D+00
 Coeff:      0.710D-02-0.145D-01-0.171D-01-0.229D-01 0.584D-01 0.324D+00
 Coeff:      0.665D+00
 Gap=     0.160 Goal=   None    Shift=    0.000
 RMSDP=5.79D-06 MaxDP=1.76D-03 DE=-8.25D-05 OVMax= 1.65D-03

 Cycle   8  Pass 1  IDiag  1:
 RMSU=  3.63D-06    CP:  9.74D-01  1.56D+00  6.96D-01  7.42D-01  9.78D-01
                    CP:  1.04D+00  9.71D-01
 E= -3007.84544401107     Delta-E=       -0.000011650547 Rises=F Damp=F
 DIIS: error= 3.23D-05 at cycle   8 NSaved=   8.
 NSaved= 8 IEnMin= 8 EnMin= -3007.84544401107     IErMin= 8 ErrMin= 3.23D-05
 ErrMax= 3.23D-05  0.00D+00 EMaxC= 1.00D-01 BMatC= 1.56D-06 BMatP= 8.73D-06
 IDIUse=1 WtCom= 1.00D+00 WtEn= 0.00D+00
 Coeff-Com:  0.175D-02-0.329D-02-0.559D-02-0.126D-01-0.286D-01 0.155D-01
 Coeff-Com:  0.308D+00 0.725D+00
 Coeff:      0.175D-02-0.329D-02-0.559D-02-0.126D-01-0.286D-01 0.155D-01
 Coeff:      0.308D+00 0.725D+00
 Gap=     0.160 Goal=   None    Shift=    0.000
 RMSDP=2.40D-06 MaxDP=1.99D-04 DE=-1.17D-05 OVMax= 1.12D-03

 Cycle   9  Pass 1  IDiag  1:
 RMSU=  1.49D-06    CP:  9.74D-01  1.56D+00  6.96D-01  7.43D-01  9.91D-01
                    CP:  1.07D+00  1.13D+00  1.07D+00
 E= -3007.84544718407     Delta-E=       -0.000003173003 Rises=F Damp=F
 DIIS: error= 1.37D-05 at cycle   9 NSaved=   9.
 NSaved= 9 IEnMin= 9 EnMin= -3007.84544718407     IErMin= 9 ErrMin= 1.37D-05
 ErrMax= 1.37D-05  0.00D+00 EMaxC= 1.00D-01 BMatC= 2.58D-07 BMatP= 1.56D-06
 IDIUse=1 WtCom= 1.00D+00 WtEn= 0.00D+00
 Coeff-Com: -0.438D-03 0.977D-03 0.595D-03-0.159D-02-0.203D-01-0.434D-01
 Coeff-Com:  0.148D-01 0.288D+00 0.762D+00
 Coeff:     -0.438D-03 0.977D-03 0.595D-03-0.159D-02-0.203D-01-0.434D-01
 Coeff:      0.148D-01 0.288D+00 0.762D+00
 Gap=     0.160 Goal=   None    Shift=    0.000
 RMSDP=1.39D-06 MaxDP=2.99D-04 DE=-3.17D-06 OVMax= 7.72D-04

 Cycle  10  Pass 1  IDiag  1:
 RMSU=  7.05D-07    CP:  9.74D-01  1.56D+00  6.96D-01  7.44D-01  9.93D-01
                    CP:  1.10D+00  1.19D+00  1.30D+00  1.20D+00
 E= -3007.84544798673     Delta-E=       -0.000000802658 Rises=F Damp=F
 DIIS: error= 9.42D-06 at cycle  10 NSaved=  10.
 NSaved=10 IEnMin=10 EnMin= -3007.84544798673     IErMin=10 ErrMin= 9.42D-06
 ErrMax= 9.42D-06  0.00D+00 EMaxC= 1.00D-01 BMatC= 6.97D-08 BMatP= 2.58D-07
 IDIUse=1 WtCom= 1.00D+00 WtEn= 0.00D+00
 Coeff-Com: -0.666D-03 0.132D-02 0.180D-02 0.250D-02-0.151D-02-0.242D-01
 Coeff-Com: -0.756D-01-0.583D-01 0.334D+00 0.821D+00
 Coeff:     -0.666D-03 0.132D-02 0.180D-02 0.250D-02-0.151D-02-0.242D-01
 Coeff:     -0.756D-01-0.583D-01 0.334D+00 0.821D+00
 Gap=     0.160 Goal=   None    Shift=    0.000
 RMSDP=9.30D-07 MaxDP=1.22D-04 DE=-8.03D-07 OVMax= 4.79D-04

 Cycle  11  Pass 1  IDiag  1:
 RMSU=  4.17D-07    CP:  9.74D-01  1.56D+00  6.96D-01  7.45D-01  9.94D-01
                    CP:  1.11D+00  1.23D+00  1.41D+00  1.54D+00  1.27D+00
 E= -3007.84544833279     Delta-E=       -0.000000346065 Rises=F Damp=F
 DIIS: error= 5.75D-06 at cycle  11 NSaved=  11.
 NSaved=11 IEnMin=11 EnMin= -3007.84544833279     IErMin=11 ErrMin= 5.75D-06
 ErrMax= 5.75D-06  0.00D+00 EMaxC= 1.00D-01 BMatC= 1.92D-08 BMatP= 6.97D-08
 IDIUse=1 WtCom= 1.00D+00 WtEn= 0.00D+00
 Coeff-Com: -0.166D-03 0.311D-03 0.593D-03 0.128D-02 0.389D-02-0.546D-04
 Coeff-Com: -0.313D-01-0.859D-01-0.380D-01 0.329D+00 0.820D+00
 Coeff:     -0.166D-03 0.311D-03 0.593D-03 0.128D-02 0.389D-02-0.546D-04
 Coeff:     -0.313D-01-0.859D-01-0.380D-01 0.329D+00 0.820D+00
 Gap=     0.160 Goal=   None    Shift=    0.000
 RMSDP=5.54D-07 MaxDP=7.48D-05 DE=-3.46D-07 OVMax= 3.72D-04

 Cycle  12  Pass 1  IDiag  1:
 RMSU=  2.15D-07    CP:  9.74D-01  1.56D+00  6.96D-01  7.45D-01  9.94D-01
                    CP:  1.11D+00  1.24D+00  1.48D+00  1.71D+00  1.67D+00
                    CP:  1.41D+00
 E= -3007.84544847375     Delta-E=       -0.000000140961 Rises=F Damp=F
 DIIS: error= 3.41D-06 at cycle  12 NSaved=  12.
 NSaved=12 IEnMin=12 EnMin= -3007.84544847375     IErMin=12 ErrMin= 3.41D-06
 ErrMax= 3.41D-06  0.00D+00 EMaxC= 1.00D-01 BMatC= 7.32D-09 BMatP= 1.92D-08
 IDIUse=1 WtCom= 1.00D+00 WtEn= 0.00D+00
 Coeff-Com:  0.202D-03-0.402D-03-0.512D-03-0.712D-03 0.927D-03 0.757D-02
 Coeff-Com:  0.255D-01 0.796D-02-0.110D+00-0.283D+00 0.132D+00 0.122D+01
 Coeff:      0.202D-03-0.402D-03-0.512D-03-0.712D-03 0.927D-03 0.757D-02
 Coeff:      0.255D-01 0.796D-02-0.110D+00-0.283D+00 0.132D+00 0.122D+01
 Gap=     0.160 Goal=   None    Shift=    0.000
 RMSDP=5.57D-07 MaxDP=4.35D-05 DE=-1.41D-07 OVMax= 3.74D-04

 Cycle  13  Pass 1  IDiag  1:
 RMSU=  1.20D-07    CP:  9.74D-01  1.56D+00  6.96D-01  7.45D-01  9.94D-01
                    CP:  1.11D+00  1.25D+00  1.53D+00  1.86D+00  2.04D+00
                    CP:  2.16D+00  1.89D+00
 E= -3007.84544856905     Delta-E=       -0.000000095300 Rises=F Damp=F
 DIIS: error= 2.02D-06 at cycle  13 NSaved=  13.
 NSaved=13 IEnMin=13 EnMin= -3007.84544856905     IErMin=13 ErrMin= 2.02D-06
 ErrMax= 2.02D-06  0.00D+00 EMaxC= 1.00D-01 BMatC= 2.75D-09 BMatP= 7.32D-09
 IDIUse=1 WtCom= 1.00D+00 WtEn= 0.00D+00
 Coeff-Com:  0.175D-03-0.341D-03-0.512D-03-0.931D-03-0.121D-02 0.315D-02
 Coeff-Com:  0.275D-01 0.395D-01-0.247D-01-0.287D+00-0.266D+00 0.486D+00
 Coeff-Com:  0.102D+01
 Coeff:      0.175D-03-0.341D-03-0.512D-03-0.931D-03-0.121D-02 0.315D-02
 Coeff:      0.275D-01 0.395D-01-0.247D-01-0.287D+00-0.266D+00 0.486D+00
 Coeff:      0.102D+01
 Gap=     0.160 Goal=   None    Shift=    0.000
 RMSDP=4.17D-07 MaxDP=3.01D-05 DE=-9.53D-08 OVMax= 2.88D-04

 Cycle  14  Pass 1  IDiag  1:
 RMSU=  6.86D-08    CP:  9.74D-01  1.56D+00  6.96D-01  7.45D-01  9.94D-01
                    CP:  1.11D+00  1.26D+00  1.56D+00  1.96D+00  2.30D+00
                    CP:  2.76D+00  2.74D+00  1.59D+00
 E= -3007.84544860742     Delta-E=       -0.000000038366 Rises=F Damp=F
 DIIS: error= 9.79D-07 at cycle  14 NSaved=  14.
 NSaved=14 IEnMin=14 EnMin= -3007.84544860742     IErMin=14 ErrMin= 9.79D-07
 ErrMax= 9.79D-07  0.00D+00 EMaxC= 1.00D-01 BMatC= 8.31D-10 BMatP= 2.75D-09
 IDIUse=1 WtCom= 1.00D+00 WtEn= 0.00D+00
 Coeff-Com: -0.102D-04 0.232D-04 0.102D-04-0.707D-04-0.628D-03-0.176D-02
 Coeff-Com:  0.104D-02 0.765D-02 0.310D-01-0.688D-02-0.108D+00-0.284D+00
 Coeff-Com:  0.352D+00 0.101D+01
 Coeff:     -0.102D-04 0.232D-04 0.102D-04-0.707D-04-0.628D-03-0.176D-02
 Coeff:      0.104D-02 0.765D-02 0.310D-01-0.688D-02-0.108D+00-0.284D+00
 Coeff:      0.352D+00 0.101D+01
 Gap=     0.160 Goal=   None    Shift=    0.000
 RMSDP=2.28D-07 MaxDP=1.67D-05 DE=-3.84D-08 OVMax= 1.58D-04

 Cycle  15  Pass 1  IDiag  1:
 RMSU=  6.79D-08    CP:  9.74D-01  1.56D+00  6.96D-01  7.45D-01  9.94D-01
                    CP:  1.11D+00  1.26D+00  1.57D+00  2.01D+00  2.43D+00
                    CP:  3.00D+00  3.00D+00  2.18D+00  1.42D+00
 E= -3007.84544861653     Delta-E=       -0.000000009111 Rises=F Damp=F
 DIIS: error= 4.07D-07 at cycle  15 NSaved=  15.
 NSaved=15 IEnMin=15 EnMin= -3007.84544861653     IErMin=15 ErrMin= 4.07D-07
 ErrMax= 4.07D-07  0.00D+00 EMaxC= 1.00D-01 BMatC= 2.53D-10 BMatP= 8.31D-10
 IDIUse=1 WtCom= 1.00D+00 WtEn= 0.00D+00
 Coeff-Com: -0.519D-04 0.103D-03 0.145D-03 0.207D-03 0.612D-05-0.180D-02
 Coeff-Com: -0.669D-02-0.766D-02 0.230D-01 0.719D-01 0.243D-01-0.284D+00
 Coeff-Com: -0.978D-01 0.525D+00 0.753D+00
 Coeff:     -0.519D-04 0.103D-03 0.145D-03 0.207D-03 0.612D-05-0.180D-02
 Coeff:     -0.669D-02-0.766D-02 0.230D-01 0.719D-01 0.243D-01-0.284D+00
 Coeff:     -0.978D-01 0.525D+00 0.753D+00
 Gap=     0.160 Goal=   None    Shift=    0.000
 RMSDP=8.32D-08 MaxDP=6.09D-06 DE=-9.11D-09 OVMax= 5.67D-05

 Cycle  16  Pass 1  IDiag  1:
 RMSU=  3.72D-08    CP:  9.74D-01  1.56D+00  6.96D-01  7.45D-01  9.94D-01
                    CP:  1.12D+00  1.26D+00  1.57D+00  2.02D+00  2.47D+00
                    CP:  3.00D+00  3.00D+00  2.42D+00  1.72D+00  1.74D+00
 E= -3007.84544861792     Delta-E=       -0.000000001388 Rises=F Damp=F
 DIIS: error= 1.47D-07 at cycle  16 NSaved=  16.
 NSaved=16 IEnMin=16 EnMin= -3007.84544861792     IErMin=16 ErrMin= 1.47D-07
 ErrMax= 1.47D-07  0.00D+00 EMaxC= 1.00D-01 BMatC= 3.16D-11 BMatP= 2.53D-10
 IDIUse=1 WtCom= 1.00D+00 WtEn= 0.00D+00
 Coeff-Com: -0.159D-04 0.310D-04 0.490D-04 0.800D-04 0.120D-03-0.290D-03
 Coeff-Com: -0.239D-02-0.431D-02 0.333D-02 0.264D-01 0.293D-01-0.499D-01
 Coeff-Com: -0.983D-01 0.596D-02 0.256D+00 0.834D+00
 Coeff:     -0.159D-04 0.310D-04 0.490D-04 0.800D-04 0.120D-03-0.290D-03
 Coeff:     -0.239D-02-0.431D-02 0.333D-02 0.264D-01 0.293D-01-0.499D-01
 Coeff:     -0.983D-01 0.596D-02 0.256D+00 0.834D+00
 Gap=     0.160 Goal=   None    Shift=    0.000
 RMSDP=2.30D-08 MaxDP=1.72D-06 DE=-1.39D-09 OVMax= 1.49D-05

 Cycle  17  Pass 1  IDiag  1:
 RMSU=  9.62D-09    CP:  9.74D-01  1.56D+00  6.96D-01  7.45D-01  9.94D-01
                    CP:  1.12D+00  1.26D+00  1.57D+00  2.03D+00  2.47D+00
                    CP:  3.00D+00  3.00D+00  2.49D+00  1.85D+00  1.96D+00
                    CP:  1.12D+00
 E= -3007.84544861814     Delta-E=       -0.000000000218 Rises=F Damp=F
 DIIS: error= 6.69D-08 at cycle  17 NSaved=  17.
 NSaved=17 IEnMin=17 EnMin= -3007.84544861814     IErMin=17 ErrMin= 6.69D-08
 ErrMax= 6.69D-08  0.00D+00 EMaxC= 1.00D-01 BMatC= 9.01D-12 BMatP= 3.16D-11
 IDIUse=1 WtCom= 1.00D+00 WtEn= 0.00D+00
 Coeff-Com:  0.500D-05-0.102D-04-0.122D-04-0.167D-04 0.443D-04 0.277D-03
 Coeff-Com:  0.592D-03-0.957D-04-0.336D-02-0.584D-02 0.510D-02 0.403D-01
 Coeff-Com: -0.148D-01-0.105D+00-0.692D-01 0.302D+00 0.850D+00
 Coeff:      0.500D-05-0.102D-04-0.122D-04-0.167D-04 0.443D-04 0.277D-03
 Coeff:      0.592D-03-0.957D-04-0.336D-02-0.584D-02 0.510D-02 0.403D-01
 Coeff:     -0.148D-01-0.105D+00-0.692D-01 0.302D+00 0.850D+00
 Gap=     0.160 Goal=   None    Shift=    0.000
 RMSDP=1.19D-08 MaxDP=9.19D-07 DE=-2.18D-10 OVMax= 7.52D-06

 Cycle  18  Pass 1  IDiag  1:
 RMSU=  5.67D-09    CP:  9.74D-01  1.56D+00  6.96D-01  7.45D-01  9.94D-01
                    CP:  1.12D+00  1.26D+00  1.57D+00  2.03D+00  2.48D+00
                    CP:  3.00D+00  3.00D+00  2.51D+00  1.90D+00  2.05D+00
                    CP:  1.20D+00  1.61D+00
 E= -3007.84544861811     Delta-E=        0.000000000024 Rises=F Damp=F
 DIIS: error= 6.26D-08 at cycle  18 NSaved=  18.
 NSaved=18 IEnMin=17 EnMin= -3007.84544861814     IErMin=18 ErrMin= 6.26D-08
 ErrMax= 6.26D-08  0.00D+00 EMaxC= 1.00D-01 BMatC= 2.66D-12 BMatP= 9.01D-12
 IDIUse=1 WtCom= 1.00D+00 WtEn= 0.00D+00
 Coeff-Com:  0.592D-05-0.117D-04-0.174D-04-0.286D-04-0.172D-04 0.176D-03
 Coeff-Com:  0.873D-03 0.108D-02-0.190D-02-0.932D-02-0.653D-02 0.275D-01
 Coeff-Com:  0.220D-01-0.390D-01-0.939D-01-0.107D+00 0.283D+00 0.923D+00
 Coeff:      0.592D-05-0.117D-04-0.174D-04-0.286D-04-0.172D-04 0.176D-03
 Coeff:      0.873D-03 0.108D-02-0.190D-02-0.932D-02-0.653D-02 0.275D-01
 Coeff:      0.220D-01-0.390D-01-0.939D-01-0.107D+00 0.283D+00 0.923D+00
 Gap=     0.160 Goal=   None    Shift=    0.000
 RMSDP=7.98D-09 MaxDP=6.36D-07 DE= 2.36D-11 OVMax= 4.89D-06

 SCF Done:  E(RwB97XD) =  -3007.84544862     A.U. after   18 cycles
            NFock= 18  Conv=0.80D-08     -V/T= 2.0109
 KE= 2.975395413673D+03 PE=-2.597751775524D+04 EE= 1.050153329070D+04
 Leave Link  502 at Fri Apr 29 16:46:45 2022, MaxMem= 10066329600 cpu:            8969.4 elap:             391.5
 (Enter /sw/apps/gaussian-16.0/g16/l801.exe)
 DoSCS=F DFT=T ScalE2(SS,OS)=  1.000000  1.000000
 ExpMin= 3.36D-02 ExpMax= 4.95D+03 ExpMxC= 7.45D+02 IAcc=3 IRadAn=         5 AccDes= 0.00D+00
 HarFok:  IExCor=  205 AccDes= 0.00D+00 IRadAn=         5 IDoV=-2 UseB2=F ITyADJ=14
 ICtDFT= 12500011 ScaDFX=  1.000000  1.000000  1.000000  1.000000
 GSVD:  LWork=       -5460 too small for GESVD, short by       25550 words or       25550 for optimal perf.
 Largest valence mixing into a core orbital is  1.32D-04
 Largest core mixing into a valence orbital is  5.69D-05
 Range of M.O.s used for correlation:    71  1298
 NBasis=  1298 NAE=   246 NBE=   246 NFC=    70 NFV=     0
 NROrb=   1228 NOA=   176 NOB=   176 NVA=  1052 NVB=  1052
 Leave Link  801 at Fri Apr 29 16:46:45 2022, MaxMem= 10066329600 cpu:               7.3 elap:               0.3
 (Enter /sw/apps/gaussian-16.0/g16/l914.exe)
 RHF ground state
 Two-electron integrals replicated using symmetry.
 MDV= 10066329600 DFT=T DoStab=F Mixed=T DoRPA=T DoScal=F NonHer=T
 Making orbital integer symmetry assigments:
 Orbital symmetries:
       Occupied  (A) (A) (A) (A) (A) (A) (A) (A) (A) (A) (A) (A)
                 (A) (A) (A) (A) (A) (A) (A) (A) (A) (A) (A) (A)
                 (A) (A) (A) (A) (A) (A) (A) (A) (A) (A) (A) (A)
                 (A) (A) (A) (A) (A) (A) (A) (A) (A) (A) (A) (A)
                 (A) (A) (A) (A) (A) (A) (A) (A) (A) (A) (A) (A)
                 (A) (A) (A) (A) (A) (A) (A) (A) (A) (A) (A) (A)
                 (A) (A) (A) (A) (A) (A) (A) (A) (A) (A) (A) (A)
                 (A) (A) (A) (A) (A) (A) (A) (A) (A) (A) (A) (A)
                 (A) (A) (A) (A) (A) (A) (A) (A) (A) (A) (A) (A)
                 (A) (A) (A) (A) (A) (A) (A) (A) (A) (A) (A) (A)
                 (A) (A) (A) (A) (A) (A) (A) (A) (A) (A) (A) (A)
                 (A) (A) (A) (A) (A) (A) (A) (A) (A) (A) (A) (A)
                 (A) (A) (A) (A) (A) (A) (A) (A) (A) (A) (A) (A)
                 (A) (A) (A) (A) (A) (A) (A) (A) (A) (A) (A) (A)
                 (A) (A) (A) (A) (A) (A) (A) (A) (A) (A) (A) (A)
                 (A) (A) (A) (A) (A) (A) (A) (A) (A) (A) (A) (A)
                 (A) (A) (A) (A) (A) (A) (A) (A) (A) (A) (A) (A)
                 (A) (A) (A) (A) (A) (A) (A) (A) (A) (A) (A) (A)
                 (A) (A) (A) (A) (A) (A) (A) (A) (A) (A) (A) (A)
                 (A) (A) (A) (A) (A) (A) (A) (A) (A) (A) (A) (A)
                 (A) (A) (A) (A) (A) (A)
       Virtual   (A) (A) (A) (A) (A) (A) (A) (A) (A) (A) (A) (A)
                 (A) (A) (A) (A) (A) (A) (A) (A) (A) (A) (A) (A)
                 (A) (A) (A) (A) (A) (A) (A) (A) (A) (A) (A) (A)
                 (A) (A) (A) (A) (A) (A) (A) (A) (A) (A) (A) (A)
                 (A) (A) (A) (A) (A) (A) (A) (A) (A) (A) (A) (A)
                 (A) (A) (A) (A) (A) (A) (A) (A) (A) (A) (A) (A)
                 (A) (A) (A) (A) (A) (A) (A) (A) (A) (A) (A) (A)
                 (A) (A) (A) (A) (A) (A) (A) (A) (A) (A) (A) (A)
                 (A) (A) (A) (A) (A) (A) (A) (A) (A) (A) (A) (A)
                 (A) (A) (A) (A) (A) (A) (A) (A) (A) (A) (A) (A)
                 (A) (A) (A) (A) (A) (A) (A) (A) (A) (A) (A) (A)
                 (A) (A) (A) (A) (A) (A) (A) (A) (A) (A) (A) (A)
                 (A) (A) (A) (A) (A) (A) (A) (A) (A) (A) (A) (A)
                 (A) (A) (A) (A) (A) (A) (A) (A) (A) (A) (A) (A)
                 (A) (A) (A) (A) (A) (A) (A) (A) (A) (A) (A) (A)
                 (A) (A) (A) (A) (A) (A) (A) (A) (A) (A) (A) (A)
                 (A) (A) (A) (A) (A) (A) (A) (A) (A) (A) (A) (A)
                 (A) (A) (A) (A) (A) (A) (A) (A) (A) (A) (A) (A)
                 (A) (A) (A) (A) (A) (A) (A) (A) (A) (A) (A) (A)
                 (A) (A) (A) (A) (A) (A) (A) (A) (A) (A) (A) (A)
                 (A) (A) (A) (A) (A) (A) (A) (A) (A) (A) (A) (A)
                 (A) (A) (A) (A) (A) (A) (A) (A) (A) (A) (A) (A)
                 (A) (A) (A) (A) (A) (A) (A) (A) (A) (A) (A) (A)
                 (A) (A) (A) (A) (A) (A) (A) (A) (A) (A) (A) (A)
                 (A) (A) (A) (A) (A) (A) (A) (A) (A) (A) (A) (A)
                 (A) (A) (A) (A) (A) (A) (A) (A) (A) (A) (A) (A)
                 (A) (A) (A) (A) (A) (A) (A) (A) (A) (A) (A) (A)
                 (A) (A) (A) (A) (A) (A) (A) (A) (A) (A) (A) (A)
                 (A) (A) (A) (A) (A) (A) (A) (A) (A) (A) (A) (A)
                 (A) (A) (A) (A) (A) (A) (A) (A) (A) (A) (A) (A)
                 (A) (A) (A) (A) (A) (A) (A) (A) (A) (A) (A) (A)
                 (A) (A) (A) (A) (A) (A) (A) (A) (A) (A) (A) (A)
                 (A) (A) (A) (A) (A) (A) (A) (A) (A) (A) (A) (A)
                 (A) (A) (A) (A) (A) (A) (A) (A) (A) (A) (A) (A)
                 (A) (A) (A) (A) (A) (A) (A) (A) (A) (A) (A) (A)
                 (A) (A) (A) (A) (A) (A) (A) (A) (A) (A) (A) (A)
                 (A) (A) (A) (A) (A) (A) (A) (A) (A) (A) (A) (A)
                 (A) (A) (A) (A) (A) (A) (A) (A) (A) (A) (A) (A)
                 (A) (A) (A) (A) (A) (A) (A) (A) (A) (A) (A) (A)
                 (A) (A) (A) (A) (A) (A) (A) (A) (A) (A) (A) (A)
                 (A) (A) (A) (A) (A) (A) (A) (A) (A) (A) (A) (A)
                 (A) (A) (A) (A) (A) (A) (A) (A) (A) (A) (A) (A)
                 (A) (A) (A) (A) (A) (A) (A) (A) (A) (A) (A) (A)
                 (A) (A) (A) (A) (A) (A) (A) (A) (A) (A) (A) (A)
                 (A) (A) (A) (A) (A) (A) (A) (A) (A) (A) (A) (A)
                 (A) (A) (A) (A) (A) (A) (A) (A) (A) (A) (A) (A)
                 (A) (A) (A) (A) (A) (A) (A) (A) (A) (A) (A) (A)
                 (A) (A) (A) (A) (A) (A) (A) (A) (A) (A) (A) (A)
                 (A) (A) (A) (A) (A) (A) (A) (A) (A) (A) (A) (A)
                 (A) (A) (A) (A) (A) (A) (A) (A) (A) (A) (A) (A)
                 (A) (A) (A) (A) (A) (A) (A) (A) (A) (A) (A) (A)
                 (A) (A) (A) (A) (A) (A) (A) (A) (A) (A) (A) (A)
                 (A) (A) (A) (A) (A) (A) (A) (A) (A) (A) (A) (A)
                 (A) (A) (A) (A) (A) (A) (A) (A) (A) (A) (A) (A)
                 (A) (A) (A) (A) (A) (A) (A) (A) (A) (A) (A) (A)
                 (A) (A) (A) (A) (A) (A) (A) (A) (A) (A) (A) (A)
                 (A) (A) (A) (A) (A) (A) (A) (A) (A) (A) (A) (A)
                 (A) (A) (A) (A) (A) (A) (A) (A) (A) (A) (A) (A)
                 (A) (A) (A) (A) (A) (A) (A) (A) (A) (A) (A) (A)
                 (A) (A) (A) (A) (A) (A) (A) (A) (A) (A) (A) (A)
                 (A) (A) (A) (A) (A) (A) (A) (A) (A) (A) (A) (A)
                 (A) (A) (A) (A) (A) (A) (A) (A) (A) (A) (A) (A)
                 (A) (A) (A) (A) (A) (A) (A) (A) (A) (A) (A) (A)
                 (A) (A) (A) (A) (A) (A) (A) (A) (A) (A) (A) (A)
                 (A) (A) (A) (A) (A) (A) (A) (A) (A) (A) (A) (A)
                 (A) (A) (A) (A) (A) (A) (A) (A) (A) (A) (A) (A)
                 (A) (A) (A) (A) (A) (A) (A) (A) (A) (A) (A) (A)
                 (A) (A) (A) (A) (A) (A) (A) (A) (A) (A) (A) (A)
                 (A) (A) (A) (A) (A) (A) (A) (A) (A) (A) (A) (A)
                 (A) (A) (A) (A) (A) (A) (A) (A) (A) (A) (A) (A)
                 (A) (A) (A) (A) (A) (A) (A) (A) (A) (A) (A) (A)
                 (A) (A) (A) (A) (A) (A) (A) (A) (A) (A) (A) (A)
                 (A) (A) (A) (A) (A) (A) (A) (A) (A) (A) (A) (A)
                 (A) (A) (A) (A) (A) (A) (A) (A) (A) (A) (A) (A)
                 (A) (A) (A) (A) (A) (A) (A) (A) (A) (A) (A) (A)
                 (A) (A) (A) (A) (A) (A) (A) (A) (A) (A) (A) (A)
                 (A) (A) (A) (A) (A) (A) (A) (A) (A) (A) (A) (A)
                 (A) (A) (A) (A) (A) (A) (A) (A) (A) (A) (A) (A)
                 (A) (A) (A) (A) (A) (A) (A) (A) (A) (A) (A) (A)
                 (A) (A) (A) (A) (A) (A) (A) (A) (A) (A) (A) (A)
                 (A) (A) (A) (A) (A) (A) (A) (A) (A) (A) (A) (A)
                 (A) (A) (A) (A) (A) (A) (A) (A) (A) (A) (A) (A)
                 (A) (A) (A) (A) (A) (A) (A) (A) (A) (A) (A) (A)
                 (A) (A) (A) (A) (A) (A) (A) (A) (A) (A) (A) (A)
                 (A) (A) (A) (A) (A) (A) (A) (A) (A) (A) (A) (A)
                 (A) (A) (A) (A) (A) (A) (A) (A) (A) (A) (A) (A)
                 (A) (A) (A) (A) (A) (A) (A) (A) (A) (A) (A) (A)
                 (A) (A) (A) (A) (A) (A) (A) (A)
    20 initial guesses have been made.
 Convergence on wavefunction:    0.001000000000000
 Davidson Disk Diagonalization:  ConvIn= 1.00D-03 SkipCon=T Conv= 1.00D-03.
 Max sub-space:  2000 roots to seek:    20 dimension of matrix:       370304
 Iteration     1 Dimension    20 NMult     0 NNew     20
 CISAX will form    20 AO SS matrices at one time.
 NMat=    20 NSing=    20 JSym2X= 0.
 FoFJK:  IHMeth= 1 ICntrl=       0 DoSepK=T KAlg= 0 I1Cent=           0 FoldK=F
 IRaf=         1 NMat=      40 IRICut=       1 DoRegI=T DoRafI=F ISym2E= 0 IDoP0=3 IntGTp=3.
 FoFCou: FMM=T IPFlag=           0 FMFlag=      100000 FMFlg1=        2001
         NFxFlg=           0 DoJE=F BraDBF=F KetDBF=F FulRan=T
         wScrn=  0.000000 ICntrl=       500 IOpCl=  0 I1Cent=           0 NGrid=           0
         NMat0=   20 NMatS0=     20 NMatT0=    0 NMatD0=   20 NMtDS0=    0 NMtDT0=    0
 Symmetry not used in FoFCou.
 FMM levels:  10  Number of levels for PrismC:   9
 New state      3 was old state      6
 New state      4 was old state      3
 New state      5 was old state      8
 Excitation Energies [eV] at current iteration:
 Root      1 :     2.181341093954877
 Root      2 :     2.558213948870576
 Root      3 :     3.843996733352721
 Root      4 :     4.035908993092208
 Root      5 :     4.161488713964528
 Root      6 :     4.260614787245918
 Root      7 :     4.386236538773503
 Root      8 :     4.388153674875021
 Root      9 :     4.410310198772351
 Root     10 :     4.469934107023745
 Root     11 :     4.558534254961343
 Root     12 :     4.762066378051372
 Root     13 :     5.010724054731558
 Root     14 :     5.038243399259787
 Root     15 :     5.349956338327823
 Root     16 :     5.408324214878671
 Root     17 :     6.092730307450178
 Root     18 :     6.893658610641363
 Root     19 :     7.090179649288698
 Root     20 :     7.303459541769767
 Iteration     2 Dimension    30 NMult    20 NNew     10
 CISAX will form    10 AO SS matrices at one time.
 NMat=    10 NSing=    10 JSym2X= 0.
 Root      1 not converged, maximum delta is    0.078583342005558
 Root      2 not converged, maximum delta is    0.056286419057467
 Root      3 not converged, maximum delta is    0.306480980330143
 Root      4 not converged, maximum delta is    0.501817051064971
 Root      5 not converged, maximum delta is    0.175536820580987
 Excitation Energies [eV] at current iteration:
 Root      1 :     1.695164175479229   Change is   -0.486176918475648
 Root      2 :     2.161447276244067   Change is   -0.396766672626509
 Root      3 :     3.390137859366225   Change is   -0.453858873986497
 Root      4 :     3.474856529569674   Change is   -0.561052463522533
 Root      5 :     3.603544954101097   Change is   -0.557943759863431
 Iteration     3 Dimension    40 NMult    30 NNew     10
 CISAX will form    10 AO SS matrices at one time.
 NMat=    10 NSing=    10 JSym2X= 0.
 Root      1 not converged, maximum delta is    0.023298077847610
 Root      2 not converged, maximum delta is    0.015766317742206
 Root      3 not converged, maximum delta is    0.097282694200301
 New state      4 was old state      5
 Root      4 not converged, maximum delta is    0.174162140594270
 New state      5 was old state      4
 Root      5 not converged, maximum delta is    0.141710955248852
 Excitation Energies [eV] at current iteration:
 Root      1 :     1.656222967246181   Change is   -0.038941208233047
 Root      2 :     2.143763578025936   Change is   -0.017683698218131
 Root      3 :     3.339898317081731   Change is   -0.050239542284493
 Root      4 :     3.378339818900041   Change is   -0.225205135201056
 Root      5 :     3.453202923333365   Change is   -0.021653606236309
 Iteration     4 Dimension    50 NMult    40 NNew     10
 CISAX will form    10 AO SS matrices at one time.
 NMat=    10 NSing=    10 JSym2X= 0.
 Root      1 not converged, maximum delta is    0.003503325400087
 Root      2 not converged, maximum delta is    0.005708195614337
 Root      3 not converged, maximum delta is    0.067759876796432
 Root      4 not converged, maximum delta is    0.103365055919773
 Root      5 not converged, maximum delta is    0.038607556479148
 Excitation Energies [eV] at current iteration:
 Root      1 :     1.651955753322542   Change is   -0.004267213923640
 Root      2 :     2.141071043540017   Change is   -0.002692534485919
 Root      3 :     3.330805320647739   Change is   -0.009092996433992
 Root      4 :     3.345125353145034   Change is   -0.033214465755006
 Root      5 :     3.446540326002192   Change is   -0.006662597331174
 Iteration     5 Dimension    60 NMult    50 NNew     10
 CISAX will form    10 AO SS matrices at one time.
 NMat=    10 NSing=    10 JSym2X= 0.
 Root      1 not converged, maximum delta is    0.001259032982129
 Root      2 has converged.
 Root      3 not converged, maximum delta is    0.022010922065212
 Root      4 not converged, maximum delta is    0.027925801604370
 Root      5 not converged, maximum delta is    0.003159042960131
 Excitation Energies [eV] at current iteration:
 Root      1 :     1.651579006538486   Change is   -0.000376746784056
 Root      2 :     2.140875799344308   Change is   -0.000195244195708
 Root      3 :     3.329512302565518   Change is   -0.001293018082221
 Root      4 :     3.341566697680981   Change is   -0.003558655464053
 Root      5 :     3.445768111562360   Change is   -0.000772214439831
 Iteration     6 Dimension    68 NMult    60 NNew      8
 CISAX will form     8 AO SS matrices at one time.
 NMat=     8 NSing=     8 JSym2X= 0.
 Root      1 has converged.
 Root      2 has converged.
 Root      3 not converged, maximum delta is    0.002302100147526
 Root      4 not converged, maximum delta is    0.004108286738736
 Root      5 has converged.
 Excitation Energies [eV] at current iteration:
 Root      1 :     1.651545600124888   Change is   -0.000033406413598
 Root      2 :     2.140872023556629   Change is   -0.000003775787679
 Root      3 :     3.329345967145763   Change is   -0.000166335419754
 Root      4 :     3.341018825733056   Change is   -0.000547871947925
 Root      5 :     3.445658907453234   Change is   -0.000109204109126
 Iteration     7 Dimension    72 NMult    68 NNew      4
 CISAX will form     4 AO SS matrices at one time.
 NMat=     4 NSing=     4 JSym2X= 0.
 Root      1 has converged.
 Root      2 has converged.
 Root      3 not converged, maximum delta is    0.001151150857276
 Root      4 not converged, maximum delta is    0.003366686915640
 Root      5 has converged.
 Excitation Energies [eV] at current iteration:
 Root      1 :     1.651545531544108   Change is   -0.000000068580779
 Root      2 :     2.140871481975554   Change is   -0.000000541581075
 Root      3 :     3.329309899758015   Change is   -0.000036067387749
 Root      4 :     3.340881410083393   Change is   -0.000137415649663
 Root      5 :     3.445657446128203   Change is   -0.000001461325031
 Iteration     8 Dimension    76 NMult    72 NNew      4
 CISAX will form     4 AO SS matrices at one time.
 NMat=     4 NSing=     4 JSym2X= 0.
 Root      1 has converged.
 Root      2 has converged.
 Root      3 not converged, maximum delta is    0.001160821649377
 Root      4 not converged, maximum delta is    0.004072807390313
 Root      5 has converged.
 Excitation Energies [eV] at current iteration:
 Root      1 :     1.651545438241570   Change is   -0.000000093302538
 Root      2 :     2.140871003681202   Change is   -0.000000478294352
 Root      3 :     3.329298936081890   Change is   -0.000010963676125
 Root      4 :     3.340797232647605   Change is   -0.000084177435788
 Root      5 :     3.445654815668977   Change is   -0.000002630459227
 Iteration     9 Dimension    80 NMult    76 NNew      4
 CISAX will form     4 AO SS matrices at one time.
 NMat=     4 NSing=     4 JSym2X= 0.
 Root      1 has converged.
 Root      2 has converged.
 Root      3 has converged.
 Root      4 not converged, maximum delta is    0.002639326986585
 Root      5 not converged, maximum delta is    0.001157502570448
 Excitation Energies [eV] at current iteration:
 Root      1 :     1.651545413027031   Change is   -0.000000025214539
 Root      2 :     2.140870838070378   Change is   -0.000000165610824
 Root      3 :     3.329295014636583   Change is   -0.000003921445307
 Root      4 :     3.340758444641736   Change is   -0.000038788005870
 Root      5 :     3.445651201288558   Change is   -0.000003614380419
 Iteration    10 Dimension    84 NMult    80 NNew      4
 CISAX will form     4 AO SS matrices at one time.
 NMat=     4 NSing=     4 JSym2X= 0.
 Root      1 has converged.
 Root      2 has converged.
 Root      3 has converged.
 Root      4 has converged.
 Root      5 not converged, maximum delta is    0.001055110527961
 Excitation Energies [eV] at current iteration:
 Root      1 :     1.651545241477223   Change is   -0.000000171549808
 Root      2 :     2.140870775316339   Change is   -0.000000062754039
 Root      3 :     3.329294460298326   Change is   -0.000000554338257
 Root      4 :     3.340748517400992   Change is   -0.000009927240743
 Root      5 :     3.445635059809390   Change is   -0.000016141479168
 Iteration    11 Dimension    86 NMult    84 NNew      2
 CISAX will form     2 AO SS matrices at one time.
 NMat=     2 NSing=     2 JSym2X= 0.
 Root      1 has converged.
 Root      2 has converged.
 Root      3 has converged.
 Root      4 has converged.
 Root      5 has converged.
 Excitation Energies [eV] at current iteration:
 Root      1 :     1.651545238942125   Change is   -0.000000002535098
 Root      2 :     2.140870594997641   Change is   -0.000000180318698
 Root      3 :     3.329294440851214   Change is   -0.000000019447112
 Root      4 :     3.340748366641800   Change is   -0.000000150759193
 Root      5 :     3.445632681549748   Change is   -0.000002378259643
 Convergence achieved on expansion vectors.
 ***********************************************************************
 Excited states from <AA,BB:AA,BB> singles matrix:
 ***********************************************************************
 
 1PDM for each excited state written to RWF  633
 Ground to excited state transition densities written to RWF  633
 Ground to excited state transition electric dipole moments (Au):
       state          X           Y           Z        Dip. S.      Osc.
         1        -0.4271      3.0270      0.2874      9.4276      0.3815
         2        -0.9186     -0.0362     -0.2408      0.9032      0.0474
         3        -2.3364     -0.2187     -0.4739      5.7312      0.4675
         4         0.8313     -0.0349      0.1417      0.7123      0.0583
         5         1.2173      0.1290      0.2648      1.5686      0.1324
 Ground to excited state transition velocity dipole moments (Au):
       state          X           Y           Z        Dip. S.      Osc.
         1         0.0251     -0.1786     -0.0180      0.0328      0.3608
         2         0.0671      0.0030      0.0182      0.0048      0.0411
         3         0.2761      0.0240      0.0561      0.0800      0.4357
         4        -0.0979      0.0024     -0.0193      0.0100      0.0542
         5        -0.1530     -0.0165     -0.0324      0.0247      0.1301
 Ground to excited state transition magnetic dipole moments (Au):
       state          X           Y           Z
         1        -0.0951     -0.2185      2.0625
         2         0.0132      0.2534     -0.2943
         3         0.1634      0.6416     -0.6867
         4         0.2537     -1.0205      0.0232
         5         0.0570     -0.2517     -0.6934
 Ground to excited state transition velocity quadrupole moments (Au):
       state          XX          YY          ZZ          XY          XZ          YZ
         1        -0.4137     -0.2020     -0.0081      2.0345      0.2411     -0.1649
         2        -1.4758      0.0981      0.0095     -0.0512     -0.1924     -0.0201
         3        -5.4936      0.1331     -0.0934     -0.1540     -0.8644      0.0921
         4         1.9832     -0.1153      0.0586      0.0207      0.3254     -0.0026
         5         2.9590     -0.1702      0.0265      0.5561      0.4174     -0.0055
 <0|del|b> * <b|rxdel|0> + <0|del|b> * <b|delr+rdel|0>
 Rotatory Strengths (R) in cgs (10**-40 erg-esu-cm/Gauss)
       state          XX          YY          ZZ    R(velocity)    E-M Angle
         1        48.1446    -40.9279    -13.2907     -2.0247       90.08
         2       -22.3156    -21.9610     10.8383    -11.1461       97.90
         3       -31.8489    117.5470     41.4458     42.3813       85.32
         4       -11.6623    -70.9798    -77.0847    -53.2423      105.31
         5        43.1811     91.1079    -34.2906     33.3328       81.15
 1/2[<0|r|b>*<b|rxdel|0> + (<0|rxdel|b>*<b|r|0>)*]
 Rotatory Strengths (R) in cgs (10**-40 erg-esu-cm/Gauss)
       state          XX          YY          ZZ     R(length)
         1       -28.7259    467.7875   -419.2403      6.6071
         2         8.5493      6.4945    -50.1240    -11.6934
         3       269.9797     99.2386   -230.1303     46.3627
         4      -149.1611    -25.2112     -2.3230    -58.8984
         5       -49.0506     22.9673    129.8444     34.5870
  1/2[<0|del|b>*<b|r|0> + (<0|r|b>*<b|del|0>)*] (Au)
       state          X           Y           Z        Dip. S.   Osc.(frdel)
         1        -0.0107     -0.5406     -0.0052      0.5564      0.3710
[...]
 Alpha virt. eigenvalues --    1.29244   1.29847   1.30119   1.30400   1.30940
 Alpha virt. eigenvalues --    1.31121   1.31249   1.31918   1.32930   1.33048
 Alpha virt. eigenvalues --    1.33229   1.33434   1.34388   1.34654   1.35514
 Alpha virt. eigenvalues --    1.35932   1.36108   1.36626   1.37007   1.37628
 Alpha virt. eigenvalues --    1.37878   1.38236   1.38756   1.39099   1.39607
 Alpha virt. eigenvalues --    1.39938   1.40460   1.40659   1.40696   1.40882
 Alpha virt. eigenvalues --    1.41561   1.41667   1.41926   1.42551   1.42995
 Alpha virt. eigenvalues --    1.43670   1.43817   1.44813   1.45264   1.45601
 Alpha virt. eigenvalues --    1.45735   1.46348   1.46501   1.46916   1.47348
 Alpha virt. eigenvalues --    1.48095   1.48258   1.48483   1.48696   1.49365
 Alpha virt. eigenvalues --    1.49428   1.50131   1.50264   1.50495   1.50921
 Alpha virt. eigenvalues --    1.51399   1.52062   1.52277   1.52642   1.53145
 Alpha virt. eigenvalues --    1.53546   1.53769   1.54332   1.55323   1.55883
 Alpha virt. eigenvalues --    1.56400   1.56477   1.57740   1.58171   1.58613
 Alpha virt. eigenvalues --    1.58747   1.59350   1.59812   1.60009   1.60290
 Alpha virt. eigenvalues --    1.60348   1.60676   1.61017   1.61091   1.61131
 Alpha virt. eigenvalues --    1.61200   1.61380   1.61912   1.61944   1.62269
 Alpha virt. eigenvalues --    1.62671   1.63016   1.63526   1.63617   1.63793
 Alpha virt. eigenvalues --    1.63829   1.64137   1.64393   1.64598   1.65012
 Alpha virt. eigenvalues --    1.65128   1.65521   1.65810   1.66243   1.66682
 Alpha virt. eigenvalues --    1.66967   1.67119   1.67551   1.67700   1.67759
 Alpha virt. eigenvalues --    1.68941   1.69809   1.69907   1.70615   1.71118
 Alpha virt. eigenvalues --    1.71557   1.72000   1.72115   1.72306   1.72611
 Alpha virt. eigenvalues --    1.73792   1.74200   1.74414   1.74883   1.75798
 Alpha virt. eigenvalues --    1.75841   1.75926   1.76322   1.76391   1.76784
 Alpha virt. eigenvalues --    1.77004   1.77582   1.77896   1.78586   1.78628
 Alpha virt. eigenvalues --    1.78669   1.79125   1.79489   1.79570   1.79965
 Alpha virt. eigenvalues --    1.80132   1.80285   1.80706   1.81154   1.81227
 Alpha virt. eigenvalues --    1.81345   1.81677   1.82394   1.82862   1.83379
 Alpha virt. eigenvalues --    1.83429   1.83807   1.84034   1.84294   1.84420
 Alpha virt. eigenvalues --    1.84599   1.84655   1.84857   1.84991   1.85237
 Alpha virt. eigenvalues --    1.85354   1.85557   1.85642   1.85796   1.86023
 Alpha virt. eigenvalues --    1.86158   1.86519   1.86679   1.86952   1.87195
 Alpha virt. eigenvalues --    1.87236   1.87504   1.87677   1.88015   1.88092
 Alpha virt. eigenvalues --    1.88153   1.88420   1.88882   1.88951   1.89094
 Alpha virt. eigenvalues --    1.89498   1.89622   1.89809   1.89921   1.90021
 Alpha virt. eigenvalues --    1.90287   1.90564   1.90659   1.90969   1.91127
 Alpha virt. eigenvalues --    1.91155   1.91329   1.91725   1.91782   1.92274
 Alpha virt. eigenvalues --    1.92655   1.92793   1.92831   1.92928   1.93061
 Alpha virt. eigenvalues --    1.93232   1.93535   1.93848   1.94061   1.94335
 Alpha virt. eigenvalues --    1.94399   1.94646   1.95031   1.95315   1.95618
 Alpha virt. eigenvalues --    1.95873   1.95993   1.96075   1.96590   1.96853
 Alpha virt. eigenvalues --    1.97076   1.97264   1.97331   1.97519   1.97920
 Alpha virt. eigenvalues --    1.98148   1.98620   1.98659   1.98863   1.99220
 Alpha virt. eigenvalues --    1.99697   1.99911   2.00102   2.00319   2.00777
 Alpha virt. eigenvalues --    2.00912   2.01246   2.01416   2.01670   2.01828
 Alpha virt. eigenvalues --    2.02329   2.02655   2.02782   2.03062   2.03621
 Alpha virt. eigenvalues --    2.03649   2.03704   2.04263   2.04458   2.04676
 Alpha virt. eigenvalues --    2.04680   2.04944   2.05271   2.05536   2.05668
 Alpha virt. eigenvalues --    2.06002   2.06171   2.06429   2.06872   2.07391
 Alpha virt. eigenvalues --    2.07623   2.07950   2.08202   2.08385   2.08872
 Alpha virt. eigenvalues --    2.08898   2.09536   2.09887   2.10054   2.10415
 Alpha virt. eigenvalues --    2.10678   2.11017   2.11317   2.11531   2.12109
 Alpha virt. eigenvalues --    2.12694   2.12814   2.13370   2.13385   2.13551
 Alpha virt. eigenvalues --    2.13650   2.13797   2.13971   2.14629   2.14782
 Alpha virt. eigenvalues --    2.14907   2.15091   2.15550   2.15741   2.15933
 Alpha virt. eigenvalues --    2.16245   2.16407   2.16499   2.16642   2.17185
 Alpha virt. eigenvalues --    2.17443   2.17947   2.18153   2.18318   2.19290
 Alpha virt. eigenvalues --    2.19501   2.19666   2.20279   2.20689   2.20732
 Alpha virt. eigenvalues --    2.21462   2.21694   2.21852   2.22370   2.22450
 Alpha virt. eigenvalues --    2.23018   2.23515   2.23533   2.24217   2.24232
 Alpha virt. eigenvalues --    2.24500   2.24797   2.25574   2.25742   2.26122
 Alpha virt. eigenvalues --    2.26966   2.27235   2.27609   2.27716   2.27994
 Alpha virt. eigenvalues --    2.28977   2.29411   2.29652   2.30296   2.30813
 Alpha virt. eigenvalues --    2.31150   2.31652   2.32230   2.32454   2.32786
 Alpha virt. eigenvalues --    2.32881   2.33410   2.33529   2.33821   2.34101
 Alpha virt. eigenvalues --    2.35026   2.35301   2.35770   2.35884   2.36685
 Alpha virt. eigenvalues --    2.36910   2.37218   2.37418   2.37889   2.38118
 Alpha virt. eigenvalues --    2.38765   2.39376   2.39568   2.39777   2.40083
 Alpha virt. eigenvalues --    2.40432   2.40698   2.40949   2.41396   2.41959
 Alpha virt. eigenvalues --    2.42177   2.42665   2.43263   2.43311   2.44157
 Alpha virt. eigenvalues --    2.44480   2.44836   2.44874   2.44999   2.45644
 Alpha virt. eigenvalues --    2.45783   2.46276   2.46383   2.47084   2.47168
 Alpha virt. eigenvalues --    2.47200   2.47648   2.48246   2.48406   2.48649
 Alpha virt. eigenvalues --    2.49084   2.49406   2.50033   2.50280   2.50593
 Alpha virt. eigenvalues --    2.51029   2.51714   2.51825   2.52428   2.52535
 Alpha virt. eigenvalues --    2.52809   2.53335   2.53623   2.53998   2.54512
 Alpha virt. eigenvalues --    2.54826   2.55269   2.55431   2.55638   2.56204
 Alpha virt. eigenvalues --    2.56307   2.56433   2.57793   2.57987   2.58562
 Alpha virt. eigenvalues --    2.59346   2.59876   2.60151   2.60868   2.61175
 Alpha virt. eigenvalues --    2.62481   2.62759   2.63074   2.63359   2.63503
 Alpha virt. eigenvalues --    2.63559   2.63958   2.64389   2.64570   2.65654
 Alpha virt. eigenvalues --    2.65918   2.66317   2.66684   2.66846   2.67284
 Alpha virt. eigenvalues --    2.67486   2.68045   2.68213   2.68556   2.69236
 Alpha virt. eigenvalues --    2.69641   2.69727   2.69855   2.70576   2.70925
 Alpha virt. eigenvalues --    2.71126   2.71332   2.72012   2.72296   2.72878
 Alpha virt. eigenvalues --    2.73246   2.73422   2.73991   2.74170   2.74306
 Alpha virt. eigenvalues --    2.74834   2.75082   2.75700   2.76034   2.76531
 Alpha virt. eigenvalues --    2.76855   2.77201   2.77399   2.77469   2.78851
 Alpha virt. eigenvalues --    2.79035   2.79231   2.79274   2.79706   2.79956
 Alpha virt. eigenvalues --    2.80092   2.80546   2.81606   2.82207   2.82270
 Alpha virt. eigenvalues --    2.82771   2.82986   2.83089   2.83793   2.84893
 Alpha virt. eigenvalues --    2.84918   2.85353   2.86893   2.87079   2.87731
 Alpha virt. eigenvalues --    2.87897   2.88894   2.89028   2.90004   2.90076
 Alpha virt. eigenvalues --    2.90639   2.90947   2.91001   2.92046   2.92791
 Alpha virt. eigenvalues --    2.93049   2.93871   2.94532   2.95454   2.95592
 Alpha virt. eigenvalues --    2.95928   2.96555   2.96593   2.98031   2.98216
 Alpha virt. eigenvalues --    2.98813   2.99107   2.99528   2.99651   2.99726
 Alpha virt. eigenvalues --    3.00321   3.00670   3.00758   3.00977   3.01099
 Alpha virt. eigenvalues --    3.01335   3.01450   3.01904   3.02072   3.02189
 Alpha virt. eigenvalues --    3.02714   3.03200   3.03328   3.03624   3.03873
 Alpha virt. eigenvalues --    3.04093   3.04318   3.04371   3.04891   3.05068
 Alpha virt. eigenvalues --    3.05394   3.05911   3.06033   3.06548   3.06668
 Alpha virt. eigenvalues --    3.07512   3.07546   3.07869   3.08223   3.08351
 Alpha virt. eigenvalues --    3.08625   3.09244   3.09940   3.10055   3.10602
 Alpha virt. eigenvalues --    3.10832   3.11059   3.11747   3.12023   3.12288
 Alpha virt. eigenvalues --    3.12329   3.13747   3.13885   3.13891   3.14530
 Alpha virt. eigenvalues --    3.14795   3.14827   3.15037   3.15578   3.16073
 Alpha virt. eigenvalues --    3.16530   3.17061   3.17687   3.18054   3.18284
 Alpha virt. eigenvalues --    3.18841   3.19909   3.20001   3.21728   3.22055
 Alpha virt. eigenvalues --    3.22410   3.23258   3.23663   3.24458   3.25375
 Alpha virt. eigenvalues --    3.27063   3.27304   3.29029   3.30757   3.32153
 Alpha virt. eigenvalues --    3.34859   3.36096   3.42585   3.44011   3.47823
 Alpha virt. eigenvalues --    3.48510   3.50510   3.56483   3.56570   3.58276
 Alpha virt. eigenvalues --    3.63382   3.68923   3.70296   3.70400   3.74025
 Alpha virt. eigenvalues --    3.74270   3.78438
          Condensed to atoms (all electrons):
 Mulliken charges:
               1
     1  Mg   0.951944
     2  C   -0.094404
     3  C   -0.089128
     4  C   -0.090371
     5  C   -0.101332
     6  N   -0.393352
     7  C    0.003311
     8  C   -0.106973
     9  C   -0.096498
    10  C    0.070731
    11  C    0.024594
    12  C    0.073146
    13  C   -0.026550
    14  C    0.186679
    15  O   -0.254880
    16  O   -0.353278
    17  N   -0.493908
    18  C    0.178166
    19  C   -0.169491
    20  C   -0.088163
    21  C    0.187796
    22  C    0.067601
    23  C    0.077430
    24  O   -0.235887
    25  C   -0.033099
    26  N   -0.334904
    27  C    0.068214
    28  C   -0.130792
    29  C   -0.082130
    30  C    0.088280
    31  C    0.035599
    32  C   -0.020882
    33  C   -0.039492
    34  N   -0.389549
    35  C    0.138625
    36  C   -0.202097
    37  C   -0.000247
    38  C    0.139657
    39  C    0.094229
    40  C    0.097093
    41  O   -0.246190
    42  C    0.011141
    43  C    0.266318
    44  O   -0.196969
    45  O   -0.384534
    46  C    0.139810
    47  C    0.247400
    48  C   -0.144269
    49  C   -0.182681
    50  C    0.011536
    51  C    0.056794
    52  C   -0.077511
    53  C   -0.010445
    54  C   -0.182848
    55  C   -0.034557
    56  C   -0.006907
    57  C   -0.038260
    58  C    0.031850
    59  C   -0.196573
    60  C   -0.011458
    61  C    0.030131
    62  C   -0.064615
    63  C    0.036966
    64  C   -0.209763
    65  C    0.021001
    66  C   -0.021272
    67  H   -0.000987
    68  H    0.031810
    69  H   -0.004812
    70  H    0.039850
    71  H    0.035132
    72  H    0.049895
    73  H    0.045694
    74  H    0.031747
    75  H    0.047034
    76  H    0.043619
    77  H    0.080724
    78  H    0.049216
    79  H    0.052655
    80  H    0.037604
    81  H    0.060285
    82  H    0.056313
    83  H    0.048853
    84  H    0.049331
    85  H    0.023002
    86  H    0.013677
    87  H    0.040089
    88  H    0.035980
    89  H    0.055401
    90  H    0.018194
    91  H    0.027873
    92  H    0.043079
    93  H    0.051198
    94  H    0.035023
    95  H    0.055031
    96  H    0.072995
    97  H    0.017706
    98  H    0.060029
    99  H    0.067069
   100  H    0.025204
   101  H    0.069673
   102  H    0.059447
   103  H    0.047938
   104  H    0.018302
   105  H    0.029980
   106  H    0.044836
   107  H    0.050495
   108  H    0.026233
   109  H    0.019207
   110  H    0.030321
   111  H    0.056506
   112  H    0.036875
   113  H    0.037069
   114  H    0.024524
   115  H    0.030726
   116  H    0.030667
   117  H    0.024726
   118  H    0.018775
   119  H    0.013124
   120  H    0.019274
   121  H    0.022253
   122  H    0.021635
   123  H    0.019605
   124  H    0.024351
   125  H    0.033917
   126  H    0.005132
   127  H    0.029704
   128  H    0.015842
   129  H    0.010385
   130  H    0.012630
   131  H    0.014572
   132  H    0.025307
   133  H    0.025556
   134  H    0.030065
   135  H    0.012865
   136  H    0.014044
   137  H    0.040886
   138  H    0.018438
   139  H    0.011824
   140  H    0.026995
 Sum of Mulliken charges =  -0.00000
 Mulliken charges with hydrogens summed into heavy atoms:
               1
     1  Mg   0.951944
     2  C   -0.094404
     3  C   -0.090115
     4  C   -0.058561
     5  C   -0.106144
     6  N   -0.393352
     7  C    0.003311
     8  C   -0.067123
     9  C   -0.061366
    10  C    0.070731
    11  C    0.151930
    12  C    0.163799
    13  C    0.103390
    14  C    0.186679
    15  O   -0.254880
    16  O   -0.353278
    17  N   -0.493908
    18  C    0.178166
    19  C   -0.169491
    20  C   -0.088163
    21  C    0.187796
    22  C    0.218145
    23  C    0.077430
    24  O   -0.235887
    25  C    0.121398
    26  N   -0.334904
    27  C    0.068214
    28  C   -0.107791
    29  C   -0.068453
    30  C    0.088280
    31  C    0.167070
    32  C    0.025185
    33  C    0.089808
    34  N   -0.389549
    35  C    0.138625
    36  C   -0.202097
    37  C   -0.000247
    38  C    0.139657
    39  C    0.239961
    40  C    0.097093
    41  O   -0.246190
    42  C    0.071170
    43  C    0.266318
    44  O   -0.196969
    45  O   -0.384534
    46  C    0.301755
    47  C    0.354785
    48  C   -0.125967
    49  C   -0.182681
    50  C    0.136847
    51  C    0.102233
    52  C    0.009316
    53  C    0.063500
    54  C   -0.158324
    55  C    0.051562
    56  C    0.024992
    57  C    0.003266
    58  C    0.073090
    59  C   -0.172221
    60  C    0.057296
    61  C    0.056358
    62  C   -0.037414
    63  C    0.087829
    64  C   -0.179698
    65  C    0.088796
    66  C    0.035986
 Electronic spatial extent (au):  <R**2>=         130614.3211
 Charge=             -0.0000 electrons
 Dipole moment (field-independent basis, Debye):
    X=              3.6587    Y=              3.8678    Z=             -0.7358  Tot=              5.3747
 Quadrupole moment (field-independent basis, Debye-Ang):
   XX=           -391.7709   YY=           -419.2207   ZZ=           -403.7339
   XY=              7.2411   XZ=             23.1029   YZ=             10.3971
 Traceless Quadrupole moment (field-independent basis, Debye-Ang):
   XX=             13.1376   YY=            -14.3122   ZZ=              1.1746
   XY=              7.2411   XZ=             23.1029   YZ=             10.3971
 Octapole moment (field-independent basis, Debye-Ang**2):
  XXX=            -55.0800  YYY=            209.0574  ZZZ=             12.9797  XYY=            196.7097
  XXY=           -236.5021  XXZ=           -208.4938  XZZ=            -19.9951  YZZ=            -11.6268
  YYZ=             10.8912  XYZ=            -19.4839
 Hexadecapole moment (field-independent basis, Debye-Ang**3):
 XXXX=        -153622.3123 YYYY=         -19632.0890 ZZZZ=          -6454.5526 XXXY=           4545.8671
 XXXZ=           1547.2210 YYYX=           -534.1097 YYYZ=            226.2231 ZZZX=             12.8861
 ZZZY=              2.8112 XXYY=         -29913.7114 XXZZ=         -26968.8276 YYZZ=          -4121.4207
 XXYZ=            224.7683 YYXZ=             85.4614 ZZXY=           -123.0729
 N-N= 9.492743602250D+03 E-N=-2.597751774243D+04  KE= 2.975395413673D+03
 Leave Link  601 at Fri Apr 29 17:08:34 2022, MaxMem= 10066329600 cpu:              14.9 elap:               0.7
 (Enter /sw/apps/gaussian-16.0/g16/l9999.exe)
 1\1\GINC-BP1-COMPUTE102\SP\RwB97XD TD-FC\def2SVP\C55H74Mg1N4O6\OF15641
 \29-Apr-2022\0\\#p wB97XD/Def2SVP td=(nstates=5)\\step_401_chromophore
 _13 TDDFT with wB97XD functional\\0,1\Mg,0,46.504,24.866,28.215\C,0,47
 .357,27.1,30.885\C,0,46.065,22.352,30.356\C,0,46.563,22.794,25.532\C,0
 ,47.591,27.529,26.079\N,0,46.721,24.755,30.302\C,0,46.789,25.817,31.21
 \C,0,46.398,25.447,32.625\C,0,46.182,23.899,32.421\C,0,46.248,23.647,3
 0.93\C,0,47.128,22.965,33.245\C,0,45.112,26.21,33.181\C,0,45.402,27.00
 1,34.479\C,0,44.546,26.821,35.709\O,0,43.379,26.498,35.704\O,0,45.213,
 26.981,36.887\N,0,46.247,22.85,27.919\C,0,46.074,21.962,28.983\C,0,46.
 051,20.587,28.42\C,0,46.306,20.674,26.981\C,0,46.407,22.161,26.743\C,0
 ,45.792,19.361,29.372\C,0,46.444,19.624,25.909\O,0,46.822,19.78,24.742
 \C,0,46.259,18.199,26.46\N,0,46.859,25.18,26.111\C,0,46.638,24.181,25.
 221\C,0,47.132,24.617,23.877\C,0,47.039,26.173,24.004\C,0,47.266,26.31
 8,25.501\C,0,48.58,24.141,23.482\C,0,45.739,26.81,23.506\C,0,44.39,26.
 389,24.084\N,0,47.363,26.882,28.365\C,0,47.731,27.8,27.436\C,0,48.189,
 29.001,28.068\C,0,48.011,28.824,29.471\C,0,47.565,27.449,29.612\C,0,48
 .608,30.271,27.421\C,0,48.186,29.333,30.788\O,0,48.563,30.442,31.249\C
 ,0,47.795,28.224,31.769\C,0,48.896,27.959,32.756\O,0,49.954,27.506,32.
 464\O,0,48.464,28.435,33.996\C,0,49.382,28.124,35.131\C,0,44.495,26.97
 8,38.121\C,0,44.675,25.695,38.886\C,0,44.083,25.427,40.057\C,0,43.174,
 26.388,40.806\C,0,44.371,24.148,40.74\C,0,43.07,23.268,40.884\C,0,42.9
 52,22.943,42.441\C,0,41.401,22.777,42.813\C,0,40.628,21.681,41.939\C,0
 ,40.658,24.161,42.73\C,0,39.529,24.236,43.813\C,0,40.026,24.955,45.163
 \C,0,39.856,24.042,46.404\C,0,38.485,24.285,47.142\C,0,41.015,24.397,4
 7.404\C,0,41.994,23.213,47.595\C,0,43.381,23.675,48.093\C,0,44.489,22.
 9,47.348\C,0,45.745,22.809,48.191\C,0,44.836,23.537,45.999\H,0,45.86,2
 1.575,31.096\H,0,46.535,22.211,24.61\H,0,47.865,28.374,25.444\H,0,47.2
 47,25.495,33.307\H,0,45.126,23.693,32.595\H,0,46.525,22.391,33.95\H,0,
 48.037,23.448,33.603\H,0,47.603,22.206,32.623\H,0,44.385,25.431,33.41\
 H,0,44.718,26.835,32.381\H,0,45.368,28.075,34.297\H,0,46.423,26.744,34
 .759\H,0,45.001,18.749,28.938\H,0,45.503,19.79,30.332\H,0,46.68,18.741
 ,29.488\H,0,47.098,18.02,27.133\H,0,46.349,17.387,25.738\H,0,45.301,18
 .128,26.975\H,0,46.495,24.425,23.013\H,0,47.87,26.602,23.442\H,0,48.95
 3,23.567,24.33\H,0,49.365,24.896,23.433\H,0,48.5,23.578,22.552\H,0,45.
 727,26.505,22.46\H,0,45.765,27.898,23.443\H,0,43.957,27.278,24.544\H,0
 ,44.558,25.53,24.734\H,0,43.758,26.111,23.241\H,0,49.57,30.538,27.859\
 H,0,47.876,31.072,27.517\H,0,48.889,30.055,26.39\H,0,46.848,28.452,32.
 257\H,0,50.428,27.958,34.875\H,0,49.148,27.119,35.482\H,0,49.19,28.747
 ,36.006\H,0,43.426,27.187,38.151\H,0,45.012,27.847,38.527\H,0,45.219,2
 4.892,38.389\H,0,43.135,27.426,40.475\H,0,43.364,26.497,41.874\H,0,42.
 158,26.024,40.656\H,0,44.704,24.408,41.745\H,0,45.163,23.584,40.248\H,
 0,43.377,22.29,40.512\H,0,42.191,23.65,40.366\H,0,43.272,23.835,42.98\
 H,0,43.374,21.961,42.654\H,0,41.348,22.354,43.816\H,0,40.626,22.044,40
 .911\H,0,39.605,21.448,42.233\H,0,41.084,20.692,41.992\H,0,40.055,24.2
 41,41.825\H,0,41.365,24.986,42.804\H,0,39.275,23.201,44.041\H,0,38.662
 ,24.722,43.364\H,0,39.414,25.852,45.258\H,0,41.047,25.318,45.039\H,0,3
 9.747,22.969,46.251\H,0,38.12,23.343,47.549\H,0,37.717,24.549,46.414\H
 ,0,38.429,25.191,47.746\H,0,40.597,24.686,48.368\H,0,41.579,25.268,47.
 071\H,0,41.968,22.635,46.671\H,0,41.61,22.427,48.246\H,0,43.416,23.45,
 49.159\H,0,43.455,24.74,47.871\H,0,44.166,21.903,47.049\H,0,45.97,21.7
 42,48.206\H,0,45.498,22.942,49.245\H,0,46.645,23.332,47.867\H,0,43.992
 ,24.054,45.543\H,0,45.017,22.796,45.22\H,0,45.755,24.111,45.883\\Versi
 on=ES64L-G16RevA.03\State=1-A\HF=-3007.8454486\RMSD=7.976e-09\PG=C01 [
 X(C55H74Mg1N4O6)]\\@


 IT IS WELL TO REMEMBER THAT MAN IS A PART OF NATURE AND THAT HIS WORKS,
 WHATEVER THEY MAY BE, ARE NO MORE "UNNATURAL" THAN 
 THE FLIGHT OF AN EAGLE OR THE PASSAGE OF A TORNADO.

                                    -- CHARLES MCCARRY IN "THE GREAT SOUTHWEST"
 Job cpu time:       0 days 11 hours 11 minutes 45.3 seconds.
 Elapsed time:       0 days  0 hours 28 minutes 30.9 seconds.
 File lengths (MBytes):  RWF=   8929 Int=      0 D2E=      0 Chk=    390 Scr=      1
 Normal termination of Gaussian 16 at Fri Apr 29 17:08:35 2022.
