 Entering Gaussian System, Link 0=g16
 Initial command:
 /sw/apps/gaussian-16.0/g16/l1.exe "/tmp/Gau-232731.inp" -scrdir="/tmp/"
 Entering Link 1 = /sw/apps/gaussian-16.0/g16/l1.exe PID=    232732.
  
 Copyright (c) 1988,1990,1992,1993,1995,1998,2003,2009,2016,
            Gaussian, Inc.  All Rights Reserved.
  
 This is part of the Gaussian(R) 16 program.  It is based on
 the Gaussian(R) 09 system (copyright 2009, Gaussian, Inc.),
 the Gaussian(R) 03 system (copyright 2003, Gaussian, Inc.),
 the Gaussian(R) 98 system (copyright 1998, Gaussian, Inc.),
 the Gaussian(R) 94 system (copyright 1995, Gaussian, Inc.),
 the Gaussian 92(TM) system (copyright 1992, Gaussian, Inc.),
 the Gaussian 90(TM) system (copyright 1990, Gaussian, Inc.),
 the Gaussian 88(TM) system (copyright 1988, Gaussian, Inc.),
 the Gaussian 86(TM) system (copyright 1986, Carnegie Mellon
 University), and the Gaussian 82(TM) system (copyright 1983,
 Carnegie Mellon University). Gaussian is a federally registered
 trademark of Gaussian, Inc.
  
 This software contains proprietary and confidential information,
 including trade secrets, belonging to Gaussian, Inc.
  
 This software is provided under written license and may be
 used, copied, transmitted, or stored only in accord with that
 written license.
  
 The following legend is applicable only to US Government
 contracts under FAR:
  
                    RESTRICTED RIGHTS LEGEND
  
 Use, reproduction and disclosure by the US Government is
 subject to restrictions as set forth in subparagraphs (a)
 and (c) of the Commercial Computer Software - Restricted
 Rights clause in FAR 52.227-19.
  
 Gaussian, Inc.
 340 Quinnipiac St., Bldg. 40, Wallingford CT 06492
  
  
 ---------------------------------------------------------------
 Warning -- This program may not be used in any manner that
 competes with the business of Gaussian, Inc. or will provide
 assistance to any competitor of Gaussian, Inc.  The licensee
 of this program is prohibited from giving any competitor of
 Gaussian, Inc. access to this program.  By using this program,
 the user acknowledges that Gaussian, Inc. is engaged in the
 business of creating and licensing software in the field of
 computational chemistry and represents and warrants to the
 licensee that it is not a competitor of Gaussian, Inc. and that
 it will not use this program in any manner prohibited above.
 ---------------------------------------------------------------
  

 Cite this work as:
 Gaussian 16, Revision A.03,
 M. J. Frisch, G. W. Trucks, H. B. Schlegel, G. E. Scuseria, 
 M. A. Robb, J. R. Cheeseman, G. Scalmani, V. Barone, 
 G. A. Petersson, H. Nakatsuji, X. Li, M. Caricato, A. V. Marenich, 
 J. Bloino, B. G. Janesko, R. Gomperts, B. Mennucci, H. P. Hratchian, 
 J. V. Ortiz, A. F. Izmaylov, J. L. Sonnenberg, D. Williams-Young, 
 F. Ding, F. Lipparini, F. Egidi, J. Goings, B. Peng, A. Petrone, 
 T. Henderson, D. Ranasinghe, V. G. Zakrzewski, J. Gao, N. Rega, 
 G. Zheng, W. Liang, M. Hada, M. Ehara, K. Toyota, R. Fukuda, 
 J. Hasegawa, M. Ishida, T. Nakajima, Y. Honda, O. Kitao, H. Nakai, 
 T. Vreven, K. Throssell, J. A. Montgomery, Jr., J. E. Peralta, 
 F. Ogliaro, M. J. Bearpark, J. J. Heyd, E. N. Brothers, K. N. Kudin, 
 V. N. Staroverov, T. A. Keith, R. Kobayashi, J. Normand, 
 K. Raghavachari, A. P. Rendell, J. C. Burant, S. S. Iyengar, 
 J. Tomasi, M. Cossi, J. M. Millam, M. Klene, C. Adamo, R. Cammi, 
 J. W. Ochterski, R. L. Martin, K. Morokuma, O. Farkas, 
 J. B. Foresman, and D. J. Fox, Gaussian, Inc., Wallingford CT, 2016.
 
 ******************************************
 Gaussian 16:  ES64L-G16RevA.03 25-Dec-2016
                 5-May-2022 
 ******************************************
 %nproc=24
 Will use up to   24 processors via shared memory.
 %mem=75GB
 --------------------------------
 #p wB97XD/Def2SVP td=(nstates=5)
 --------------------------------
 1/38=1,172=1/1;
 2/12=2,17=6,18=5,40=1/2;
 3/5=43,7=101,11=9,25=1,30=1,74=-58/1,2,3,8;
 4//1;
 5/5=2,38=5/2;
 8/6=1,10=1,108=5/1;
 9/41=5,42=1,70=2/14;
 6/7=2,8=2,9=2,10=2/1;
 99/5=1,9=1/99;
 Leave Link    1 at Thu May  5 08:38:33 2022, MaxMem= 10066329600 cpu:               1.0 elap:               0.0
 (Enter /sw/apps/gaussian-16.0/g16/l101.exe)
 ---------------------------------------------------
 step_751_chromophore_4 TDDFT with wB97XD functional
 ---------------------------------------------------
 Symbolic Z-matrix:
 Charge =  0 Multiplicity = 1
 Mg                    8.924     3.23      28.323 
 C                     10.213    1.947     31.296 
 C                     7.26      5.652     30.233 
 C                     7.294     4.333     25.633 
 C                     9.933     0.483     26.611 
 N                     8.668     3.659     30.61 
 C                     9.382     3.011     31.599 
 C                     9.112     3.67      32.974 
 C                     8.084     4.815     32.569 
 C                     7.996     4.75      31.06 
 C                     6.675     4.513     33.146 
 C                     10.414    4.237     33.711 
 C                     10.086    4.841     35.109 
 C                     10.867    4.396     36.327 
 O                     12.11     4.406     36.327 
 O                     10.128    3.831     37.38 
 N                     7.604     4.845     28.008 
 C                     7.114     5.803     28.838 
 C                     6.326     6.79      28.172 
 C                     6.23      6.323     26.809 
 C                     7.115     5.157     26.775 
 C                     5.646     7.984     28.834 
 C                     5.587     6.945     25.577 
 O                     5.616     6.47      24.449 
 C                     4.867     8.297     25.7 
 N                     8.659     2.54      26.374 
 C                     8.035     3.175     25.43 
 C                     8.093     2.409     24.102 
 C                     8.85      1.118     24.456 
 C                     9.144     1.316     25.931 
 C                     6.708     1.995     23.587 
 C                     10.112    0.727     23.618 
 C                     9.803    -0.013     22.288 
 N                     9.977     1.666     28.756 
 C                     10.437    0.61      27.953 
 C                     11.298   -0.256     28.662 
 C                     11.258    0.235     29.966 
 C                     10.477    1.381     29.964 
 C                     11.894   -1.535     28.173 
 C                     11.767    0.005     31.269 
 O                     12.479   -0.933     31.678 
 C                     11.132    1.112     32.213 
 C                     10.304    0.538     33.409 
 O                     9.206     0.039     33.338 
 O                     11.116    0.531     34.563 
 C                     10.548   -0.135     35.766 
 C                     10.904    3.347     38.561 
 C                     10.745    4.477     39.585 
 C                     11.371    4.558     40.772 
 C                     12.348    3.552     41.379 
 C                     11.249    5.78      41.562 
 C                     9.909     6.146     42.205 
 C                     9.117     7.373     41.606 
 C                     8.924     8.464     42.698 
 C                     7.604     8.199     43.474 
 C                     8.989     9.847     42.12 
 C                     10.458    10.444    42.027 
 C                     10.47     11.995    42.326 
 C                     10.946    12.319    43.794 
 C                     12.004    13.455    43.959 
 C                     9.762     12.396    44.85 
 C                     9.518     11.087    45.649 
 C                     9.306     11.347    47.192 
 C                     9.039     9.953     47.899 
 C                     7.664     9.284     47.738 
 C                     9.278     10.21     49.404 
 H                     6.769     6.399     30.861 
 H                     6.702     4.609     24.758 
 H                     10.246   -0.437     26.113 
 H                     8.603     2.824     33.434 
 H                     8.302     5.813     32.948 
 H                     6.715     3.705     33.875 
 H                     6.005     4.257     32.325 
 H                     6.36      5.346     33.775 
 H                     10.81     5.009     33.052 
 H                     11.083    3.376     33.694 
 H                     9.024     4.671     35.281 
 H                     10.342    5.9       35.067 
 H                     4.608     7.716     29.031 
 H                     5.57      8.828     28.149 
 H                     6.078     8.354     29.764 
 H                     4.558     8.634     24.71 
 H                     5.57      8.993     26.157 
 H                     4.031     8.224     26.395 
 H                     8.53      3.119     23.4 
 H                     8.147     0.3       24.293 
 H                     5.908     1.866     24.317 
 H                     6.709     1.21      22.831 
 H                     6.358     2.859     23.021 
 H                     10.867    0.178     24.181 
 H                     10.668    1.638     23.394 
 H                     9.904     0.628     21.413 
 H                     8.764    -0.343     22.33 
 H                     10.361   -0.928     22.087 
 H                     11.113   -2.029     27.596 
 H                     12.281   -2.241     28.908 
 H                     12.687   -1.309     27.46 
 H                     11.887    1.683     32.754 
 H                     10.55    -1.207     35.572 
 H                     9.502     0.061     36.003 
 H                     11.092    0.04      36.694 
 H                     11.937    3.125     38.294 
 H                     10.329    2.467     38.849 
 H                     10.292    5.429     39.306 
 H                     12.045    3.26      42.384 
 H                     13.34     4.002     41.422 
 H                     12.388    2.742     40.65 
 H                     11.446    6.649     40.934 
 H                     11.977    5.702     42.37 
 H                     10.104    6.238     43.273 
 H                     9.295     5.246     42.155 
 H                     8.147     7.061     41.218 
 H                     9.626     7.928     40.818 
 H                     9.767     8.316     43.373 
 H                     7.388     7.134     43.389 
 H                     6.776     8.687     42.961 
 H                     7.734     8.47      44.522 
 H                     8.213     10.44     42.603 
 H                     8.673     9.738     41.082 
 H                     11.008    10.282    41.1 
 H                     11.056    9.955     42.796 
 H                     9.439     12.307    42.16 
 H                     10.993    12.423    41.47 
 H                     11.498    11.461    44.176 
 H                     13.027    13.08     43.926 
 H                     11.895    13.818    44.981 
 H                     11.776    14.295    43.303 
 H                     8.926     12.602    44.181 
 H                     9.798     13.225    45.557 
 H                     10.292    10.337    45.487 
 H                     8.594     10.571    45.387 
 H                     8.465     11.997    47.434 
 H                     10.26     11.801    47.464 
 H                     9.783     9.207     47.62 
 H                     6.99      9.764     47.029 
 H                     7.281     8.797     48.635 
 H                     7.93      8.454     47.083 
 H                     8.394     9.966     49.994 
 H                     9.581     11.219    49.682 
 H                     10.17     9.614     49.598 
 
 ITRead=  0  0  0  0  0  0  0  0  0  0  0  0  0  0  0  0  0  0  0  0
 ITRead=  0  0  0  0  0  0  0  0  0  0  0  0  0  0  0  0  0  0  0  0
 ITRead=  0  0  0  0  0  0  0  0  0  0  0  0  0  0  0  0  0  0  0  0
 ITRead=  0  0  0  0  0  0  0  0  0  0  0  0  0  0  0  0  0  0  0  0
 ITRead=  0  0  0  0  0  0  0  0  0  0  0  0  0  0  0  0  0  0  0  0
 ITRead=  0  0  0  0  0  0  0  0  0  0  0  0  0  0  0  0  0  0  0  0
 ITRead=  0  0  0  0  0  0  0  0  0  0  0  0  0  0  0  0  0  0  0  0
 MicOpt= -1 -1 -1 -1 -1 -1 -1 -1 -1 -1 -1 -1 -1 -1 -1 -1 -1 -1 -1 -1
 MicOpt= -1 -1 -1 -1 -1 -1 -1 -1 -1 -1 -1 -1 -1 -1 -1 -1 -1 -1 -1 -1
 MicOpt= -1 -1 -1 -1 -1 -1 -1 -1 -1 -1 -1 -1 -1 -1 -1 -1 -1 -1 -1 -1
 MicOpt= -1 -1 -1 -1 -1 -1 -1 -1 -1 -1 -1 -1 -1 -1 -1 -1 -1 -1 -1 -1
 MicOpt= -1 -1 -1 -1 -1 -1 -1 -1 -1 -1 -1 -1 -1 -1 -1 -1 -1 -1 -1 -1
 MicOpt= -1 -1 -1 -1 -1 -1 -1 -1 -1 -1 -1 -1 -1 -1 -1 -1 -1 -1 -1 -1
 MicOpt= -1 -1 -1 -1 -1 -1 -1 -1 -1 -1 -1 -1 -1 -1 -1 -1 -1 -1 -1 -1
 NAtoms=    140 NQM=      140 NQMF=       0 NMMI=      0 NMMIF=      0
                NMic=       0 NMicF=      0.
                    Isotopes and Nuclear Properties:
 (Nuclear quadrupole moments (NQMom) in fm**2, nuclear magnetic moments (NMagM)
  in nuclear magnetons)

  Atom         1           2           3           4           5           6           7           8           9          10
 IAtWgt=          24          12          12          12          12          14          12          12          12          12
 AtmWgt=  23.9850450  12.0000000  12.0000000  12.0000000  12.0000000  14.0030740  12.0000000  12.0000000  12.0000000  12.0000000
 NucSpn=           0           0           0           0           0           2           0           0           0           0
 AtZEff=  -0.0000000  -0.0000000  -0.0000000  -0.0000000  -0.0000000  -0.0000000  -0.0000000  -0.0000000  -0.0000000  -0.0000000
 NQMom=    0.0000000   0.0000000   0.0000000   0.0000000   0.0000000   2.0440000   0.0000000   0.0000000   0.0000000   0.0000000
 NMagM=    0.0000000   0.0000000   0.0000000   0.0000000   0.0000000   0.4037610   0.0000000   0.0000000   0.0000000   0.0000000
 AtZNuc=  12.0000000   6.0000000   6.0000000   6.0000000   6.0000000   7.0000000   6.0000000   6.0000000   6.0000000   6.0000000

  Atom        11          12          13          14          15          16          17          18          19          20
 IAtWgt=          12          12          12          12          16          16          14          12          12          12
 AtmWgt=  12.0000000  12.0000000  12.0000000  12.0000000  15.9949146  15.9949146  14.0030740  12.0000000  12.0000000  12.0000000
 NucSpn=           0           0           0           0           0           0           2           0           0           0
 AtZEff=  -0.0000000  -0.0000000  -0.0000000  -0.0000000  -0.0000000  -0.0000000  -0.0000000  -0.0000000  -0.0000000  -0.0000000
 NQMom=    0.0000000   0.0000000   0.0000000   0.0000000   0.0000000   0.0000000   2.0440000   0.0000000   0.0000000   0.0000000
 NMagM=    0.0000000   0.0000000   0.0000000   0.0000000   0.0000000   0.0000000   0.4037610   0.0000000   0.0000000   0.0000000
 AtZNuc=   6.0000000   6.0000000   6.0000000   6.0000000   8.0000000   8.0000000   7.0000000   6.0000000   6.0000000   6.0000000

  Atom        21          22          23          24          25          26          27          28          29          30
 IAtWgt=          12          12          12          16          12          14          12          12          12          12
 AtmWgt=  12.0000000  12.0000000  12.0000000  15.9949146  12.0000000  14.0030740  12.0000000  12.0000000  12.0000000  12.0000000
 NucSpn=           0           0           0           0           0           2           0           0           0           0
 AtZEff=  -0.0000000  -0.0000000  -0.0000000  -0.0000000  -0.0000000  -0.0000000  -0.0000000  -0.0000000  -0.0000000  -0.0000000
 NQMom=    0.0000000   0.0000000   0.0000000   0.0000000   0.0000000   2.0440000   0.0000000   0.0000000   0.0000000   0.0000000
 NMagM=    0.0000000   0.0000000   0.0000000   0.0000000   0.0000000   0.4037610   0.0000000   0.0000000   0.0000000   0.0000000
 AtZNuc=   6.0000000   6.0000000   6.0000000   8.0000000   6.0000000   7.0000000   6.0000000   6.0000000   6.0000000   6.0000000

  Atom        31          32          33          34          35          36          37          38          39          40
 IAtWgt=          12          12          12          14          12          12          12          12          12          12
 AtmWgt=  12.0000000  12.0000000  12.0000000  14.0030740  12.0000000  12.0000000  12.0000000  12.0000000  12.0000000  12.0000000
 NucSpn=           0           0           0           2           0           0           0           0           0           0
 AtZEff=  -0.0000000  -0.0000000  -0.0000000  -0.0000000  -0.0000000  -0.0000000  -0.0000000  -0.0000000  -0.0000000  -0.0000000
 NQMom=    0.0000000   0.0000000   0.0000000   2.0440000   0.0000000   0.0000000   0.0000000   0.0000000   0.0000000   0.0000000
 NMagM=    0.0000000   0.0000000   0.0000000   0.4037610   0.0000000   0.0000000   0.0000000   0.0000000   0.0000000   0.0000000
 AtZNuc=   6.0000000   6.0000000   6.0000000   7.0000000   6.0000000   6.0000000   6.0000000   6.0000000   6.0000000   6.0000000

  Atom        41          42          43          44          45          46          47          48          49          50
 IAtWgt=          16          12          12          16          16          12          12          12          12          12
 AtmWgt=  15.9949146  12.0000000  12.0000000  15.9949146  15.9949146  12.0000000  12.0000000  12.0000000  12.0000000  12.0000000
 NucSpn=           0           0           0           0           0           0           0           0           0           0
 AtZEff=  -0.0000000  -0.0000000  -0.0000000  -0.0000000  -0.0000000  -0.0000000  -0.0000000  -0.0000000  -0.0000000  -0.0000000
 NQMom=    0.0000000   0.0000000   0.0000000   0.0000000   0.0000000   0.0000000   0.0000000   0.0000000   0.0000000   0.0000000
 NMagM=    0.0000000   0.0000000   0.0000000   0.0000000   0.0000000   0.0000000   0.0000000   0.0000000   0.0000000   0.0000000
 AtZNuc=   8.0000000   6.0000000   6.0000000   8.0000000   8.0000000   6.0000000   6.0000000   6.0000000   6.0000000   6.0000000

  Atom        51          52          53          54          55          56          57          58          59          60
 IAtWgt=          12          12          12          12          12          12          12          12          12          12
 AtmWgt=  12.0000000  12.0000000  12.0000000  12.0000000  12.0000000  12.0000000  12.0000000  12.0000000  12.0000000  12.0000000
 NucSpn=           0           0           0           0           0           0           0           0           0           0
 AtZEff=  -0.0000000  -0.0000000  -0.0000000  -0.0000000  -0.0000000  -0.0000000  -0.0000000  -0.0000000  -0.0000000  -0.0000000
 NQMom=    0.0000000   0.0000000   0.0000000   0.0000000   0.0000000   0.0000000   0.0000000   0.0000000   0.0000000   0.0000000
 NMagM=    0.0000000   0.0000000   0.0000000   0.0000000   0.0000000   0.0000000   0.0000000   0.0000000   0.0000000   0.0000000
 AtZNuc=   6.0000000   6.0000000   6.0000000   6.0000000   6.0000000   6.0000000   6.0000000   6.0000000   6.0000000   6.0000000

  Atom        61          62          63          64          65          66          67          68          69          70
 IAtWgt=          12          12          12          12          12          12           1           1           1           1
 AtmWgt=  12.0000000  12.0000000  12.0000000  12.0000000  12.0000000  12.0000000   1.0078250   1.0078250   1.0078250   1.0078250
 NucSpn=           0           0           0           0           0           0           1           1           1           1
 AtZEff=  -0.0000000  -0.0000000  -0.0000000  -0.0000000  -0.0000000  -0.0000000  -0.0000000  -0.0000000  -0.0000000  -0.0000000
 NQMom=    0.0000000   0.0000000   0.0000000   0.0000000   0.0000000   0.0000000   0.0000000   0.0000000   0.0000000   0.0000000
 NMagM=    0.0000000   0.0000000   0.0000000   0.0000000   0.0000000   0.0000000   2.7928460   2.7928460   2.7928460   2.7928460
 AtZNuc=   6.0000000   6.0000000   6.0000000   6.0000000   6.0000000   6.0000000   1.0000000   1.0000000   1.0000000   1.0000000

  Atom        71          72          73          74          75          76          77          78          79          80
 IAtWgt=           1           1           1           1           1           1           1           1           1           1
 AtmWgt=   1.0078250   1.0078250   1.0078250   1.0078250   1.0078250   1.0078250   1.0078250   1.0078250   1.0078250   1.0078250
 NucSpn=           1           1           1           1           1           1           1           1           1           1
 AtZEff=  -0.0000000  -0.0000000  -0.0000000  -0.0000000  -0.0000000  -0.0000000  -0.0000000  -0.0000000  -0.0000000  -0.0000000
 NQMom=    0.0000000   0.0000000   0.0000000   0.0000000   0.0000000   0.0000000   0.0000000   0.0000000   0.0000000   0.0000000
 NMagM=    2.7928460   2.7928460   2.7928460   2.7928460   2.7928460   2.7928460   2.7928460   2.7928460   2.7928460   2.7928460
 AtZNuc=   1.0000000   1.0000000   1.0000000   1.0000000   1.0000000   1.0000000   1.0000000   1.0000000   1.0000000   1.0000000

  Atom        81          82          83          84          85          86          87          88          89          90
 IAtWgt=           1           1           1           1           1           1           1           1           1           1
 AtmWgt=   1.0078250   1.0078250   1.0078250   1.0078250   1.0078250   1.0078250   1.0078250   1.0078250   1.0078250   1.0078250
 NucSpn=           1           1           1           1           1           1           1           1           1           1
 AtZEff=  -0.0000000  -0.0000000  -0.0000000  -0.0000000  -0.0000000  -0.0000000  -0.0000000  -0.0000000  -0.0000000  -0.0000000
 NQMom=    0.0000000   0.0000000   0.0000000   0.0000000   0.0000000   0.0000000   0.0000000   0.0000000   0.0000000   0.0000000
 NMagM=    2.7928460   2.7928460   2.7928460   2.7928460   2.7928460   2.7928460   2.7928460   2.7928460   2.7928460   2.7928460
 AtZNuc=   1.0000000   1.0000000   1.0000000   1.0000000   1.0000000   1.0000000   1.0000000   1.0000000   1.0000000   1.0000000

  Atom        91          92          93          94          95          96          97          98          99         100
 IAtWgt=           1           1           1           1           1           1           1           1           1           1
 AtmWgt=   1.0078250   1.0078250   1.0078250   1.0078250   1.0078250   1.0078250   1.0078250   1.0078250   1.0078250   1.0078250
 NucSpn=           1           1           1           1           1           1           1           1           1           1
 AtZEff=  -0.0000000  -0.0000000  -0.0000000  -0.0000000  -0.0000000  -0.0000000  -0.0000000  -0.0000000  -0.0000000  -0.0000000
 NQMom=    0.0000000   0.0000000   0.0000000   0.0000000   0.0000000   0.0000000   0.0000000   0.0000000   0.0000000   0.0000000
 NMagM=    2.7928460   2.7928460   2.7928460   2.7928460   2.7928460   2.7928460   2.7928460   2.7928460   2.7928460   2.7928460
 AtZNuc=   1.0000000   1.0000000   1.0000000   1.0000000   1.0000000   1.0000000   1.0000000   1.0000000   1.0000000   1.0000000

  Atom       101         102         103         104         105         106         107         108         109         110
 IAtWgt=           1           1           1           1           1           1           1           1           1           1
 AtmWgt=   1.0078250   1.0078250   1.0078250   1.0078250   1.0078250   1.0078250   1.0078250   1.0078250   1.0078250   1.0078250
 NucSpn=           1           1           1           1           1           1           1           1           1           1
 AtZEff=  -0.0000000  -0.0000000  -0.0000000  -0.0000000  -0.0000000  -0.0000000  -0.0000000  -0.0000000  -0.0000000  -0.0000000
 NQMom=    0.0000000   0.0000000   0.0000000   0.0000000   0.0000000   0.0000000   0.0000000   0.0000000   0.0000000   0.0000000
 NMagM=    2.7928460   2.7928460   2.7928460   2.7928460   2.7928460   2.7928460   2.7928460   2.7928460   2.7928460   2.7928460
 AtZNuc=   1.0000000   1.0000000   1.0000000   1.0000000   1.0000000   1.0000000   1.0000000   1.0000000   1.0000000   1.0000000

  Atom       111         112         113         114         115         116         117         118         119         120
 IAtWgt=           1           1           1           1           1           1           1           1           1           1
 AtmWgt=   1.0078250   1.0078250   1.0078250   1.0078250   1.0078250   1.0078250   1.0078250   1.0078250   1.0078250   1.0078250
 NucSpn=           1           1           1           1           1           1           1           1           1           1
 AtZEff=  -0.0000000  -0.0000000  -0.0000000  -0.0000000  -0.0000000  -0.0000000  -0.0000000  -0.0000000  -0.0000000  -0.0000000
 NQMom=    0.0000000   0.0000000   0.0000000   0.0000000   0.0000000   0.0000000   0.0000000   0.0000000   0.0000000   0.0000000
 NMagM=    2.7928460   2.7928460   2.7928460   2.7928460   2.7928460   2.7928460   2.7928460   2.7928460   2.7928460   2.7928460
 AtZNuc=   1.0000000   1.0000000   1.0000000   1.0000000   1.0000000   1.0000000   1.0000000   1.0000000   1.0000000   1.0000000

  Atom       121         122         123         124         125         126         127         128         129         130
 IAtWgt=           1           1           1           1           1           1           1           1           1           1
 AtmWgt=   1.0078250   1.0078250   1.0078250   1.0078250   1.0078250   1.0078250   1.0078250   1.0078250   1.0078250   1.0078250
 NucSpn=           1           1           1           1           1           1           1           1           1           1
 AtZEff=  -0.0000000  -0.0000000  -0.0000000  -0.0000000  -0.0000000  -0.0000000  -0.0000000  -0.0000000  -0.0000000  -0.0000000
 NQMom=    0.0000000   0.0000000   0.0000000   0.0000000   0.0000000   0.0000000   0.0000000   0.0000000   0.0000000   0.0000000
 NMagM=    2.7928460   2.7928460   2.7928460   2.7928460   2.7928460   2.7928460   2.7928460   2.7928460   2.7928460   2.7928460
 AtZNuc=   1.0000000   1.0000000   1.0000000   1.0000000   1.0000000   1.0000000   1.0000000   1.0000000   1.0000000   1.0000000

  Atom       131         132         133         134         135         136         137         138         139         140
 IAtWgt=           1           1           1           1           1           1           1           1           1           1
 AtmWgt=   1.0078250   1.0078250   1.0078250   1.0078250   1.0078250   1.0078250   1.0078250   1.0078250   1.0078250   1.0078250
 NucSpn=           1           1           1           1           1           1           1           1           1           1
 AtZEff=  -0.0000000  -0.0000000  -0.0000000  -0.0000000  -0.0000000  -0.0000000  -0.0000000  -0.0000000  -0.0000000  -0.0000000
 NQMom=    0.0000000   0.0000000   0.0000000   0.0000000   0.0000000   0.0000000   0.0000000   0.0000000   0.0000000   0.0000000
 NMagM=    2.7928460   2.7928460   2.7928460   2.7928460   2.7928460   2.7928460   2.7928460   2.7928460   2.7928460   2.7928460
 AtZNuc=   1.0000000   1.0000000   1.0000000   1.0000000   1.0000000   1.0000000   1.0000000   1.0000000   1.0000000   1.0000000
 Leave Link  101 at Thu May  5 08:38:33 2022, MaxMem= 10066329600 cpu:               4.4 elap:               0.2
 (Enter /sw/apps/gaussian-16.0/g16/l202.exe)
 Stoichiometry    C55H74MgN4O6
 Framework group  C1[X(C55H74MgN4O6)]
 Deg. of freedom   414
 Full point group                 C1      NOp   1
 Largest Abelian subgroup         C1      NOp   1
 Largest concise Abelian subgroup C1      NOp   1
                         Standard orientation:                         
 ---------------------------------------------------------------------
 Center     Atomic      Atomic             Coordinates (Angstroms)
 Number     Number       Type             X           Y           Z
 ---------------------------------------------------------------------
      1         12           0        5.933375    0.494388    0.277754
      2          6           0        3.548580   -2.043716    0.146909
      3          6           0        3.387932    2.760364   -0.540264
      4          6           0        8.141631    2.971769   -0.031761
      5          6           0        8.453744   -1.772563    0.338655
      6          7           0        3.667099    0.320650   -0.282382
      7          6           0        2.935460   -0.846036   -0.175754
      8          6           0        1.435489   -0.563572   -0.436731
      9          6           0        1.464362    0.999769   -0.731629
     10          6           0        2.897328    1.420248   -0.489028
     11          6           0        1.126469    1.281043   -2.220296
     12          6           0        0.462046   -0.949194    0.773048
     13          6           0       -1.035763   -0.689934    0.432227
     14          6           0       -2.058028   -1.788082    0.633607
     15          8           0       -2.140909   -2.392261    1.716773
     16          8           0       -2.786517   -2.188932   -0.498990
     17          7           0        5.727416    2.562301   -0.084418
     18          6           0        4.640538    3.354466   -0.279183
     19          6           0        4.953980    4.744143   -0.375218
     20          6           0        6.396794    4.796420   -0.350135
     21          6           0        6.793043    3.411527   -0.087466
     22          6           0        3.950293    5.871869   -0.592304
     23          6           0        7.359366    5.976086   -0.350615
     24          8           0        8.578467    5.893149   -0.274699
     25          6           0        6.802627    7.407204   -0.408716
     26          7           0        8.012673    0.613801    0.192991
     27          6           0        8.701402    1.712619    0.148384
     28          6           0       10.209805    1.433228    0.167449
     29          6           0       10.298385   -0.102073    0.174638
     30          6           0        8.835885   -0.505003    0.177191
     31          6           0       10.926757    1.922181   -1.098154
     32          6           0       11.138722   -0.806171    1.290814
     33          6           0       12.663002   -0.882803    1.003276
     34          7           0        6.028165   -1.433721    0.403472
     35          6           0        7.127226   -2.299376    0.522845
     36          6           0        6.725430   -3.637813    0.725591
     37          6           0        5.337512   -3.586521    0.606631
     38          6           0        4.975345   -2.259037    0.433709
     39          6           0        7.604219   -4.843395    0.792512
     40          6           0        4.175876   -4.398161    0.647006
     41          8           0        4.088684   -5.636782    0.757849
     42          6           0        2.938380   -3.444591    0.365725
     43          6           0        2.085778   -3.849794   -0.881014
     44          8           0        2.402051   -3.698804   -2.037223
     45          8           0        0.962910   -4.584873   -0.445197
     46          6           0        0.120437   -5.195803   -1.508395
     47          6           0       -3.759958   -3.306122   -0.310593
     48          6           0       -5.110542   -2.590985   -0.187071
     49          6           0       -6.284027   -3.171496    0.118455
     50          6           0       -6.547770   -4.653075    0.383746
     51          6           0       -7.452494   -2.332188    0.368483
     52          6           0       -8.097412   -1.554574   -0.781475
     53          6           0       -7.932715    0.015261   -0.790776
     54          6           0       -9.330311    0.695685   -0.729591
     55          6           0       -9.872378    0.906748   -2.170568
     56          6           0       -9.296139    1.965551    0.068702
     57          6           0       -9.518885    1.759138    1.627803
     58          6           0      -10.357907    2.942996    2.252036
     59          6           0      -11.871002    2.555980    2.469615
     60          6           0      -12.502204    2.921558    3.849840
     61          6           0      -12.805737    2.901307    1.232708
     62          6           0      -13.060821    1.717409    0.260733
     63          6           0      -14.576704    1.595342   -0.164230
     64          6           0      -14.714035    0.379147   -1.172388
     65          6           0      -14.234977    0.552530   -2.623095
     66          6           0      -16.222243    0.043258   -1.198508
     67          1           0        2.565241    3.437195   -0.782242
     68          1           0        8.893765    3.739998   -0.222508
     69          1           0        9.229315   -2.541014    0.320060
     70          1           0        1.345495   -1.139550   -1.356811
     71          1           0        0.737471    1.604685   -0.190451
     72          1           0        0.737480    0.389071   -2.709150
     73          1           0        2.025451    1.634934   -2.725341
     74          1           0        0.260568    1.941578   -2.271905
     75          1           0        0.771106   -0.321599    1.608324
     76          1           0        0.746115   -1.981777    0.978590
     77          1           0       -1.066664   -0.355543   -0.603898
     78          1           0       -1.395433    0.066533    1.130208
     79          1           0        3.929991    6.106736   -1.656494
     80          1           0        4.287643    6.798619   -0.128982
     81          1           0        2.923916    5.697855   -0.268740
     82          1           0        7.621674    8.118966   -0.300516
     83          1           0        6.081295    7.502641    0.402484
     84          1           0        6.235717    7.560767   -1.326475
     85          1           0       10.578644    2.001922    1.020923
     86          1           0       10.790253   -0.381692   -0.757982
     87          1           0       10.345212    2.001983   -2.017381
     88          1           0       11.913503    1.492045   -1.268675
     89          1           0       11.163648    2.966412   -0.891236
     90          1           0       10.765043   -1.790118    1.574726
     91          1           0       10.982686   -0.267250    2.225934
     92          1           0       13.239134   -0.155933    1.574623
     93          1           0       12.809356   -0.654188   -0.053370
     94          1           0       13.144832   -1.852592    1.131098
     95          1           0        8.369222   -4.700098    0.030171
     96          1           0        7.150685   -5.824184    0.648323
     97          1           0        8.135367   -4.844855    1.744443
     98          1           0        2.180723   -3.501505    1.147685
     99          1           0        0.687908   -6.022730   -1.933827
    100          1           0       -0.104124   -4.586951   -2.384508
    101          1           0       -0.840805   -5.584736   -1.173002
    102          1           0       -3.497268   -3.921384    0.549703
    103          1           0       -3.673447   -3.828458   -1.263300
    104          1           0       -5.165867   -1.505552   -0.096917
    105          1           0       -7.357993   -5.030603   -0.239239
    106          1           0       -6.813539   -4.784134    1.432842
    107          1           0       -5.579603   -5.130682    0.229848
    108          1           0       -7.194611   -1.535651    1.066608
    109          1           0       -8.222468   -2.985527    0.779845
    110          1           0       -9.136673   -1.879744   -0.817749
    111          1           0       -7.686737   -1.977697   -1.698976
    112          1           0       -7.397216    0.347370   -1.680569
    113          1           0       -7.432487    0.445594    0.076769
    114          1           0       -9.958606   -0.033911   -0.218599
    115          1           0       -9.394940    0.161879   -2.807222
    116          1           0       -9.518533    1.862247   -2.556202
    117          1           0      -10.953526    0.766466   -2.179859
    118          1           0       -9.910144    2.697564   -0.455005
    119          1           0       -8.270933    2.327799   -0.014429
    120          1           0       -8.633036    1.619483    2.247352
    121          1           0      -10.095868    0.843089    1.754419
    122          1           0      -10.250387    3.754809    1.532828
    123          1           0       -9.749447    3.281427    3.091494
    124          1           0      -11.951760    1.469661    2.483031
    125          1           0      -12.401326    2.118674    4.580213
    126          1           0      -13.577143    2.982078    3.679613
    127          1           0      -12.180695    3.911631    4.172805
    128          1           0      -12.204415    3.673425    0.751939
    129          1           0      -13.765145    3.363368    1.465994
    130          1           0      -12.688633    0.765721    0.639659
    131          1           0      -12.571811    1.823194   -0.707954
    132          1           0      -14.982935    2.475003   -0.663747
    133          1           0      -15.054541    1.420953    0.800900
    134          1           0      -14.232528   -0.521089   -0.790787
    135          1           0      -13.705718    1.481503   -2.833450
    136          1           0      -14.869204    0.084922   -3.376464
    137          1           0      -13.342846   -0.073979   -2.606702
    138          1           0      -16.626656    0.109849   -2.209007
    139          1           0      -16.864563    0.644158   -0.555455
    140          1           0      -16.244392   -0.941539   -0.731390
 ---------------------------------------------------------------------
 Rotational constants (GHZ):           0.0529636           0.0087900           0.0078025
 Leave Link  202 at Thu May  5 08:38:33 2022, MaxMem= 10066329600 cpu:               1.0 elap:               0.1
 (Enter /sw/apps/gaussian-16.0/g16/l301.exe)
 Standard basis: def2SVP (5D, 7F)
 Ernie: Thresh=  0.10000D-02 Tol=  0.10000D-05 Strict=F.
 There are  1364 symmetry adapted cartesian basis functions of A   symmetry.
 There are  1298 symmetry adapted basis functions of A   symmetry.
  1298 basis functions,  2180 primitive gaussians,  1364 cartesian basis functions
   246 alpha electrons      246 beta electrons
       nuclear repulsion energy      9428.4564076782 Hartrees.
 IExCor= 4639 DFT=T Ex+Corr=wB97XD ExCW=0 ScaHFX=  1.000000
 ScaDFX=  1.000000  1.000000  1.000000  1.000000 ScalE2=  1.000000  1.000000
 IRadAn=      5 IRanWt=     -1 IRanGd=            0 ICorTp=0 IEmpDi=121
 HFx  wShort=  0.000000 wLong=  0.200000 cFull=  0.222036 cShort=  0.000000 cLong=  0.777964
 DFx  wShort=  0.000000 wLong=  0.200000 cFull=  0.000000 cShort=  0.000000 cLong=  1.000000
 NAtoms=  140 NActive=  140 NUniq=  140 SFac= 1.00D+00 NAtFMM=   60 NAOKFM=T Big=T
 Integral buffers will be    131072 words long.
 Raffenetti 1 integral format.
 Two-electron integral symmetry is turned on.
 R6Disp:  Grimme-D2 Dispersion energy=       -0.1351379775 Hartrees.
 Nuclear repulsion after empirical dispersion term =     9428.3212697007 Hartrees.
 Leave Link  301 at Thu May  5 08:38:33 2022, MaxMem= 10066329600 cpu:               2.1 elap:               0.1
 (Enter /sw/apps/gaussian-16.0/g16/l302.exe)
 NPDir=0 NMtPBC=     1 NCelOv=     1 NCel=       1 NClECP=     1 NCelD=      1
         NCelK=      1 NCelE2=     1 NClLst=     1 CellRange=     0.0.
 One-electron integrals computed using PRISM.
 One-electron integral symmetry used in STVInt
   1 Symmetry operations used in ECPInt.
 ECPInt:  NShTT=  192510 NPrTT=  683786 LenC2=   91555 LenP2D=  202485.
 LDataN:  DoStor=T MaxTD1= 4 Len=   56
 NBasis=  1298 RedAO= T EigKep=  3.07D-04  NBF=  1298
 NBsUse=  1298 1.00D-06 EigRej= -1.00D+00 NBFU=  1298
 Precomputing XC quadrature grid using
 IXCGrd= 4 IRadAn=           5 IRanWt=          -1 IRanGd=           0 AccXCQ= 0.00D+00.
 Generated NRdTot=       0 NPtTot=           0 NUsed=           0 NTot=          32
 NSgBfM=  1010   988   994  1009  1010 MxSgAt=   140 MxSgA2=   140.
 Leave Link  302 at Thu May  5 08:38:37 2022, MaxMem= 10066329600 cpu:              95.2 elap:               4.0
 (Enter /sw/apps/gaussian-16.0/g16/l303.exe)
 DipDrv:  MaxL=1.
 Leave Link  303 at Thu May  5 08:38:38 2022, MaxMem= 10066329600 cpu:               7.9 elap:               0.4
 (Enter /sw/apps/gaussian-16.0/g16/l308.exe)
 Leave Link  308 at Thu May  5 08:38:38 2022, MaxMem= 10066329600 cpu:              13.1 elap:               0.6
 (Enter /sw/apps/gaussian-16.0/g16/l401.exe)
 ExpMin= 3.36D-02 ExpMax= 4.95D+03 ExpMxC= 7.45D+02 IAcc=3 IRadAn=         5 AccDes= 0.00D+00
 Harris functional with IExCor= 4639 and IRadAn=       5 diagonalized for initial guess.
 HarFok:  IExCor= 4639 AccDes= 0.00D+00 IRadAn=         5 IDoV= 1 UseB2=F ITyADJ=14
 ICtDFT=  3500011 ScaDFX=  1.000000  1.000000  1.000000  1.000000
 FoFCou: FMM=F IPFlag=           0 FMFlag=      100000 FMFlg1=        2001
         NFxFlg=           0 DoJE=T BraDBF=F KetDBF=T FulRan=T
         wScrn=  0.000000 ICntrl=       500 IOpCl=  0 I1Cent=   200000004 NGrid=           0
         NMat0=    1 NMatS0=      1 NMatT0=    0 NMatD0=    1 NMtDS0=    0 NMtDT0=    0
 Petite list used in FoFCou.
 Harris En= -2878.01305979984    
 JPrj=0 DoOrth=F DoCkMO=F.
 Leave Link  401 at Thu May  5 08:38:45 2022, MaxMem= 10066329600 cpu:             168.3 elap:               7.1
 (Enter /sw/apps/gaussian-16.0/g16/l502.exe)
 Integral symmetry usage will be decided dynamically.
 Closed shell SCF:
 Using DIIS extrapolation, IDIIS=  1040.
 NGot= 10066329600 LenX= 10062561258 LenY= 10060699398
 Requested convergence on RMS density matrix=1.00D-08 within 128 cycles.
 Requested convergence on MAX density matrix=1.00D-06.
 Requested convergence on             energy=1.00D-06.
 No special actions if energy rises.
 Fock matrices will be formed incrementally for  20 cycles.

 Cycle   1  Pass 1  IDiag  1:
 FoFJK:  IHMeth= 1 ICntrl=       0 DoSepK=T KAlg= 0 I1Cent=           0 FoldK=F
 IRaf=         1 NMat=       1 IRICut=       1 DoRegI=T DoRafI=F ISym2E= 0 IDoP0=0 IntGTp=1.
 FoFCou: FMM=T IPFlag=           0 FMFlag=      100000 FMFlg1=        2001
         NFxFlg=           0 DoJE=T BraDBF=F KetDBF=F FulRan=T
         wScrn=  0.000000 ICntrl=       500 IOpCl=  0 I1Cent=           0 NGrid=           0
         NMat0=    1 NMatS0=      1 NMatT0=    0 NMatD0=    1 NMtDS0=    0 NMtDT0=    0
 Symmetry not used in FoFCou.
 FMM levels:  10  Number of levels for PrismC:   9
 E= -3007.20018599230    
 DIIS: error= 2.35D-02 at cycle   1 NSaved=   1.
 NSaved= 1 IEnMin= 1 EnMin= -3007.20018599230     IErMin= 1 ErrMin= 2.35D-02
 ErrMax= 2.35D-02  0.00D+00 EMaxC= 1.00D-01 BMatC= 1.48D+00 BMatP= 1.48D+00
 IDIUse=3 WtCom= 7.65D-01 WtEn= 2.35D-01
 Coeff-Com:  0.100D+01
 Coeff-En:   0.100D+01
 Coeff:      0.100D+01
 Gap=     0.152 Goal=   None    Shift=    0.000
 GapD=    0.152 DampG=1.000 DampE=0.500 DampFc=0.5000 IDamp=-1.
 Damping current iteration by 5.00D-01
 RMSDP=1.55D-03 MaxDP=1.69D-01              OVMax= 1.65D-01

 Cycle   2  Pass 1  IDiag  1:
 RMSU=  7.63D-04    CP:  9.87D-01
 E= -3007.51647403305     Delta-E=       -0.316288040754 Rises=F Damp=T
 DIIS: error= 1.13D-02 at cycle   2 NSaved=   2.
 NSaved= 2 IEnMin= 2 EnMin= -3007.51647403305     IErMin= 2 ErrMin= 1.13D-02
 ErrMax= 1.13D-02  0.00D+00 EMaxC= 1.00D-01 BMatC= 2.89D-01 BMatP= 1.48D+00
 IDIUse=3 WtCom= 8.87D-01 WtEn= 1.13D-01
 Coeff-Com: -0.358D+00 0.136D+01
 Coeff-En:   0.000D+00 0.100D+01
 Coeff:     -0.318D+00 0.132D+01
 Gap=     0.184 Goal=   None    Shift=    0.000
 RMSDP=7.02D-04 MaxDP=7.86D-02 DE=-3.16D-01 OVMax= 1.63D-01

 Cycle   3  Pass 1  IDiag  1:
 RMSU=  6.55D-04    CP:  9.78D-01  1.32D+00
 E= -3007.74050513390     Delta-E=       -0.224031100841 Rises=F Damp=F
 DIIS: error= 1.15D-02 at cycle   3 NSaved=   3.
 NSaved= 3 IEnMin= 3 EnMin= -3007.74050513390     IErMin= 2 ErrMin= 1.13D-02
 ErrMax= 1.15D-02  0.00D+00 EMaxC= 1.00D-01 BMatC= 1.47D-01 BMatP= 2.89D-01
 IDIUse=3 WtCom= 8.85D-01 WtEn= 1.15D-01
 Coeff-Com: -0.319D+00 0.707D+00 0.612D+00
 Coeff-En:   0.000D+00 0.000D+00 0.100D+01
 Coeff:     -0.282D+00 0.626D+00 0.656D+00
 Gap=     0.166 Goal=   None    Shift=    0.000
 RMSDP=4.13D-04 MaxDP=4.48D-02 DE=-2.24D-01 OVMax= 7.50D-02

 Cycle   4  Pass 1  IDiag  1:
 RMSU=  2.18D-04    CP:  9.74D-01  1.61D+00  5.85D-01
 E= -3007.84871307310     Delta-E=       -0.108207939205 Rises=F Damp=F
 DIIS: error= 3.75D-03 at cycle   4 NSaved=   4.
 NSaved= 4 IEnMin= 4 EnMin= -3007.84871307310     IErMin= 4 ErrMin= 3.75D-03
 ErrMax= 3.75D-03  0.00D+00 EMaxC= 1.00D-01 BMatC= 1.92D-02 BMatP= 1.47D-01
 IDIUse=3 WtCom= 9.63D-01 WtEn= 3.75D-02
 Coeff-Com: -0.121D+00 0.243D+00 0.358D+00 0.520D+00
 Coeff-En:   0.000D+00 0.000D+00 0.711D-01 0.929D+00
 Coeff:     -0.117D+00 0.234D+00 0.348D+00 0.535D+00
 Gap=     0.163 Goal=   None    Shift=    0.000
 RMSDP=1.18D-04 MaxDP=1.65D-02 DE=-1.08D-01 OVMax= 2.01D-02

 Cycle   5  Pass 1  IDiag  1:
 RMSU=  6.02D-05    CP:  9.75D-01  1.58D+00  6.95D-01  6.85D-01
 E= -3007.86412059405     Delta-E=       -0.015407520952 Rises=F Damp=F
 DIIS: error= 6.76D-04 at cycle   5 NSaved=   5.
 NSaved= 5 IEnMin= 5 EnMin= -3007.86412059405     IErMin= 5 ErrMin= 6.76D-04
 ErrMax= 6.76D-04  0.00D+00 EMaxC= 1.00D-01 BMatC= 4.18D-04 BMatP= 1.92D-02
 IDIUse=3 WtCom= 9.93D-01 WtEn= 6.76D-03
 Coeff-Com: -0.309D-01 0.589D-01 0.114D+00 0.225D+00 0.633D+00
 Coeff-En:   0.000D+00 0.000D+00 0.000D+00 0.000D+00 0.100D+01
 Coeff:     -0.307D-01 0.585D-01 0.113D+00 0.223D+00 0.636D+00
 Gap=     0.163 Goal=   None    Shift=    0.000
 RMSDP=2.45D-05 MaxDP=3.93D-03 DE=-1.54D-02 OVMax= 4.92D-03

 Cycle   6  Pass 1  IDiag  1:
 RMSU=  2.16D-05    CP:  9.74D-01  1.58D+00  7.01D-01  7.30D-01  9.33D-01
 E= -3007.86448439216     Delta-E=       -0.000363798108 Rises=F Damp=F
 DIIS: error= 3.33D-04 at cycle   6 NSaved=   6.
 NSaved= 6 IEnMin= 6 EnMin= -3007.86448439216     IErMin= 6 ErrMin= 3.33D-04
 ErrMax= 3.33D-04  0.00D+00 EMaxC= 1.00D-01 BMatC= 7.29D-05 BMatP= 4.18D-04
 IDIUse=3 WtCom= 9.97D-01 WtEn= 3.33D-03
 Coeff-Com:  0.105D-01-0.225D-01-0.181D-01-0.466D-02 0.296D+00 0.739D+00
 Coeff-En:   0.000D+00 0.000D+00 0.000D+00 0.000D+00 0.000D+00 0.100D+01
 Coeff:      0.105D-01-0.224D-01-0.181D-01-0.464D-02 0.295D+00 0.740D+00
 Gap=     0.164 Goal=   None    Shift=    0.000
 RMSDP=1.33D-05 MaxDP=1.12D-03 DE=-3.64D-04 OVMax= 6.23D-03

 Cycle   7  Pass 1  IDiag  1:
 RMSU=  9.91D-06    CP:  9.74D-01  1.59D+00  7.05D-01  7.48D-01  1.05D+00
                    CP:  9.94D-01
 E= -3007.86459735204     Delta-E=       -0.000112959880 Rises=F Damp=F
 DIIS: error= 9.45D-05 at cycle   7 NSaved=   7.
 NSaved= 7 IEnMin= 7 EnMin= -3007.86459735204     IErMin= 7 ErrMin= 9.45D-05
 ErrMax= 9.45D-05  0.00D+00 EMaxC= 1.00D-01 BMatC= 8.58D-06 BMatP= 7.29D-05
 IDIUse=1 WtCom= 1.00D+00 WtEn= 0.00D+00
 Coeff-Com:  0.701D-02-0.141D-01-0.180D-01-0.266D-01 0.392D-01 0.269D+00
 Coeff-Com:  0.743D+00
 Coeff:      0.701D-02-0.141D-01-0.180D-01-0.266D-01 0.392D-01 0.269D+00
 Coeff:      0.743D+00
 Gap=     0.164 Goal=   None    Shift=    0.000
 RMSDP=7.07D-06 MaxDP=1.01D-03 DE=-1.13D-04 OVMax= 3.56D-03

 Cycle   8  Pass 1  IDiag  1:
 RMSU=  4.37D-06    CP:  9.74D-01  1.59D+00  7.07D-01  7.54D-01  1.09D+00
                    CP:  1.18D+00  1.25D+00
 E= -3007.86462669610     Delta-E=       -0.000029344055 Rises=F Damp=F
 DIIS: error= 1.01D-04 at cycle   8 NSaved=   8.
 NSaved= 8 IEnMin= 8 EnMin= -3007.86462669610     IErMin= 7 ErrMin= 9.45D-05
 ErrMax= 1.01D-04  0.00D+00 EMaxC= 1.00D-01 BMatC= 2.53D-06 BMatP= 8.58D-06
 IDIUse=1 WtCom= 1.00D+00 WtEn= 0.00D+00
 Coeff-Com:  0.721D-03-0.111D-02-0.398D-02-0.116D-01-0.513D-01-0.589D-01
 Coeff-Com:  0.297D+00 0.829D+00
 Coeff:      0.721D-03-0.111D-02-0.398D-02-0.116D-01-0.513D-01-0.589D-01
 Coeff:      0.297D+00 0.829D+00
 Gap=     0.164 Goal=   None    Shift=    0.000
 RMSDP=5.51D-06 MaxDP=3.83D-04 DE=-2.93D-05 OVMax= 4.01D-03

 Cycle   9  Pass 1  IDiag  1:
 RMSU=  2.70D-06    CP:  9.74D-01  1.59D+00  7.07D-01  7.56D-01  1.11D+00
                    CP:  1.26D+00  1.62D+00  1.39D+00
 E= -3007.86464406602     Delta-E=       -0.000017369925 Rises=F Damp=F
 DIIS: error= 5.23D-05 at cycle   9 NSaved=   9.
 NSaved= 9 IEnMin= 9 EnMin= -3007.86464406602     IErMin= 9 ErrMin= 5.23D-05
 ErrMax= 5.23D-05  0.00D+00 EMaxC= 1.00D-01 BMatC= 1.11D-06 BMatP= 2.53D-06
 IDIUse=1 WtCom= 1.00D+00 WtEn= 0.00D+00
 Coeff-Com: -0.244D-02 0.496D-02 0.545D-02 0.658D-02-0.252D-01-0.118D+00
 Coeff-Com: -0.218D+00 0.308D+00 0.104D+01
 Coeff:     -0.244D-02 0.496D-02 0.545D-02 0.658D-02-0.252D-01-0.118D+00
 Coeff:     -0.218D+00 0.308D+00 0.104D+01
 Gap=     0.164 Goal=   None    Shift=    0.000
 RMSDP=5.54D-06 MaxDP=4.00D-04 DE=-1.74D-05 OVMax= 3.73D-03

 Cycle  10  Pass 1  IDiag  1:
 RMSU=  1.44D-06    CP:  9.74D-01  1.59D+00  7.07D-01  7.57D-01  1.13D+00
                    CP:  1.36D+00  1.96D+00  2.11D+00  1.62D+00
 E= -3007.86465486062     Delta-E=       -0.000010794603 Rises=F Damp=F
 DIIS: error= 4.06D-05 at cycle  10 NSaved=  10.
 NSaved=10 IEnMin=10 EnMin= -3007.86465486062     IErMin=10 ErrMin= 4.06D-05
 ErrMax= 4.06D-05  0.00D+00 EMaxC= 1.00D-01 BMatC= 3.43D-07 BMatP= 1.11D-06
 IDIUse=1 WtCom= 1.00D+00 WtEn= 0.00D+00
 Coeff-Com: -0.150D-02 0.289D-02 0.425D-02 0.844D-02 0.123D-01-0.322D-01
 Coeff-Com: -0.249D+00-0.167D+00 0.453D+00 0.969D+00
 Coeff:     -0.150D-02 0.289D-02 0.425D-02 0.844D-02 0.123D-01-0.322D-01
 Coeff:     -0.249D+00-0.167D+00 0.453D+00 0.969D+00
 Gap=     0.164 Goal=   None    Shift=    0.000
 RMSDP=4.16D-06 MaxDP=3.12D-04 DE=-1.08D-05 OVMax= 3.06D-03

 Cycle  11  Pass 1  IDiag  1:
 RMSU=  8.91D-07    CP:  9.74D-01  1.59D+00  7.07D-01  7.57D-01  1.14D+00
                    CP:  1.40D+00  2.21D+00  2.59D+00  2.36D+00  1.46D+00
 E= -3007.86465901513     Delta-E=       -0.000004154504 Rises=F Damp=F
 DIIS: error= 1.17D-05 at cycle  11 NSaved=  11.
 NSaved=11 IEnMin=11 EnMin= -3007.86465901513     IErMin=11 ErrMin= 1.17D-05
 ErrMax= 1.17D-05  0.00D+00 EMaxC= 1.00D-01 BMatC= 1.08D-07 BMatP= 3.43D-07
 IDIUse=1 WtCom= 1.00D+00 WtEn= 0.00D+00
 Coeff-Com: -0.623D-04 0.680D-04 0.483D-03 0.229D-02 0.122D-01 0.158D-01
 Coeff-Com: -0.608D-01-0.143D+00-0.921D-01 0.417D+00 0.848D+00
 Coeff:     -0.623D-04 0.680D-04 0.483D-03 0.229D-02 0.122D-01 0.158D-01
 Coeff:     -0.608D-01-0.143D+00-0.921D-01 0.417D+00 0.848D+00
 Gap=     0.164 Goal=   None    Shift=    0.000
 RMSDP=1.94D-06 MaxDP=1.39D-04 DE=-4.15D-06 OVMax= 1.32D-03

 Cycle  12  Pass 1  IDiag  1:
 RMSU=  4.15D-07    CP:  9.74D-01  1.59D+00  7.07D-01  7.58D-01  1.14D+00
                    CP:  1.42D+00  2.31D+00  2.82D+00  2.68D+00  1.91D+00
                    CP:  1.27D+00
 E= -3007.86465983538     Delta-E=       -0.000000820250 Rises=F Damp=F
 DIIS: error= 6.57D-06 at cycle  12 NSaved=  12.
 NSaved=12 IEnMin=12 EnMin= -3007.86465983538     IErMin=12 ErrMin= 6.57D-06
 ErrMax= 6.57D-06  0.00D+00 EMaxC= 1.00D-01 BMatC= 2.77D-08 BMatP= 1.08D-07
 IDIUse=1 WtCom= 1.00D+00 WtEn= 0.00D+00
 Coeff-Com:  0.431D-03-0.859D-03-0.114D-02-0.153D-02 0.131D-02 0.165D-01
 Coeff-Com:  0.520D-01 0.273D-02-0.179D+00-0.151D+00 0.386D+00 0.874D+00
 Coeff:      0.431D-03-0.859D-03-0.114D-02-0.153D-02 0.131D-02 0.165D-01
 Coeff:      0.520D-01 0.273D-02-0.179D+00-0.151D+00 0.386D+00 0.874D+00
 Gap=     0.164 Goal=   None    Shift=    0.000
 RMSDP=8.76D-07 MaxDP=1.38D-04 DE=-8.20D-07 OVMax= 5.97D-04

 Cycle  13  Pass 1  IDiag  1:
 RMSU=  2.05D-07    CP:  9.74D-01  1.59D+00  7.07D-01  7.58D-01  1.15D+00
                    CP:  1.43D+00  2.35D+00  2.90D+00  2.86D+00  2.13D+00
                    CP:  1.67D+00  1.19D+00
 E= -3007.86465997931     Delta-E=       -0.000000143931 Rises=F Damp=F
 DIIS: error= 1.72D-06 at cycle  13 NSaved=  13.
 NSaved=13 IEnMin=13 EnMin= -3007.86465997931     IErMin=13 ErrMin= 1.72D-06
 ErrMax= 1.72D-06  0.00D+00 EMaxC= 1.00D-01 BMatC= 5.05D-09 BMatP= 2.77D-08
 IDIUse=1 WtCom= 1.00D+00 WtEn= 0.00D+00
 Coeff-Com:  0.205D-03-0.401D-03-0.607D-03-0.105D-02-0.148D-02 0.437D-02
 Coeff-Com:  0.330D-01 0.258D-01-0.607D-01-0.149D+00 0.329D-01 0.393D+00
 Coeff-Com:  0.724D+00
 Coeff:      0.205D-03-0.401D-03-0.607D-03-0.105D-02-0.148D-02 0.437D-02
 Coeff:      0.330D-01 0.258D-01-0.607D-01-0.149D+00 0.329D-01 0.393D+00
 Coeff:      0.724D+00
 Gap=     0.164 Goal=   None    Shift=    0.000
 RMSDP=2.64D-07 MaxDP=2.64D-05 DE=-1.44D-07 OVMax= 1.68D-04

 Cycle  14  Pass 1  IDiag  1:
 RMSU=  8.43D-08    CP:  9.74D-01  1.59D+00  7.07D-01  7.58D-01  1.15D+00
                    CP:  1.43D+00  2.36D+00  2.91D+00  2.91D+00  2.20D+00
                    CP:  1.80D+00  1.38D+00  1.07D+00
 E= -3007.86465999625     Delta-E=       -0.000000016944 Rises=F Damp=F
 DIIS: error= 8.81D-07 at cycle  14 NSaved=  14.
 NSaved=14 IEnMin=14 EnMin= -3007.86465999625     IErMin=14 ErrMin= 8.81D-07
 ErrMax= 8.81D-07  0.00D+00 EMaxC= 1.00D-01 BMatC= 7.30D-10 BMatP= 5.05D-09
 IDIUse=1 WtCom= 1.00D+00 WtEn= 0.00D+00
 Coeff-Com:  0.822D-05-0.130D-04-0.503D-04-0.146D-03-0.730D-03-0.113D-02
 Coeff-Com:  0.373D-02 0.897D-02 0.895D-02-0.367D-01-0.482D-01 0.346D-02
 Coeff-Com:  0.243D+00 0.819D+00
 Coeff:      0.822D-05-0.130D-04-0.503D-04-0.146D-03-0.730D-03-0.113D-02
 Coeff:      0.373D-02 0.897D-02 0.895D-02-0.367D-01-0.482D-01 0.346D-02
 Coeff:      0.243D+00 0.819D+00
 Gap=     0.164 Goal=   None    Shift=    0.000
 RMSDP=1.08D-07 MaxDP=2.25D-05 DE=-1.69D-08 OVMax= 5.60D-05

 Cycle  15  Pass 1  IDiag  1:
 RMSU=  4.09D-08    CP:  9.74D-01  1.59D+00  7.07D-01  7.58D-01  1.15D+00
                    CP:  1.43D+00  2.36D+00  2.92D+00  2.92D+00  2.23D+00
                    CP:  1.86D+00  1.46D+00  1.27D+00  1.25D+00
 E= -3007.86465999904     Delta-E=       -0.000000002790 Rises=F Damp=F
 DIIS: error= 3.78D-07 at cycle  15 NSaved=  15.
 NSaved=15 IEnMin=15 EnMin= -3007.86465999904     IErMin=15 ErrMin= 3.78D-07
 ErrMax= 3.78D-07  0.00D+00 EMaxC= 1.00D-01 BMatC= 2.65D-10 BMatP= 7.30D-10
 IDIUse=1 WtCom= 1.00D+00 WtEn= 0.00D+00
 Coeff-Com: -0.490D-04 0.976D-04 0.130D-03 0.197D-03 0.332D-04-0.164D-02
 Coeff-Com: -0.661D-02-0.272D-02 0.203D-01 0.180D-01-0.226D-01-0.884D-01
 Coeff-Com: -0.832D-01 0.397D+00 0.770D+00
 Coeff:     -0.490D-04 0.976D-04 0.130D-03 0.197D-03 0.332D-04-0.164D-02
 Coeff:     -0.661D-02-0.272D-02 0.203D-01 0.180D-01-0.226D-01-0.884D-01
 Coeff:     -0.832D-01 0.397D+00 0.770D+00
 Gap=     0.164 Goal=   None    Shift=    0.000
 RMSDP=4.73D-08 MaxDP=3.52D-06 DE=-2.79D-09 OVMax= 2.44D-05

 Cycle  16  Pass 1  IDiag  1:
 RMSU=  2.33D-08    CP:  9.74D-01  1.59D+00  7.07D-01  7.58D-01  1.15D+00
                    CP:  1.43D+00  2.36D+00  2.92D+00  2.93D+00  2.23D+00
                    CP:  1.88D+00  1.49D+00  1.36D+00  1.56D+00  1.23D+00
 E= -3007.86465999998     Delta-E=       -0.000000000933 Rises=F Damp=F
 DIIS: error= 3.33D-07 at cycle  16 NSaved=  16.
 NSaved=16 IEnMin=16 EnMin= -3007.86465999998     IErMin=16 ErrMin= 3.33D-07
 ErrMax= 3.33D-07  0.00D+00 EMaxC= 1.00D-01 BMatC= 6.02D-11 BMatP= 2.65D-10
 IDIUse=1 WtCom= 1.00D+00 WtEn= 0.00D+00
 Coeff-Com: -0.183D-04 0.355D-04 0.540D-04 0.956D-04 0.188D-03-0.270D-03
 Coeff-Com: -0.315D-02-0.315D-02 0.637D-02 0.124D-01 0.296D-02-0.312D-01
 Coeff-Com: -0.983D-01-0.480D-01 0.251D+00 0.911D+00
 Coeff:     -0.183D-04 0.355D-04 0.540D-04 0.956D-04 0.188D-03-0.270D-03
 Coeff:     -0.315D-02-0.315D-02 0.637D-02 0.124D-01 0.296D-02-0.312D-01
 Coeff:     -0.983D-01-0.480D-01 0.251D+00 0.911D+00
 Gap=     0.164 Goal=   None    Shift=    0.000
 RMSDP=3.58D-08 MaxDP=4.41D-06 DE=-9.33D-10 OVMax= 1.98D-05

 Cycle  17  Pass 1  IDiag  1:
 RMSU=  1.04D-08    CP:  9.74D-01  1.59D+00  7.07D-01  7.58D-01  1.15D+00
                    CP:  1.43D+00  2.36D+00  2.92D+00  2.93D+00  2.23D+00
                    CP:  1.89D+00  1.51D+00  1.42D+00  1.78D+00  1.61D+00
                    CP:  1.50D+00
 E= -3007.86466000058     Delta-E=       -0.000000000604 Rises=F Damp=F
 DIIS: error= 1.91D-07 at cycle  17 NSaved=  17.
 NSaved=17 IEnMin=17 EnMin= -3007.86466000058     IErMin=17 ErrMin= 1.91D-07
 ErrMax= 1.91D-07  0.00D+00 EMaxC= 1.00D-01 BMatC= 2.15D-11 BMatP= 6.02D-11
 IDIUse=1 WtCom= 1.00D+00 WtEn= 0.00D+00
 Coeff-Com:  0.105D-04-0.213D-04-0.276D-04-0.374D-04 0.669D-04 0.524D-03
 Coeff-Com:  0.122D-02-0.291D-03-0.467D-02-0.334D-02 0.107D-01 0.238D-01
 Coeff-Com: -0.123D-01-0.153D+00-0.193D+00 0.341D+00 0.989D+00
 Coeff:      0.105D-04-0.213D-04-0.276D-04-0.374D-04 0.669D-04 0.524D-03
 Coeff:      0.122D-02-0.291D-03-0.467D-02-0.334D-02 0.107D-01 0.238D-01
 Coeff:     -0.123D-01-0.153D+00-0.193D+00 0.341D+00 0.989D+00
 Gap=     0.164 Goal=   None    Shift=    0.000
 RMSDP=2.52D-08 MaxDP=1.69D-06 DE=-6.04D-10 OVMax= 1.64D-05

 Cycle  18  Pass 1  IDiag  1:
 RMSU=  6.01D-09    CP:  9.74D-01  1.59D+00  7.07D-01  7.58D-01  1.15D+00
                    CP:  1.43D+00  2.36D+00  2.92D+00  2.93D+00  2.23D+00
                    CP:  1.90D+00  1.52D+00  1.45D+00  1.92D+00  1.91D+00
                    CP:  2.08D+00  1.50D+00
 E= -3007.86466000066     Delta-E=       -0.000000000075 Rises=F Damp=F
 DIIS: error= 6.92D-08 at cycle  18 NSaved=  18.
 NSaved=18 IEnMin=18 EnMin= -3007.86466000066     IErMin=18 ErrMin= 6.92D-08
 ErrMax= 6.92D-08  0.00D+00 EMaxC= 1.00D-01 BMatC= 6.33D-12 BMatP= 2.15D-11
 IDIUse=1 WtCom= 1.00D+00 WtEn= 0.00D+00
 Coeff-Com:  0.103D-04-0.203D-04-0.301D-04-0.476D-04-0.287D-04 0.320D-03
 Coeff-Com:  0.154D-02 0.963D-03-0.390D-02-0.588D-02 0.411D-02 0.219D-01
 Coeff-Com:  0.249D-01-0.506D-01-0.174D+00-0.138D+00 0.428D+00 0.891D+00
 Coeff:      0.103D-04-0.203D-04-0.301D-04-0.476D-04-0.287D-04 0.320D-03
 Coeff:      0.154D-02 0.963D-03-0.390D-02-0.588D-02 0.411D-02 0.219D-01
 Coeff:      0.249D-01-0.506D-01-0.174D+00-0.138D+00 0.428D+00 0.891D+00
 Gap=     0.164 Goal=   None    Shift=    0.000
 RMSDP=1.44D-08 MaxDP=9.06D-07 DE=-7.46D-11 OVMax= 8.72D-06

 Cycle  19  Pass 1  IDiag  1:
 RMSU=  3.30D-09    CP:  9.74D-01  1.59D+00  7.07D-01  7.58D-01  1.15D+00
                    CP:  1.43D+00  2.36D+00  2.91D+00  2.93D+00  2.23D+00
                    CP:  1.90D+00  1.52D+00  1.46D+00  2.00D+00  2.06D+00
                    CP:  2.43D+00  1.98D+00  1.27D+00
 E= -3007.86466000073     Delta-E=       -0.000000000071 Rises=F Damp=F
 DIIS: error= 3.75D-08 at cycle  19 NSaved=  19.
 NSaved=19 IEnMin=19 EnMin= -3007.86466000073     IErMin=19 ErrMin= 3.75D-08
 ErrMax= 3.75D-08  0.00D+00 EMaxC= 1.00D-01 BMatC= 1.43D-12 BMatP= 6.33D-12
 IDIUse=1 WtCom= 1.00D+00 WtEn= 0.00D+00
 Coeff-Com:  0.712D-06-0.124D-05-0.344D-05-0.631D-05-0.276D-04-0.253D-04
 Coeff-Com:  0.175D-03 0.398D-03-0.142D-03-0.135D-02-0.140D-02 0.136D-02
 Coeff-Com:  0.104D-01 0.227D-01-0.105D-01-0.129D+00-0.113D+00 0.343D+00
 Coeff-Com:  0.878D+00
 Coeff:      0.712D-06-0.124D-05-0.344D-05-0.631D-05-0.276D-04-0.253D-04
 Coeff:      0.175D-03 0.398D-03-0.142D-03-0.135D-02-0.140D-02 0.136D-02
 Coeff:      0.104D-01 0.227D-01-0.105D-01-0.129D+00-0.113D+00 0.343D+00
 Coeff:      0.878D+00
 Gap=     0.164 Goal=   None    Shift=    0.000
 RMSDP=6.05D-09 MaxDP=5.10D-07 DE=-7.09D-11 OVMax= 3.87D-06

 SCF Done:  E(RwB97XD) =  -3007.86466000     A.U. after   19 cycles
            NFock= 19  Conv=0.60D-08     -V/T= 2.0109
 KE= 2.975567487753D+03 PE=-2.584945864586D+04 EE= 1.043770522841D+04
 Leave Link  502 at Thu May  5 08:47:56 2022, MaxMem= 10066329600 cpu:           12792.1 elap:             550.6
 (Enter /sw/apps/gaussian-16.0/g16/l801.exe)
 DoSCS=F DFT=T ScalE2(SS,OS)=  1.000000  1.000000
 ExpMin= 3.36D-02 ExpMax= 4.95D+03 ExpMxC= 7.45D+02 IAcc=3 IRadAn=         5 AccDes= 0.00D+00
 HarFok:  IExCor=  205 AccDes= 0.00D+00 IRadAn=         5 IDoV=-2 UseB2=F ITyADJ=14
 ICtDFT= 12500011 ScaDFX=  1.000000  1.000000  1.000000  1.000000
 GSVD:  LWork=       -5460 too small for GESVD, short by       25550 words or       25550 for optimal perf.
 Largest valence mixing into a core orbital is  2.22D-04
 Largest core mixing into a valence orbital is  5.54D-05
 Range of M.O.s used for correlation:    71  1298
 NBasis=  1298 NAE=   246 NBE=   246 NFC=    70 NFV=     0
 NROrb=   1228 NOA=   176 NOB=   176 NVA=  1052 NVB=  1052
 Leave Link  801 at Thu May  5 08:47:56 2022, MaxMem= 10066329600 cpu:               8.3 elap:               0.4
 (Enter /sw/apps/gaussian-16.0/g16/l914.exe)
 RHF ground state
 Two-electron integrals replicated using symmetry.
 MDV= 10066329600 DFT=T DoStab=F Mixed=T DoRPA=T DoScal=F NonHer=T
 Making orbital integer symmetry assigments:
 Orbital symmetries:
       Occupied  (A) (A) (A) (A) (A) (A) (A) (A) (A) (A) (A) (A)
                 (A) (A) (A) (A) (A) (A) (A) (A) (A) (A) (A) (A)
                 (A) (A) (A) (A) (A) (A) (A) (A) (A) (A) (A) (A)
                 (A) (A) (A) (A) (A) (A) (A) (A) (A) (A) (A) (A)
                 (A) (A) (A) (A) (A) (A) (A) (A) (A) (A) (A) (A)
                 (A) (A) (A) (A) (A) (A) (A) (A) (A) (A) (A) (A)
                 (A) (A) (A) (A) (A) (A) (A) (A) (A) (A) (A) (A)
                 (A) (A) (A) (A) (A) (A) (A) (A) (A) (A) (A) (A)
                 (A) (A) (A) (A) (A) (A) (A) (A) (A) (A) (A) (A)
                 (A) (A) (A) (A) (A) (A) (A) (A) (A) (A) (A) (A)
                 (A) (A) (A) (A) (A) (A) (A) (A) (A) (A) (A) (A)
                 (A) (A) (A) (A) (A) (A) (A) (A) (A) (A) (A) (A)
                 (A) (A) (A) (A) (A) (A) (A) (A) (A) (A) (A) (A)
                 (A) (A) (A) (A) (A) (A) (A) (A) (A) (A) (A) (A)
                 (A) (A) (A) (A) (A) (A) (A) (A) (A) (A) (A) (A)
                 (A) (A) (A) (A) (A) (A) (A) (A) (A) (A) (A) (A)
                 (A) (A) (A) (A) (A) (A) (A) (A) (A) (A) (A) (A)
                 (A) (A) (A) (A) (A) (A) (A) (A) (A) (A) (A) (A)
                 (A) (A) (A) (A) (A) (A) (A) (A) (A) (A) (A) (A)
                 (A) (A) (A) (A) (A) (A) (A) (A) (A) (A) (A) (A)
                 (A) (A) (A) (A) (A) (A)
       Virtual   (A) (A) (A) (A) (A) (A) (A) (A) (A) (A) (A) (A)
                 (A) (A) (A) (A) (A) (A) (A) (A) (A) (A) (A) (A)
                 (A) (A) (A) (A) (A) (A) (A) (A) (A) (A) (A) (A)
                 (A) (A) (A) (A) (A) (A) (A) (A) (A) (A) (A) (A)
                 (A) (A) (A) (A) (A) (A) (A) (A) (A) (A) (A) (A)
                 (A) (A) (A) (A) (A) (A) (A) (A) (A) (A) (A) (A)
                 (A) (A) (A) (A) (A) (A) (A) (A) (A) (A) (A) (A)
                 (A) (A) (A) (A) (A) (A) (A) (A) (A) (A) (A) (A)
                 (A) (A) (A) (A) (A) (A) (A) (A) (A) (A) (A) (A)
                 (A) (A) (A) (A) (A) (A) (A) (A) (A) (A) (A) (A)
                 (A) (A) (A) (A) (A) (A) (A) (A) (A) (A) (A) (A)
                 (A) (A) (A) (A) (A) (A) (A) (A) (A) (A) (A) (A)
                 (A) (A) (A) (A) (A) (A) (A) (A) (A) (A) (A) (A)
                 (A) (A) (A) (A) (A) (A) (A) (A) (A) (A) (A) (A)
                 (A) (A) (A) (A) (A) (A) (A) (A) (A) (A) (A) (A)
                 (A) (A) (A) (A) (A) (A) (A) (A) (A) (A) (A) (A)
                 (A) (A) (A) (A) (A) (A) (A) (A) (A) (A) (A) (A)
                 (A) (A) (A) (A) (A) (A) (A) (A) (A) (A) (A) (A)
                 (A) (A) (A) (A) (A) (A) (A) (A) (A) (A) (A) (A)
                 (A) (A) (A) (A) (A) (A) (A) (A) (A) (A) (A) (A)
                 (A) (A) (A) (A) (A) (A) (A) (A) (A) (A) (A) (A)
                 (A) (A) (A) (A) (A) (A) (A) (A) (A) (A) (A) (A)
                 (A) (A) (A) (A) (A) (A) (A) (A) (A) (A) (A) (A)
                 (A) (A) (A) (A) (A) (A) (A) (A) (A) (A) (A) (A)
                 (A) (A) (A) (A) (A) (A) (A) (A) (A) (A) (A) (A)
                 (A) (A) (A) (A) (A) (A) (A) (A) (A) (A) (A) (A)
                 (A) (A) (A) (A) (A) (A) (A) (A) (A) (A) (A) (A)
                 (A) (A) (A) (A) (A) (A) (A) (A) (A) (A) (A) (A)
                 (A) (A) (A) (A) (A) (A) (A) (A) (A) (A) (A) (A)
                 (A) (A) (A) (A) (A) (A) (A) (A) (A) (A) (A) (A)
                 (A) (A) (A) (A) (A) (A) (A) (A) (A) (A) (A) (A)
                 (A) (A) (A) (A) (A) (A) (A) (A) (A) (A) (A) (A)
                 (A) (A) (A) (A) (A) (A) (A) (A) (A) (A) (A) (A)
                 (A) (A) (A) (A) (A) (A) (A) (A) (A) (A) (A) (A)
                 (A) (A) (A) (A) (A) (A) (A) (A) (A) (A) (A) (A)
                 (A) (A) (A) (A) (A) (A) (A) (A) (A) (A) (A) (A)
                 (A) (A) (A) (A) (A) (A) (A) (A) (A) (A) (A) (A)
                 (A) (A) (A) (A) (A) (A) (A) (A) (A) (A) (A) (A)
                 (A) (A) (A) (A) (A) (A) (A) (A) (A) (A) (A) (A)
                 (A) (A) (A) (A) (A) (A) (A) (A) (A) (A) (A) (A)
                 (A) (A) (A) (A) (A) (A) (A) (A) (A) (A) (A) (A)
                 (A) (A) (A) (A) (A) (A) (A) (A) (A) (A) (A) (A)
                 (A) (A) (A) (A) (A) (A) (A) (A) (A) (A) (A) (A)
                 (A) (A) (A) (A) (A) (A) (A) (A) (A) (A) (A) (A)
                 (A) (A) (A) (A) (A) (A) (A) (A) (A) (A) (A) (A)
                 (A) (A) (A) (A) (A) (A) (A) (A) (A) (A) (A) (A)
                 (A) (A) (A) (A) (A) (A) (A) (A) (A) (A) (A) (A)
                 (A) (A) (A) (A) (A) (A) (A) (A) (A) (A) (A) (A)
                 (A) (A) (A) (A) (A) (A) (A) (A) (A) (A) (A) (A)
                 (A) (A) (A) (A) (A) (A) (A) (A) (A) (A) (A) (A)
                 (A) (A) (A) (A) (A) (A) (A) (A) (A) (A) (A) (A)
                 (A) (A) (A) (A) (A) (A) (A) (A) (A) (A) (A) (A)
                 (A) (A) (A) (A) (A) (A) (A) (A) (A) (A) (A) (A)
                 (A) (A) (A) (A) (A) (A) (A) (A) (A) (A) (A) (A)
                 (A) (A) (A) (A) (A) (A) (A) (A) (A) (A) (A) (A)
                 (A) (A) (A) (A) (A) (A) (A) (A) (A) (A) (A) (A)
                 (A) (A) (A) (A) (A) (A) (A) (A) (A) (A) (A) (A)
                 (A) (A) (A) (A) (A) (A) (A) (A) (A) (A) (A) (A)
                 (A) (A) (A) (A) (A) (A) (A) (A) (A) (A) (A) (A)
                 (A) (A) (A) (A) (A) (A) (A) (A) (A) (A) (A) (A)
                 (A) (A) (A) (A) (A) (A) (A) (A) (A) (A) (A) (A)
                 (A) (A) (A) (A) (A) (A) (A) (A) (A) (A) (A) (A)
                 (A) (A) (A) (A) (A) (A) (A) (A) (A) (A) (A) (A)
                 (A) (A) (A) (A) (A) (A) (A) (A) (A) (A) (A) (A)
                 (A) (A) (A) (A) (A) (A) (A) (A) (A) (A) (A) (A)
                 (A) (A) (A) (A) (A) (A) (A) (A) (A) (A) (A) (A)
                 (A) (A) (A) (A) (A) (A) (A) (A) (A) (A) (A) (A)
                 (A) (A) (A) (A) (A) (A) (A) (A) (A) (A) (A) (A)
                 (A) (A) (A) (A) (A) (A) (A) (A) (A) (A) (A) (A)
                 (A) (A) (A) (A) (A) (A) (A) (A) (A) (A) (A) (A)
                 (A) (A) (A) (A) (A) (A) (A) (A) (A) (A) (A) (A)
                 (A) (A) (A) (A) (A) (A) (A) (A) (A) (A) (A) (A)
                 (A) (A) (A) (A) (A) (A) (A) (A) (A) (A) (A) (A)
                 (A) (A) (A) (A) (A) (A) (A) (A) (A) (A) (A) (A)
                 (A) (A) (A) (A) (A) (A) (A) (A) (A) (A) (A) (A)
                 (A) (A) (A) (A) (A) (A) (A) (A) (A) (A) (A) (A)
                 (A) (A) (A) (A) (A) (A) (A) (A) (A) (A) (A) (A)
                 (A) (A) (A) (A) (A) (A) (A) (A) (A) (A) (A) (A)
                 (A) (A) (A) (A) (A) (A) (A) (A) (A) (A) (A) (A)
                 (A) (A) (A) (A) (A) (A) (A) (A) (A) (A) (A) (A)
                 (A) (A) (A) (A) (A) (A) (A) (A) (A) (A) (A) (A)
                 (A) (A) (A) (A) (A) (A) (A) (A) (A) (A) (A) (A)
                 (A) (A) (A) (A) (A) (A) (A) (A) (A) (A) (A) (A)
                 (A) (A) (A) (A) (A) (A) (A) (A) (A) (A) (A) (A)
                 (A) (A) (A) (A) (A) (A) (A) (A) (A) (A) (A) (A)
                 (A) (A) (A) (A) (A) (A) (A) (A) (A) (A) (A) (A)
                 (A) (A) (A) (A) (A) (A) (A) (A) (A) (A) (A) (A)
                 (A) (A) (A) (A) (A) (A) (A) (A)
    20 initial guesses have been made.
 Convergence on wavefunction:    0.001000000000000
 Davidson Disk Diagonalization:  ConvIn= 1.00D-03 SkipCon=T Conv= 1.00D-03.
 Max sub-space:  2000 roots to seek:    20 dimension of matrix:       370304
 Iteration     1 Dimension    20 NMult     0 NNew     20
 CISAX will form    20 AO SS matrices at one time.
 NMat=    20 NSing=    20 JSym2X= 0.
 FoFJK:  IHMeth= 1 ICntrl=       0 DoSepK=T KAlg= 0 I1Cent=           0 FoldK=F
 IRaf=         1 NMat=      40 IRICut=       1 DoRegI=T DoRafI=F ISym2E= 0 IDoP0=3 IntGTp=3.
 FoFCou: FMM=T IPFlag=           0 FMFlag=      100000 FMFlg1=        2001
         NFxFlg=           0 DoJE=F BraDBF=F KetDBF=F FulRan=T
         wScrn=  0.000000 ICntrl=       500 IOpCl=  0 I1Cent=           0 NGrid=           0
         NMat0=   20 NMatS0=     20 NMatT0=    0 NMatD0=   20 NMtDS0=    0 NMtDT0=    0
 Symmetry not used in FoFCou.
 FMM levels:  10  Number of levels for PrismC:   9
 New state      3 was old state      4
 New state      4 was old state      7
 New state      5 was old state      9
 Excitation Energies [eV] at current iteration:
 Root      1 :     2.292953102677452
 Root      2 :     2.620967482040749
 Root      3 :     3.891638272746735
 Root      4 :     4.082315164048453
 Root      5 :     4.165363993617247
 Root      6 :     4.327151438416951
 Root      7 :     4.476914774455353
 Root      8 :     4.612234415320643
 Root      9 :     4.680109249669671
 Root     10 :     4.725330800439005
 Root     11 :     4.818066723933059
 Root     12 :     4.875956582384318
 Root     13 :     4.959916838251457
 Root     14 :     5.156544429539795
 Root     15 :     5.299920966573747
 Root     16 :     5.439472753074139
 Root     17 :     5.598198658040473
 Root     18 :     6.025556168838828
 Root     19 :     6.964659235798869
 Root     20 :     7.056045966271000
 Iteration     2 Dimension    30 NMult    20 NNew     10
 CISAX will form    10 AO SS matrices at one time.
 NMat=    10 NSing=    10 JSym2X= 0.
 Root      1 not converged, maximum delta is    0.061875585771066
 Root      2 not converged, maximum delta is    0.063353278701775
 Root      3 not converged, maximum delta is    0.188128662286992
 Root      4 not converged, maximum delta is    0.277799474951966
 Root      5 not converged, maximum delta is    0.270546539714907
 Excitation Energies [eV] at current iteration:
 Root      1 :     1.847408959147948   Change is   -0.445544143529504
 Root      2 :     2.156997491759656   Change is   -0.463969990281093
 Root      3 :     3.500004550550870   Change is   -0.391633722195865
 Root      4 :     3.724713074995463   Change is   -0.357602089052990
 Root      5 :     3.738666962013863   Change is   -0.426697031603385
 Iteration     3 Dimension    40 NMult    30 NNew     10
 CISAX will form    10 AO SS matrices at one time.
 NMat=    10 NSing=    10 JSym2X= 0.
 Root      1 not converged, maximum delta is    0.016688055713926
 Root      2 not converged, maximum delta is    0.022567627022423
 Root      3 not converged, maximum delta is    0.120784324723807
 Root      4 not converged, maximum delta is    0.310947871531956
 Root      5 not converged, maximum delta is    0.391981212701607
 Excitation Energies [eV] at current iteration:
 Root      1 :     1.813626840446710   Change is   -0.033782118701238
 Root      2 :     2.129224977236302   Change is   -0.027772514523354
 Root      3 :     3.465924868736477   Change is   -0.034079681814394
 Root      4 :     3.579903308643072   Change is   -0.144809766352391
 Root      5 :     3.713554831557769   Change is   -0.025112130456093
 Iteration     4 Dimension    50 NMult    40 NNew     10
 CISAX will form    10 AO SS matrices at one time.
 NMat=    10 NSing=    10 JSym2X= 0.
 Root      1 not converged, maximum delta is    0.004056674974124
 Root      2 not converged, maximum delta is    0.002243126903127
 Root      3 not converged, maximum delta is    0.024867373723782
 Root      4 not converged, maximum delta is    0.039119863874546
 Root      5 not converged, maximum delta is    0.044440044083832
 Excitation Energies [eV] at current iteration:
 Root      1 :     1.809979200967954   Change is   -0.003647639478756
 Root      2 :     2.126554131844242   Change is   -0.002670845392060
 Root      3 :     3.458666478935270   Change is   -0.007258389801207
 Root      4 :     3.562139659212977   Change is   -0.017763649430095
 Root      5 :     3.705373514116160   Change is   -0.008181317441609
 Iteration     5 Dimension    60 NMult    50 NNew     10
 CISAX will form    10 AO SS matrices at one time.
 NMat=    10 NSing=    10 JSym2X= 0.
 Root      1 not converged, maximum delta is    0.001037943273379
 Root      2 has converged.
 Root      3 not converged, maximum delta is    0.008483277869831
 Root      4 not converged, maximum delta is    0.016809657871016
 Root      5 not converged, maximum delta is    0.213732461666274
 Excitation Energies [eV] at current iteration:
 Root      1 :     1.809660673674889   Change is   -0.000318527293065
 Root      2 :     2.126328381229138   Change is   -0.000225750615104
 Root      3 :     3.457782372426996   Change is   -0.000884106508274
 Root      4 :     3.560108683648322   Change is   -0.002030975564656
 Root      5 :     3.686895360423413   Change is   -0.018478153692747
 Iteration     6 Dimension    68 NMult    60 NNew      8
 CISAX will form     8 AO SS matrices at one time.
 NMat=     8 NSing=     8 JSym2X= 0.
 Root      1 has converged.
 Root      2 has converged.
 Root      3 not converged, maximum delta is    0.005343811800515
 Root      4 not converged, maximum delta is    0.023485224901512
 Root      5 not converged, maximum delta is    0.275684358768199
 Excitation Energies [eV] at current iteration:
 Root      1 :     1.809633779559320   Change is   -0.000026894115569
 Root      2 :     2.126327769711999   Change is   -0.000000611517139
 Root      3 :     3.457594988576082   Change is   -0.000187383850914
 Root      4 :     3.559344437459635   Change is   -0.000764246188687
 Root      5 :     3.643547672285108   Change is   -0.043347688138305
 Iteration     7 Dimension    74 NMult    68 NNew      6
 CISAX will form     6 AO SS matrices at one time.
 NMat=     6 NSing=     6 JSym2X= 0.
 Root      1 has converged.
 Root      2 has converged.
 Root      3 not converged, maximum delta is    0.001387741017460
 Root      4 not converged, maximum delta is    0.009300106206334
 Root      5 not converged, maximum delta is    0.037883693647569
 Excitation Energies [eV] at current iteration:
 Root      1 :     1.809633674350562   Change is   -0.000000105208759
 Root      2 :     2.126327145981633   Change is   -0.000000623730366
 Root      3 :     3.457562856171049   Change is   -0.000032132405033
 Root      4 :     3.559095794713597   Change is   -0.000248642746037
 Root      5 :     3.630755822137809   Change is   -0.012791850147300
 Iteration     8 Dimension    80 NMult    74 NNew      6
 CISAX will form     6 AO SS matrices at one time.
 NMat=     6 NSing=     6 JSym2X= 0.
 Root      1 has converged.
 Root      2 has converged.
 Root      3 has converged.
 Root      4 not converged, maximum delta is    0.002075854944241
 Root      5 not converged, maximum delta is    0.018081486115349
 Excitation Energies [eV] at current iteration:
 Root      1 :     1.809633446491099   Change is   -0.000000227859462
 Root      2 :     2.126326218720443   Change is   -0.000000927261190
 Root      3 :     3.457557911192272   Change is   -0.000004944978776
 Root      4 :     3.559042906782291   Change is   -0.000052887931306
 Root      5 :     3.628213892852628   Change is   -0.002541929285181
 Iteration     9 Dimension    84 NMult    80 NNew      4
 CISAX will form     4 AO SS matrices at one time.
 NMat=     4 NSing=     4 JSym2X= 0.
 Root      1 has converged.
 Root      2 has converged.
 Root      3 has converged.
 Root      4 has converged.
 Root      5 not converged, maximum delta is    0.007106255294151
 Excitation Energies [eV] at current iteration:
 Root      1 :     1.809633372111297   Change is   -0.000000074379802
 Root      2 :     2.126325516719597   Change is   -0.000000702000846
 Root      3 :     3.457557533173807   Change is   -0.000000378018466
 Root      4 :     3.559035164797861   Change is   -0.000007741984430
 Root      5 :     3.627780282814312   Change is   -0.000433610038315
 Iteration    10 Dimension    86 NMult    84 NNew      2
 CISAX will form     2 AO SS matrices at one time.
 NMat=     2 NSing=     2 JSym2X= 0.
 Root      1 has converged.
 Root      2 has converged.
 Root      3 has converged.
 Root      4 has converged.
 Root      5 not converged, maximum delta is    0.001695746634707
 Excitation Energies [eV] at current iteration:
 Root      1 :     1.809633368589786   Change is   -0.000000003521511
 Root      2 :     2.126324227905243   Change is   -0.000001288814354
 Root      3 :     3.457557488175718   Change is   -0.000000044998089
 Root      4 :     3.559034478769850   Change is   -0.000000686028012
 Root      5 :     3.627715723385193   Change is   -0.000064559429119
 Iteration    11 Dimension    88 NMult    86 NNew      2
 CISAX will form     2 AO SS matrices at one time.
 NMat=     2 NSing=     2 JSym2X= 0.
 Root      1 has converged.
 Root      2 has converged.
 Root      3 has converged.
 Root      4 has converged.
 Root      5 has converged.
 Excitation Energies [eV] at current iteration:
 Root      1 :     1.809633357079947   Change is   -0.000000011509839
 Root      2 :     2.126324148723098   Change is   -0.000000079182145
 Root      3 :     3.457557485724656   Change is   -0.000000002451063
 Root      4 :     3.559034421669186   Change is   -0.000000057100664
 Root      5 :     3.627706758781741   Change is   -0.000008964603452
 Convergence achieved on expansion vectors.
 ***********************************************************************
 Excited states from <AA,BB:AA,BB> singles matrix:
 ***********************************************************************
 
 1PDM for each excited state written to RWF  633
 Ground to excited state transition densities written to RWF  633
 Ground to excited state transition electric dipole moments (Au):
       state          X           Y           Z        Dip. S.      Osc.
         1         0.1727     -2.8973      0.3581      8.5522      0.3792
         2        -1.8610     -0.5044     -0.1391      3.7371      0.1947
         3        -0.1830      0.0989     -0.0528      0.0461      0.0039
         4        -0.1743      0.0517     -0.0124      0.0332      0.0029
         5        -0.2009     -0.0635     -0.0421      0.0462      0.0041
 Ground to excited state transition velocity dipole moments (Au):
       state          X           Y           Z        Dip. S.      Osc.
         1        -0.0101      0.1869     -0.0237      0.0356      0.3569
         2         0.1387      0.0374      0.0100      0.0207      0.1769
         3         0.0233     -0.0109      0.0054      0.0007      0.0036
         4         0.0232     -0.0067      0.0037      0.0006      0.0030
         5         0.0257      0.0085      0.0029      0.0007      0.0037
 Ground to excited state transition magnetic dipole moments (Au):
       state          X           Y           Z
         1        -0.0014      0.2691      2.0710
         2         0.1444     -0.1481     -0.7997
         3         0.3159      0.0415      1.0982
         4        -0.6280     -0.0500      0.5463
         5         0.0550      0.7572      0.2689
 Ground to excited state transition velocity quadrupole moments (Au):
       state          XX          YY          ZZ          XY          XZ          YZ
         1        -0.3254      0.3966     -0.0079      2.0620     -0.2642      0.0068
         2         2.8177      0.0262     -0.0189      0.4604      0.0849      0.0088
         3         0.4940     -0.3238     -0.0033     -0.3271      0.0561      0.0467
         4         0.4276     -0.1113     -0.0009     -0.2322      0.0302     -0.0201
         5         0.4792     -0.0677     -0.0175     -0.0375     -0.0117     -0.0225
 <0|del|b> * <b|rxdel|0> + <0|del|b> * <b|delr+rdel|0>
 Rotatory Strengths (R) in cgs (10**-40 erg-esu-cm/Gauss)
[...]
 Alpha virt. eigenvalues --    1.20000   1.20108   1.20525   1.20548   1.20719
 Alpha virt. eigenvalues --    1.21711   1.21811   1.22770   1.23369   1.23654
 Alpha virt. eigenvalues --    1.24480   1.25235   1.25830   1.25905   1.26102
 Alpha virt. eigenvalues --    1.26715   1.26932   1.27137   1.27706   1.28128
 Alpha virt. eigenvalues --    1.28824   1.29597   1.30184   1.30357   1.31702
 Alpha virt. eigenvalues --    1.31902   1.32103   1.32424   1.32894   1.33061
 Alpha virt. eigenvalues --    1.33183   1.33631   1.33950   1.34636   1.35104
 Alpha virt. eigenvalues --    1.35272   1.35654   1.36260   1.36853   1.37008
 Alpha virt. eigenvalues --    1.37602   1.38630   1.39160   1.39500   1.39857
 Alpha virt. eigenvalues --    1.40220   1.40326   1.40522   1.41274   1.42043
 Alpha virt. eigenvalues --    1.42262   1.42662   1.43551   1.43916   1.44678
 Alpha virt. eigenvalues --    1.44791   1.44911   1.44938   1.45450   1.45929
 Alpha virt. eigenvalues --    1.46136   1.46230   1.46850   1.47724   1.48309
 Alpha virt. eigenvalues --    1.48472   1.48736   1.49374   1.49524   1.50102
 Alpha virt. eigenvalues --    1.50376   1.50731   1.50828   1.51042   1.51460
 Alpha virt. eigenvalues --    1.52178   1.52355   1.53458   1.53666   1.54039
 Alpha virt. eigenvalues --    1.54394   1.55337   1.55558   1.55695   1.55880
 Alpha virt. eigenvalues --    1.56818   1.57192   1.57601   1.57830   1.57843
 Alpha virt. eigenvalues --    1.58254   1.58703   1.58860   1.59023   1.59684
 Alpha virt. eigenvalues --    1.59759   1.60367   1.60591   1.61034   1.61186
 Alpha virt. eigenvalues --    1.61846   1.62045   1.62274   1.62451   1.62701
 Alpha virt. eigenvalues --    1.63205   1.63415   1.63616   1.63717   1.64121
 Alpha virt. eigenvalues --    1.64262   1.64276   1.64582   1.64612   1.64881
 Alpha virt. eigenvalues --    1.65137   1.65674   1.65693   1.66260   1.66333
 Alpha virt. eigenvalues --    1.66754   1.67322   1.67445   1.67644   1.67970
 Alpha virt. eigenvalues --    1.68536   1.68723   1.69450   1.69507   1.70325
 Alpha virt. eigenvalues --    1.71046   1.71826   1.72392   1.72708   1.73297
 Alpha virt. eigenvalues --    1.73380   1.73959   1.74628   1.74868   1.75294
 Alpha virt. eigenvalues --    1.75449   1.76248   1.76569   1.76870   1.77014
 Alpha virt. eigenvalues --    1.77199   1.77733   1.78629   1.78856   1.78867
 Alpha virt. eigenvalues --    1.79188   1.79264   1.79821   1.79985   1.80680
 Alpha virt. eigenvalues --    1.80801   1.80961   1.81351   1.81582   1.81803
 Alpha virt. eigenvalues --    1.82033   1.82449   1.82485   1.82775   1.83005
 Alpha virt. eigenvalues --    1.83086   1.83426   1.83488   1.83681   1.83905
 Alpha virt. eigenvalues --    1.84433   1.84497   1.84801   1.85137   1.85256
 Alpha virt. eigenvalues --    1.85307   1.85408   1.85719   1.85940   1.86033
 Alpha virt. eigenvalues --    1.86167   1.86589   1.86630   1.86699   1.87043
 Alpha virt. eigenvalues --    1.87125   1.87517   1.87801   1.87852   1.87993
 Alpha virt. eigenvalues --    1.88124   1.88338   1.88783   1.88820   1.88984
 Alpha virt. eigenvalues --    1.89177   1.89241   1.89480   1.89598   1.89818
 Alpha virt. eigenvalues --    1.90224   1.90500   1.90690   1.90811   1.90853
 Alpha virt. eigenvalues --    1.90975   1.91274   1.91649   1.91874   1.92027
 Alpha virt. eigenvalues --    1.92333   1.92435   1.92703   1.92863   1.93004
 Alpha virt. eigenvalues --    1.93268   1.93410   1.93627   1.93859   1.93987
 Alpha virt. eigenvalues --    1.94014   1.94163   1.94274   1.94461   1.94804
 Alpha virt. eigenvalues --    1.95121   1.95244   1.95520   1.95829   1.96503
 Alpha virt. eigenvalues --    1.96676   1.96821   1.97187   1.97303   1.97375
 Alpha virt. eigenvalues --    1.97805   1.98144   1.98415   1.98603   1.98746
 Alpha virt. eigenvalues --    1.98948   1.99082   1.99426   1.99995   2.00058
 Alpha virt. eigenvalues --    2.00477   2.00776   2.00999   2.01432   2.01571
 Alpha virt. eigenvalues --    2.01672   2.01752   2.02456   2.02722   2.02937
 Alpha virt. eigenvalues --    2.03087   2.03639   2.04041   2.04713   2.04892
 Alpha virt. eigenvalues --    2.05125   2.05197   2.05239   2.05563   2.05716
 Alpha virt. eigenvalues --    2.05949   2.06413   2.06638   2.06833   2.07324
 Alpha virt. eigenvalues --    2.07600   2.08134   2.08284   2.08476   2.09036
 Alpha virt. eigenvalues --    2.09421   2.09491   2.09740   2.10289   2.10656
 Alpha virt. eigenvalues --    2.10901   2.11412   2.11532   2.12035   2.12417
 Alpha virt. eigenvalues --    2.12558   2.12880   2.13341   2.13601   2.13623
 Alpha virt. eigenvalues --    2.13888   2.14192   2.14262   2.14420   2.14949
 Alpha virt. eigenvalues --    2.15075   2.15586   2.15949   2.16359   2.16600
 Alpha virt. eigenvalues --    2.16711   2.16825   2.17353   2.17690   2.17860
 Alpha virt. eigenvalues --    2.18513   2.18593   2.18836   2.19195   2.19219
 Alpha virt. eigenvalues --    2.19553   2.19856   2.20183   2.20481   2.20775
 Alpha virt. eigenvalues --    2.21015   2.21050   2.21181   2.21410   2.21862
 Alpha virt. eigenvalues --    2.22360   2.22618   2.22974   2.23812   2.24080
 Alpha virt. eigenvalues --    2.24697   2.24848   2.24963   2.25517   2.25657
 Alpha virt. eigenvalues --    2.25946   2.26520   2.27412   2.27653   2.28372
 Alpha virt. eigenvalues --    2.28426   2.29366   2.29584   2.30138   2.30576
 Alpha virt. eigenvalues --    2.30743   2.31076   2.32086   2.32627   2.32745
 Alpha virt. eigenvalues --    2.33273   2.33567   2.34467   2.34756   2.35388
 Alpha virt. eigenvalues --    2.35790   2.36162   2.36452   2.36731   2.37012
 Alpha virt. eigenvalues --    2.37114   2.37274   2.38107   2.38532   2.38840
 Alpha virt. eigenvalues --    2.39127   2.39361   2.39741   2.40283   2.40432
 Alpha virt. eigenvalues --    2.40595   2.40763   2.41056   2.41661   2.42056
 Alpha virt. eigenvalues --    2.42365   2.42757   2.43395   2.43528   2.43998
 Alpha virt. eigenvalues --    2.44257   2.44513   2.44591   2.44917   2.45223
 Alpha virt. eigenvalues --    2.45752   2.46157   2.46659   2.46724   2.47537
 Alpha virt. eigenvalues --    2.47942   2.48139   2.48469   2.48996   2.49451
 Alpha virt. eigenvalues --    2.49493   2.49925   2.50288   2.50386   2.50750
 Alpha virt. eigenvalues --    2.51013   2.51206   2.52259   2.52413   2.52504
 Alpha virt. eigenvalues --    2.52605   2.53692   2.53816   2.54004   2.54650
 Alpha virt. eigenvalues --    2.55063   2.55208   2.55819   2.56289   2.57096
 Alpha virt. eigenvalues --    2.58192   2.58457   2.58760   2.59247   2.59608
 Alpha virt. eigenvalues --    2.59675   2.60469   2.61095   2.61170   2.61657
 Alpha virt. eigenvalues --    2.61902   2.62293   2.62755   2.62904   2.64010
 Alpha virt. eigenvalues --    2.64111   2.64473   2.64710   2.65487   2.65519
 Alpha virt. eigenvalues --    2.65809   2.66099   2.66623   2.66797   2.67216
 Alpha virt. eigenvalues --    2.67504   2.68272   2.68339   2.68578   2.69737
 Alpha virt. eigenvalues --    2.69947   2.70562   2.70586   2.71148   2.71542
 Alpha virt. eigenvalues --    2.71778   2.72002   2.72689   2.72840   2.73119
 Alpha virt. eigenvalues --    2.73164   2.73597   2.73825   2.74189   2.74717
 Alpha virt. eigenvalues --    2.75139   2.75511   2.76157   2.76258   2.76723
 Alpha virt. eigenvalues --    2.77641   2.78035   2.78083   2.78513   2.79171
 Alpha virt. eigenvalues --    2.79204   2.79337   2.79790   2.80343   2.80887
 Alpha virt. eigenvalues --    2.81399   2.81954   2.82251   2.82588   2.82947
 Alpha virt. eigenvalues --    2.83184   2.83779   2.84458   2.84574   2.85816
 Alpha virt. eigenvalues --    2.85924   2.85973   2.86431   2.87610   2.88822
 Alpha virt. eigenvalues --    2.89318   2.89394   2.90002   2.90387   2.90685
 Alpha virt. eigenvalues --    2.91167   2.91593   2.91756   2.92154   2.92687
 Alpha virt. eigenvalues --    2.93130   2.94217   2.95043   2.95451   2.95692
 Alpha virt. eigenvalues --    2.96331   2.96664   2.97002   2.97350   2.97440
 Alpha virt. eigenvalues --    2.97697   2.97932   2.98541   2.98731   2.99631
 Alpha virt. eigenvalues --    2.99862   3.00386   3.00583   3.01105   3.01573
 Alpha virt. eigenvalues --    3.01660   3.01724   3.02404   3.02528   3.02699
 Alpha virt. eigenvalues --    3.03004   3.03054   3.03486   3.03583   3.03668
 Alpha virt. eigenvalues --    3.03891   3.04100   3.04499   3.04570   3.04808
 Alpha virt. eigenvalues --    3.05031   3.05306   3.05393   3.05765   3.06042
 Alpha virt. eigenvalues --    3.06522   3.06665   3.07210   3.07571   3.07854
 Alpha virt. eigenvalues --    3.08175   3.08523   3.08640   3.08974   3.09531
 Alpha virt. eigenvalues --    3.09932   3.10313   3.10556   3.11680   3.11688
 Alpha virt. eigenvalues --    3.12189   3.12458   3.12703   3.13288   3.13620
 Alpha virt. eigenvalues --    3.14134   3.14636   3.15267   3.15412   3.16058
 Alpha virt. eigenvalues --    3.16343   3.16846   3.17575   3.17808   3.19187
 Alpha virt. eigenvalues --    3.19548   3.19731   3.20661   3.21086   3.21512
 Alpha virt. eigenvalues --    3.22210   3.22299   3.22917   3.23382   3.25166
 Alpha virt. eigenvalues --    3.25563   3.26867   3.28574   3.29577   3.31335
 Alpha virt. eigenvalues --    3.33161   3.34506   3.43136   3.46098   3.46587
 Alpha virt. eigenvalues --    3.49192   3.51945   3.55885   3.57859   3.61196
 Alpha virt. eigenvalues --    3.61370   3.62900   3.66905   3.69993   3.71345
 Alpha virt. eigenvalues --    3.73472   3.75035
          Condensed to atoms (all electrons):
 Mulliken charges:
               1
     1  Mg   1.006217
     2  C    0.026180
     3  C   -0.089589
     4  C   -0.095714
     5  C   -0.116862
     6  N   -0.318721
     7  C   -0.059555
     8  C   -0.040010
     9  C   -0.152770
    10  C    0.060864
    11  C    0.011558
    12  C    0.054211
    13  C    0.019879
    14  C    0.220722
    15  O   -0.285326
    16  O   -0.394660
    17  N   -0.427623
    18  C    0.170910
    19  C   -0.142599
    20  C   -0.085966
    21  C    0.158684
    22  C    0.070313
    23  C    0.059001
    24  O   -0.225830
    25  C   -0.026287
    26  N   -0.378872
    27  C    0.071409
    28  C   -0.091247
    29  C   -0.011142
    30  C    0.100935
    31  C   -0.006070
    32  C   -0.021979
    33  C   -0.051746
    34  N   -0.512668
    35  C    0.115927
    36  C   -0.167390
    37  C   -0.031965
    38  C    0.137444
    39  C    0.081382
    40  C    0.143291
    41  O   -0.234533
    42  C   -0.124783
    43  C    0.258521
    44  O   -0.225569
    45  O   -0.386420
    46  C    0.142962
    47  C    0.250037
    48  C   -0.140731
    49  C   -0.225723
    50  C    0.042332
    51  C    0.041304
    52  C   -0.023858
    53  C    0.007795
    54  C   -0.229995
    55  C    0.016141
    56  C    0.032760
    57  C   -0.046534
    58  C    0.015938
    59  C   -0.183053
    60  C    0.008194
    61  C    0.049783
    62  C   -0.052750
    63  C   -0.024388
    64  C   -0.238417
    65  C    0.007018
    66  C   -0.000115
    67  H   -0.015615
    68  H    0.016007
    69  H   -0.004266
    70  H    0.056820
    71  H    0.036697
    72  H    0.039129
    73  H    0.057075
    74  H    0.031692
    75  H    0.038320
    76  H    0.051620
    77  H    0.048285
    78  H    0.064819
    79  H    0.060333
    80  H    0.030617
    81  H    0.053689
    82  H    0.063437
    83  H    0.059406
    84  H    0.055627
    85  H    0.049007
    86  H    0.033960
    87  H    0.050030
    88  H    0.042992
    89  H    0.032957
    90  H    0.030840
    91  H    0.020333
    92  H    0.041008
    93  H    0.019510
    94  H    0.038984
    95  H    0.037668
    96  H    0.062380
    97  H    0.036842
    98  H    0.084924
    99  H    0.051439
   100  H    0.047027
   101  H    0.056558
   102  H    0.082925
   103  H    0.055443
   104  H    0.025862
   105  H    0.050250
   106  H    0.055286
   107  H    0.022572
   108  H    0.032608
   109  H    0.005935
   110  H    0.021044
   111  H    0.015504
   112  H    0.024338
   113  H    0.014269
   114  H    0.011903
   115  H    0.018825
   116  H    0.028039
   117  H    0.036430
   118  H    0.017201
   119  H    0.011389
   120  H    0.028548
   121  H    0.010933
   122  H    0.016748
   123  H    0.017394
   124  H    0.018037
   125  H    0.035528
   126  H    0.011486
   127  H    0.035223
   128  H    0.007819
   129  H    0.019563
   130  H    0.017485
   131  H    0.003578
   132  H    0.034585
   133  H    0.027993
   134  H    0.023300
   135  H    0.035993
   136  H    0.043187
   137  H    0.016035
   138  H    0.027033
   139  H    0.023172
   140  H    0.026128
 Sum of Mulliken charges =  -0.00000
 Mulliken charges with hydrogens summed into heavy atoms:
               1
     1  Mg   1.006217
     2  C    0.026180
     3  C   -0.105205
     4  C   -0.079707
     5  C   -0.121127
     6  N   -0.318721
     7  C   -0.059555
     8  C    0.016810
     9  C   -0.116073
    10  C    0.060864
    11  C    0.139454
    12  C    0.144152
    13  C    0.132983
    14  C    0.220722
    15  O   -0.285326
    16  O   -0.394660
    17  N   -0.427623
    18  C    0.170910
    19  C   -0.142599
    20  C   -0.085966
    21  C    0.158684
    22  C    0.214952
    23  C    0.059001
    24  O   -0.225830
    25  C    0.152183
    26  N   -0.378872
    27  C    0.071409
    28  C   -0.042240
    29  C    0.022818
    30  C    0.100935
    31  C    0.119910
    32  C    0.029193
    33  C    0.047757
    34  N   -0.512668
    35  C    0.115927
    36  C   -0.167390
    37  C   -0.031965
    38  C    0.137444
    39  C    0.218273
    40  C    0.143291
    41  O   -0.234533
    42  C   -0.039860
    43  C    0.258521
    44  O   -0.225569
    45  O   -0.386420
    46  C    0.297986
    47  C    0.388406
    48  C   -0.114869
    49  C   -0.225723
    50  C    0.170440
    51  C    0.079847
    52  C    0.012690
    53  C    0.046402
    54  C   -0.218093
    55  C    0.099436
    56  C    0.061351
    57  C   -0.007053
    58  C    0.050080
    59  C   -0.165015
    60  C    0.090431
    61  C    0.077165
    62  C   -0.031687
    63  C    0.038190
    64  C   -0.215116
    65  C    0.102233
    66  C    0.076218
 Electronic spatial extent (au):  <R**2>=         132397.3625
 Charge=             -0.0000 electrons
 Dipole moment (field-independent basis, Debye):
    X=             -2.4898    Y=              5.9617    Z=             -0.9565  Tot=              6.5311
 Quadrupole moment (field-independent basis, Debye-Ang):
   XX=           -375.7031   YY=           -407.0552   ZZ=           -410.8550
   XY=             20.5523   XZ=              8.6015   YZ=              5.2479
 Traceless Quadrupole moment (field-independent basis, Debye-Ang):
   XX=             22.1680   YY=             -9.1841   ZZ=            -12.9839
   XY=             20.5523   XZ=              8.6015   YZ=              5.2479
 Octapole moment (field-independent basis, Debye-Ang**2):
  XXX=            350.6998  YYY=            175.1279  ZZZ=             -9.6411  XYY=           -159.2485
  XXY=           -276.4063  XXZ=             59.5168  XZZ=             24.6389  YZZ=              5.4026
  YYZ=            -77.6743  XYZ=            -15.1600
 Hexadecapole moment (field-independent basis, Debye-Ang**3):
 XXXX=        -153654.6784 YYYY=         -22051.9357 ZZZZ=          -3753.5300 XXXY=          -1337.8112
 XXXZ=            102.5581 YYYX=           1230.3213 YYYZ=            221.3666 ZZZX=             91.6657
 ZZZY=             -4.4497 XXYY=         -30764.1209 XXZZ=         -26945.2552 YYZZ=          -4401.0213
 XXYZ=           -164.1430 YYXZ=            -24.7360 ZZXY=            200.3459
 N-N= 9.428321269701D+03 E-N=-2.584945863907D+04  KE= 2.975567487753D+03
 Leave Link  601 at Thu May  5 09:17:04 2022, MaxMem= 10066329600 cpu:              15.2 elap:               0.7
 (Enter /sw/apps/gaussian-16.0/g16/l9999.exe)
 1\1\GINC-BP1-COMPUTE181\SP\RwB97XD TD-FC\def2SVP\C55H74Mg1N4O6\OF15641
 \05-May-2022\0\\#p wB97XD/Def2SVP td=(nstates=5)\\step_751_chromophore
 _4 TDDFT with wB97XD functional\\0,1\Mg,0,8.924,3.23,28.323\C,0,10.213
 ,1.947,31.296\C,0,7.26,5.652,30.233\C,0,7.294,4.333,25.633\C,0,9.933,0
 .483,26.611\N,0,8.668,3.659,30.61\C,0,9.382,3.011,31.599\C,0,9.112,3.6
 7,32.974\C,0,8.084,4.815,32.569\C,0,7.996,4.75,31.06\C,0,6.675,4.513,3
 3.146\C,0,10.414,4.237,33.711\C,0,10.086,4.841,35.109\C,0,10.867,4.396
 ,36.327\O,0,12.11,4.406,36.327\O,0,10.128,3.831,37.38\N,0,7.604,4.845,
 28.008\C,0,7.114,5.803,28.838\C,0,6.326,6.79,28.172\C,0,6.23,6.323,26.
 809\C,0,7.115,5.157,26.775\C,0,5.646,7.984,28.834\C,0,5.587,6.945,25.5
 77\O,0,5.616,6.47,24.449\C,0,4.867,8.297,25.7\N,0,8.659,2.54,26.374\C,
 0,8.035,3.175,25.43\C,0,8.093,2.409,24.102\C,0,8.85,1.118,24.456\C,0,9
 .144,1.316,25.931\C,0,6.708,1.995,23.587\C,0,10.112,0.727,23.618\C,0,9
 .803,-0.013,22.288\N,0,9.977,1.666,28.756\C,0,10.437,0.61,27.953\C,0,1
 1.298,-0.256,28.662\C,0,11.258,0.235,29.966\C,0,10.477,1.381,29.964\C,
 0,11.894,-1.535,28.173\C,0,11.767,0.005,31.269\O,0,12.479,-0.933,31.67
 8\C,0,11.132,1.112,32.213\C,0,10.304,0.538,33.409\O,0,9.206,0.039,33.3
 38\O,0,11.116,0.531,34.563\C,0,10.548,-0.135,35.766\C,0,10.904,3.347,3
 8.561\C,0,10.745,4.477,39.585\C,0,11.371,4.558,40.772\C,0,12.348,3.552
 ,41.379\C,0,11.249,5.78,41.562\C,0,9.909,6.146,42.205\C,0,9.117,7.373,
 41.606\C,0,8.924,8.464,42.698\C,0,7.604,8.199,43.474\C,0,8.989,9.847,4
 2.12\C,0,10.458,10.444,42.027\C,0,10.47,11.995,42.326\C,0,10.946,12.31
 9,43.794\C,0,12.004,13.455,43.959\C,0,9.762,12.396,44.85\C,0,9.518,11.
 087,45.649\C,0,9.306,11.347,47.192\C,0,9.039,9.953,47.899\C,0,7.664,9.
 284,47.738\C,0,9.278,10.21,49.404\H,0,6.769,6.399,30.861\H,0,6.702,4.6
 09,24.758\H,0,10.246,-0.437,26.113\H,0,8.603,2.824,33.434\H,0,8.302,5.
 813,32.948\H,0,6.715,3.705,33.875\H,0,6.005,4.257,32.325\H,0,6.36,5.34
 6,33.775\H,0,10.81,5.009,33.052\H,0,11.083,3.376,33.694\H,0,9.024,4.67
 1,35.281\H,0,10.342,5.9,35.067\H,0,4.608,7.716,29.031\H,0,5.57,8.828,2
 8.149\H,0,6.078,8.354,29.764\H,0,4.558,8.634,24.71\H,0,5.57,8.993,26.1
 57\H,0,4.031,8.224,26.395\H,0,8.53,3.119,23.4\H,0,8.147,0.3,24.293\H,0
 ,5.908,1.866,24.317\H,0,6.709,1.21,22.831\H,0,6.358,2.859,23.021\H,0,1
 0.867,0.178,24.181\H,0,10.668,1.638,23.394\H,0,9.904,0.628,21.413\H,0,
 8.764,-0.343,22.33\H,0,10.361,-0.928,22.087\H,0,11.113,-2.029,27.596\H
 ,0,12.281,-2.241,28.908\H,0,12.687,-1.309,27.46\H,0,11.887,1.683,32.75
 4\H,0,10.55,-1.207,35.572\H,0,9.502,0.061,36.003\H,0,11.092,0.04,36.69
 4\H,0,11.937,3.125,38.294\H,0,10.329,2.467,38.849\H,0,10.292,5.429,39.
 306\H,0,12.045,3.26,42.384\H,0,13.34,4.002,41.422\H,0,12.388,2.742,40.
 65\H,0,11.446,6.649,40.934\H,0,11.977,5.702,42.37\H,0,10.104,6.238,43.
 273\H,0,9.295,5.246,42.155\H,0,8.147,7.061,41.218\H,0,9.626,7.928,40.8
 18\H,0,9.767,8.316,43.373\H,0,7.388,7.134,43.389\H,0,6.776,8.687,42.96
 1\H,0,7.734,8.47,44.522\H,0,8.213,10.44,42.603\H,0,8.673,9.738,41.082\
 H,0,11.008,10.282,41.1\H,0,11.056,9.955,42.796\H,0,9.439,12.307,42.16\
 H,0,10.993,12.423,41.47\H,0,11.498,11.461,44.176\H,0,13.027,13.08,43.9
 26\H,0,11.895,13.818,44.981\H,0,11.776,14.295,43.303\H,0,8.926,12.602,
 44.181\H,0,9.798,13.225,45.557\H,0,10.292,10.337,45.487\H,0,8.594,10.5
 71,45.387\H,0,8.465,11.997,47.434\H,0,10.26,11.801,47.464\H,0,9.783,9.
 207,47.62\H,0,6.99,9.764,47.029\H,0,7.281,8.797,48.635\H,0,7.93,8.454,
 47.083\H,0,8.394,9.966,49.994\H,0,9.581,11.219,49.682\H,0,10.17,9.614,
 49.598\\Version=ES64L-G16RevA.03\State=1-A\HF=-3007.86466\RMSD=6.049e-
 09\PG=C01 [X(C55H74Mg1N4O6)]\\@


 ALMOST ANYTHING IS EASIER TO GET INTO THAN OUT OF.

                         -- AGNES ALLEN'S LAW FROM
                PAUL DICKSON'S "THE OFFICIAL RULES"
 Job cpu time:       0 days 15 hours 10 minutes 53.5 seconds.
 Elapsed time:       0 days  0 hours 38 minutes 31.3 seconds.
 File lengths (MBytes):  RWF=   8929 Int=      0 D2E=      0 Chk=    390 Scr=      1
 Normal termination of Gaussian 16 at Thu May  5 09:17:05 2022.
