 Entering Gaussian System, Link 0=g16
 Initial command:
 /sw/apps/gaussian-16.0/g16/l1.exe "/tmp/Gau-163894.inp" -scrdir="/tmp/"
 Entering Link 1 = /sw/apps/gaussian-16.0/g16/l1.exe PID=    163896.
  
 Copyright (c) 1988,1990,1992,1993,1995,1998,2003,2009,2016,
            Gaussian, Inc.  All Rights Reserved.
  
 This is part of the Gaussian(R) 16 program.  It is based on
 the Gaussian(R) 09 system (copyright 2009, Gaussian, Inc.),
 the Gaussian(R) 03 system (copyright 2003, Gaussian, Inc.),
 the Gaussian(R) 98 system (copyright 1998, Gaussian, Inc.),
 the Gaussian(R) 94 system (copyright 1995, Gaussian, Inc.),
 the Gaussian 92(TM) system (copyright 1992, Gaussian, Inc.),
 the Gaussian 90(TM) system (copyright 1990, Gaussian, Inc.),
 the Gaussian 88(TM) system (copyright 1988, Gaussian, Inc.),
 the Gaussian 86(TM) system (copyright 1986, Carnegie Mellon
 University), and the Gaussian 82(TM) system (copyright 1983,
 Carnegie Mellon University). Gaussian is a federally registered
 trademark of Gaussian, Inc.
  
 This software contains proprietary and confidential information,
 including trade secrets, belonging to Gaussian, Inc.
  
 This software is provided under written license and may be
 used, copied, transmitted, or stored only in accord with that
 written license.
  
 The following legend is applicable only to US Government
 contracts under FAR:
  
                    RESTRICTED RIGHTS LEGEND
  
 Use, reproduction and disclosure by the US Government is
 subject to restrictions as set forth in subparagraphs (a)
 and (c) of the Commercial Computer Software - Restricted
 Rights clause in FAR 52.227-19.
  
 Gaussian, Inc.
 340 Quinnipiac St., Bldg. 40, Wallingford CT 06492
  
  
 ---------------------------------------------------------------
 Warning -- This program may not be used in any manner that
 competes with the business of Gaussian, Inc. or will provide
 assistance to any competitor of Gaussian, Inc.  The licensee
 of this program is prohibited from giving any competitor of
 Gaussian, Inc. access to this program.  By using this program,
 the user acknowledges that Gaussian, Inc. is engaged in the
 business of creating and licensing software in the field of
 computational chemistry and represents and warrants to the
 licensee that it is not a competitor of Gaussian, Inc. and that
 it will not use this program in any manner prohibited above.
 ---------------------------------------------------------------
  

 Cite this work as:
 Gaussian 16, Revision A.03,
 M. J. Frisch, G. W. Trucks, H. B. Schlegel, G. E. Scuseria, 
 M. A. Robb, J. R. Cheeseman, G. Scalmani, V. Barone, 
 G. A. Petersson, H. Nakatsuji, X. Li, M. Caricato, A. V. Marenich, 
 J. Bloino, B. G. Janesko, R. Gomperts, B. Mennucci, H. P. Hratchian, 
 J. V. Ortiz, A. F. Izmaylov, J. L. Sonnenberg, D. Williams-Young, 
 F. Ding, F. Lipparini, F. Egidi, J. Goings, B. Peng, A. Petrone, 
 T. Henderson, D. Ranasinghe, V. G. Zakrzewski, J. Gao, N. Rega, 
 G. Zheng, W. Liang, M. Hada, M. Ehara, K. Toyota, R. Fukuda, 
 J. Hasegawa, M. Ishida, T. Nakajima, Y. Honda, O. Kitao, H. Nakai, 
 T. Vreven, K. Throssell, J. A. Montgomery, Jr., J. E. Peralta, 
 F. Ogliaro, M. J. Bearpark, J. J. Heyd, E. N. Brothers, K. N. Kudin, 
 V. N. Staroverov, T. A. Keith, R. Kobayashi, J. Normand, 
 K. Raghavachari, A. P. Rendell, J. C. Burant, S. S. Iyengar, 
 J. Tomasi, M. Cossi, J. M. Millam, M. Klene, C. Adamo, R. Cammi, 
 J. W. Ochterski, R. L. Martin, K. Morokuma, O. Farkas, 
 J. B. Foresman, and D. J. Fox, Gaussian, Inc., Wallingford CT, 2016.
 
 ******************************************
 Gaussian 16:  ES64L-G16RevA.03 25-Dec-2016
                 5-May-2022 
 ******************************************
 %nproc=24
 Will use up to   24 processors via shared memory.
 %mem=75GB
 ---------------------------------
 #p PBE1PBE/Def2SVP td=(nstates=5)
 ---------------------------------
 1/38=1,172=1/1;
 2/12=2,17=6,18=5,40=1/2;
 3/5=43,7=101,11=9,25=1,30=1,74=-13/1,2,3,8;
 4//1;
 5/5=2,38=5/2;
 8/6=1,10=1,108=5/1;
 9/41=5,42=1,70=2/14;
 6/7=2,8=2,9=2,10=2/1;
 99/5=1,9=1/99;
 Leave Link    1 at Thu May  5 07:59:46 2022, MaxMem= 10066329600 cpu:               1.6 elap:               0.1
 (Enter /sw/apps/gaussian-16.0/g16/l101.exe)
 -----------------------------------------------------
 step_751_chromophore_22 TDDFT with PBE1PBE functional
 -----------------------------------------------------
 Symbolic Z-matrix:
 Charge =  0 Multiplicity = 1
 Mg                    8.749     47.441    24.733 
 C                     6.486     47.885    27.366 
 C                     11.217    48.548    26.771 
 C                     10.964    46.468    22.309 
 C                     6.087     46.968    22.645 
 N                     8.828     48.105    26.796 
 C                     7.838     48.184    27.733 
 C                     8.379     48.485    29.148 
 C                     9.726     49.096    28.764 
 C                     9.974     48.522    27.38 
 C                     9.831     50.594    28.599 
 C                     8.529     47.203    30.07 
 C                     9.131     47.407    31.462 
 C                     8.792     46.572    32.753 
 O                     8.287     45.465    32.798 
 O                     9.032     47.324    33.862 
 N                     10.792    47.513    24.583 
 C                     11.646    47.988    25.536 
 C                     13.018    47.752    25.069 
 C                     12.947    47.143    23.754 
 C                     11.516    47.012    23.494 
 C                     14.288    48.11     25.798 
 C                     14.048    46.847    22.726 
 O                     13.797    46.309    21.683 
 C                     15.393    47.298    22.919 
 N                     8.589     46.892    22.688 
 C                     9.6       46.495    21.899 
 C                     9.04      46.073    20.561 
 C                     7.493     46.281    20.65 
 C                     7.361     46.634    22.099 
 C                     9.672     46.707    19.327 
 C                     6.499     45.123    20.199 
 C                     5.374     45.491    19.188 
 N                     6.692     47.641    24.875 
 C                     5.77      47.347    23.943 
 C                     4.508     47.41     24.583 
 C                     4.711     47.56     25.921 
 C                     6.063     47.709    26.05 
 C                     3.192     47.336    23.994 
 C                     4.057     47.614    27.23 
 O                     2.912     47.467    27.642 
 C                     5.207     47.847    28.255 
 C                     5.194     46.657    29.126 
 O                     5.618     45.564    28.883 
 O                     4.674     47.02     30.304 
 C                     4.575     46.102    31.404 
 C                     8.744     46.696    35.12 
 C                     9.397     47.449    36.274 
 C                     9.305     47.291    37.644 
 C                     8.373     46.331    38.352 
 C                     9.907     48.355    38.53 
 C                     11.061    47.791    39.366 
 C                     11.239    48.4      40.798 
 C                     10.968    47.339    41.903 
 C                     10.577    48.012    43.228 
 C                     12.089    46.307    42.08 
 C                     11.721    44.848    41.622 
 C                     12.904    44.102    40.846 
 C                     13.722    43.082    41.838 
 C                     14.294    41.819    41.111 
 C                     14.678    43.902    42.825 
 C                     14.462    43.492    44.308 
 C                     14.11     44.705    45.275 
 C                     12.683    44.629    45.966 
 C                     12.62     45.769    47.01 
 C                     12.399    43.235    46.569 
 H                     12.014    48.857    27.451 
 H                     11.555    46.023    21.506 
 H                     5.234     46.772    21.992 
 H                     7.718     49.179    29.668 
 H                     10.444    48.75     29.508 
 H                     10.397    51.062    29.405 
 H                     8.808     50.97     28.574 
 H                     10.403    50.935    27.736 
 H                     9.297     46.635    29.544 
 H                     7.603     46.631    30.129 
 H                     9.136     48.469    31.707 
 H                     10.209    47.251    31.503 
 H                     14.978    48.869    25.43 
 H                     14.926    47.227    25.807 
 H                     14.024    48.403    26.814 
 H                     15.474    48.302    23.334 
 H                     15.816    47.457    21.928 
 H                     15.911    46.546    23.515 
 H                     9.285     45.011    20.553 
 H                     7.133     47.202    20.192 
 H                     10.631    47.1      19.663 
 H                     9.064     47.543    18.981 
 H                     9.933     45.964    18.573 
 H                     6.114     44.576    21.059 
 H                     7.157     44.363    19.78 
 H                     5.376     46.561    19.395 
 H                     4.385     45.064    19.357 
 H                     5.661     45.328    18.149 
 H                     2.679     46.601    24.614 
 H                     3.16      47.023    22.95 
 H                     2.769     48.325    24.17 
 H                     5.038     48.643    28.98 
 H                     4.407     46.691    32.306 
 H                     5.525     45.584    31.533 
 H                     3.688     45.472    31.339 
 H                     9.034     45.649    35.205 
 H                     7.68      46.735    35.354 
 H                     10.099    48.234    35.994 
 H                     7.481     46.702    38.858 
 H                     9.028     45.794    39.038 
 H                     7.942     45.67     37.6 
 H                     9.154     48.909    39.091 
 H                     10.386    49.085    37.878 
 H                     11.988    47.992    38.829 
 H                     11.108    46.702    39.405 
 H                     10.617    49.261    41.04 
 H                     12.285    48.706    40.818 
 H                     10.124    46.783    41.497 
 H                     11.278    47.835    44.044 
 H                     9.669     47.507    43.557 
 H                     10.283    49.053    43.098 
 H                     12.466    46.324    43.102 
 H                     12.944    46.697    41.528 
 H                     10.775    44.755    41.088 
 H                     11.704    44.348    42.59 
 H                     13.566    44.909    40.532 
 H                     12.626    43.714    39.866 
 H                     12.906    42.596    42.373 
 H                     15.37     41.678    41.216 
 H                     14.026    42.054    40.081 
 H                     13.674    40.943    41.301 
 H                     14.536    44.961    42.607 
 H                     15.644    43.493    42.53 
 H                     15.362    43.013    44.695 
 H                     13.74     42.676    44.338 
 H                     14.124    45.596    44.648 
 H                     14.876    44.788    46.046 
 H                     11.978    44.769    45.147 
 H                     11.887    45.511    47.775 
 H                     12.232    46.652    46.502 
 H                     13.569    45.906    47.527 
 H                     11.761    42.664    45.896 
 H                     11.819    43.28     47.491 
 H                     13.313    42.664    46.733 
 
 ITRead=  0  0  0  0  0  0  0  0  0  0  0  0  0  0  0  0  0  0  0  0
 ITRead=  0  0  0  0  0  0  0  0  0  0  0  0  0  0  0  0  0  0  0  0
 ITRead=  0  0  0  0  0  0  0  0  0  0  0  0  0  0  0  0  0  0  0  0
 ITRead=  0  0  0  0  0  0  0  0  0  0  0  0  0  0  0  0  0  0  0  0
 ITRead=  0  0  0  0  0  0  0  0  0  0  0  0  0  0  0  0  0  0  0  0
 ITRead=  0  0  0  0  0  0  0  0  0  0  0  0  0  0  0  0  0  0  0  0
 ITRead=  0  0  0  0  0  0  0  0  0  0  0  0  0  0  0  0  0  0  0  0
 MicOpt= -1 -1 -1 -1 -1 -1 -1 -1 -1 -1 -1 -1 -1 -1 -1 -1 -1 -1 -1 -1
 MicOpt= -1 -1 -1 -1 -1 -1 -1 -1 -1 -1 -1 -1 -1 -1 -1 -1 -1 -1 -1 -1
 MicOpt= -1 -1 -1 -1 -1 -1 -1 -1 -1 -1 -1 -1 -1 -1 -1 -1 -1 -1 -1 -1
 MicOpt= -1 -1 -1 -1 -1 -1 -1 -1 -1 -1 -1 -1 -1 -1 -1 -1 -1 -1 -1 -1
 MicOpt= -1 -1 -1 -1 -1 -1 -1 -1 -1 -1 -1 -1 -1 -1 -1 -1 -1 -1 -1 -1
 MicOpt= -1 -1 -1 -1 -1 -1 -1 -1 -1 -1 -1 -1 -1 -1 -1 -1 -1 -1 -1 -1
 MicOpt= -1 -1 -1 -1 -1 -1 -1 -1 -1 -1 -1 -1 -1 -1 -1 -1 -1 -1 -1 -1
 NAtoms=    140 NQM=      140 NQMF=       0 NMMI=      0 NMMIF=      0
                NMic=       0 NMicF=      0.
                    Isotopes and Nuclear Properties:
 (Nuclear quadrupole moments (NQMom) in fm**2, nuclear magnetic moments (NMagM)
  in nuclear magnetons)

  Atom         1           2           3           4           5           6           7           8           9          10
 IAtWgt=          24          12          12          12          12          14          12          12          12          12
 AtmWgt=  23.9850450  12.0000000  12.0000000  12.0000000  12.0000000  14.0030740  12.0000000  12.0000000  12.0000000  12.0000000
 NucSpn=           0           0           0           0           0           2           0           0           0           0
 AtZEff=  -0.0000000  -0.0000000  -0.0000000  -0.0000000  -0.0000000  -0.0000000  -0.0000000  -0.0000000  -0.0000000  -0.0000000
 NQMom=    0.0000000   0.0000000   0.0000000   0.0000000   0.0000000   2.0440000   0.0000000   0.0000000   0.0000000   0.0000000
 NMagM=    0.0000000   0.0000000   0.0000000   0.0000000   0.0000000   0.4037610   0.0000000   0.0000000   0.0000000   0.0000000
 AtZNuc=  12.0000000   6.0000000   6.0000000   6.0000000   6.0000000   7.0000000   6.0000000   6.0000000   6.0000000   6.0000000

  Atom        11          12          13          14          15          16          17          18          19          20
 IAtWgt=          12          12          12          12          16          16          14          12          12          12
 AtmWgt=  12.0000000  12.0000000  12.0000000  12.0000000  15.9949146  15.9949146  14.0030740  12.0000000  12.0000000  12.0000000
 NucSpn=           0           0           0           0           0           0           2           0           0           0
 AtZEff=  -0.0000000  -0.0000000  -0.0000000  -0.0000000  -0.0000000  -0.0000000  -0.0000000  -0.0000000  -0.0000000  -0.0000000
 NQMom=    0.0000000   0.0000000   0.0000000   0.0000000   0.0000000   0.0000000   2.0440000   0.0000000   0.0000000   0.0000000
 NMagM=    0.0000000   0.0000000   0.0000000   0.0000000   0.0000000   0.0000000   0.4037610   0.0000000   0.0000000   0.0000000
 AtZNuc=   6.0000000   6.0000000   6.0000000   6.0000000   8.0000000   8.0000000   7.0000000   6.0000000   6.0000000   6.0000000

  Atom        21          22          23          24          25          26          27          28          29          30
 IAtWgt=          12          12          12          16          12          14          12          12          12          12
 AtmWgt=  12.0000000  12.0000000  12.0000000  15.9949146  12.0000000  14.0030740  12.0000000  12.0000000  12.0000000  12.0000000
 NucSpn=           0           0           0           0           0           2           0           0           0           0
 AtZEff=  -0.0000000  -0.0000000  -0.0000000  -0.0000000  -0.0000000  -0.0000000  -0.0000000  -0.0000000  -0.0000000  -0.0000000
 NQMom=    0.0000000   0.0000000   0.0000000   0.0000000   0.0000000   2.0440000   0.0000000   0.0000000   0.0000000   0.0000000
 NMagM=    0.0000000   0.0000000   0.0000000   0.0000000   0.0000000   0.4037610   0.0000000   0.0000000   0.0000000   0.0000000
 AtZNuc=   6.0000000   6.0000000   6.0000000   8.0000000   6.0000000   7.0000000   6.0000000   6.0000000   6.0000000   6.0000000

  Atom        31          32          33          34          35          36          37          38          39          40
 IAtWgt=          12          12          12          14          12          12          12          12          12          12
 AtmWgt=  12.0000000  12.0000000  12.0000000  14.0030740  12.0000000  12.0000000  12.0000000  12.0000000  12.0000000  12.0000000
 NucSpn=           0           0           0           2           0           0           0           0           0           0
 AtZEff=  -0.0000000  -0.0000000  -0.0000000  -0.0000000  -0.0000000  -0.0000000  -0.0000000  -0.0000000  -0.0000000  -0.0000000
 NQMom=    0.0000000   0.0000000   0.0000000   2.0440000   0.0000000   0.0000000   0.0000000   0.0000000   0.0000000   0.0000000
 NMagM=    0.0000000   0.0000000   0.0000000   0.4037610   0.0000000   0.0000000   0.0000000   0.0000000   0.0000000   0.0000000
 AtZNuc=   6.0000000   6.0000000   6.0000000   7.0000000   6.0000000   6.0000000   6.0000000   6.0000000   6.0000000   6.0000000

  Atom        41          42          43          44          45          46          47          48          49          50
 IAtWgt=          16          12          12          16          16          12          12          12          12          12
 AtmWgt=  15.9949146  12.0000000  12.0000000  15.9949146  15.9949146  12.0000000  12.0000000  12.0000000  12.0000000  12.0000000
 NucSpn=           0           0           0           0           0           0           0           0           0           0
 AtZEff=  -0.0000000  -0.0000000  -0.0000000  -0.0000000  -0.0000000  -0.0000000  -0.0000000  -0.0000000  -0.0000000  -0.0000000
 NQMom=    0.0000000   0.0000000   0.0000000   0.0000000   0.0000000   0.0000000   0.0000000   0.0000000   0.0000000   0.0000000
 NMagM=    0.0000000   0.0000000   0.0000000   0.0000000   0.0000000   0.0000000   0.0000000   0.0000000   0.0000000   0.0000000
 AtZNuc=   8.0000000   6.0000000   6.0000000   8.0000000   8.0000000   6.0000000   6.0000000   6.0000000   6.0000000   6.0000000

  Atom        51          52          53          54          55          56          57          58          59          60
 IAtWgt=          12          12          12          12          12          12          12          12          12          12
 AtmWgt=  12.0000000  12.0000000  12.0000000  12.0000000  12.0000000  12.0000000  12.0000000  12.0000000  12.0000000  12.0000000
 NucSpn=           0           0           0           0           0           0           0           0           0           0
 AtZEff=  -0.0000000  -0.0000000  -0.0000000  -0.0000000  -0.0000000  -0.0000000  -0.0000000  -0.0000000  -0.0000000  -0.0000000
 NQMom=    0.0000000   0.0000000   0.0000000   0.0000000   0.0000000   0.0000000   0.0000000   0.0000000   0.0000000   0.0000000
 NMagM=    0.0000000   0.0000000   0.0000000   0.0000000   0.0000000   0.0000000   0.0000000   0.0000000   0.0000000   0.0000000
 AtZNuc=   6.0000000   6.0000000   6.0000000   6.0000000   6.0000000   6.0000000   6.0000000   6.0000000   6.0000000   6.0000000

  Atom        61          62          63          64          65          66          67          68          69          70
 IAtWgt=          12          12          12          12          12          12           1           1           1           1
 AtmWgt=  12.0000000  12.0000000  12.0000000  12.0000000  12.0000000  12.0000000   1.0078250   1.0078250   1.0078250   1.0078250
 NucSpn=           0           0           0           0           0           0           1           1           1           1
 AtZEff=  -0.0000000  -0.0000000  -0.0000000  -0.0000000  -0.0000000  -0.0000000  -0.0000000  -0.0000000  -0.0000000  -0.0000000
 NQMom=    0.0000000   0.0000000   0.0000000   0.0000000   0.0000000   0.0000000   0.0000000   0.0000000   0.0000000   0.0000000
 NMagM=    0.0000000   0.0000000   0.0000000   0.0000000   0.0000000   0.0000000   2.7928460   2.7928460   2.7928460   2.7928460
 AtZNuc=   6.0000000   6.0000000   6.0000000   6.0000000   6.0000000   6.0000000   1.0000000   1.0000000   1.0000000   1.0000000

  Atom        71          72          73          74          75          76          77          78          79          80
 IAtWgt=           1           1           1           1           1           1           1           1           1           1
 AtmWgt=   1.0078250   1.0078250   1.0078250   1.0078250   1.0078250   1.0078250   1.0078250   1.0078250   1.0078250   1.0078250
 NucSpn=           1           1           1           1           1           1           1           1           1           1
 AtZEff=  -0.0000000  -0.0000000  -0.0000000  -0.0000000  -0.0000000  -0.0000000  -0.0000000  -0.0000000  -0.0000000  -0.0000000
 NQMom=    0.0000000   0.0000000   0.0000000   0.0000000   0.0000000   0.0000000   0.0000000   0.0000000   0.0000000   0.0000000
 NMagM=    2.7928460   2.7928460   2.7928460   2.7928460   2.7928460   2.7928460   2.7928460   2.7928460   2.7928460   2.7928460
 AtZNuc=   1.0000000   1.0000000   1.0000000   1.0000000   1.0000000   1.0000000   1.0000000   1.0000000   1.0000000   1.0000000

  Atom        81          82          83          84          85          86          87          88          89          90
 IAtWgt=           1           1           1           1           1           1           1           1           1           1
 AtmWgt=   1.0078250   1.0078250   1.0078250   1.0078250   1.0078250   1.0078250   1.0078250   1.0078250   1.0078250   1.0078250
 NucSpn=           1           1           1           1           1           1           1           1           1           1
 AtZEff=  -0.0000000  -0.0000000  -0.0000000  -0.0000000  -0.0000000  -0.0000000  -0.0000000  -0.0000000  -0.0000000  -0.0000000
 NQMom=    0.0000000   0.0000000   0.0000000   0.0000000   0.0000000   0.0000000   0.0000000   0.0000000   0.0000000   0.0000000
 NMagM=    2.7928460   2.7928460   2.7928460   2.7928460   2.7928460   2.7928460   2.7928460   2.7928460   2.7928460   2.7928460
 AtZNuc=   1.0000000   1.0000000   1.0000000   1.0000000   1.0000000   1.0000000   1.0000000   1.0000000   1.0000000   1.0000000

  Atom        91          92          93          94          95          96          97          98          99         100
 IAtWgt=           1           1           1           1           1           1           1           1           1           1
 AtmWgt=   1.0078250   1.0078250   1.0078250   1.0078250   1.0078250   1.0078250   1.0078250   1.0078250   1.0078250   1.0078250
 NucSpn=           1           1           1           1           1           1           1           1           1           1
 AtZEff=  -0.0000000  -0.0000000  -0.0000000  -0.0000000  -0.0000000  -0.0000000  -0.0000000  -0.0000000  -0.0000000  -0.0000000
 NQMom=    0.0000000   0.0000000   0.0000000   0.0000000   0.0000000   0.0000000   0.0000000   0.0000000   0.0000000   0.0000000
 NMagM=    2.7928460   2.7928460   2.7928460   2.7928460   2.7928460   2.7928460   2.7928460   2.7928460   2.7928460   2.7928460
 AtZNuc=   1.0000000   1.0000000   1.0000000   1.0000000   1.0000000   1.0000000   1.0000000   1.0000000   1.0000000   1.0000000

  Atom       101         102         103         104         105         106         107         108         109         110
 IAtWgt=           1           1           1           1           1           1           1           1           1           1
 AtmWgt=   1.0078250   1.0078250   1.0078250   1.0078250   1.0078250   1.0078250   1.0078250   1.0078250   1.0078250   1.0078250
 NucSpn=           1           1           1           1           1           1           1           1           1           1
 AtZEff=  -0.0000000  -0.0000000  -0.0000000  -0.0000000  -0.0000000  -0.0000000  -0.0000000  -0.0000000  -0.0000000  -0.0000000
 NQMom=    0.0000000   0.0000000   0.0000000   0.0000000   0.0000000   0.0000000   0.0000000   0.0000000   0.0000000   0.0000000
 NMagM=    2.7928460   2.7928460   2.7928460   2.7928460   2.7928460   2.7928460   2.7928460   2.7928460   2.7928460   2.7928460
 AtZNuc=   1.0000000   1.0000000   1.0000000   1.0000000   1.0000000   1.0000000   1.0000000   1.0000000   1.0000000   1.0000000

  Atom       111         112         113         114         115         116         117         118         119         120
 IAtWgt=           1           1           1           1           1           1           1           1           1           1
 AtmWgt=   1.0078250   1.0078250   1.0078250   1.0078250   1.0078250   1.0078250   1.0078250   1.0078250   1.0078250   1.0078250
 NucSpn=           1           1           1           1           1           1           1           1           1           1
 AtZEff=  -0.0000000  -0.0000000  -0.0000000  -0.0000000  -0.0000000  -0.0000000  -0.0000000  -0.0000000  -0.0000000  -0.0000000
 NQMom=    0.0000000   0.0000000   0.0000000   0.0000000   0.0000000   0.0000000   0.0000000   0.0000000   0.0000000   0.0000000
 NMagM=    2.7928460   2.7928460   2.7928460   2.7928460   2.7928460   2.7928460   2.7928460   2.7928460   2.7928460   2.7928460
 AtZNuc=   1.0000000   1.0000000   1.0000000   1.0000000   1.0000000   1.0000000   1.0000000   1.0000000   1.0000000   1.0000000

  Atom       121         122         123         124         125         126         127         128         129         130
 IAtWgt=           1           1           1           1           1           1           1           1           1           1
 AtmWgt=   1.0078250   1.0078250   1.0078250   1.0078250   1.0078250   1.0078250   1.0078250   1.0078250   1.0078250   1.0078250
 NucSpn=           1           1           1           1           1           1           1           1           1           1
 AtZEff=  -0.0000000  -0.0000000  -0.0000000  -0.0000000  -0.0000000  -0.0000000  -0.0000000  -0.0000000  -0.0000000  -0.0000000
 NQMom=    0.0000000   0.0000000   0.0000000   0.0000000   0.0000000   0.0000000   0.0000000   0.0000000   0.0000000   0.0000000
 NMagM=    2.7928460   2.7928460   2.7928460   2.7928460   2.7928460   2.7928460   2.7928460   2.7928460   2.7928460   2.7928460
 AtZNuc=   1.0000000   1.0000000   1.0000000   1.0000000   1.0000000   1.0000000   1.0000000   1.0000000   1.0000000   1.0000000

  Atom       131         132         133         134         135         136         137         138         139         140
 IAtWgt=           1           1           1           1           1           1           1           1           1           1
 AtmWgt=   1.0078250   1.0078250   1.0078250   1.0078250   1.0078250   1.0078250   1.0078250   1.0078250   1.0078250   1.0078250
 NucSpn=           1           1           1           1           1           1           1           1           1           1
 AtZEff=  -0.0000000  -0.0000000  -0.0000000  -0.0000000  -0.0000000  -0.0000000  -0.0000000  -0.0000000  -0.0000000  -0.0000000
 NQMom=    0.0000000   0.0000000   0.0000000   0.0000000   0.0000000   0.0000000   0.0000000   0.0000000   0.0000000   0.0000000
 NMagM=    2.7928460   2.7928460   2.7928460   2.7928460   2.7928460   2.7928460   2.7928460   2.7928460   2.7928460   2.7928460
 AtZNuc=   1.0000000   1.0000000   1.0000000   1.0000000   1.0000000   1.0000000   1.0000000   1.0000000   1.0000000   1.0000000
 Leave Link  101 at Thu May  5 07:59:47 2022, MaxMem= 10066329600 cpu:               4.5 elap:               0.2
 (Enter /sw/apps/gaussian-16.0/g16/l202.exe)
 Stoichiometry    C55H74MgN4O6
 Framework group  C1[X(C55H74MgN4O6)]
 Deg. of freedom   414
 Full point group                 C1      NOp   1
 Largest Abelian subgroup         C1      NOp   1
 Largest concise Abelian subgroup C1      NOp   1
                         Standard orientation:                         
 ---------------------------------------------------------------------
 Center     Atomic      Atomic             Coordinates (Angstroms)
 Number     Number       Type             X           Y           Z
 ---------------------------------------------------------------------
      1         12           0        6.272496    0.432299   -0.226828
      2          6           0        4.166888   -2.337402   -0.609147
      3          6           0        3.904608    2.339915   -1.718144
      4          6           0        8.137365    3.160700    0.671404
      5          6           0        8.780762   -1.711046    0.658833
      6          7           0        4.297117    0.042148   -1.032287
      7          6           0        3.576180   -1.116764   -1.070777
      8          6           0        2.115267   -0.895442   -1.520508
      9          6           0        2.286760    0.441293   -2.240864
     10          6           0        3.543588    1.008268   -1.604186
     11          6           0        2.556956    0.443562   -3.727217
     12          6           0        1.074794   -0.817790   -0.325730
     13          6           0       -0.383589   -0.523763   -0.683992
     14          6           0       -1.653322   -1.036165    0.093213
     15          8           0       -1.696347   -1.439843    1.241121
     16          8           0       -2.718869   -1.088114   -0.752303
     17          7           0        6.036225    2.449960   -0.500237
     18          6           0        4.982454    3.052844   -1.124135
     19          6           0        5.157504    4.505554   -1.001010
     20          6           0        6.404609    4.750571   -0.301122
     21          6           0        6.920178    3.416730   -0.005182
     22          6           0        4.233484    5.569253   -1.536955
     23          6           0        7.174729    6.055104   -0.052712
     24          8           0        8.196234    6.064267    0.577160
     25          6           0        6.768585    7.289867   -0.652782
     26          7           0        8.255593    0.729612    0.471712
     27          6           0        8.800448    1.907940    0.813661
     28          6           0       10.179273    1.663563    1.380272
     29          6           0       10.404802    0.117327    1.328444
     30          6           0        9.043305   -0.329670    0.894675
     31          6           0       11.320167    2.468537    0.768297
     32          6           0       10.935582   -0.661002    2.610971
     33          6           0       12.170197   -1.591738    2.430343
     34          7           0        6.542652   -1.621576   -0.221344
     35          6           0        7.604406   -2.311055    0.228589
     36          6           0        7.224345   -3.675282    0.254121
     37          6           0        5.890127   -3.755274   -0.005525
     38          6           0        5.519261   -2.474219   -0.302344
     39          6           0        8.044645   -4.836792    0.503627
     40          6           0        4.739253   -4.657605   -0.079024
     41          8           0        4.541809   -5.843856    0.158047
     42          6           0        3.537877   -3.758552   -0.498323
     43          6           0        2.586238   -3.838085    0.625496
     44          8           0        2.649102   -3.279116    1.682414
     45          8           0        1.564524   -4.611088    0.240244
     46          6           0        0.428718   -4.844033    1.087715
     47          6           0       -3.948242   -1.562562   -0.183591
     48          6           0       -5.136376   -1.220341   -1.075978
     49          6           0       -6.472187   -1.567321   -1.001516
     50          6           0       -7.069591   -2.532111    0.000370
     51          6           0       -7.361777   -1.249426   -2.179254
     52          6           0       -8.447638   -0.238351   -1.795401
     53          6           0       -9.829540   -0.402075   -2.514240
     54          6           0      -10.949772   -0.791229   -1.507350
     55          6           0      -12.113149   -1.494903   -2.223472
     56          6           0      -11.425151    0.359596   -0.611464
     57          6           0      -11.032655    0.220450    0.905260
     58          6           0      -10.563292    1.595069    1.574813
     59          6           0      -11.776926    2.287718    2.435580
     60          6           0      -11.283564    3.102050    3.678294
     61          6           0      -12.853702    2.952837    1.456461
     62          6           0      -14.298071    2.484798    1.786282
     63          6           0      -15.072339    1.842155    0.554259
     64          6           0      -15.482800    0.319093    0.731429
     65          6           0      -16.393695   -0.050196   -0.463309
     66          6           0      -16.138282    0.046160    2.103782
     67          1           0        3.114389    2.955923   -2.153090
     68          1           0        8.771784    3.936057    1.105511
     69          1           0        9.564963   -2.397089    0.985646
     70          1           0        1.792347   -1.705203   -2.175464
     71          1           0        1.392667    1.025620   -2.021923
     72          1           0        1.701196    0.795023   -4.304421
     73          1           0        2.808604   -0.583488   -3.992493
     74          1           0        3.321272    1.142519   -4.067091
     75          1           0        1.394036    0.086433    0.193490
     76          1           0        1.144285   -1.682677    0.334030
     77          1           0       -0.532790   -0.661592   -1.754803
     78          1           0       -0.642439    0.534294   -0.643811
     79          1           0        4.527206    6.248335   -2.337067
     80          1           0        4.027211    6.268615   -0.727536
     81          1           0        3.315409    5.084432   -1.868447
     82          1           0        6.433673    7.197722   -1.685325
     83          1           0        7.670802    7.884855   -0.788003
     84          1           0        6.022400    7.744269   -0.000271
     85          1           0       10.049089    1.998526    2.409245
     86          1           0       11.000473   -0.225147    0.482576
     87          1           0       10.842718    3.303329    0.256251
     88          1           0       11.846241    1.869338    0.025004
     89          1           0       11.943897    2.938488    1.529081
     90          1           0       10.120863   -1.158543    3.136061
     91          1           0       11.154627    0.131693    3.324960
     92          1           0       12.059416   -1.725684    1.354453
     93          1           0       12.156588   -2.552763    2.945375
     94          1           0       13.117564   -1.091445    2.631986
     95          1           0        7.472837   -5.395101    1.244655
     96          1           0        9.044764   -4.633607    0.887562
     97          1           0        8.038167   -5.372297   -0.445698
     98          1           0        2.929541   -4.137655   -1.319305
     99          1           0       -0.370702   -5.238833    0.460174
    100          1           0        0.077059   -3.896234    1.494504
    101          1           0        0.607054   -5.641158    1.809298
    102          1           0       -4.176654   -1.203409    0.819590
    103          1           0       -3.971049   -2.651007   -0.127563
    104          1           0       -4.928761   -0.549271   -1.909038
    105          1           0       -7.362599   -3.535946   -0.309149
    106          1           0       -7.911392   -1.980859    0.419275
    107          1           0       -6.308952   -2.745354    0.751464
    108          1           0       -7.719308   -2.144692   -2.688485
    109          1           0       -6.752630   -0.717530   -2.909646
    110          1           0       -8.081784    0.755043   -2.055052
    111          1           0       -8.588392   -0.103582   -0.722239
    112          1           0       -9.873664   -1.133551   -3.320320
    113          1           0      -10.022022    0.587914   -2.927789
    114          1           0      -10.439793   -1.485443   -0.840794
    115          1           0      -13.059879   -0.956416   -2.175300
    116          1           0      -12.305361   -2.401607   -1.650174
    117          1           0      -11.840485   -1.848520   -3.217266
    118          1           0      -12.494931    0.523810   -0.735996
    119          1           0      -11.014659    1.268906   -1.050189
    120          1           0      -10.338252   -0.589072    1.131534
    121          1           0      -12.019043    0.056599    1.338277
    122          1           0      -10.312916    2.231871    0.726353
    123          1           0       -9.585352    1.552097    2.054411
    124          1           0      -12.186479    1.428360    2.966661
    125          1           0      -11.603329    4.144155    3.699505
    126          1           0      -10.205050    3.023469    3.541981
    127          1           0      -11.426613    2.536915    4.599182
    128          1           0      -12.522385    2.763423    0.434932
    129          1           0      -12.784398    3.990515    1.781859
    130          1           0      -14.889155    3.329257    2.142257
    131          1           0      -14.260064    1.846440    2.668946
    132          1           0      -14.385219    1.900891   -0.289319
    133          1           0      -15.965082    2.429937    0.340695
    134          1           0      -14.535557   -0.219422    0.720590
    135          1           0      -17.024369   -0.894285   -0.182519
    136          1           0      -15.747062   -0.406735   -1.265209
    137          1           0      -17.068261    0.761716   -0.732417
    138          1           0      -15.407729   -0.392776    2.781750
    139          1           0      -16.925572   -0.706529    2.057487
    140          1           0      -16.521870    0.956590    2.564554
 ---------------------------------------------------------------------
 Rotational constants (GHZ):           0.0542130           0.0079057           0.0072513
 Leave Link  202 at Thu May  5 07:59:47 2022, MaxMem= 10066329600 cpu:               1.1 elap:               0.1
 (Enter /sw/apps/gaussian-16.0/g16/l301.exe)
 Standard basis: def2SVP (5D, 7F)
 Ernie: Thresh=  0.10000D-02 Tol=  0.10000D-05 Strict=F.
 There are  1364 symmetry adapted cartesian basis functions of A   symmetry.
 There are  1298 symmetry adapted basis functions of A   symmetry.
  1298 basis functions,  2180 primitive gaussians,  1364 cartesian basis functions
   246 alpha electrons      246 beta electrons
       nuclear repulsion energy      9353.5787811300 Hartrees.
 IExCor= 1009 DFT=T Ex+Corr=PBE1PBE ExCW=0 ScaHFX=  0.250000
 ScaDFX=  0.750000  0.750000  1.000000  1.000000 ScalE2=  1.000000  1.000000
 IRadAn=      5 IRanWt=     -1 IRanGd=            0 ICorTp=0 IEmpDi=  4
 NAtoms=  140 NActive=  140 NUniq=  140 SFac= 1.00D+00 NAtFMM=   60 NAOKFM=T Big=T
 Integral buffers will be    131072 words long.
 Regular integral format.
 Two-electron integral symmetry is turned on.
 Leave Link  301 at Thu May  5 07:59:47 2022, MaxMem= 10066329600 cpu:               2.3 elap:               0.1
 (Enter /sw/apps/gaussian-16.0/g16/l302.exe)
 NPDir=0 NMtPBC=     1 NCelOv=     1 NCel=       1 NClECP=     1 NCelD=      1
         NCelK=      1 NCelE2=     1 NClLst=     1 CellRange=     0.0.
 One-electron integrals computed using PRISM.
 One-electron integral symmetry used in STVInt
   1 Symmetry operations used in ECPInt.
 ECPInt:  NShTT=  192510 NPrTT=  683786 LenC2=   89372 LenP2D=  199311.
 LDataN:  DoStor=T MaxTD1= 4 Len=   56
 NBasis=  1298 RedAO= T EigKep=  2.59D-04  NBF=  1298
 NBsUse=  1298 1.00D-06 EigRej= -1.00D+00 NBFU=  1298
 Precomputing XC quadrature grid using
 IXCGrd= 4 IRadAn=           5 IRanWt=          -1 IRanGd=           0 AccXCQ= 0.00D+00.
 Generated NRdTot=       0 NPtTot=           0 NUsed=           0 NTot=          32
 NSgBfM=  1036  1013  1021  1027  1036 MxSgAt=   140 MxSgA2=   140.
 Leave Link  302 at Thu May  5 07:59:50 2022, MaxMem= 10066329600 cpu:              83.7 elap:               3.5
 (Enter /sw/apps/gaussian-16.0/g16/l303.exe)
 DipDrv:  MaxL=1.
 Leave Link  303 at Thu May  5 07:59:51 2022, MaxMem= 10066329600 cpu:               7.2 elap:               0.3
 (Enter /sw/apps/gaussian-16.0/g16/l308.exe)
 Leave Link  308 at Thu May  5 07:59:51 2022, MaxMem= 10066329600 cpu:              10.8 elap:               0.5
 (Enter /sw/apps/gaussian-16.0/g16/l401.exe)
 ExpMin= 3.36D-02 ExpMax= 4.95D+03 ExpMxC= 7.45D+02 IAcc=3 IRadAn=         5 AccDes= 0.00D+00
 Harris functional with IExCor= 1009 and IRadAn=       5 diagonalized for initial guess.
 HarFok:  IExCor= 1009 AccDes= 0.00D+00 IRadAn=         5 IDoV= 1 UseB2=F ITyADJ=14
 ICtDFT=  3500011 ScaDFX=  1.000000  1.000000  1.000000  1.000000
 FoFCou: FMM=F IPFlag=           0 FMFlag=      100000 FMFlg1=        2001
         NFxFlg=           0 DoJE=T BraDBF=F KetDBF=T FulRan=T
         wScrn=  0.000000 ICntrl=       500 IOpCl=  0 I1Cent=   200000004 NGrid=           0
         NMat0=    1 NMatS0=      1 NMatT0=    0 NMatD0=    1 NMtDS0=    0 NMtDT0=    0
 Petite list used in FoFCou.
 Harris En= -3006.14899331335    
 JPrj=0 DoOrth=F DoCkMO=F.
 Leave Link  401 at Thu May  5 07:59:58 2022, MaxMem= 10066329600 cpu:             153.3 elap:               6.4
 (Enter /sw/apps/gaussian-16.0/g16/l502.exe)
 Integral symmetry usage will be decided dynamically.
 Closed shell SCF:
 Using DIIS extrapolation, IDIIS=  1040.
 NGot= 10066329600 LenX= 10062561258 LenY= 10060699398
 Requested convergence on RMS density matrix=1.00D-08 within 128 cycles.
 Requested convergence on MAX density matrix=1.00D-06.
 Requested convergence on             energy=1.00D-06.
 No special actions if energy rises.
 Fock matrices will be formed incrementally for  20 cycles.

 Cycle   1  Pass 1  IDiag  1:
 FoFJK:  IHMeth= 1 ICntrl=       0 DoSepK=F KAlg= 0 I1Cent=           0 FoldK=F
 IRaf= 500000000 NMat=       1 IRICut=       1 DoRegI=T DoRafI=F ISym2E= 0 IDoP0=0 IntGTp=1.
 FoFCou: FMM=T IPFlag=           0 FMFlag=      100000 FMFlg1=        2001
         NFxFlg=           0 DoJE=F BraDBF=F KetDBF=F FulRan=T
         wScrn=  0.000000 ICntrl=         0 IOpCl=  0 I1Cent=           0 NGrid=           0
         NMat0=    1 NMatS0=      1 NMatT0=    0 NMatD0=    1 NMtDS0=    0 NMtDT0=    0
 Symmetry not used in FoFCou.
 FMM levels:  10  Number of levels for PrismC:   9
 E= -3003.83451393855    
 DIIS: error= 1.86D-02 at cycle   1 NSaved=   1.
 NSaved= 1 IEnMin= 1 EnMin= -3003.83451393855     IErMin= 1 ErrMin= 1.86D-02
 ErrMax= 1.86D-02  0.00D+00 EMaxC= 1.00D-01 BMatC= 1.45D+00 BMatP= 1.45D+00
 IDIUse=3 WtCom= 8.14D-01 WtEn= 1.86D-01
 Coeff-Com:  0.100D+01
 Coeff-En:   0.100D+01
 Coeff:      0.100D+01
 Gap=     0.085 Goal=   None    Shift=    0.000
 GapD=    0.085 DampG=0.500 DampE=0.500 DampFc=0.2500 IDamp=-1.
 Damping current iteration by 2.50D-01
 RMSDP=2.74D-03 MaxDP=7.00D-01              OVMax= 2.94D-01

 Cycle   2  Pass 1  IDiag  1:
 RMSU=  6.78D-04    CP:  9.90D-01
 E= -3004.37875329553     Delta-E=       -0.544239356983 Rises=F Damp=T
 DIIS: error= 8.73D-03 at cycle   2 NSaved=   2.
 NSaved= 2 IEnMin= 2 EnMin= -3004.37875329553     IErMin= 2 ErrMin= 8.73D-03
 ErrMax= 8.73D-03  0.00D+00 EMaxC= 1.00D-01 BMatC= 3.68D-01 BMatP= 1.45D+00
 IDIUse=3 WtCom= 9.13D-01 WtEn= 8.73D-02
 Coeff-Com: -0.795D+00 0.180D+01
 Coeff-En:   0.000D+00 0.100D+01
 Coeff:     -0.726D+00 0.173D+01
 Gap=     0.178 Goal=   None    Shift=    0.000
 RMSDP=1.01D-03 MaxDP=6.75D-02 DE=-5.44D-01 OVMax= 2.66D-01

 Cycle   3  Pass 1  IDiag  1:
 RMSU=  8.41D-04    CP:  9.64D-01  1.75D+00
 E= -3005.20905171842     Delta-E=       -0.830298422894 Rises=F Damp=F
 DIIS: error= 1.28D-02 at cycle   3 NSaved=   3.
 NSaved= 3 IEnMin= 3 EnMin= -3005.20905171842     IErMin= 2 ErrMin= 8.73D-03
 ErrMax= 1.28D-02  0.00D+00 EMaxC= 1.00D-01 BMatC= 1.55D-01 BMatP= 3.68D-01
 IDIUse=3 WtCom= 8.72D-01 WtEn= 1.28D-01
 Coeff-Com: -0.502D+00 0.105D+01 0.450D+00
 Coeff-En:   0.000D+00 0.000D+00 0.100D+01
 Coeff:     -0.438D+00 0.919D+00 0.520D+00
 Gap=     0.076 Goal=   None    Shift=    0.000
 RMSDP=5.87D-04 MaxDP=7.19D-02 DE=-8.30D-01 OVMax= 2.61D-01

 Cycle   4  Pass 1  IDiag  1:
 RMSU=  4.04D-04    CP:  9.69D-01  1.98D+00  5.32D-01
 E= -3005.30657621854     Delta-E=       -0.097524500114 Rises=F Damp=F
 DIIS: error= 6.60D-03 at cycle   4 NSaved=   4.
 NSaved= 4 IEnMin= 4 EnMin= -3005.30657621854     IErMin= 4 ErrMin= 6.60D-03
 ErrMax= 6.60D-03  0.00D+00 EMaxC= 1.00D-01 BMatC= 4.57D-02 BMatP= 1.55D-01
 IDIUse=3 WtCom= 9.34D-01 WtEn= 6.60D-02
 Coeff-Com: -0.121D+00 0.259D+00 0.348D+00 0.515D+00
 Coeff-En:   0.000D+00 0.000D+00 0.296D+00 0.704D+00
 Coeff:     -0.113D+00 0.242D+00 0.344D+00 0.527D+00
 Gap=     0.075 Goal=   None    Shift=    0.000
 RMSDP=3.35D-04 MaxDP=3.10D-02 DE=-9.75D-02 OVMax= 2.10D-01

 Cycle   5  Pass 1  IDiag  1:
 RMSU=  1.76D-04    CP:  9.68D-01  1.87D+00  7.18D-01  4.40D-01
 E= -3005.34231540006     Delta-E=       -0.035739181525 Rises=F Damp=F
 DIIS: error= 2.19D-03 at cycle   5 NSaved=   5.
 NSaved= 5 IEnMin= 5 EnMin= -3005.34231540006     IErMin= 5 ErrMin= 2.19D-03
 ErrMax= 2.19D-03  0.00D+00 EMaxC= 1.00D-01 BMatC= 9.87D-03 BMatP= 4.57D-02
 IDIUse=3 WtCom= 9.78D-01 WtEn= 2.19D-02
 Coeff-Com: -0.309D-01 0.690D-01 0.210D+00 0.402D+00 0.350D+00
 Coeff-En:   0.000D+00 0.000D+00 0.000D+00 0.250D+00 0.750D+00
 Coeff:     -0.302D-01 0.675D-01 0.206D+00 0.398D+00 0.359D+00
 Gap=     0.076 Goal=   None    Shift=    0.000
 RMSDP=1.59D-04 MaxDP=1.19D-02 DE=-3.57D-02 OVMax= 1.16D-01

 Cycle   6  Pass 1  IDiag  1:
 RMSU=  5.60D-05    CP:  9.68D-01  1.87D+00  6.85D-01  6.18D-01  2.76D-01
 E= -3005.35573990365     Delta-E=       -0.013424503588 Rises=F Damp=F
 DIIS: error= 5.87D-04 at cycle   6 NSaved=   6.
 NSaved= 6 IEnMin= 6 EnMin= -3005.35573990365     IErMin= 6 ErrMin= 5.87D-04
 ErrMax= 5.87D-04  0.00D+00 EMaxC= 1.00D-01 BMatC= 7.08D-04 BMatP= 9.87D-03
 IDIUse=3 WtCom= 9.94D-01 WtEn= 5.87D-03
 Coeff-Com:  0.263D-03 0.156D-02 0.724D-01 0.166D+00 0.237D+00 0.523D+00
 Coeff-En:   0.000D+00 0.000D+00 0.000D+00 0.000D+00 0.691D-01 0.931D+00
 Coeff:      0.261D-03 0.156D-02 0.720D-01 0.165D+00 0.236D+00 0.526D+00
 Gap=     0.077 Goal=   None    Shift=    0.000
 RMSDP=4.17D-05 MaxDP=4.03D-03 DE=-1.34D-02 OVMax= 2.85D-02

 Cycle   7  Pass 1  IDiag  1:
 RMSU=  2.38D-05    CP:  9.68D-01  1.87D+00  6.92D-01  5.97D-01  4.07D-01
                    CP:  5.89D-01
 E= -3005.35651391211     Delta-E=       -0.000774008457 Rises=F Damp=F
 DIIS: error= 2.31D-04 at cycle   7 NSaved=   7.
 NSaved= 7 IEnMin= 7 EnMin= -3005.35651391211     IErMin= 7 ErrMin= 2.31D-04
 ErrMax= 2.31D-04  0.00D+00 EMaxC= 1.00D-01 BMatC= 1.15D-04 BMatP= 7.08D-04
 IDIUse=3 WtCom= 9.98D-01 WtEn= 2.31D-03
 Coeff-Com:  0.342D-02-0.635D-02 0.212D-01 0.562D-01 0.109D+00 0.350D+00
 Coeff-Com:  0.467D+00
 Coeff-En:   0.000D+00 0.000D+00 0.000D+00 0.000D+00 0.000D+00 0.140D+00
 Coeff-En:   0.860D+00
 Coeff:      0.342D-02-0.634D-02 0.212D-01 0.560D-01 0.108D+00 0.349D+00
 Coeff:      0.468D+00
 Gap=     0.077 Goal=   None    Shift=    0.000
 RMSDP=1.82D-05 MaxDP=1.97D-03 DE=-7.74D-04 OVMax= 9.98D-03

 Cycle   8  Pass 1  IDiag  1:
 RMSU=  1.04D-05    CP:  9.68D-01  1.87D+00  6.94D-01  5.98D-01  3.92D-01
                    CP:  6.94D-01  4.38D-01
 E= -3005.35662359775     Delta-E=       -0.000109685643 Rises=F Damp=F
 DIIS: error= 1.52D-04 at cycle   8 NSaved=   8.
 NSaved= 8 IEnMin= 8 EnMin= -3005.35662359775     IErMin= 8 ErrMin= 1.52D-04
 ErrMax= 1.52D-04  0.00D+00 EMaxC= 1.00D-01 BMatC= 2.51D-05 BMatP= 1.15D-04
 IDIUse=3 WtCom= 9.98D-01 WtEn= 1.52D-03
 Coeff-Com:  0.208D-02-0.413D-02 0.410D-02 0.140D-01 0.398D-01 0.168D+00
 Coeff-Com:  0.346D+00 0.431D+00
 Coeff-En:   0.000D+00 0.000D+00 0.000D+00 0.000D+00 0.000D+00 0.000D+00
 Coeff-En:   0.227D+00 0.773D+00
 Coeff:      0.208D-02-0.412D-02 0.409D-02 0.139D-01 0.397D-01 0.168D+00
 Coeff:      0.345D+00 0.431D+00
 Gap=     0.077 Goal=   None    Shift=    0.000
 RMSDP=7.53D-06 MaxDP=6.42D-04 DE=-1.10D-04 OVMax= 4.19D-03

 Cycle   9  Pass 1  IDiag  1:
 RMSU=  3.10D-06    CP:  9.68D-01  1.87D+00  6.93D-01  6.00D-01  3.96D-01
                    CP:  6.75D-01  5.90D-01  4.59D-01
 E= -3005.35665495251     Delta-E=       -0.000031354755 Rises=F Damp=F
 DIIS: error= 4.73D-05 at cycle   9 NSaved=   9.
 NSaved= 9 IEnMin= 9 EnMin= -3005.35665495251     IErMin= 9 ErrMin= 4.73D-05
 ErrMax= 4.73D-05  0.00D+00 EMaxC= 1.00D-01 BMatC= 2.01D-06 BMatP= 2.51D-05
 IDIUse=1 WtCom= 1.00D+00 WtEn= 0.00D+00
 Coeff-Com:  0.763D-03-0.153D-02-0.264D-03 0.770D-03 0.977D-02 0.577D-01
 Coeff-Com:  0.158D+00 0.272D+00 0.504D+00
 Coeff:      0.763D-03-0.153D-02-0.264D-03 0.770D-03 0.977D-02 0.577D-01
 Coeff:      0.158D+00 0.272D+00 0.504D+00
 Gap=     0.077 Goal=   None    Shift=    0.000
 RMSDP=2.07D-06 MaxDP=3.49D-04 DE=-3.14D-05 OVMax= 8.71D-04

 Cycle  10  Pass 1  IDiag  1:
 RMSU=  1.39D-06    CP:  9.68D-01  1.87D+00  6.93D-01  6.00D-01  3.96D-01
                    CP:  6.87D-01  5.85D-01  5.35D-01  6.65D-01
 E= -3005.35665685414     Delta-E=       -0.000001901635 Rises=F Damp=F
 DIIS: error= 1.32D-05 at cycle  10 NSaved=  10.
 NSaved=10 IEnMin=10 EnMin= -3005.35665685414     IErMin=10 ErrMin= 1.32D-05
 ErrMax= 1.32D-05  0.00D+00 EMaxC= 1.00D-01 BMatC= 2.94D-07 BMatP= 2.01D-06
 IDIUse=1 WtCom= 1.00D+00 WtEn= 0.00D+00
 Coeff-Com:  0.149D-03-0.287D-03-0.671D-03-0.158D-02 0.141D-03 0.107D-01
 Coeff-Com:  0.477D-01 0.109D+00 0.316D+00 0.519D+00
 Coeff:      0.149D-03-0.287D-03-0.671D-03-0.158D-02 0.141D-03 0.107D-01
 Coeff:      0.477D-01 0.109D+00 0.316D+00 0.519D+00
 Gap=     0.077 Goal=   None    Shift=    0.000
 RMSDP=7.50D-07 MaxDP=7.80D-05 DE=-1.90D-06 OVMax= 3.15D-04

 Cycle  11  Pass 1  IDiag  1:
 RMSU=  4.68D-07    CP:  9.68D-01  1.87D+00  6.93D-01  6.00D-01  3.96D-01
                    CP:  6.86D-01  5.88D-01  5.32D-01  7.49D-01  6.30D-01
 E= -3005.35665714294     Delta-E=       -0.000000288795 Rises=F Damp=F
 DIIS: error= 4.66D-06 at cycle  11 NSaved=  11.
 NSaved=11 IEnMin=11 EnMin= -3005.35665714294     IErMin=11 ErrMin= 4.66D-06
 ErrMax= 4.66D-06  0.00D+00 EMaxC= 1.00D-01 BMatC= 4.76D-08 BMatP= 2.94D-07
 IDIUse=1 WtCom= 1.00D+00 WtEn= 0.00D+00
 Coeff-Com:  0.195D-05 0.108D-04-0.418D-03-0.123D-02-0.143D-02-0.163D-02
 Coeff-Com:  0.823D-02 0.328D-01 0.126D+00 0.335D+00 0.503D+00
 Coeff:      0.195D-05 0.108D-04-0.418D-03-0.123D-02-0.143D-02-0.163D-02
 Coeff:      0.823D-02 0.328D-01 0.126D+00 0.335D+00 0.503D+00
 Gap=     0.077 Goal=   None    Shift=    0.000
 RMSDP=2.86D-07 MaxDP=2.20D-05 DE=-2.89D-07 OVMax= 1.17D-04

 Cycle  12  Pass 1  IDiag  1:
 RMSU=  1.74D-07    CP:  9.68D-01  1.87D+00  6.93D-01  6.00D-01  3.96D-01
                    CP:  6.87D-01  5.90D-01  5.42D-01  7.50D-01  7.33D-01
                    CP:  7.23D-01
 E= -3005.35665719389     Delta-E=       -0.000000050952 Rises=F Damp=F
 DIIS: error= 2.00D-06 at cycle  12 NSaved=  12.
 NSaved=12 IEnMin=12 EnMin= -3005.35665719389     IErMin=12 ErrMin= 2.00D-06
 ErrMax= 2.00D-06  0.00D+00 EMaxC= 1.00D-01 BMatC= 3.67D-09 BMatP= 4.76D-08
 IDIUse=1 WtCom= 1.00D+00 WtEn= 0.00D+00
 Coeff-Com: -0.486D-05 0.218D-04-0.131D-03-0.450D-03-0.741D-03-0.222D-02
 Coeff-Com: -0.138D-02 0.445D-02 0.244D-01 0.116D+00 0.263D+00 0.597D+00
 Coeff:     -0.486D-05 0.218D-04-0.131D-03-0.450D-03-0.741D-03-0.222D-02
 Coeff:     -0.138D-02 0.445D-02 0.244D-01 0.116D+00 0.263D+00 0.597D+00
 Gap=     0.077 Goal=   None    Shift=    0.000
 RMSDP=1.01D-07 MaxDP=1.90D-05 DE=-5.10D-08 OVMax= 3.35D-05

 Cycle  13  Pass 1  IDiag  1:
 RMSU=  6.84D-08    CP:  9.68D-01  1.87D+00  6.93D-01  6.00D-01  3.96D-01
                    CP:  6.87D-01  5.90D-01  5.43D-01  7.59D-01  7.41D-01
                    CP:  8.13D-01  7.86D-01
 E= -3005.35665719758     Delta-E=       -0.000000003689 Rises=F Damp=F
 DIIS: error= 6.62D-07 at cycle  13 NSaved=  13.
 NSaved=13 IEnMin=13 EnMin= -3005.35665719758     IErMin=13 ErrMin= 6.62D-07
 ErrMax= 6.62D-07  0.00D+00 EMaxC= 1.00D-01 BMatC= 1.00D-09 BMatP= 3.67D-09
 IDIUse=1 WtCom= 1.00D+00 WtEn= 0.00D+00
 Coeff-Com: -0.217D-05 0.108D-04-0.416D-05-0.606D-04-0.223D-03-0.124D-02
 Coeff-Com: -0.269D-02-0.363D-02-0.110D-01 0.916D-02 0.658D-01 0.382D+00
 Coeff-Com:  0.562D+00
 Coeff:     -0.217D-05 0.108D-04-0.416D-05-0.606D-04-0.223D-03-0.124D-02
 Coeff:     -0.269D-02-0.363D-02-0.110D-01 0.916D-02 0.658D-01 0.382D+00
 Coeff:      0.562D+00
 Gap=     0.077 Goal=   None    Shift=    0.000
 RMSDP=4.26D-08 MaxDP=4.00D-06 DE=-3.69D-09 OVMax= 1.93D-05

 Cycle  14  Pass 1  IDiag  1:
 RMSU=  2.70D-08    CP:  9.68D-01  1.87D+00  6.93D-01  6.00D-01  3.96D-01
                    CP:  6.87D-01  5.90D-01  5.43D-01  7.62D-01  7.54D-01
                    CP:  8.18D-01  8.91D-01  7.82D-01
 E= -3005.35665719831     Delta-E=       -0.000000000731 Rises=F Damp=F
 DIIS: error= 2.21D-07 at cycle  14 NSaved=  14.
 NSaved=14 IEnMin=14 EnMin= -3005.35665719831     IErMin=14 ErrMin= 2.21D-07
 ErrMax= 2.21D-07  0.00D+00 EMaxC= 1.00D-01 BMatC= 1.14D-10 BMatP= 1.00D-09
 IDIUse=1 WtCom= 1.00D+00 WtEn= 0.00D+00
 Coeff-Com:  0.139D-05-0.386D-06 0.189D-04 0.368D-04-0.676D-05-0.391D-03
 Coeff-Com: -0.137D-02-0.281D-02-0.110D-01-0.132D-01-0.496D-02 0.127D+00
 Coeff-Com:  0.317D+00 0.590D+00
 Coeff:      0.139D-05-0.386D-06 0.189D-04 0.368D-04-0.676D-05-0.391D-03
 Coeff:     -0.137D-02-0.281D-02-0.110D-01-0.132D-01-0.496D-02 0.127D+00
 Coeff:      0.317D+00 0.590D+00
 Gap=     0.077 Goal=   None    Shift=    0.000
 RMSDP=1.64D-08 MaxDP=2.42D-06 DE=-7.31D-10 OVMax= 5.83D-06

 Cycle  15  Pass 1  IDiag  1:
 RMSU=  1.09D-08    CP:  9.68D-01  1.87D+00  6.93D-01  6.00D-01  3.96D-01
                    CP:  6.87D-01  5.91D-01  5.44D-01  7.62D-01  7.56D-01
                    CP:  8.31D-01  9.19D-01  8.53D-01  8.42D-01
 E= -3005.35665719841     Delta-E=       -0.000000000100 Rises=F Damp=F
 DIIS: error= 8.76D-08 at cycle  15 NSaved=  15.
 NSaved=15 IEnMin=15 EnMin= -3005.35665719841     IErMin=15 ErrMin= 8.76D-08
 ErrMax= 8.76D-08  0.00D+00 EMaxC= 1.00D-01 BMatC= 1.46D-11 BMatP= 1.14D-10
 IDIUse=1 WtCom= 1.00D+00 WtEn= 0.00D+00
 Coeff-Com:  0.125D-05-0.180D-05 0.101D-04 0.235D-04 0.256D-04-0.506D-04
 Coeff-Com: -0.343D-03-0.827D-03-0.409D-02-0.693D-02-0.904D-02 0.201D-01
 Coeff-Com:  0.896D-01 0.316D+00 0.596D+00
 Coeff:      0.125D-05-0.180D-05 0.101D-04 0.235D-04 0.256D-04-0.506D-04
 Coeff:     -0.343D-03-0.827D-03-0.409D-02-0.693D-02-0.904D-02 0.201D-01
 Coeff:      0.896D-01 0.316D+00 0.596D+00
 Gap=     0.077 Goal=   None    Shift=    0.000
 RMSDP=5.42D-09 MaxDP=4.60D-07 DE=-1.00D-10 OVMax= 2.42D-06

 SCF Done:  E(RPBE1PBE) =  -3005.35665720     A.U. after   15 cycles
            NFock= 15  Conv=0.54D-08     -V/T= 2.0100
 KE= 2.975510677740D+03 PE=-2.569850913626D+04 EE= 1.036406302019D+04
 Leave Link  502 at Thu May  5 08:05:39 2022, MaxMem= 10066329600 cpu:            8163.3 elap:             341.7
 (Enter /sw/apps/gaussian-16.0/g16/l801.exe)
 DoSCS=F DFT=T ScalE2(SS,OS)=  1.000000  1.000000
 ExpMin= 3.36D-02 ExpMax= 4.95D+03 ExpMxC= 7.45D+02 IAcc=3 IRadAn=         5 AccDes= 0.00D+00
 HarFok:  IExCor=  205 AccDes= 0.00D+00 IRadAn=         5 IDoV=-2 UseB2=F ITyADJ=14
 ICtDFT= 12500011 ScaDFX=  1.000000  1.000000  1.000000  1.000000
 GSVD:  LWork=       -5460 too small for GESVD, short by       25550 words or       25550 for optimal perf.
 Largest valence mixing into a core orbital is  1.67D-04
 Largest core mixing into a valence orbital is  5.69D-05
 Range of M.O.s used for correlation:    71  1298
 NBasis=  1298 NAE=   246 NBE=   246 NFC=    70 NFV=     0
 NROrb=   1228 NOA=   176 NOB=   176 NVA=  1052 NVB=  1052

 **** Warning!!: The smallest alpha delta epsilon is  0.77229725D-01

 Leave Link  801 at Thu May  5 08:05:40 2022, MaxMem= 10066329600 cpu:               8.3 elap:               0.4
 (Enter /sw/apps/gaussian-16.0/g16/l914.exe)
 RHF ground state
 Two-electron integrals replicated using symmetry.
 MDV= 10066329600 DFT=T DoStab=F Mixed=T DoRPA=T DoScal=F NonHer=T
 Making orbital integer symmetry assigments:
 Orbital symmetries:
       Occupied  (A) (A) (A) (A) (A) (A) (A) (A) (A) (A) (A) (A)
                 (A) (A) (A) (A) (A) (A) (A) (A) (A) (A) (A) (A)
                 (A) (A) (A) (A) (A) (A) (A) (A) (A) (A) (A) (A)
                 (A) (A) (A) (A) (A) (A) (A) (A) (A) (A) (A) (A)
                 (A) (A) (A) (A) (A) (A) (A) (A) (A) (A) (A) (A)
                 (A) (A) (A) (A) (A) (A) (A) (A) (A) (A) (A) (A)
                 (A) (A) (A) (A) (A) (A) (A) (A) (A) (A) (A) (A)
                 (A) (A) (A) (A) (A) (A) (A) (A) (A) (A) (A) (A)
                 (A) (A) (A) (A) (A) (A) (A) (A) (A) (A) (A) (A)
                 (A) (A) (A) (A) (A) (A) (A) (A) (A) (A) (A) (A)
                 (A) (A) (A) (A) (A) (A) (A) (A) (A) (A) (A) (A)
                 (A) (A) (A) (A) (A) (A) (A) (A) (A) (A) (A) (A)
                 (A) (A) (A) (A) (A) (A) (A) (A) (A) (A) (A) (A)
                 (A) (A) (A) (A) (A) (A) (A) (A) (A) (A) (A) (A)
                 (A) (A) (A) (A) (A) (A) (A) (A) (A) (A) (A) (A)
                 (A) (A) (A) (A) (A) (A) (A) (A) (A) (A) (A) (A)
                 (A) (A) (A) (A) (A) (A) (A) (A) (A) (A) (A) (A)
                 (A) (A) (A) (A) (A) (A) (A) (A) (A) (A) (A) (A)
                 (A) (A) (A) (A) (A) (A) (A) (A) (A) (A) (A) (A)
                 (A) (A) (A) (A) (A) (A) (A) (A) (A) (A) (A) (A)
                 (A) (A) (A) (A) (A) (A)
       Virtual   (A) (A) (A) (A) (A) (A) (A) (A) (A) (A) (A) (A)
                 (A) (A) (A) (A) (A) (A) (A) (A) (A) (A) (A) (A)
                 (A) (A) (A) (A) (A) (A) (A) (A) (A) (A) (A) (A)
                 (A) (A) (A) (A) (A) (A) (A) (A) (A) (A) (A) (A)
                 (A) (A) (A) (A) (A) (A) (A) (A) (A) (A) (A) (A)
                 (A) (A) (A) (A) (A) (A) (A) (A) (A) (A) (A) (A)
                 (A) (A) (A) (A) (A) (A) (A) (A) (A) (A) (A) (A)
                 (A) (A) (A) (A) (A) (A) (A) (A) (A) (A) (A) (A)
                 (A) (A) (A) (A) (A) (A) (A) (A) (A) (A) (A) (A)
                 (A) (A) (A) (A) (A) (A) (A) (A) (A) (A) (A) (A)
                 (A) (A) (A) (A) (A) (A) (A) (A) (A) (A) (A) (A)
                 (A) (A) (A) (A) (A) (A) (A) (A) (A) (A) (A) (A)
                 (A) (A) (A) (A) (A) (A) (A) (A) (A) (A) (A) (A)
                 (A) (A) (A) (A) (A) (A) (A) (A) (A) (A) (A) (A)
                 (A) (A) (A) (A) (A) (A) (A) (A) (A) (A) (A) (A)
                 (A) (A) (A) (A) (A) (A) (A) (A) (A) (A) (A) (A)
                 (A) (A) (A) (A) (A) (A) (A) (A) (A) (A) (A) (A)
                 (A) (A) (A) (A) (A) (A) (A) (A) (A) (A) (A) (A)
                 (A) (A) (A) (A) (A) (A) (A) (A) (A) (A) (A) (A)
                 (A) (A) (A) (A) (A) (A) (A) (A) (A) (A) (A) (A)
                 (A) (A) (A) (A) (A) (A) (A) (A) (A) (A) (A) (A)
                 (A) (A) (A) (A) (A) (A) (A) (A) (A) (A) (A) (A)
                 (A) (A) (A) (A) (A) (A) (A) (A) (A) (A) (A) (A)
                 (A) (A) (A) (A) (A) (A) (A) (A) (A) (A) (A) (A)
                 (A) (A) (A) (A) (A) (A) (A) (A) (A) (A) (A) (A)
                 (A) (A) (A) (A) (A) (A) (A) (A) (A) (A) (A) (A)
                 (A) (A) (A) (A) (A) (A) (A) (A) (A) (A) (A) (A)
                 (A) (A) (A) (A) (A) (A) (A) (A) (A) (A) (A) (A)
                 (A) (A) (A) (A) (A) (A) (A) (A) (A) (A) (A) (A)
                 (A) (A) (A) (A) (A) (A) (A) (A) (A) (A) (A) (A)
                 (A) (A) (A) (A) (A) (A) (A) (A) (A) (A) (A) (A)
                 (A) (A) (A) (A) (A) (A) (A) (A) (A) (A) (A) (A)
                 (A) (A) (A) (A) (A) (A) (A) (A) (A) (A) (A) (A)
                 (A) (A) (A) (A) (A) (A) (A) (A) (A) (A) (A) (A)
                 (A) (A) (A) (A) (A) (A) (A) (A) (A) (A) (A) (A)
                 (A) (A) (A) (A) (A) (A) (A) (A) (A) (A) (A) (A)
                 (A) (A) (A) (A) (A) (A) (A) (A) (A) (A) (A) (A)
                 (A) (A) (A) (A) (A) (A) (A) (A) (A) (A) (A) (A)
                 (A) (A) (A) (A) (A) (A) (A) (A) (A) (A) (A) (A)
                 (A) (A) (A) (A) (A) (A) (A) (A) (A) (A) (A) (A)
                 (A) (A) (A) (A) (A) (A) (A) (A) (A) (A) (A) (A)
                 (A) (A) (A) (A) (A) (A) (A) (A) (A) (A) (A) (A)
                 (A) (A) (A) (A) (A) (A) (A) (A) (A) (A) (A) (A)
                 (A) (A) (A) (A) (A) (A) (A) (A) (A) (A) (A) (A)
                 (A) (A) (A) (A) (A) (A) (A) (A) (A) (A) (A) (A)
                 (A) (A) (A) (A) (A) (A) (A) (A) (A) (A) (A) (A)
                 (A) (A) (A) (A) (A) (A) (A) (A) (A) (A) (A) (A)
                 (A) (A) (A) (A) (A) (A) (A) (A) (A) (A) (A) (A)
                 (A) (A) (A) (A) (A) (A) (A) (A) (A) (A) (A) (A)
                 (A) (A) (A) (A) (A) (A) (A) (A) (A) (A) (A) (A)
                 (A) (A) (A) (A) (A) (A) (A) (A) (A) (A) (A) (A)
                 (A) (A) (A) (A) (A) (A) (A) (A) (A) (A) (A) (A)
                 (A) (A) (A) (A) (A) (A) (A) (A) (A) (A) (A) (A)
                 (A) (A) (A) (A) (A) (A) (A) (A) (A) (A) (A) (A)
                 (A) (A) (A) (A) (A) (A) (A) (A) (A) (A) (A) (A)
                 (A) (A) (A) (A) (A) (A) (A) (A) (A) (A) (A) (A)
                 (A) (A) (A) (A) (A) (A) (A) (A) (A) (A) (A) (A)
                 (A) (A) (A) (A) (A) (A) (A) (A) (A) (A) (A) (A)
                 (A) (A) (A) (A) (A) (A) (A) (A) (A) (A) (A) (A)
                 (A) (A) (A) (A) (A) (A) (A) (A) (A) (A) (A) (A)
                 (A) (A) (A) (A) (A) (A) (A) (A) (A) (A) (A) (A)
                 (A) (A) (A) (A) (A) (A) (A) (A) (A) (A) (A) (A)
                 (A) (A) (A) (A) (A) (A) (A) (A) (A) (A) (A) (A)
                 (A) (A) (A) (A) (A) (A) (A) (A) (A) (A) (A) (A)
                 (A) (A) (A) (A) (A) (A) (A) (A) (A) (A) (A) (A)
                 (A) (A) (A) (A) (A) (A) (A) (A) (A) (A) (A) (A)
                 (A) (A) (A) (A) (A) (A) (A) (A) (A) (A) (A) (A)
                 (A) (A) (A) (A) (A) (A) (A) (A) (A) (A) (A) (A)
                 (A) (A) (A) (A) (A) (A) (A) (A) (A) (A) (A) (A)
                 (A) (A) (A) (A) (A) (A) (A) (A) (A) (A) (A) (A)
                 (A) (A) (A) (A) (A) (A) (A) (A) (A) (A) (A) (A)
                 (A) (A) (A) (A) (A) (A) (A) (A) (A) (A) (A) (A)
                 (A) (A) (A) (A) (A) (A) (A) (A) (A) (A) (A) (A)
                 (A) (A) (A) (A) (A) (A) (A) (A) (A) (A) (A) (A)
                 (A) (A) (A) (A) (A) (A) (A) (A) (A) (A) (A) (A)
                 (A) (A) (A) (A) (A) (A) (A) (A) (A) (A) (A) (A)
                 (A) (A) (A) (A) (A) (A) (A) (A) (A) (A) (A) (A)
                 (A) (A) (A) (A) (A) (A) (A) (A) (A) (A) (A) (A)
                 (A) (A) (A) (A) (A) (A) (A) (A) (A) (A) (A) (A)
                 (A) (A) (A) (A) (A) (A) (A) (A) (A) (A) (A) (A)
                 (A) (A) (A) (A) (A) (A) (A) (A) (A) (A) (A) (A)
                 (A) (A) (A) (A) (A) (A) (A) (A) (A) (A) (A) (A)
                 (A) (A) (A) (A) (A) (A) (A) (A) (A) (A) (A) (A)
                 (A) (A) (A) (A) (A) (A) (A) (A) (A) (A) (A) (A)
                 (A) (A) (A) (A) (A) (A) (A) (A) (A) (A) (A) (A)
                 (A) (A) (A) (A) (A) (A) (A) (A) (A) (A) (A) (A)
                 (A) (A) (A) (A) (A) (A) (A) (A) (A) (A) (A) (A)
                 (A) (A) (A) (A) (A) (A) (A) (A)
    20 initial guesses have been made.
 Convergence on wavefunction:    0.001000000000000
 Davidson Disk Diagonalization:  ConvIn= 1.00D-03 SkipCon=T Conv= 1.00D-03.
 Max sub-space:  2000 roots to seek:    20 dimension of matrix:       370304
 Iteration     1 Dimension    20 NMult     0 NNew     20
 CISAX will form    20 AO SS matrices at one time.
 NMat=    20 NSing=    20 JSym2X= 0.
 FoFJK:  IHMeth= 1 ICntrl=       0 DoSepK=F KAlg= 0 I1Cent=           0 FoldK=F
 IRaf= 500000000 NMat=      40 IRICut=       1 DoRegI=T DoRafI=F ISym2E= 0 IDoP0=3 IntGTp=3.
 FoFCou: FMM=T IPFlag=           0 FMFlag=      100000 FMFlg1=        2001
         NFxFlg=           0 DoJE=F BraDBF=F KetDBF=F FulRan=T
         wScrn=  0.000000 ICntrl=         0 IOpCl=  0 I1Cent=           0 NGrid=           0
         NMat0=   40 NMatS0=     20 NMatT0=    0 NMatD0=   40 NMtDS0=    0 NMtDT0=    0
 Symmetry not used in FoFCou.
 FMM levels:  10  Number of levels for PrismC:   9
 New state      3 was old state      8
 New state      4 was old state      9
 Excitation Energies [eV] at current iteration:
 Root      1 :     2.225471760523706
 Root      2 :     2.571501267594856
 Root      3 :     3.318916964231264
 Root      4 :     3.339180407565244
 Root      5 :     3.423514938685666
 Root      6 :     3.553197927381472
 Root      7 :     3.583474834537419
 Root      8 :     3.752683357937217
 Root      9 :     3.871018835916124
 Root     10 :     3.930293736236293
 Root     11 :     4.051680562112566
 Root     12 :     4.100589534814914
 Root     13 :     4.155697624314741
 Root     14 :     4.543599029464290
 Root     15 :     4.619164796775665
 Root     16 :     4.681158888879064
 Root     17 :     4.730521754137972
 Root     18 :     4.859880838661858
 Root     19 :     4.906361752611410
 Root     20 :     4.988481110440787
 Iteration     2 Dimension    30 NMult    20 NNew     10
 CISAX will form    10 AO SS matrices at one time.
 NMat=    10 NSing=    10 JSym2X= 0.
 Root      1 not converged, maximum delta is    0.054894426914916
 Root      2 not converged, maximum delta is    0.053681476803731
 Root      3 not converged, maximum delta is    0.402882614639132
 Root      4 not converged, maximum delta is    0.378882780948485
 Root      5 not converged, maximum delta is    0.466839765726399
 Excitation Energies [eV] at current iteration:
 Root      1 :     1.900170920405724   Change is   -0.325300840117982
 Root      2 :     2.285306708292010   Change is   -0.286194559302845
 Root      3 :     3.107399945448293   Change is   -0.211517018782970
 Root      4 :     3.216535760169022   Change is   -0.122644647396222
 Root      5 :     3.230878371665628   Change is   -0.192636567020038
 Iteration     3 Dimension    40 NMult    30 NNew     10
 CISAX will form    10 AO SS matrices at one time.
 NMat=    10 NSing=    10 JSym2X= 0.
 Root      1 not converged, maximum delta is    0.024803577073372
 Root      2 not converged, maximum delta is    0.017981776176903
 Root      3 not converged, maximum delta is    0.019703075004280
 Root      4 not converged, maximum delta is    0.040265667004445
 Root      5 not converged, maximum delta is    0.029653609024665
 Excitation Energies [eV] at current iteration:
 Root      1 :     1.872657876665814   Change is   -0.027513043739910
 Root      2 :     2.266635309083505   Change is   -0.018671399208505
 Root      3 :     3.096293796380929   Change is   -0.011106149067364
 Root      4 :     3.198758243454931   Change is   -0.017777516714091
 Root      5 :     3.215074778845233   Change is   -0.015803592820395
 Iteration     4 Dimension    50 NMult    40 NNew     10
 CISAX will form    10 AO SS matrices at one time.
 NMat=    10 NSing=    10 JSym2X= 0.
 Root      1 not converged, maximum delta is    0.002059686008138
 Root      2 not converged, maximum delta is    0.005713708296819
 Root      3 not converged, maximum delta is    0.008187474552659
 Root      4 not converged, maximum delta is    0.015285672095968
 Root      5 not converged, maximum delta is    0.013763798992373
 Excitation Energies [eV] at current iteration:
 Root      1 :     1.870252200881745   Change is   -0.002405675784069
 Root      2 :     2.263945121756606   Change is   -0.002690187326899
 Root      3 :     3.094320228490523   Change is   -0.001973567890406
 Root      4 :     3.195810934125386   Change is   -0.002947309329545
 Root      5 :     3.213396428620794   Change is   -0.001678350224439
 Iteration     5 Dimension    60 NMult    50 NNew     10
 CISAX will form    10 AO SS matrices at one time.
 NMat=    10 NSing=    10 JSym2X= 0.
 Root      1 has converged.
 Root      2 has converged.
 Root      3 not converged, maximum delta is    0.001568136958261
 Root      4 not converged, maximum delta is    0.001847458859630
 Root      5 not converged, maximum delta is    0.001404768024697
 Excitation Energies [eV] at current iteration:
 Root      1 :     1.870023301674784   Change is   -0.000228899206961
 Root      2 :     2.263702468352836   Change is   -0.000242653403770
 Root      3 :     3.094052952779172   Change is   -0.000267275711351
 Root      4 :     3.195467730457940   Change is   -0.000343203667446
 Root      5 :     3.213202286253388   Change is   -0.000194142367406
 Iteration     6 Dimension    66 NMult    60 NNew      6
 CISAX will form     6 AO SS matrices at one time.
 NMat=     6 NSing=     6 JSym2X= 0.
 Root      1 has converged.
 Root      2 has converged.
 Root      3 has converged.
 Root      4 has converged.
 Root      5 has converged.
 Excitation Energies [eV] at current iteration:
 Root      1 :     1.870022481510945   Change is   -0.000000820163839
 Root      2 :     2.263700294324857   Change is   -0.000002174027980
 Root      3 :     3.094024748930395   Change is   -0.000028203848777
 Root      4 :     3.195433475739209   Change is   -0.000034254718731
 Root      5 :     3.213179996158753   Change is   -0.000022290094635
 Convergence achieved on expansion vectors.
 ***********************************************************************
 Excited states from <AA,BB:AA,BB> singles matrix:
 ***********************************************************************
 
 1PDM for each excited state written to RWF  633
 Ground to excited state transition densities written to RWF  633
 Ground to excited state transition electric dipole moments (Au):
       state          X           Y           Z        Dip. S.      Osc.
         1         0.1246     -2.7829      0.3524      7.8844      0.3612
         2         1.1903      0.2641      0.4116      1.6560      0.0918
         3         0.0217     -0.0559     -0.0061      0.0036      0.0003
         4         0.3519      0.0301      0.1561      0.1491      0.0117
         5        -0.2509     -0.1095     -0.0875      0.0826      0.0065
 Ground to excited state transition velocity dipole moments (Au):
       state          X           Y           Z        Dip. S.      Osc.
         1        -0.0085      0.1856     -0.0243      0.0351      0.3405
         2        -0.0938     -0.0211     -0.0324      0.0103      0.0825
         3        -0.0031      0.0062     -0.0005      0.0000      0.0003
         4        -0.0401     -0.0039     -0.0152      0.0019      0.0105
         5         0.0276      0.0119      0.0119      0.0010      0.0059
 Ground to excited state transition magnetic dipole moments (Au):
       state          X           Y           Z
         1         0.0867      0.2432      2.3334
         2        -0.1580      0.4381     -0.1179
         3         0.3825      0.0786     -0.6757
         4         0.0077     -0.2002     -0.0485
         5        -0.3074     -0.2416     -0.0228
 Ground to excited state transition velocity quadrupole moments (Au):
       state          XX          YY          ZZ          XY          XZ          YZ
         1        -0.4143      0.4137      0.0456      2.1728     -0.2504     -0.0950
         2        -2.0044     -0.0762      0.0650     -0.2170     -0.3570     -0.0662
         3        -0.0465      0.1064      0.0193      0.3318      0.0095      0.1005
         4        -0.9703      0.2055     -0.0071     -0.0031     -0.1987      0.0570
         5         0.6019      0.0128     -0.0175      0.2397      0.1361      0.0576
 <0|del|b> * <b|rxdel|0> + <0|del|b> * <b|delr+rdel|0>
 Rotatory Strengths (R) in cgs (10**-40 erg-esu-cm/Gauss)
       state          XX          YY          ZZ    R(velocity)    E-M Angle
         1       -91.5317    -19.7034    -14.7979    -42.0110       91.60
         2       -25.1156     75.7413     29.3291     26.6516       78.87
         3         1.9066     -3.0093     -1.0080     -0.7036       93.56
         4         2.3767     -5.7282     10.5966      2.4150       82.20
         5        -5.7430    -30.0507    -33.9666    -23.2534      156.72
 1/2[<0|r|b>*<b|rxdel|0> + (<0|rxdel|b>*<b|r|0>)*]
 Rotatory Strengths (R) in cgs (10**-40 erg-esu-cm/Gauss)
       state          XX          YY          ZZ     R(length)
         1        -7.6379    478.5538   -581.4181    -36.8341
         2       133.0382    -81.8211     34.3040     28.5070
         3        -5.8590      3.1094     -2.9079     -1.8858
         4        -1.9156      4.2626      5.3503      2.5657
         5       -54.5378    -18.7176     -1.4092    -24.8882
  1/2[<0|del|b>*<b|r|0> + (<0|r|b>*<b|del|0>)*] (Au)
       state          X           Y           Z        Dip. S.   Osc.(frdel)
         1        -0.0011     -0.5165     -0.0086      0.5261      0.3507
         2        -0.1116     -0.0056     -0.0133      0.1306      0.0870
         3        -0.0001     -0.0003      0.0000      0.0004      0.0003
         4        -0.0141     -0.0001     -0.0024      0.0166      0.0111
         5        -0.0069     -0.0013     -0.0010      0.0093      0.0062

 Excitation energies and oscillator strengths:
 
 Excited State   1:      Singlet-A      1.8700 eV  663.01 nm  f=0.3612  <S**2>=0.000
     245 -> 248        0.18346
     246 -> 247        0.69051
     246 <- 247       -0.10330
 This state for optimization and/or second-order correction.
 Total Energy, E(TD-HF/TD-DFT) =  -3005.28793514    
 Copying the excited state density for this state as the 1-particle RhoCI density.
 
 Excited State   2:      Singlet-A      2.2637 eV  547.71 nm  f=0.0918  <S**2>=0.000
     245 -> 247        0.64189
     246 -> 248       -0.28798
 
 Excited State   3:      Singlet-A      3.0940 eV  400.72 nm  f=0.0003  <S**2>=0.000
     243 -> 247        0.68752
 
 Excited State   4:      Singlet-A      3.1954 eV  388.00 nm  f=0.0117  <S**2>=0.000
     240 -> 247        0.41030
     240 -> 249       -0.14148
     242 -> 247        0.48029
     246 -> 248        0.19974
 
 Excited State   5:      Singlet-A      3.2132 eV  385.86 nm  f=0.0065  <S**2>=0.000
     240 -> 247       -0.12124
     241 -> 247        0.63313
     241 -> 249        0.11956
     241 -> 250        0.11329
     242 -> 247        0.16464
 SavETr:  write IOETrn=   770 NScale= 10 NData=  16 NLR=1 NState=    5 LETran=     100.
 Leave Link  914 at Thu May  5 08:21:21 2022, MaxMem= 10066329600 cpu:           22551.6 elap:             941.3
 (Enter /sw/apps/gaussian-16.0/g16/l601.exe)
 Copying SCF densities to generalized density rwf, IOpCl= 0 IROHF=0.
 Hyperfine terms turned off by default for NAtoms > 100.

 **********************************************************************

            Population analysis using the SCF density.

 **********************************************************************

 Orbital symmetries:
       Occupied  (A) (A) (A) (A) (A) (A) (A) (A) (A) (A) (A) (A)
                 (A) (A) (A) (A) (A) (A) (A) (A) (A) (A) (A) (A)
                 (A) (A) (A) (A) (A) (A) (A) (A) (A) (A) (A) (A)
                 (A) (A) (A) (A) (A) (A) (A) (A) (A) (A) (A) (A)
                 (A) (A) (A) (A) (A) (A) (A) (A) (A) (A) (A) (A)
                 (A) (A) (A) (A) (A) (A) (A) (A) (A) (A) (A) (A)
                 (A) (A) (A) (A) (A) (A) (A) (A) (A) (A) (A) (A)
                 (A) (A) (A) (A) (A) (A) (A) (A) (A) (A) (A) (A)
                 (A) (A) (A) (A) (A) (A) (A) (A) (A) (A) (A) (A)
                 (A) (A) (A) (A) (A) (A) (A) (A) (A) (A) (A) (A)
                 (A) (A) (A) (A) (A) (A) (A) (A) (A) (A) (A) (A)
                 (A) (A) (A) (A) (A) (A) (A) (A) (A) (A) (A) (A)
                 (A) (A) (A) (A) (A) (A) (A) (A) (A) (A) (A) (A)
                 (A) (A) (A) (A) (A) (A) (A) (A) (A) (A) (A) (A)
                 (A) (A) (A) (A) (A) (A) (A) (A) (A) (A) (A) (A)
                 (A) (A) (A) (A) (A) (A) (A) (A) (A) (A) (A) (A)
                 (A) (A) (A) (A) (A) (A) (A) (A) (A) (A) (A) (A)
                 (A) (A) (A) (A) (A) (A) (A) (A) (A) (A) (A) (A)
                 (A) (A) (A) (A) (A) (A) (A) (A) (A) (A) (A) (A)
                 (A) (A) (A) (A) (A) (A) (A) (A) (A) (A) (A) (A)
                 (A) (A) (A) (A) (A) (A)
       Virtual   (A) (A) (A) (A) (A) (A) (A) (A) (A) (A) (A) (A)
                 (A) (A) (A) (A) (A) (A) (A) (A) (A) (A) (A) (A)
                 (A) (A) (A) (A) (A) (A) (A) (A) (A) (A) (A) (A)
                 (A) (A) (A) (A) (A) (A) (A) (A) (A) (A) (A) (A)
                 (A) (A) (A) (A) (A) (A) (A) (A) (A) (A) (A) (A)
                 (A) (A) (A) (A) (A) (A) (A) (A) (A) (A) (A) (A)
                 (A) (A) (A) (A) (A) (A) (A) (A) (A) (A) (A) (A)
                 (A) (A) (A) (A) (A) (A) (A) (A) (A) (A) (A) (A)
                 (A) (A) (A) (A) (A) (A) (A) (A) (A) (A) (A) (A)
                 (A) (A) (A) (A) (A) (A) (A) (A) (A) (A) (A) (A)
                 (A) (A) (A) (A) (A) (A) (A) (A) (A) (A) (A) (A)
                 (A) (A) (A) (A) (A) (A) (A) (A) (A) (A) (A) (A)
                 (A) (A) (A) (A) (A) (A) (A) (A) (A) (A) (A) (A)
                 (A) (A) (A) (A) (A) (A) (A) (A) (A) (A) (A) (A)
                 (A) (A) (A) (A) (A) (A) (A) (A) (A) (A) (A) (A)
                 (A) (A) (A) (A) (A) (A) (A) (A) (A) (A) (A) (A)
                 (A) (A) (A) (A) (A) (A) (A) (A) (A) (A) (A) (A)
                 (A) (A) (A) (A) (A) (A) (A) (A) (A) (A) (A) (A)
                 (A) (A) (A) (A) (A) (A) (A) (A) (A) (A) (A) (A)
                 (A) (A) (A) (A) (A) (A) (A) (A) (A) (A) (A) (A)
                 (A) (A) (A) (A) (A) (A) (A) (A) (A) (A) (A) (A)
                 (A) (A) (A) (A) (A) (A) (A) (A) (A) (A) (A) (A)
                 (A) (A) (A) (A) (A) (A) (A) (A) (A) (A) (A) (A)
                 (A) (A) (A) (A) (A) (A) (A) (A) (A) (A) (A) (A)
                 (A) (A) (A) (A) (A) (A) (A) (A) (A) (A) (A) (A)
                 (A) (A) (A) (A) (A) (A) (A) (A) (A) (A) (A) (A)
                 (A) (A) (A) (A) (A) (A) (A) (A) (A) (A) (A) (A)
                 (A) (A) (A) (A) (A) (A) (A) (A) (A) (A) (A) (A)
                 (A) (A) (A) (A) (A) (A) (A) (A) (A) (A) (A) (A)
                 (A) (A) (A) (A) (A) (A) (A) (A) (A) (A) (A) (A)
                 (A) (A) (A) (A) (A) (A) (A) (A) (A) (A) (A) (A)
                 (A) (A) (A) (A) (A) (A) (A) (A) (A) (A) (A) (A)
                 (A) (A) (A) (A) (A) (A) (A) (A) (A) (A) (A) (A)
                 (A) (A) (A) (A) (A) (A) (A) (A) (A) (A) (A) (A)
                 (A) (A) (A) (A) (A) (A) (A) (A) (A) (A) (A) (A)
                 (A) (A) (A) (A) (A) (A) (A) (A) (A) (A) (A) (A)
                 (A) (A) (A) (A) (A) (A) (A) (A) (A) (A) (A) (A)
                 (A) (A) (A) (A) (A) (A) (A) (A) (A) (A) (A) (A)
                 (A) (A) (A) (A) (A) (A) (A) (A) (A) (A) (A) (A)
                 (A) (A) (A) (A) (A) (A) (A) (A) (A) (A) (A) (A)
                 (A) (A) (A) (A) (A) (A) (A) (A) (A) (A) (A) (A)
                 (A) (A) (A) (A) (A) (A) (A) (A) (A) (A) (A) (A)
                 (A) (A) (A) (A) (A) (A) (A) (A) (A) (A) (A) (A)
                 (A) (A) (A) (A) (A) (A) (A) (A) (A) (A) (A) (A)
                 (A) (A) (A) (A) (A) (A) (A) (A) (A) (A) (A) (A)
                 (A) (A) (A) (A) (A) (A) (A) (A) (A) (A) (A) (A)
                 (A) (A) (A) (A) (A) (A) (A) (A) (A) (A) (A) (A)
                 (A) (A) (A) (A) (A) (A) (A) (A) (A) (A) (A) (A)
                 (A) (A) (A) (A) (A) (A) (A) (A) (A) (A) (A) (A)
                 (A) (A) (A) (A) (A) (A) (A) (A) (A) (A) (A) (A)
                 (A) (A) (A) (A) (A) (A) (A) (A) (A) (A) (A) (A)
                 (A) (A) (A) (A) (A) (A) (A) (A) (A) (A) (A) (A)
                 (A) (A) (A) (A) (A) (A) (A) (A) (A) (A) (A) (A)
                 (A) (A) (A) (A) (A) (A) (A) (A) (A) (A) (A) (A)
                 (A) (A) (A) (A) (A) (A) (A) (A) (A) (A) (A) (A)
                 (A) (A) (A) (A) (A) (A) (A) (A) (A) (A) (A) (A)
                 (A) (A) (A) (A) (A) (A) (A) (A) (A) (A) (A) (A)
                 (A) (A) (A) (A) (A) (A) (A) (A) (A) (A) (A) (A)
                 (A) (A) (A) (A) (A) (A) (A) (A) (A) (A) (A) (A)
                 (A) (A) (A) (A) (A) (A) (A) (A) (A) (A) (A) (A)
                 (A) (A) (A) (A) (A) (A) (A) (A) (A) (A) (A) (A)
[...]
 Alpha virt. eigenvalues --    1.22515   1.23066   1.23515   1.23831   1.24096
 Alpha virt. eigenvalues --    1.24349   1.24898   1.25110   1.25920   1.26509
 Alpha virt. eigenvalues --    1.27045   1.27261   1.27522   1.28305   1.28386
 Alpha virt. eigenvalues --    1.28708   1.28905   1.29759   1.29955   1.30185
 Alpha virt. eigenvalues --    1.30436   1.31334   1.31841   1.31907   1.32291
 Alpha virt. eigenvalues --    1.32817   1.33734   1.33882   1.34218   1.34493
 Alpha virt. eigenvalues --    1.34712   1.34902   1.35145   1.35346   1.35938
 Alpha virt. eigenvalues --    1.35987   1.36567   1.36859   1.37385   1.37920
 Alpha virt. eigenvalues --    1.38286   1.38666   1.39347   1.39435   1.40060
 Alpha virt. eigenvalues --    1.40647   1.40827   1.40986   1.41335   1.41642
 Alpha virt. eigenvalues --    1.42735   1.42768   1.43200   1.43512   1.44535
 Alpha virt. eigenvalues --    1.44692   1.44983   1.45190   1.45374   1.45752
 Alpha virt. eigenvalues --    1.46773   1.47199   1.48031   1.48823   1.49281
 Alpha virt. eigenvalues --    1.49415   1.49910   1.50368   1.50894   1.51020
 Alpha virt. eigenvalues --    1.51456   1.51786   1.51938   1.52691   1.52998
 Alpha virt. eigenvalues --    1.53267   1.53324   1.53390   1.53632   1.53913
 Alpha virt. eigenvalues --    1.54055   1.54270   1.54499   1.54548   1.54765
 Alpha virt. eigenvalues --    1.54983   1.55252   1.55300   1.55982   1.56148
 Alpha virt. eigenvalues --    1.56349   1.56624   1.56967   1.57157   1.57561
 Alpha virt. eigenvalues --    1.57891   1.58589   1.58923   1.59277   1.59382
 Alpha virt. eigenvalues --    1.59747   1.60176   1.60489   1.60594   1.60844
 Alpha virt. eigenvalues --    1.61286   1.61843   1.62391   1.62612   1.62868
 Alpha virt. eigenvalues --    1.63239   1.63741   1.64187   1.64197   1.65177
 Alpha virt. eigenvalues --    1.65576   1.65987   1.66158   1.66677   1.67393
 Alpha virt. eigenvalues --    1.68040   1.68335   1.68827   1.69496   1.69913
 Alpha virt. eigenvalues --    1.70070   1.70538   1.70766   1.71079   1.71899
 Alpha virt. eigenvalues --    1.71912   1.72144   1.72347   1.72807   1.72909
 Alpha virt. eigenvalues --    1.73277   1.73531   1.73658   1.73914   1.74163
 Alpha virt. eigenvalues --    1.74260   1.74824   1.75045   1.75344   1.75705
 Alpha virt. eigenvalues --    1.75757   1.76015   1.76088   1.76209   1.76612
 Alpha virt. eigenvalues --    1.76697   1.76915   1.77291   1.77357   1.77523
 Alpha virt. eigenvalues --    1.77740   1.77895   1.77936   1.78250   1.78603
 Alpha virt. eigenvalues --    1.78705   1.78934   1.79112   1.79300   1.79314
 Alpha virt. eigenvalues --    1.79599   1.79712   1.80325   1.80662   1.80727
 Alpha virt. eigenvalues --    1.80755   1.80983   1.81038   1.81236   1.81335
 Alpha virt. eigenvalues --    1.81435   1.81904   1.82023   1.82411   1.82520
 Alpha virt. eigenvalues --    1.82856   1.83115   1.83249   1.83378   1.83746
 Alpha virt. eigenvalues --    1.83902   1.84037   1.84211   1.84250   1.84387
 Alpha virt. eigenvalues --    1.84927   1.84999   1.85230   1.85421   1.85479
 Alpha virt. eigenvalues --    1.85771   1.85982   1.86110   1.86260   1.86388
 Alpha virt. eigenvalues --    1.86822   1.87027   1.87279   1.87567   1.87843
 Alpha virt. eigenvalues --    1.87993   1.88391   1.88790   1.88999   1.89174
 Alpha virt. eigenvalues --    1.89514   1.89800   1.90179   1.90324   1.90389
 Alpha virt. eigenvalues --    1.90965   1.91237   1.91743   1.91950   1.92238
 Alpha virt. eigenvalues --    1.92415   1.92701   1.92961   1.93202   1.93309
 Alpha virt. eigenvalues --    1.93390   1.93728   1.93885   1.94175   1.94645
 Alpha virt. eigenvalues --    1.94748   1.94979   1.95062   1.95830   1.95925
 Alpha virt. eigenvalues --    1.96576   1.96617   1.96774   1.97114   1.97226
 Alpha virt. eigenvalues --    1.97344   1.97779   1.97870   1.98125   1.98581
 Alpha virt. eigenvalues --    1.98824   1.99232   1.99537   1.99736   2.00463
 Alpha virt. eigenvalues --    2.00567   2.00617   2.00903   2.01230   2.01741
 Alpha virt. eigenvalues --    2.02105   2.02397   2.02760   2.02837   2.02920
 Alpha virt. eigenvalues --    2.03514   2.03741   2.04172   2.04693   2.05112
 Alpha virt. eigenvalues --    2.05308   2.05631   2.05918   2.06249   2.06507
 Alpha virt. eigenvalues --    2.06605   2.06775   2.07287   2.07398   2.07875
 Alpha virt. eigenvalues --    2.08336   2.08504   2.08926   2.09073   2.09119
 Alpha virt. eigenvalues --    2.09448   2.09844   2.09982   2.10206   2.10678
 Alpha virt. eigenvalues --    2.11485   2.11549   2.11827   2.11949   2.12417
 Alpha virt. eigenvalues --    2.12599   2.12889   2.13749   2.13851   2.13952
 Alpha virt. eigenvalues --    2.13994   2.14404   2.14672   2.15143   2.15473
 Alpha virt. eigenvalues --    2.15886   2.16254   2.16402   2.16641   2.17056
 Alpha virt. eigenvalues --    2.17386   2.18144   2.18335   2.18683   2.18891
 Alpha virt. eigenvalues --    2.19368   2.19626   2.20048   2.20317   2.20469
 Alpha virt. eigenvalues --    2.21294   2.21399   2.21734   2.22425   2.22794
 Alpha virt. eigenvalues --    2.23467   2.23702   2.23953   2.24720   2.25045
 Alpha virt. eigenvalues --    2.25662   2.26239   2.26838   2.26932   2.27232
 Alpha virt. eigenvalues --    2.28313   2.28568   2.29006   2.29364   2.29562
 Alpha virt. eigenvalues --    2.29749   2.30130   2.30795   2.31099   2.31406
 Alpha virt. eigenvalues --    2.32194   2.32312   2.32859   2.32934   2.33579
 Alpha virt. eigenvalues --    2.33695   2.34211   2.34374   2.34609   2.34925
 Alpha virt. eigenvalues --    2.35418   2.35910   2.35933   2.36081   2.36207
 Alpha virt. eigenvalues --    2.36684   2.36902   2.37040   2.37334   2.37779
 Alpha virt. eigenvalues --    2.38186   2.38411   2.38822   2.39532   2.39899
 Alpha virt. eigenvalues --    2.40052   2.40814   2.40866   2.41168   2.41358
 Alpha virt. eigenvalues --    2.41956   2.42570   2.42827   2.43103   2.43326
 Alpha virt. eigenvalues --    2.43504   2.43786   2.44296   2.44453   2.44786
 Alpha virt. eigenvalues --    2.45216   2.46092   2.46177   2.46737   2.47487
 Alpha virt. eigenvalues --    2.47589   2.48368   2.48379   2.48753   2.49263
 Alpha virt. eigenvalues --    2.49666   2.49998   2.50796   2.50918   2.51331
 Alpha virt. eigenvalues --    2.51658   2.52304   2.53434   2.53578   2.53849
 Alpha virt. eigenvalues --    2.53993   2.54696   2.54987   2.55272   2.55529
 Alpha virt. eigenvalues --    2.56274   2.56860   2.57595   2.58112   2.58165
 Alpha virt. eigenvalues --    2.58595   2.58644   2.58943   2.59174   2.59691
 Alpha virt. eigenvalues --    2.60402   2.60958   2.61382   2.61539   2.61635
 Alpha virt. eigenvalues --    2.62479   2.63152   2.63296   2.63706   2.63989
 Alpha virt. eigenvalues --    2.64314   2.64853   2.64907   2.65772   2.66234
 Alpha virt. eigenvalues --    2.66316   2.66903   2.67106   2.67166   2.68991
 Alpha virt. eigenvalues --    2.69088   2.69676   2.69712   2.70053   2.70778
 Alpha virt. eigenvalues --    2.70935   2.71088   2.71719   2.72399   2.72522
 Alpha virt. eigenvalues --    2.72947   2.73290   2.73399   2.73935   2.74249
 Alpha virt. eigenvalues --    2.74499   2.74859   2.75160   2.75531   2.75802
 Alpha virt. eigenvalues --    2.75963   2.76786   2.77424   2.78024   2.78849
 Alpha virt. eigenvalues --    2.78976   2.79825   2.80747   2.80939   2.81186
 Alpha virt. eigenvalues --    2.81921   2.82221   2.82539   2.83328   2.84522
 Alpha virt. eigenvalues --    2.85039   2.85086   2.85582   2.86663   2.86824
 Alpha virt. eigenvalues --    2.87171   2.87661   2.88008   2.88415   2.89026
 Alpha virt. eigenvalues --    2.89193   2.89370   2.89623   2.89899   2.90382
 Alpha virt. eigenvalues --    2.90866   2.91894   2.92430   2.92628   2.93050
 Alpha virt. eigenvalues --    2.93394   2.93479   2.94000   2.94221   2.94606
 Alpha virt. eigenvalues --    2.94869   2.95153   2.95199   2.95418   2.95754
 Alpha virt. eigenvalues --    2.95792   2.95984   2.96283   2.97018   2.97326
 Alpha virt. eigenvalues --    2.97807   2.97945   2.98613   2.99110   2.99335
 Alpha virt. eigenvalues --    2.99638   2.99765   3.00043   3.00212   3.00322
 Alpha virt. eigenvalues --    3.00531   3.00733   3.00815   3.01283   3.01423
 Alpha virt. eigenvalues --    3.01673   3.02127   3.02327   3.02454   3.02687
 Alpha virt. eigenvalues --    3.03487   3.04102   3.04628   3.05253   3.05910
 Alpha virt. eigenvalues --    3.06083   3.06168   3.06751   3.06998   3.07600
 Alpha virt. eigenvalues --    3.08087   3.08427   3.09499   3.09759   3.10200
 Alpha virt. eigenvalues --    3.10583   3.10905   3.11640   3.11804   3.13140
 Alpha virt. eigenvalues --    3.13291   3.13427   3.13971   3.15545   3.16474
 Alpha virt. eigenvalues --    3.17668   3.18265   3.18541   3.18685   3.20117
 Alpha virt. eigenvalues --    3.20676   3.21663   3.21901   3.24734   3.26035
 Alpha virt. eigenvalues --    3.27533   3.31256   3.40223   3.42340   3.43988
 Alpha virt. eigenvalues --    3.45544   3.46472   3.48532   3.50137   3.53412
 Alpha virt. eigenvalues --    3.57605   3.61051   3.64812   3.67394   3.68070
 Alpha virt. eigenvalues --    3.68938   3.74380
          Condensed to atoms (all electrons):
 Mulliken charges:
               1
     1  Mg   0.992561
     2  C   -0.046948
     3  C   -0.068120
     4  C   -0.052794
     5  C   -0.081786
     6  N   -0.371871
     7  C    0.046289
     8  C   -0.087718
     9  C   -0.138188
    10  C    0.053640
    11  C    0.046384
    12  C    0.057370
    13  C   -0.068728
    14  C    0.231115
    15  O   -0.255329
    16  O   -0.347690
    17  N   -0.515828
    18  C    0.183801
    19  C   -0.168503
    20  C   -0.085652
    21  C    0.175849
    22  C    0.040666
    23  C    0.047412
    24  O   -0.226939
    25  C   -0.011663
    26  N   -0.410601
    27  C    0.030607
    28  C   -0.092511
    29  C   -0.124321
    30  C    0.076702
    31  C    0.037677
    32  C   -0.024791
    33  C   -0.067633
    34  N   -0.452028
    35  C    0.169923
    36  C   -0.230801
    37  C   -0.019929
    38  C    0.162830
    39  C    0.072098
    40  C    0.162400
    41  O   -0.214257
    42  C   -0.134439
    43  C    0.264026
    44  O   -0.239424
    45  O   -0.349446
    46  C    0.120472
    47  C    0.255006
    48  C   -0.147470
    49  C   -0.250012
    50  C    0.029635
    51  C    0.045022
    52  C   -0.077685
    53  C    0.007251
    54  C   -0.235723
    55  C    0.002640
    56  C   -0.011943
    57  C   -0.060182
    58  C   -0.046622
    59  C   -0.259490
    60  C    0.003279
    61  C    0.025259
    62  C   -0.049193
    63  C   -0.035244
    64  C   -0.258589
    65  C   -0.003851
    66  C   -0.018537
    67  H   -0.003783
    68  H    0.033986
    69  H   -0.001918
    70  H    0.031844
    71  H    0.032288
    72  H    0.036498
    73  H    0.046501
    74  H    0.052707
    75  H    0.041417
    76  H    0.085784
    77  H    0.053543
    78  H    0.061774
    79  H    0.055340
    80  H    0.046055
    81  H    0.034054
    82  H    0.048640
    83  H    0.055009
    84  H    0.074319
    85  H    0.048926
    86  H    0.061710
    87  H    0.040858
    88  H    0.040104
    89  H    0.045014
    90  H    0.043606
    91  H    0.027097
    92  H    0.034929
    93  H    0.054567
    94  H    0.053037
    95  H    0.065573
    96  H    0.032596
    97  H    0.066231
    98  H    0.069210
    99  H    0.043366
   100  H    0.072782
   101  H    0.061745
   102  H    0.070702
   103  H    0.053521
   104  H    0.028376
   105  H    0.057077
   106  H    0.045553
   107  H    0.025844
   108  H    0.044893
   109  H    0.022403
   110  H    0.021855
   111  H    0.038921
   112  H    0.023941
   113  H    0.025198
   114  H    0.033720
   115  H    0.040786
   116  H    0.026231
   117  H    0.029517
   118  H    0.028236
   119  H    0.020381
   120  H    0.046709
   121  H    0.042598
   122  H    0.021806
   123  H    0.023550
   124  H    0.039878
   125  H    0.042550
   126  H    0.020559
   127  H    0.037070
   128  H    0.044472
   129  H    0.028824
   130  H    0.025262
   131  H    0.030355
   132  H    0.031926
   133  H    0.029371
   134  H    0.042540
   135  H    0.025621
   136  H    0.041860
   137  H    0.040196
   138  H    0.033056
   139  H    0.029500
   140  H    0.042300
 Sum of Mulliken charges =  -0.00000
 Mulliken charges with hydrogens summed into heavy atoms:
               1
     1  Mg   0.992561
     2  C   -0.046948
     3  C   -0.071904
     4  C   -0.018808
     5  C   -0.083704
     6  N   -0.371871
     7  C    0.046289
     8  C   -0.055874
     9  C   -0.105900
    10  C    0.053640
    11  C    0.182090
    12  C    0.184571
    13  C    0.046588
    14  C    0.231115
    15  O   -0.255329
    16  O   -0.347690
    17  N   -0.515828
    18  C    0.183801
    19  C   -0.168503
    20  C   -0.085652
    21  C    0.175849
    22  C    0.176115
    23  C    0.047412
    24  O   -0.226939
    25  C    0.166304
    26  N   -0.410601
    27  C    0.030607
    28  C   -0.043585
    29  C   -0.062610
    30  C    0.076702
    31  C    0.163653
    32  C    0.045912
    33  C    0.074901
    34  N   -0.452028
    35  C    0.169923
    36  C   -0.230801
    37  C   -0.019929
    38  C    0.162830
    39  C    0.236497
    40  C    0.162400
    41  O   -0.214257
    42  C   -0.065229
    43  C    0.264026
    44  O   -0.239424
    45  O   -0.349446
    46  C    0.298364
    47  C    0.379229
    48  C   -0.119093
    49  C   -0.250012
    50  C    0.158109
    51  C    0.112318
    52  C   -0.016909
    53  C    0.056389
    54  C   -0.202003
    55  C    0.099173
    56  C    0.036674
    57  C    0.029125
    58  C   -0.001266
    59  C   -0.219611
    60  C    0.103457
    61  C    0.098556
    62  C    0.006424
    63  C    0.026052
    64  C   -0.216049
    65  C    0.103826
    66  C    0.086320
 Electronic spatial extent (au):  <R**2>=         143514.8353
 Charge=              0.0000 electrons
 Dipole moment (field-independent basis, Debye):
    X=             -2.1612    Y=              2.8765    Z=             -3.2252  Tot=              4.8318
 Quadrupole moment (field-independent basis, Debye-Ang):
   XX=           -363.8620   YY=           -414.9047   ZZ=           -402.9280
   XY=              6.7229   XZ=             -0.8396   YZ=             -5.8184
 Traceless Quadrupole moment (field-independent basis, Debye-Ang):
   XX=             30.0362   YY=            -21.0065   ZZ=             -9.0298
   XY=              6.7229   XZ=             -0.8396   YZ=             -5.8184
 Octapole moment (field-independent basis, Debye-Ang**2):
  XXX=            322.6452  YYY=            145.6145  ZZZ=             -3.3993  XYY=           -165.9884
  XXY=           -197.4975  XXZ=            148.8701  XZZ=             50.7933  YZZ=              1.2217
  YYZ=            -54.6487  XYZ=            -45.1396
 Hexadecapole moment (field-independent basis, Debye-Ang**3):
 XXXX=        -165953.9851 YYYY=         -20386.6373 ZZZZ=          -5519.2666 XXXY=          -2091.4715
 XXXZ=            678.8658 YYYX=            803.8461 YYYZ=           -486.2486 ZZZX=             81.9380
 ZZZY=            -42.1565 XXYY=         -33179.9252 XXZZ=         -29685.4281 YYZZ=          -4206.9578
 XXYZ=           -376.7364 YYXZ=           -421.9141 ZZXY=             74.8067
 N-N= 9.353578781130D+03 E-N=-2.569850913847D+04  KE= 2.975510677740D+03
 Leave Link  601 at Thu May  5 08:21:22 2022, MaxMem= 10066329600 cpu:              11.1 elap:               0.6
 (Enter /sw/apps/gaussian-16.0/g16/l9999.exe)
 1\1\GINC-BP1-COMPUTE179\SP\RPBE1PBE TD-FC\def2SVP\C55H74Mg1N4O6\OF1564
 1\05-May-2022\0\\#p PBE1PBE/Def2SVP td=(nstates=5)\\step_751_chromopho
 re_22 TDDFT with PBE1PBE functional\\0,1\Mg,0,8.749,47.441,24.733\C,0,
 6.486,47.885,27.366\C,0,11.217,48.548,26.771\C,0,10.964,46.468,22.309\
 C,0,6.087,46.968,22.645\N,0,8.828,48.105,26.796\C,0,7.838,48.184,27.73
 3\C,0,8.379,48.485,29.148\C,0,9.726,49.096,28.764\C,0,9.974,48.522,27.
 38\C,0,9.831,50.594,28.599\C,0,8.529,47.203,30.07\C,0,9.131,47.407,31.
 462\C,0,8.792,46.572,32.753\O,0,8.287,45.465,32.798\O,0,9.032,47.324,3
 3.862\N,0,10.792,47.513,24.583\C,0,11.646,47.988,25.536\C,0,13.018,47.
 752,25.069\C,0,12.947,47.143,23.754\C,0,11.516,47.012,23.494\C,0,14.28
 8,48.11,25.798\C,0,14.048,46.847,22.726\O,0,13.797,46.309,21.683\C,0,1
 5.393,47.298,22.919\N,0,8.589,46.892,22.688\C,0,9.6,46.495,21.899\C,0,
 9.04,46.073,20.561\C,0,7.493,46.281,20.65\C,0,7.361,46.634,22.099\C,0,
 9.672,46.707,19.327\C,0,6.499,45.123,20.199\C,0,5.374,45.491,19.188\N,
 0,6.692,47.641,24.875\C,0,5.77,47.347,23.943\C,0,4.508,47.41,24.583\C,
 0,4.711,47.56,25.921\C,0,6.063,47.709,26.05\C,0,3.192,47.336,23.994\C,
 0,4.057,47.614,27.23\O,0,2.912,47.467,27.642\C,0,5.207,47.847,28.255\C
 ,0,5.194,46.657,29.126\O,0,5.618,45.564,28.883\O,0,4.674,47.02,30.304\
 C,0,4.575,46.102,31.404\C,0,8.744,46.696,35.12\C,0,9.397,47.449,36.274
 \C,0,9.305,47.291,37.644\C,0,8.373,46.331,38.352\C,0,9.907,48.355,38.5
 3\C,0,11.061,47.791,39.366\C,0,11.239,48.4,40.798\C,0,10.968,47.339,41
 .903\C,0,10.577,48.012,43.228\C,0,12.089,46.307,42.08\C,0,11.721,44.84
 8,41.622\C,0,12.904,44.102,40.846\C,0,13.722,43.082,41.838\C,0,14.294,
 41.819,41.111\C,0,14.678,43.902,42.825\C,0,14.462,43.492,44.308\C,0,14
 .11,44.705,45.275\C,0,12.683,44.629,45.966\C,0,12.62,45.769,47.01\C,0,
 12.399,43.235,46.569\H,0,12.014,48.857,27.451\H,0,11.555,46.023,21.506
 \H,0,5.234,46.772,21.992\H,0,7.718,49.179,29.668\H,0,10.444,48.75,29.5
 08\H,0,10.397,51.062,29.405\H,0,8.808,50.97,28.574\H,0,10.403,50.935,2
 7.736\H,0,9.297,46.635,29.544\H,0,7.603,46.631,30.129\H,0,9.136,48.469
 ,31.707\H,0,10.209,47.251,31.503\H,0,14.978,48.869,25.43\H,0,14.926,47
 .227,25.807\H,0,14.024,48.403,26.814\H,0,15.474,48.302,23.334\H,0,15.8
 16,47.457,21.928\H,0,15.911,46.546,23.515\H,0,9.285,45.011,20.553\H,0,
 7.133,47.202,20.192\H,0,10.631,47.1,19.663\H,0,9.064,47.543,18.981\H,0
 ,9.933,45.964,18.573\H,0,6.114,44.576,21.059\H,0,7.157,44.363,19.78\H,
 0,5.376,46.561,19.395\H,0,4.385,45.064,19.357\H,0,5.661,45.328,18.149\
 H,0,2.679,46.601,24.614\H,0,3.16,47.023,22.95\H,0,2.769,48.325,24.17\H
 ,0,5.038,48.643,28.98\H,0,4.407,46.691,32.306\H,0,5.525,45.584,31.533\
 H,0,3.688,45.472,31.339\H,0,9.034,45.649,35.205\H,0,7.68,46.735,35.354
 \H,0,10.099,48.234,35.994\H,0,7.481,46.702,38.858\H,0,9.028,45.794,39.
 038\H,0,7.942,45.67,37.6\H,0,9.154,48.909,39.091\H,0,10.386,49.085,37.
 878\H,0,11.988,47.992,38.829\H,0,11.108,46.702,39.405\H,0,10.617,49.26
 1,41.04\H,0,12.285,48.706,40.818\H,0,10.124,46.783,41.497\H,0,11.278,4
 7.835,44.044\H,0,9.669,47.507,43.557\H,0,10.283,49.053,43.098\H,0,12.4
 66,46.324,43.102\H,0,12.944,46.697,41.528\H,0,10.775,44.755,41.088\H,0
 ,11.704,44.348,42.59\H,0,13.566,44.909,40.532\H,0,12.626,43.714,39.866
 \H,0,12.906,42.596,42.373\H,0,15.37,41.678,41.216\H,0,14.026,42.054,40
 .081\H,0,13.674,40.943,41.301\H,0,14.536,44.961,42.607\H,0,15.644,43.4
 93,42.53\H,0,15.362,43.013,44.695\H,0,13.74,42.676,44.338\H,0,14.124,4
 5.596,44.648\H,0,14.876,44.788,46.046\H,0,11.978,44.769,45.147\H,0,11.
 887,45.511,47.775\H,0,12.232,46.652,46.502\H,0,13.569,45.906,47.527\H,
 0,11.761,42.664,45.896\H,0,11.819,43.28,47.491\H,0,13.313,42.664,46.73
 3\\Version=ES64L-G16RevA.03\State=1-A\HF=-3005.3566572\RMSD=5.423e-09\
 PG=C01 [X(C55H74Mg1N4O6)]\\@


 GOD GAVE US TWO ENDS... ONE TO SIT ON...    
 AND THE OTHER TO THINK WITH...              
 YOUR SUCCESS DEPENDS UPON WHICH END YOU     
 USE THE MOST...                             
                                             
 IT'S A CASE OF HEADS YOU WIN TAILS YOU LOSE.
          SOURCE UNKNOWN(IT'S JUST AS WELL.) 
 Job cpu time:       0 days  8 hours 36 minutes 47.1 seconds.
 Elapsed time:       0 days  0 hours 21 minutes 35.6 seconds.
 File lengths (MBytes):  RWF=   8929 Int=      0 D2E=      0 Chk=    390 Scr=      1
 Normal termination of Gaussian 16 at Thu May  5 08:21:23 2022.
