 Entering Gaussian System, Link 0=g16
 Initial command:
 /sw/apps/gaussian-16.0/g16/l1.exe "/tmp/Gau-89123.inp" -scrdir="/tmp/"
 Entering Link 1 = /sw/apps/gaussian-16.0/g16/l1.exe PID=     89124.
  
 Copyright (c) 1988,1990,1992,1993,1995,1998,2003,2009,2016,
            Gaussian, Inc.  All Rights Reserved.
  
 This is part of the Gaussian(R) 16 program.  It is based on
 the Gaussian(R) 09 system (copyright 2009, Gaussian, Inc.),
 the Gaussian(R) 03 system (copyright 2003, Gaussian, Inc.),
 the Gaussian(R) 98 system (copyright 1998, Gaussian, Inc.),
 the Gaussian(R) 94 system (copyright 1995, Gaussian, Inc.),
 the Gaussian 92(TM) system (copyright 1992, Gaussian, Inc.),
 the Gaussian 90(TM) system (copyright 1990, Gaussian, Inc.),
 the Gaussian 88(TM) system (copyright 1988, Gaussian, Inc.),
 the Gaussian 86(TM) system (copyright 1986, Carnegie Mellon
 University), and the Gaussian 82(TM) system (copyright 1983,
 Carnegie Mellon University). Gaussian is a federally registered
 trademark of Gaussian, Inc.
  
 This software contains proprietary and confidential information,
 including trade secrets, belonging to Gaussian, Inc.
  
 This software is provided under written license and may be
 used, copied, transmitted, or stored only in accord with that
 written license.
  
 The following legend is applicable only to US Government
 contracts under FAR:
  
                    RESTRICTED RIGHTS LEGEND
  
 Use, reproduction and disclosure by the US Government is
 subject to restrictions as set forth in subparagraphs (a)
 and (c) of the Commercial Computer Software - Restricted
 Rights clause in FAR 52.227-19.
  
 Gaussian, Inc.
 340 Quinnipiac St., Bldg. 40, Wallingford CT 06492
  
  
 ---------------------------------------------------------------
 Warning -- This program may not be used in any manner that
 competes with the business of Gaussian, Inc. or will provide
 assistance to any competitor of Gaussian, Inc.  The licensee
 of this program is prohibited from giving any competitor of
 Gaussian, Inc. access to this program.  By using this program,
 the user acknowledges that Gaussian, Inc. is engaged in the
 business of creating and licensing software in the field of
 computational chemistry and represents and warrants to the
 licensee that it is not a competitor of Gaussian, Inc. and that
 it will not use this program in any manner prohibited above.
 ---------------------------------------------------------------
  

 Cite this work as:
 Gaussian 16, Revision A.03,
 M. J. Frisch, G. W. Trucks, H. B. Schlegel, G. E. Scuseria, 
 M. A. Robb, J. R. Cheeseman, G. Scalmani, V. Barone, 
 G. A. Petersson, H. Nakatsuji, X. Li, M. Caricato, A. V. Marenich, 
 J. Bloino, B. G. Janesko, R. Gomperts, B. Mennucci, H. P. Hratchian, 
 J. V. Ortiz, A. F. Izmaylov, J. L. Sonnenberg, D. Williams-Young, 
 F. Ding, F. Lipparini, F. Egidi, J. Goings, B. Peng, A. Petrone, 
 T. Henderson, D. Ranasinghe, V. G. Zakrzewski, J. Gao, N. Rega, 
 G. Zheng, W. Liang, M. Hada, M. Ehara, K. Toyota, R. Fukuda, 
 J. Hasegawa, M. Ishida, T. Nakajima, Y. Honda, O. Kitao, H. Nakai, 
 T. Vreven, K. Throssell, J. A. Montgomery, Jr., J. E. Peralta, 
 F. Ogliaro, M. J. Bearpark, J. J. Heyd, E. N. Brothers, K. N. Kudin, 
 V. N. Staroverov, T. A. Keith, R. Kobayashi, J. Normand, 
 K. Raghavachari, A. P. Rendell, J. C. Burant, S. S. Iyengar, 
 J. Tomasi, M. Cossi, J. M. Millam, M. Klene, C. Adamo, R. Cammi, 
 J. W. Ochterski, R. L. Martin, K. Morokuma, O. Farkas, 
 J. B. Foresman, and D. J. Fox, Gaussian, Inc., Wallingford CT, 2016.
 
 ******************************************
 Gaussian 16:  ES64L-G16RevA.03 25-Dec-2016
                30-Apr-2022 
 ******************************************
 %nproc=24
 Will use up to   24 processors via shared memory.
 %mem=50gb
 --------------------
 #p ZINDO=(nstates=5)
 --------------------
 1/38=1,172=1/1;
 2/12=2,17=6,18=5,40=1/2;
 3/5=2,25=1,41=400000/1,2,3,8;
 4/5=3,35=1/1;
 5/5=2,35=1,38=5/2;
 8/6=1,108=5/1;
 9/41=5,42=1,49=10/14;
 6/7=2,8=2,9=2,10=2/1;
 99/5=1,9=1/99;
 Leave Link    1 at Sat Apr 30 07:44:54 2022, MaxMem=  6710886400 cpu:               1.2 elap:               0.1
 (Enter /sw/apps/gaussian-16.0/g16/l101.exe)
 -----------------------------
 step_651_chromophore_15 ZINDO
 -----------------------------
 Symbolic Z-matrix:
 Charge =  0 Multiplicity = 1
 Mg                    46.075    34.792    28.16 
 C                     44.675    32.966    30.806 
 C                     46.436    37.476    30.332 
 C                     47.231    36.423    25.624 
 C                     45.403    31.98     26.141 
 N                     45.752    35.102    30.371 
 C                     45.155    34.212    31.21 
 C                     45.247    34.653    32.583 
 C                     45.31     36.225    32.414 
 C                     45.912    36.32     30.969 
 C                     44.025    36.991    32.422 
 C                     46.538    34.107    33.265 
 C                     46.65     33.986    34.795 
 C                     45.973    35.       35.72 
 O                     44.784    35.161    35.779 
 O                     46.884    35.689    36.457 
 N                     46.907    36.63     28.044 
 C                     46.914    37.592    29.051 
 C                     47.512    38.82     28.448 
 C                     47.822    38.501    27.088 
 C                     47.326    37.144    26.858 
 C                     47.77     40.072    29.208 
 C                     48.592    39.354    26.035 
 O                     48.756    38.966    24.89 
 C                     49.27     40.637    26.421 
 N                     46.333    34.234    26.19 
 C                     46.809    35.135    25.32 
 C                     47.01     34.526    23.891 
 C                     46.532    33.097    24.117 
 C                     46.108    33.08     25.586 
 C                     46.279    35.303    22.804 
 C                     47.544    31.938    23.93 
 C                     47.269    30.805    22.938 
 N                     45.198    32.874    28.375 
 C                     45.005    31.839    27.482 
 C                     44.435    30.634    28.123 
 C                     44.27     31.095    29.458 
 C                     44.744    32.452    29.537 
 C                     44.243    29.275    27.519 
 C                     43.788    30.694    30.702 
 O                     43.429    29.631    31.152 
 C                     43.799    31.923    31.517 
 C                     44.08     31.674    32.891 
 O                     44.983    30.964    33.29 
 O                     43.062    32.241    33.608 
 C                     43.114    32.167    35.05 
 C                     46.359    36.632    37.459 
 C                     47.053    37.987    37.231 
 C                     46.847    39.176    37.859 
 C                     45.785    39.348    38.963 
 C                     47.552    40.51     37.336 
 C                     47.708    41.729    38.222 
 C                     49.231    41.893    38.463 
 C                     49.781    43.008    37.531 
 C                     51.129    42.617    36.827 
 C                     49.881    44.384    38.23 
 C                     49.021    45.53     37.704 
 C                     47.872    45.753    38.784 
 C                     46.495    46.18     38.177 
 C                     46.2      47.659    38.317 
 C                     45.261    45.365    38.685 
 C                     44.08     45.666    37.812 
 C                     42.888    46.033    38.771 
 C                     41.8      46.895    38.102 
 C                     40.914    47.544    39.148 
 C                     40.984    46.064    37.09 
 H                     46.461    38.402    30.911 
 H                     47.624    36.884    24.716 
 H                     45.177    31.193    25.418 
 H                     44.424    34.445    33.267 
 H                     46.027    36.74     33.054 
 H                     44.194    38.067    32.442 
 H                     43.472    36.677    33.308 
 H                     43.48     36.753    31.508 
 H                     47.388    34.736    33. 
 H                     46.803    33.15     32.815 
 H                     47.735    34.038    34.879 
 H                     46.461    32.95     35.076 
 H                     47.071    40.239    30.027 
 H                     47.625    41.003    28.66 
 H                     48.815    40.035    29.515 
 H                     49.681    40.572    27.428 
 H                     48.737    41.572    26.242 
 H                     50.093    40.692    25.709 
 H                     47.996    34.581    23.429 
 H                     45.704    32.832    23.459 
 H                     45.898    36.214    23.267 
 H                     45.44     34.683    22.489 
 H                     46.916    35.51     21.944 
 H                     47.821    31.374    24.82 
 H                     48.456    32.423    23.581 
 H                     47.693    29.889    23.348 
 H                     47.765    31.022    21.992 
 H                     46.219    30.58     22.747 
 H                     44.41     29.294    26.442 
 H                     43.218    28.954    27.703 
 H                     44.934    28.602    28.026 
 H                     42.784    32.321    31.488 
 H                     42.527    31.318    35.4 
 H                     42.593    33.056    35.407 
 H                     44.095    32.174    35.524 
 H                     46.541    36.329    38.49 
 H                     45.274    36.737    37.459 
 H                     47.784    37.971    36.423 
 H                     46.284    39.526    39.916 
 H                     45.104    38.513    39.13 
 H                     45.287    40.215    38.53 
 H                     46.831    40.887    36.611 
 H                     48.476    40.186    36.857 
 H                     47.238    41.586    39.195 
 H                     47.212    42.539    37.687 
 H                     49.869    41.011    38.431 
 H                     49.298    42.193    39.509 
 H                     49.096    43.188    36.702 
 H                     51.494    43.526    36.35 
 H                     50.982    41.782    36.141 
 H                     51.835    42.367    37.618 
 H                     50.916    44.713    38.132 
 H                     49.712    44.189    39.289 
 H                     48.663    45.124    36.758 
 H                     49.69     46.384    37.593 
 H                     48.238    46.517    39.469 
 H                     47.754    44.834    39.358 
 H                     46.697    46.021    37.118 
 H                     45.546    48.038    37.532 
 H                     47.123    48.215    38.479 
 H                     45.669    47.829    39.254 
 H                     45.196    45.604    39.747 
 H                     45.358    44.296    38.494 
 H                     43.699    44.749    37.362 
 H                     44.174    46.48     37.093 
 H                     43.272    46.56     39.644 
 H                     42.289    45.236    39.211 
 H                     42.265    47.646    37.463 
 H                     40.869    48.598    38.876 
 H                     41.49     47.656    40.067 
 H                     39.879    47.236    39.297 
 H                     41.517    45.115    37.024 
 H                     40.939    46.456    36.074 
 H                     39.927    45.925    37.32 
 
 ITRead=  0  0  0  0  0  0  0  0  0  0  0  0  0  0  0  0  0  0  0  0
 ITRead=  0  0  0  0  0  0  0  0  0  0  0  0  0  0  0  0  0  0  0  0
 ITRead=  0  0  0  0  0  0  0  0  0  0  0  0  0  0  0  0  0  0  0  0
 ITRead=  0  0  0  0  0  0  0  0  0  0  0  0  0  0  0  0  0  0  0  0
 ITRead=  0  0  0  0  0  0  0  0  0  0  0  0  0  0  0  0  0  0  0  0
 ITRead=  0  0  0  0  0  0  0  0  0  0  0  0  0  0  0  0  0  0  0  0
 ITRead=  0  0  0  0  0  0  0  0  0  0  0  0  0  0  0  0  0  0  0  0
 MicOpt= -1 -1 -1 -1 -1 -1 -1 -1 -1 -1 -1 -1 -1 -1 -1 -1 -1 -1 -1 -1
 MicOpt= -1 -1 -1 -1 -1 -1 -1 -1 -1 -1 -1 -1 -1 -1 -1 -1 -1 -1 -1 -1
 MicOpt= -1 -1 -1 -1 -1 -1 -1 -1 -1 -1 -1 -1 -1 -1 -1 -1 -1 -1 -1 -1
 MicOpt= -1 -1 -1 -1 -1 -1 -1 -1 -1 -1 -1 -1 -1 -1 -1 -1 -1 -1 -1 -1
 MicOpt= -1 -1 -1 -1 -1 -1 -1 -1 -1 -1 -1 -1 -1 -1 -1 -1 -1 -1 -1 -1
 MicOpt= -1 -1 -1 -1 -1 -1 -1 -1 -1 -1 -1 -1 -1 -1 -1 -1 -1 -1 -1 -1
 MicOpt= -1 -1 -1 -1 -1 -1 -1 -1 -1 -1 -1 -1 -1 -1 -1 -1 -1 -1 -1 -1
 NAtoms=    140 NQM=      140 NQMF=       0 NMMI=      0 NMMIF=      0
                NMic=       0 NMicF=      0.
                    Isotopes and Nuclear Properties:
 (Nuclear quadrupole moments (NQMom) in fm**2, nuclear magnetic moments (NMagM)
  in nuclear magnetons)

  Atom         1           2           3           4           5           6           7           8           9          10
 IAtWgt=          24          12          12          12          12          14          12          12          12          12
 AtmWgt=  23.9850450  12.0000000  12.0000000  12.0000000  12.0000000  14.0030740  12.0000000  12.0000000  12.0000000  12.0000000
 NucSpn=           0           0           0           0           0           2           0           0           0           0
 AtZEff=  -0.0000000  -0.0000000  -0.0000000  -0.0000000  -0.0000000  -0.0000000  -0.0000000  -0.0000000  -0.0000000  -0.0000000
 NQMom=    0.0000000   0.0000000   0.0000000   0.0000000   0.0000000   2.0440000   0.0000000   0.0000000   0.0000000   0.0000000
 NMagM=    0.0000000   0.0000000   0.0000000   0.0000000   0.0000000   0.4037610   0.0000000   0.0000000   0.0000000   0.0000000
 AtZNuc=  12.0000000   6.0000000   6.0000000   6.0000000   6.0000000   7.0000000   6.0000000   6.0000000   6.0000000   6.0000000

  Atom        11          12          13          14          15          16          17          18          19          20
 IAtWgt=          12          12          12          12          16          16          14          12          12          12
 AtmWgt=  12.0000000  12.0000000  12.0000000  12.0000000  15.9949146  15.9949146  14.0030740  12.0000000  12.0000000  12.0000000
 NucSpn=           0           0           0           0           0           0           2           0           0           0
 AtZEff=  -0.0000000  -0.0000000  -0.0000000  -0.0000000  -0.0000000  -0.0000000  -0.0000000  -0.0000000  -0.0000000  -0.0000000
 NQMom=    0.0000000   0.0000000   0.0000000   0.0000000   0.0000000   0.0000000   2.0440000   0.0000000   0.0000000   0.0000000
 NMagM=    0.0000000   0.0000000   0.0000000   0.0000000   0.0000000   0.0000000   0.4037610   0.0000000   0.0000000   0.0000000
 AtZNuc=   6.0000000   6.0000000   6.0000000   6.0000000   8.0000000   8.0000000   7.0000000   6.0000000   6.0000000   6.0000000

  Atom        21          22          23          24          25          26          27          28          29          30
 IAtWgt=          12          12          12          16          12          14          12          12          12          12
 AtmWgt=  12.0000000  12.0000000  12.0000000  15.9949146  12.0000000  14.0030740  12.0000000  12.0000000  12.0000000  12.0000000
 NucSpn=           0           0           0           0           0           2           0           0           0           0
 AtZEff=  -0.0000000  -0.0000000  -0.0000000  -0.0000000  -0.0000000  -0.0000000  -0.0000000  -0.0000000  -0.0000000  -0.0000000
 NQMom=    0.0000000   0.0000000   0.0000000   0.0000000   0.0000000   2.0440000   0.0000000   0.0000000   0.0000000   0.0000000
 NMagM=    0.0000000   0.0000000   0.0000000   0.0000000   0.0000000   0.4037610   0.0000000   0.0000000   0.0000000   0.0000000
 AtZNuc=   6.0000000   6.0000000   6.0000000   8.0000000   6.0000000   7.0000000   6.0000000   6.0000000   6.0000000   6.0000000

  Atom        31          32          33          34          35          36          37          38          39          40
 IAtWgt=          12          12          12          14          12          12          12          12          12          12
 AtmWgt=  12.0000000  12.0000000  12.0000000  14.0030740  12.0000000  12.0000000  12.0000000  12.0000000  12.0000000  12.0000000
 NucSpn=           0           0           0           2           0           0           0           0           0           0
 AtZEff=  -0.0000000  -0.0000000  -0.0000000  -0.0000000  -0.0000000  -0.0000000  -0.0000000  -0.0000000  -0.0000000  -0.0000000
 NQMom=    0.0000000   0.0000000   0.0000000   2.0440000   0.0000000   0.0000000   0.0000000   0.0000000   0.0000000   0.0000000
 NMagM=    0.0000000   0.0000000   0.0000000   0.4037610   0.0000000   0.0000000   0.0000000   0.0000000   0.0000000   0.0000000
 AtZNuc=   6.0000000   6.0000000   6.0000000   7.0000000   6.0000000   6.0000000   6.0000000   6.0000000   6.0000000   6.0000000

  Atom        41          42          43          44          45          46          47          48          49          50
 IAtWgt=          16          12          12          16          16          12          12          12          12          12
 AtmWgt=  15.9949146  12.0000000  12.0000000  15.9949146  15.9949146  12.0000000  12.0000000  12.0000000  12.0000000  12.0000000
 NucSpn=           0           0           0           0           0           0           0           0           0           0
 AtZEff=  -0.0000000  -0.0000000  -0.0000000  -0.0000000  -0.0000000  -0.0000000  -0.0000000  -0.0000000  -0.0000000  -0.0000000
 NQMom=    0.0000000   0.0000000   0.0000000   0.0000000   0.0000000   0.0000000   0.0000000   0.0000000   0.0000000   0.0000000
 NMagM=    0.0000000   0.0000000   0.0000000   0.0000000   0.0000000   0.0000000   0.0000000   0.0000000   0.0000000   0.0000000
 AtZNuc=   8.0000000   6.0000000   6.0000000   8.0000000   8.0000000   6.0000000   6.0000000   6.0000000   6.0000000   6.0000000

  Atom        51          52          53          54          55          56          57          58          59          60
 IAtWgt=          12          12          12          12          12          12          12          12          12          12
 AtmWgt=  12.0000000  12.0000000  12.0000000  12.0000000  12.0000000  12.0000000  12.0000000  12.0000000  12.0000000  12.0000000
 NucSpn=           0           0           0           0           0           0           0           0           0           0
 AtZEff=  -0.0000000  -0.0000000  -0.0000000  -0.0000000  -0.0000000  -0.0000000  -0.0000000  -0.0000000  -0.0000000  -0.0000000
 NQMom=    0.0000000   0.0000000   0.0000000   0.0000000   0.0000000   0.0000000   0.0000000   0.0000000   0.0000000   0.0000000
 NMagM=    0.0000000   0.0000000   0.0000000   0.0000000   0.0000000   0.0000000   0.0000000   0.0000000   0.0000000   0.0000000
 AtZNuc=   6.0000000   6.0000000   6.0000000   6.0000000   6.0000000   6.0000000   6.0000000   6.0000000   6.0000000   6.0000000

  Atom        61          62          63          64          65          66          67          68          69          70
 IAtWgt=          12          12          12          12          12          12           1           1           1           1
 AtmWgt=  12.0000000  12.0000000  12.0000000  12.0000000  12.0000000  12.0000000   1.0078250   1.0078250   1.0078250   1.0078250
 NucSpn=           0           0           0           0           0           0           1           1           1           1
 AtZEff=  -0.0000000  -0.0000000  -0.0000000  -0.0000000  -0.0000000  -0.0000000  -0.0000000  -0.0000000  -0.0000000  -0.0000000
 NQMom=    0.0000000   0.0000000   0.0000000   0.0000000   0.0000000   0.0000000   0.0000000   0.0000000   0.0000000   0.0000000
 NMagM=    0.0000000   0.0000000   0.0000000   0.0000000   0.0000000   0.0000000   2.7928460   2.7928460   2.7928460   2.7928460
 AtZNuc=   6.0000000   6.0000000   6.0000000   6.0000000   6.0000000   6.0000000   1.0000000   1.0000000   1.0000000   1.0000000

  Atom        71          72          73          74          75          76          77          78          79          80
 IAtWgt=           1           1           1           1           1           1           1           1           1           1
 AtmWgt=   1.0078250   1.0078250   1.0078250   1.0078250   1.0078250   1.0078250   1.0078250   1.0078250   1.0078250   1.0078250
 NucSpn=           1           1           1           1           1           1           1           1           1           1
 AtZEff=  -0.0000000  -0.0000000  -0.0000000  -0.0000000  -0.0000000  -0.0000000  -0.0000000  -0.0000000  -0.0000000  -0.0000000
 NQMom=    0.0000000   0.0000000   0.0000000   0.0000000   0.0000000   0.0000000   0.0000000   0.0000000   0.0000000   0.0000000
 NMagM=    2.7928460   2.7928460   2.7928460   2.7928460   2.7928460   2.7928460   2.7928460   2.7928460   2.7928460   2.7928460
 AtZNuc=   1.0000000   1.0000000   1.0000000   1.0000000   1.0000000   1.0000000   1.0000000   1.0000000   1.0000000   1.0000000

  Atom        81          82          83          84          85          86          87          88          89          90
 IAtWgt=           1           1           1           1           1           1           1           1           1           1
 AtmWgt=   1.0078250   1.0078250   1.0078250   1.0078250   1.0078250   1.0078250   1.0078250   1.0078250   1.0078250   1.0078250
 NucSpn=           1           1           1           1           1           1           1           1           1           1
 AtZEff=  -0.0000000  -0.0000000  -0.0000000  -0.0000000  -0.0000000  -0.0000000  -0.0000000  -0.0000000  -0.0000000  -0.0000000
 NQMom=    0.0000000   0.0000000   0.0000000   0.0000000   0.0000000   0.0000000   0.0000000   0.0000000   0.0000000   0.0000000
 NMagM=    2.7928460   2.7928460   2.7928460   2.7928460   2.7928460   2.7928460   2.7928460   2.7928460   2.7928460   2.7928460
 AtZNuc=   1.0000000   1.0000000   1.0000000   1.0000000   1.0000000   1.0000000   1.0000000   1.0000000   1.0000000   1.0000000

  Atom        91          92          93          94          95          96          97          98          99         100
 IAtWgt=           1           1           1           1           1           1           1           1           1           1
 AtmWgt=   1.0078250   1.0078250   1.0078250   1.0078250   1.0078250   1.0078250   1.0078250   1.0078250   1.0078250   1.0078250
 NucSpn=           1           1           1           1           1           1           1           1           1           1
 AtZEff=  -0.0000000  -0.0000000  -0.0000000  -0.0000000  -0.0000000  -0.0000000  -0.0000000  -0.0000000  -0.0000000  -0.0000000
 NQMom=    0.0000000   0.0000000   0.0000000   0.0000000   0.0000000   0.0000000   0.0000000   0.0000000   0.0000000   0.0000000
 NMagM=    2.7928460   2.7928460   2.7928460   2.7928460   2.7928460   2.7928460   2.7928460   2.7928460   2.7928460   2.7928460
 AtZNuc=   1.0000000   1.0000000   1.0000000   1.0000000   1.0000000   1.0000000   1.0000000   1.0000000   1.0000000   1.0000000

  Atom       101         102         103         104         105         106         107         108         109         110
 IAtWgt=           1           1           1           1           1           1           1           1           1           1
 AtmWgt=   1.0078250   1.0078250   1.0078250   1.0078250   1.0078250   1.0078250   1.0078250   1.0078250   1.0078250   1.0078250
 NucSpn=           1           1           1           1           1           1           1           1           1           1
 AtZEff=  -0.0000000  -0.0000000  -0.0000000  -0.0000000  -0.0000000  -0.0000000  -0.0000000  -0.0000000  -0.0000000  -0.0000000
 NQMom=    0.0000000   0.0000000   0.0000000   0.0000000   0.0000000   0.0000000   0.0000000   0.0000000   0.0000000   0.0000000
 NMagM=    2.7928460   2.7928460   2.7928460   2.7928460   2.7928460   2.7928460   2.7928460   2.7928460   2.7928460   2.7928460
 AtZNuc=   1.0000000   1.0000000   1.0000000   1.0000000   1.0000000   1.0000000   1.0000000   1.0000000   1.0000000   1.0000000

  Atom       111         112         113         114         115         116         117         118         119         120
 IAtWgt=           1           1           1           1           1           1           1           1           1           1
 AtmWgt=   1.0078250   1.0078250   1.0078250   1.0078250   1.0078250   1.0078250   1.0078250   1.0078250   1.0078250   1.0078250
 NucSpn=           1           1           1           1           1           1           1           1           1           1
 AtZEff=  -0.0000000  -0.0000000  -0.0000000  -0.0000000  -0.0000000  -0.0000000  -0.0000000  -0.0000000  -0.0000000  -0.0000000
 NQMom=    0.0000000   0.0000000   0.0000000   0.0000000   0.0000000   0.0000000   0.0000000   0.0000000   0.0000000   0.0000000
 NMagM=    2.7928460   2.7928460   2.7928460   2.7928460   2.7928460   2.7928460   2.7928460   2.7928460   2.7928460   2.7928460
 AtZNuc=   1.0000000   1.0000000   1.0000000   1.0000000   1.0000000   1.0000000   1.0000000   1.0000000   1.0000000   1.0000000

  Atom       121         122         123         124         125         126         127         128         129         130
 IAtWgt=           1           1           1           1           1           1           1           1           1           1
 AtmWgt=   1.0078250   1.0078250   1.0078250   1.0078250   1.0078250   1.0078250   1.0078250   1.0078250   1.0078250   1.0078250
 NucSpn=           1           1           1           1           1           1           1           1           1           1
 AtZEff=  -0.0000000  -0.0000000  -0.0000000  -0.0000000  -0.0000000  -0.0000000  -0.0000000  -0.0000000  -0.0000000  -0.0000000
 NQMom=    0.0000000   0.0000000   0.0000000   0.0000000   0.0000000   0.0000000   0.0000000   0.0000000   0.0000000   0.0000000
 NMagM=    2.7928460   2.7928460   2.7928460   2.7928460   2.7928460   2.7928460   2.7928460   2.7928460   2.7928460   2.7928460
 AtZNuc=   1.0000000   1.0000000   1.0000000   1.0000000   1.0000000   1.0000000   1.0000000   1.0000000   1.0000000   1.0000000

  Atom       131         132         133         134         135         136         137         138         139         140
 IAtWgt=           1           1           1           1           1           1           1           1           1           1
 AtmWgt=   1.0078250   1.0078250   1.0078250   1.0078250   1.0078250   1.0078250   1.0078250   1.0078250   1.0078250   1.0078250
 NucSpn=           1           1           1           1           1           1           1           1           1           1
 AtZEff=  -0.0000000  -0.0000000  -0.0000000  -0.0000000  -0.0000000  -0.0000000  -0.0000000  -0.0000000  -0.0000000  -0.0000000
 NQMom=    0.0000000   0.0000000   0.0000000   0.0000000   0.0000000   0.0000000   0.0000000   0.0000000   0.0000000   0.0000000
 NMagM=    2.7928460   2.7928460   2.7928460   2.7928460   2.7928460   2.7928460   2.7928460   2.7928460   2.7928460   2.7928460
 AtZNuc=   1.0000000   1.0000000   1.0000000   1.0000000   1.0000000   1.0000000   1.0000000   1.0000000   1.0000000   1.0000000
 Leave Link  101 at Sat Apr 30 07:44:54 2022, MaxMem=  6710886400 cpu:               3.4 elap:               0.2
 (Enter /sw/apps/gaussian-16.0/g16/l202.exe)
 Stoichiometry    C55H74MgN4O6
 Framework group  C1[X(C55H74MgN4O6)]
 Deg. of freedom   414
 Full point group                 C1      NOp   1
 Largest Abelian subgroup         C1      NOp   1
 Largest concise Abelian subgroup C1      NOp   1
                         Standard orientation:                         
 ---------------------------------------------------------------------
 Center     Atomic      Atomic             Coordinates (Angstroms)
 Number     Number       Type             X           Y           Z
 ---------------------------------------------------------------------
      1         12           0       -4.630542    0.979068    0.285076
      2          6           0       -4.104500   -2.479861    0.518917
      3          6           0       -1.190184    1.389024    0.066830
      4          6           0       -5.221024    4.152867    0.206829
      5          6           0       -8.057620    0.275803    0.727617
      6          7           0       -2.869733   -0.422243    0.127503
      7          6           0       -2.926813   -1.774547    0.270487
      8          6           0       -1.653717   -2.382350   -0.042365
      9          6           0       -0.643061   -1.219592    0.318582
     10          6           0       -1.578493    0.024328    0.126010
     11          6           0       -0.093687   -1.163890    1.708953
     12          6           0       -1.564647   -2.758321   -1.552541
     13          6           0       -0.585409   -3.832513   -2.057802
     14          6           0        0.783347   -4.026280   -1.401212
     15          8           0        0.934531   -4.367479   -0.259350
     16          8           0        1.795218   -3.762440   -2.269726
     17          7           0       -3.388576    2.542751   -0.025305
     18          6           0       -1.996897    2.493494   -0.043900
     19          6           0       -1.532903    3.907568   -0.163493
     20          6           0       -2.707559    4.723749   -0.202131
     21          6           0       -3.843792    3.822915   -0.007613
     22          6           0       -0.103993    4.300439   -0.288142
     23          6           0       -2.825277    6.255576   -0.464745
     24          8           0       -3.900380    6.831536   -0.434937
     25          6           0       -1.632669    7.064922   -0.885952
     26          7           0       -6.401771    2.033340    0.385498
     27          6           0       -6.358941    3.372398    0.366387
     28          6           0       -7.790253    4.008445    0.376950
     29          6           0       -8.660494    2.758720    0.426665
     30          6           0       -7.651561    1.610411    0.464965
     31          6           0       -7.993055    5.000367    1.514763
     32          6           0       -9.617796    2.473814   -0.758575
     33          6           0      -11.122964    2.309583   -0.533017
     34          7           0       -5.861175   -0.719140    0.594452
     35          6           0       -7.226695   -0.858174    0.742597
     36          6           0       -7.647591   -2.273314    0.832215
     37          6           0       -6.387784   -2.930256    0.774906
     38          6           0       -5.356814   -1.934951    0.637659
     39          6           0       -9.044337   -2.818896    0.831223
     40          6           0       -5.811373   -4.197307    0.829616
     41          8           0       -6.262425   -5.318517    0.801499
     42          6           0       -4.361794   -3.941066    0.918201
     43          6           0       -3.582280   -4.935734    0.261062
     44          8           0       -3.809765   -5.360366   -0.855472
     45          8           0       -2.680710   -5.397649    1.180686
     46          6           0       -1.729306   -6.402210    0.764474
     47          6           0        3.167347   -4.002632   -1.791763
     48          6           0        3.984080   -2.726051   -2.061823
     49          6           0        5.273728   -2.443832   -1.733645
     50          6           0        6.161168   -3.440261   -0.961750
     51          6           0        5.869992   -0.977953   -1.947609
     52          6           0        7.362506   -0.726625   -2.014904
     53          6           0        7.655002   -0.261521   -3.464949
     54          6           0        7.808558    1.284534   -3.486953
     55          6           0        7.043849    1.965490   -4.677381
     56          6           0        9.283245    1.745600   -3.418430
     57          6           0        9.735351    2.555577   -2.206354
     58          6           0       10.642276    1.578932   -1.334584
     59          6           0       10.519651    1.797090    0.209526
     60          6           0       11.677133    2.567968    0.809567
     61          6           0       10.282955    0.499559    1.049427
     62          6           0        9.885556    0.882080    2.443430
     63          6           0       10.811349    0.066544    3.419669
     64          6           0       10.959023    0.709601    4.812155
     65          6           0       12.149169    0.124173    5.547777
     66          6           0        9.654166    0.571215    5.623795
     67          1           0       -0.122333    1.611492    0.126369
     68          1           0       -5.520781    5.201739    0.168790
     69          1           0       -9.126932    0.172690    0.925391
     70          1           0       -1.330377   -3.261648    0.515072
     71          1           0        0.175505   -1.070248   -0.386088
     72          1           0        0.693151   -0.416610    1.804839
     73          1           0        0.295504   -2.156566    1.938137
     74          1           0       -0.903517   -0.888374    2.385217
     75          1           0       -1.293945   -1.877742   -2.135351
     76          1           0       -2.563576   -2.989019   -1.923343
     77          1           0       -0.484629   -3.484298   -3.085213
     78          1           0       -1.134007   -4.763807   -2.198198
     79          1           0        0.583033    3.617359    0.210505
     80          1           0        0.181779    5.229274    0.205507
     81          1           0        0.088044    4.426204   -1.353481
     82          1           0       -0.976116    6.482808   -1.531921
     83          1           0       -1.088815    7.614468   -0.116162
     84          1           0       -2.085302    7.863170   -1.473507
     85          1           0       -8.068031    4.693563   -0.424372
     86          1           0       -9.312704    2.746920    1.300310
     87          1           0       -7.018612    5.152568    1.980326
     88          1           0       -8.661183    4.521188    2.229982
     89          1           0       -8.440537    5.934294    1.174531
     90          1           0       -9.401422    1.598888   -1.370631
     91          1           0       -9.508646    3.338246   -1.414024
     92          1           0      -11.492804    1.579153   -1.251782
     93          1           0      -11.623809    3.259921   -0.717493
     94          1           0      -11.422248    1.932578    0.445708
     95          1           0       -9.780006   -2.021928    0.939904
     96          1           0       -9.151231   -3.503367    1.672410
     97          1           0       -9.171025   -3.364789   -0.103342
     98          1           0       -4.101029   -4.008489    1.975048
     99          1           0       -2.097479   -7.394015    1.026469
    100          1           0       -0.845115   -6.240653    1.381981
    101          1           0       -1.389682   -6.382378   -0.270585
    102          1           0        3.668777   -4.834753   -2.285762
    103          1           0        3.237731   -4.305009   -0.746840
    104          1           0        3.413218   -1.940804   -2.556783
    105          1           0        6.954892   -3.797049   -1.618712
    106          1           0        5.675163   -4.331453   -0.563690
    107          1           0        6.479489   -2.751612   -0.179691
    108          1           0        5.632309   -0.488463   -1.003415
    109          1           0        5.308122   -0.550171   -2.777968
    110          1           0        7.935377   -1.637963   -1.843555
    111          1           0        7.568896   -0.005638   -1.223752
    112          1           0        7.002712   -0.598019   -4.269485
    113          1           0        8.599066   -0.749123   -3.709064
    114          1           0        7.357243    1.727870   -2.598902
    115          1           0        7.365615    3.006372   -4.685505
    116          1           0        5.966223    1.833036   -4.574391
    117          1           0        7.418564    1.509267   -5.592841
    118          1           0        9.455819    2.380628   -4.287928
    119          1           0        9.880071    0.845116   -3.563324
    120          1           0        8.783535    2.806882   -1.738586
    121          1           0       10.273937    3.417254   -2.602126
    122          1           0       11.669258    1.740552   -1.660257
    123          1           0       10.382020    0.550451   -1.584493
    124          1           0        9.668946    2.477571    0.238019
    125          1           0       11.399405    3.122200    1.705824
    126          1           0       12.193164    3.137397    0.037057
    127          1           0       12.449261    1.864588    1.122465
    128          1           0       11.193784   -0.083837    0.910763
    129          1           0        9.383265   -0.036696    0.746709
    130          1           0        8.912376    0.456638    2.689336
    131          1           0        9.969371    1.931693    2.725708
    132          1           0       11.799274   -0.047509    2.974348
    133          1           0       10.543116   -0.956180    3.683671
    134          1           0       11.055041    1.790868    4.711212
    135          1           0       12.715881    0.981139    5.910228
    136          1           0       12.872205   -0.226443    4.810777
    137          1           0       12.027183   -0.531583    6.409979
    138          1           0        8.929638    0.178005    4.910009
    139          1           0        9.227675    1.498195    6.006886
    140          1           0        9.709766   -0.036358    6.527805
 ---------------------------------------------------------------------
 Rotational constants (GHZ):           0.0388378           0.0120355           0.0104007
 Leave Link  202 at Sat Apr 30 07:44:54 2022, MaxMem=  6710886400 cpu:               0.2 elap:               0.0
 (Enter /sw/apps/gaussian-16.0/g16/l301.exe)
 Standard basis: VSTO-6G (5D, 7F)
 Ernie: Thresh=  0.10000D-02 Tol=  0.10000D-05 Strict=F.
 There are   338 symmetry adapted cartesian basis functions of A   symmetry.
 There are   338 symmetry adapted basis functions of A   symmetry.
   338 basis functions,  2028 primitive gaussians,   338 cartesian basis functions
   176 alpha electrons      176 beta electrons
       nuclear repulsion energy      4889.6414963847 Hartrees.
 IExCor=    0 DFT=F Ex=HF Corr=None ExCW=0 ScaHFX=  1.000000
 ScaDFX=  1.000000  1.000000  1.000000  1.000000 ScalE2=  1.000000  1.000000
 IRadAn=      5 IRanWt=     -1 IRanGd=            0 ICorTp=0 IEmpDi=  4
 Integral buffers will be    131072 words long.
 Regular integral format.
 Two-electron integral symmetry is turned off.
 Leave Link  301 at Sat Apr 30 07:44:54 2022, MaxMem=  6710886400 cpu:               1.2 elap:               0.1
 (Enter /sw/apps/gaussian-16.0/g16/l302.exe)
 Do NDO integrals.
 NPDir=0 NMtPBC=     1 NCelOv=     1 NCel=       1 NClECP=     1 NCelD=      1
         NCelK=      1 NCelE2=     1 NClLst=     1 CellRange=     0.0.
 One-electron integrals computed using PRISM.
 Generate ZINDO/S integrals.
 NDO Nuclear repulsion=  4397.510737299725 Hartrees.
 NBasis=   338 RedAO= F EigKep=  0.00D+00  NBF=   338
 NBsUse=   338 1.00D-04 EigRej=  0.00D+00 NBFU=   338
 Leave Link  302 at Sat Apr 30 07:44:54 2022, MaxMem=  6710886400 cpu:               8.0 elap:               0.4
 (Enter /sw/apps/gaussian-16.0/g16/l303.exe)
 DipDrv:  MaxL=1.
 DipDrv:  will hold  3 matrices at once.
 Leave Link  303 at Sat Apr 30 07:44:55 2022, MaxMem=  6710886400 cpu:               0.5 elap:               0.0
 (Enter /sw/apps/gaussian-16.0/g16/l308.exe)
 Leave Link  308 at Sat Apr 30 07:44:55 2022, MaxMem=  6710886400 cpu:               4.9 elap:               0.2
 (Enter /sw/apps/gaussian-16.0/g16/l401.exe)
 Simple Huckel Guess.
 JPrj=0 DoOrth=F DoCkMO=F.
 Leave Link  401 at Sat Apr 30 07:44:55 2022, MaxMem=  6710886400 cpu:               2.6 elap:               0.1
 (Enter /sw/apps/gaussian-16.0/g16/l502.exe)
 Two-electron integral symmetry not used.
 Closed shell SCF:
 Using DIIS extrapolation, IDIIS=  1040.
 Overlap will be assumed to be unity.
 NGot=  6710886400 LenX=  6710643598 LenY=  6710528913
 Requested convergence on RMS density matrix=1.00D-08 within 128 cycles.
 Requested convergence on MAX density matrix=1.00D-06.
 Requested convergence on             energy=1.00D-06.
 No special actions if energy rises.
 Fock matrices will be formed incrementally for  20 cycles.

 Cycle   1  Pass 1  IDiag  1:
 E= -472.813065180819    
 DIIS: error= 5.70D-02 at cycle   1 NSaved=   1.
 NSaved= 1 IEnMin= 1 EnMin= -472.813065180819     IErMin= 1 ErrMin= 5.70D-02
 ErrMax= 5.70D-02  0.00D+00 EMaxC= 1.00D-01 BMatC= 8.28D-01 BMatP= 8.28D-01
 IDIUse=3 WtCom= 4.30D-01 WtEn= 5.70D-01
 Coeff-Com:  0.100D+01
 Coeff-En:   0.100D+01
 Coeff:      0.100D+01
 GapD=    2.000 DampG=2.000 DampE=0.500 DampFc=1.0000 IDamp=-1.
 RMSDP=3.98D-03 MaxDP=1.73D-01              OVMax= 0.00D+00

 Cycle   2  Pass 1  IDiag  1:
 RMSU=  3.98D-03    CP:  9.95D-01
 E= -474.638511632120     Delta-E=       -1.825446451301 Rises=F Damp=F
 DIIS: error= 1.96D-02 at cycle   2 NSaved=   2.
 NSaved= 2 IEnMin= 2 EnMin= -474.638511632120     IErMin= 2 ErrMin= 1.96D-02
 ErrMax= 1.96D-02  0.00D+00 EMaxC= 1.00D-01 BMatC= 5.00D-02 BMatP= 8.28D-01
 IDIUse=3 WtCom= 8.04D-01 WtEn= 1.96D-01
 Coeff-Com: -0.826D-01 0.108D+01
 Coeff-En:   0.000D+00 0.100D+01
 Coeff:     -0.664D-01 0.107D+01
 RMSDP=1.08D-03 MaxDP=5.42D-02 DE=-1.83D+00 OVMax= 0.00D+00

 Cycle   3  Pass 1  IDiag  1:
 RMSU=  9.97D-04    CP:  9.93D-01  1.10D+00
 E= -474.738306099172     Delta-E=       -0.099794467053 Rises=F Damp=F
 DIIS: error= 7.79D-03 at cycle   3 NSaved=   3.
 NSaved= 3 IEnMin= 3 EnMin= -474.738306099172     IErMin= 3 ErrMin= 7.79D-03
 ErrMax= 7.79D-03  0.00D+00 EMaxC= 1.00D-01 BMatC= 6.48D-03 BMatP= 5.00D-02
 IDIUse=3 WtCom= 9.22D-01 WtEn= 7.79D-02
 Coeff-Com: -0.663D-01 0.236D+00 0.830D+00
 Coeff-En:   0.000D+00 0.000D+00 0.100D+01
 Coeff:     -0.611D-01 0.218D+00 0.843D+00
 RMSDP=3.55D-04 MaxDP=1.74D-02 DE=-9.98D-02 OVMax= 0.00D+00

 Cycle   4  Pass 1  IDiag  1:
 RMSU=  2.32D-04    CP:  9.93D-01  1.17D+00  9.26D-01
 E= -474.749952563153     Delta-E=       -0.011646463980 Rises=F Damp=F
 DIIS: error= 1.36D-03 at cycle   4 NSaved=   4.
 NSaved= 4 IEnMin= 4 EnMin= -474.749952563153     IErMin= 4 ErrMin= 1.36D-03
 ErrMax= 1.36D-03  0.00D+00 EMaxC= 1.00D-01 BMatC= 2.89D-04 BMatP= 6.48D-03
 IDIUse=3 WtCom= 9.86D-01 WtEn= 1.36D-02
 Coeff-Com: -0.223D-03-0.332D-01 0.368D-01 0.997D+00
 Coeff-En:   0.000D+00 0.000D+00 0.000D+00 0.100D+01
 Coeff:     -0.220D-03-0.327D-01 0.363D-01 0.997D+00
 RMSDP=1.16D-04 MaxDP=6.52D-03 DE=-1.16D-02 OVMax= 0.00D+00

 Cycle   5  Pass 1  IDiag  1:
 RMSU=  7.49D-05    CP:  9.93D-01  1.17D+00  1.01D+00  1.07D+00
 E= -474.750868795361     Delta-E=       -0.000916232209 Rises=F Damp=F
 DIIS: error= 5.03D-04 at cycle   5 NSaved=   5.
 NSaved= 5 IEnMin= 5 EnMin= -474.750868795361     IErMin= 5 ErrMin= 5.03D-04
 ErrMax= 5.03D-04  0.00D+00 EMaxC= 1.00D-01 BMatC= 4.72D-05 BMatP= 2.89D-04
 IDIUse=3 WtCom= 9.95D-01 WtEn= 5.03D-03
 Coeff-Com:  0.582D-02-0.236D-01-0.922D-01 0.160D+00 0.950D+00
 Coeff-En:   0.000D+00 0.000D+00 0.000D+00 0.000D+00 0.100D+01
 Coeff:      0.579D-02-0.235D-01-0.917D-01 0.160D+00 0.950D+00
 RMSDP=5.29D-05 MaxDP=3.17D-03 DE=-9.16D-04 OVMax= 0.00D+00

 Cycle   6  Pass 1  IDiag  1:
 RMSU=  2.84D-05    CP:  9.93D-01  1.18D+00  1.03D+00  1.24D+00  1.12D+00
 E= -474.751027840543     Delta-E=       -0.000159045182 Rises=F Damp=F
 DIIS: error= 1.87D-04 at cycle   6 NSaved=   6.
 NSaved= 6 IEnMin= 6 EnMin= -474.751027840543     IErMin= 6 ErrMin= 1.87D-04
 ErrMax= 1.87D-04  0.00D+00 EMaxC= 1.00D-01 BMatC= 5.41D-06 BMatP= 4.72D-05
 IDIUse=3 WtCom= 9.98D-01 WtEn= 1.87D-03
 Coeff-Com: -0.109D-03 0.508D-02-0.143D-01-0.973D-01 0.569D-01 0.105D+01
 Coeff-En:   0.000D+00 0.000D+00 0.000D+00 0.000D+00 0.000D+00 0.100D+01
 Coeff:     -0.109D-03 0.507D-02-0.143D-01-0.971D-01 0.568D-01 0.105D+01
 RMSDP=2.26D-05 MaxDP=1.37D-03 DE=-1.59D-04 OVMax= 0.00D+00

 Cycle   7  Pass 1  IDiag  1:
 RMSU=  1.06D-05    CP:  9.92D-01  1.18D+00  1.03D+00  1.27D+00  1.31D+00
                    CP:  1.34D+00
 E= -474.751052929522     Delta-E=       -0.000025088979 Rises=F Damp=F
 DIIS: error= 5.60D-05 at cycle   7 NSaved=   7.
 NSaved= 7 IEnMin= 7 EnMin= -474.751052929522     IErMin= 7 ErrMin= 5.60D-05
 ErrMax= 5.60D-05  0.00D+00 EMaxC= 1.00D-01 BMatC= 6.03D-07 BMatP= 5.41D-06
 IDIUse=1 WtCom= 1.00D+00 WtEn= 0.00D+00
 Coeff-Com: -0.488D-03 0.196D-02 0.698D-02-0.756D-02-0.795D-01-0.822D-01
 Coeff-Com:  0.116D+01
 Coeff:     -0.488D-03 0.196D-02 0.698D-02-0.756D-02-0.795D-01-0.822D-01
 Coeff:      0.116D+01
 RMSDP=1.62D-05 MaxDP=8.97D-04 DE=-2.51D-05 OVMax= 0.00D+00

 Cycle   8  Pass 1  IDiag  1:
 RMSU=  6.57D-06    CP:  9.92D-01  1.18D+00  1.04D+00  1.29D+00  1.37D+00
                    CP:  1.72D+00  1.76D+00
 E= -474.751060749670     Delta-E=       -0.000007820147 Rises=F Damp=F
 DIIS: error= 5.50D-05 at cycle   8 NSaved=   8.
 NSaved= 8 IEnMin= 8 EnMin= -474.751060749670     IErMin= 8 ErrMin= 5.50D-05
 ErrMax= 5.50D-05  0.00D+00 EMaxC= 1.00D-01 BMatC= 3.86D-07 BMatP= 6.03D-07
 IDIUse=1 WtCom= 1.00D+00 WtEn= 0.00D+00
 Coeff-Com: -0.239D-05-0.882D-03 0.320D-02 0.191D-01-0.161D-01-0.245D+00
 Coeff-Com:  0.333D+00 0.907D+00
 Coeff:     -0.239D-05-0.882D-03 0.320D-02 0.191D-01-0.161D-01-0.245D+00
 Coeff:      0.333D+00 0.907D+00
 RMSDP=1.01D-05 MaxDP=5.19D-04 DE=-7.82D-06 OVMax= 0.00D+00

 Cycle   9  Pass 1  IDiag  1:
 RMSU=  2.50D-06    CP:  9.92D-01  1.18D+00  1.04D+00  1.29D+00  1.40D+00
                    CP:  1.91D+00  2.39D+00  1.56D+00
 E= -474.751064669015     Delta-E=       -0.000003919346 Rises=F Damp=F
 DIIS: error= 3.36D-05 at cycle   9 NSaved=   9.
 NSaved= 9 IEnMin= 9 EnMin= -474.751064669015     IErMin= 9 ErrMin= 3.36D-05
 ErrMax= 3.36D-05  0.00D+00 EMaxC= 1.00D-01 BMatC= 1.69D-07 BMatP= 3.86D-07
 IDIUse=1 WtCom= 1.00D+00 WtEn= 0.00D+00
 Coeff-Com:  0.203D-03-0.829D-03-0.282D-02 0.190D-02 0.420D-01-0.559D-02
 Coeff-Com: -0.329D+00-0.661D+00 0.196D+01
 Coeff:      0.203D-03-0.829D-03-0.282D-02 0.190D-02 0.420D-01-0.559D-02
 Coeff:     -0.329D+00-0.661D+00 0.196D+01
 RMSDP=1.83D-05 MaxDP=8.84D-04 DE=-3.92D-06 OVMax= 0.00D+00

 Cycle  10  Pass 1  IDiag  1:
 RMSU=  4.99D-06    CP:  9.92D-01  1.18D+00  1.04D+00  1.30D+00  1.44D+00
                    CP:  2.25D+00  3.00D+00  2.98D+00  2.61D+00
 E= -474.751069342346     Delta-E=       -0.000004673330 Rises=F Damp=F
 DIIS: error= 2.35D-05 at cycle  10 NSaved=  10.
 NSaved=10 IEnMin=10 EnMin= -474.751069342346     IErMin=10 ErrMin= 2.35D-05
 ErrMax= 2.35D-05  0.00D+00 EMaxC= 1.00D-01 BMatC= 9.92D-08 BMatP= 1.69D-07
 IDIUse=1 WtCom= 1.00D+00 WtEn= 0.00D+00
 Coeff-Com: -0.543D-04 0.655D-03-0.800D-03-0.123D-01 0.104D-01 0.860D-01
 Coeff-Com:  0.588D-01-0.790D+00 0.203D+00 0.144D+01
 Coeff:     -0.543D-04 0.655D-03-0.800D-03-0.123D-01 0.104D-01 0.860D-01
 Coeff:      0.588D-01-0.790D+00 0.203D+00 0.144D+01
 RMSDP=1.43D-05 MaxDP=6.78D-04 DE=-4.67D-06 OVMax= 0.00D+00

 Cycle  11  Pass 1  IDiag  1:
 RMSU=  8.40D-06    CP:  9.92D-01  1.18D+00  1.04D+00  1.31D+00  1.46D+00
                    CP:  2.49D+00  3.00D+00  3.00D+00  3.00D+00  2.71D+00
 E= -474.751071659819     Delta-E=       -0.000002317473 Rises=F Damp=F
 DIIS: error= 1.22D-05 at cycle  11 NSaved=  11.
 NSaved=11 IEnMin=11 EnMin= -474.751071659819     IErMin=11 ErrMin= 1.22D-05
 ErrMax= 1.22D-05  0.00D+00 EMaxC= 1.00D-01 BMatC= 2.86D-08 BMatP= 9.92D-08
 IDIUse=1 WtCom= 1.00D+00 WtEn= 0.00D+00
 Coeff-Com: -0.704D-04 0.286D-03 0.120D-02-0.219D-02-0.997D-02-0.136D-01
 Coeff-Com:  0.175D+00 0.951D-01-0.553D+00-0.351D+00 0.166D+01
 Coeff:     -0.704D-04 0.286D-03 0.120D-02-0.219D-02-0.997D-02-0.136D-01
 Coeff:      0.175D+00 0.951D-01-0.553D+00-0.351D+00 0.166D+01
 RMSDP=1.22D-05 MaxDP=5.72D-04 DE=-2.32D-06 OVMax= 0.00D+00

 Cycle  12  Pass 1  IDiag  1:
 RMSU=  6.06D-06    CP:  9.92D-01  1.18D+00  1.04D+00  1.32D+00  1.48D+00
                    CP:  2.68D+00  3.00D+00  3.00D+00  3.00D+00  3.00D+00
                    CP:  1.93D+00
 E= -474.751072663683     Delta-E=       -0.000001003864 Rises=F Damp=F
 DIIS: error= 8.33D-06 at cycle  12 NSaved=  12.
 NSaved=12 IEnMin=12 EnMin= -474.751072663683     IErMin=12 ErrMin= 8.33D-06
 ErrMax= 8.33D-06  0.00D+00 EMaxC= 1.00D-01 BMatC= 9.46D-09 BMatP= 2.86D-08
 IDIUse=1 WtCom= 1.00D+00 WtEn= 0.00D+00
 Coeff-Com:  0.345D-04-0.287D-03 0.160D-03 0.382D-02 0.104D-02-0.340D-01
 Coeff-Com: -0.311D-01 0.182D+00 0.180D+00-0.710D+00 0.845D-01 0.132D+01
 Coeff:      0.345D-04-0.287D-03 0.160D-03 0.382D-02 0.104D-02-0.340D-01
 Coeff:     -0.311D-01 0.182D+00 0.180D+00-0.710D+00 0.845D-01 0.132D+01
 RMSDP=4.95D-06 MaxDP=2.25D-04 DE=-1.00D-06 OVMax= 0.00D+00

 Cycle  13  Pass 1  IDiag  1:
 RMSU=  1.06D-06    CP:  9.92D-01  1.18D+00  1.03D+00  1.32D+00  1.48D+00
                    CP:  2.75D+00  3.00D+00  3.00D+00  3.00D+00  3.00D+00
                    CP:  2.30D+00  1.51D+00
 E= -474.751072865461     Delta-E=       -0.000000201778 Rises=F Damp=F
 DIIS: error= 3.54D-06 at cycle  13 NSaved=  13.
 NSaved=13 IEnMin=13 EnMin= -474.751072865461     IErMin=13 ErrMin= 3.54D-06
 ErrMax= 3.54D-06  0.00D+00 EMaxC= 1.00D-01 BMatC= 2.51D-09 BMatP= 9.46D-09
 IDIUse=1 WtCom= 1.00D+00 WtEn= 0.00D+00
 Coeff-Com:  0.161D-04-0.746D-04-0.266D-03 0.717D-03 0.241D-02 0.515D-03
 Coeff-Com: -0.340D-01-0.527D-01 0.183D+00-0.325D-01-0.163D+00-0.230D+00
 Coeff-Com:  0.133D+01
 Coeff:      0.161D-04-0.746D-04-0.266D-03 0.717D-03 0.241D-02 0.515D-03
 Coeff:     -0.340D-01-0.527D-01 0.183D+00-0.325D-01-0.163D+00-0.230D+00
 Coeff:      0.133D+01
 RMSDP=1.85D-06 MaxDP=9.79D-05 DE=-2.02D-07 OVMax= 0.00D+00

 Cycle  14  Pass 1  IDiag  1:
 RMSU=  3.82D-07    CP:  9.92D-01  1.18D+00  1.03D+00  1.32D+00  1.48D+00
                    CP:  2.77D+00  3.00D+00  3.00D+00  3.00D+00  3.00D+00
                    CP:  2.41D+00  1.69D+00  1.97D+00
 E= -474.751072919023     Delta-E=       -0.000000053562 Rises=F Damp=F
 DIIS: error= 2.59D-06 at cycle  14 NSaved=  14.
 NSaved=14 IEnMin=14 EnMin= -474.751072919023     IErMin=14 ErrMin= 2.59D-06
 ErrMax= 2.59D-06  0.00D+00 EMaxC= 1.00D-01 BMatC= 1.44D-09 BMatP= 2.51D-09
 IDIUse=1 WtCom= 1.00D+00 WtEn= 0.00D+00
 Coeff-Com: -0.314D-04 0.216D-03 0.482D-04-0.237D-02-0.324D-02 0.203D-01
 Coeff-Com:  0.433D-01-0.119D+00-0.124D+00 0.291D+00 0.231D+00-0.912D+00
 Coeff-Com: -0.345D+00 0.192D+01
 Coeff:     -0.314D-04 0.216D-03 0.482D-04-0.237D-02-0.324D-02 0.203D-01
 Coeff:      0.433D-01-0.119D+00-0.124D+00 0.291D+00 0.231D+00-0.912D+00
 Coeff:     -0.345D+00 0.192D+01
 RMSDP=2.27D-06 MaxDP=1.14D-04 DE=-5.36D-08 OVMax= 0.00D+00

 Cycle  15  Pass 1  IDiag  1:
 RMSU=  4.57D-07    CP:  9.92D-01  1.18D+00  1.03D+00  1.32D+00  1.49D+00
                    CP:  2.78D+00  3.00D+00  3.00D+00  3.00D+00  3.00D+00
                    CP:  2.52D+00  1.89D+00  3.00D+00  2.53D+00
 E= -474.751072960380     Delta-E=       -0.000000041357 Rises=F Damp=F
 DIIS: error= 1.41D-06 at cycle  15 NSaved=  15.
 NSaved=15 IEnMin=15 EnMin= -474.751072960380     IErMin=15 ErrMin= 1.41D-06
 ErrMax= 1.41D-06  0.00D+00 EMaxC= 1.00D-01 BMatC= 3.24D-10 BMatP= 1.44D-09
 IDIUse=1 WtCom= 1.00D+00 WtEn= 0.00D+00
 Coeff-Com: -0.285D-05 0.358D-05 0.126D-03 0.136D-03-0.166D-02-0.965D-03
 Coeff-Com:  0.113D-01 0.172D-01-0.328D-01-0.629D-01 0.104D+00 0.137D+00
 Coeff-Com: -0.449D+00-0.239D+00 0.152D+01
 Coeff:     -0.285D-05 0.358D-05 0.126D-03 0.136D-03-0.166D-02-0.965D-03
 Coeff:      0.113D-01 0.172D-01-0.328D-01-0.629D-01 0.104D+00 0.137D+00
 Coeff:     -0.449D+00-0.239D+00 0.152D+01
 RMSDP=1.26D-06 MaxDP=6.23D-05 DE=-4.14D-08 OVMax= 0.00D+00

 Cycle  16  Pass 1  IDiag  1:
 RMSU=  4.07D-07    CP:  9.92D-01  1.18D+00  1.03D+00  1.32D+00  1.49D+00
                    CP:  2.79D+00  3.00D+00  3.00D+00  3.00D+00  3.00D+00
                    CP:  2.58D+00  1.98D+00  3.00D+00  3.00D+00  2.79D+00
 E= -474.751072969431     Delta-E=       -0.000000009051 Rises=F Damp=F
 DIIS: error= 4.44D-07 at cycle  16 NSaved=  16.
 NSaved=16 IEnMin=16 EnMin= -474.751072969431     IErMin=16 ErrMin= 4.44D-07
 ErrMax= 4.44D-07  0.00D+00 EMaxC= 1.00D-01 BMatC= 4.01D-11 BMatP= 3.24D-10
 IDIUse=1 WtCom= 1.00D+00 WtEn= 0.00D+00
 Coeff-Com:  0.697D-05-0.473D-04-0.642D-05 0.557D-03 0.382D-03-0.371D-02
 Coeff-Com: -0.946D-02 0.220D-01 0.334D-01-0.711D-01-0.364D-01 0.185D+00
 Coeff-Com:  0.751D-01-0.421D+00 0.297D-01 0.120D+01
 Coeff:      0.697D-05-0.473D-04-0.642D-05 0.557D-03 0.382D-03-0.371D-02
 Coeff:     -0.946D-02 0.220D-01 0.334D-01-0.711D-01-0.364D-01 0.185D+00
 Coeff:      0.751D-01-0.421D+00 0.297D-01 0.120D+01
 RMSDP=3.27D-07 MaxDP=1.86D-05 DE=-9.05D-09 OVMax= 0.00D+00

 Cycle  17  Pass 1  IDiag  1:
 RMSU=  1.60D-07    CP:  9.92D-01  1.18D+00  1.03D+00  1.32D+00  1.49D+00
                    CP:  2.79D+00  3.00D+00  3.00D+00  3.00D+00  3.00D+00
                    CP:  2.59D+00  2.01D+00  3.00D+00  3.00D+00  3.00D+00
                    CP:  1.33D+00
 E= -474.751072970084     Delta-E=       -0.000000000653 Rises=F Damp=F
 DIIS: error= 1.72D-07 at cycle  17 NSaved=  17.
 NSaved=17 IEnMin=17 EnMin= -474.751072970084     IErMin=17 ErrMin= 1.72D-07
 ErrMax= 1.72D-07  0.00D+00 EMaxC= 1.00D-01 BMatC= 3.48D-12 BMatP= 4.01D-11
 IDIUse=1 WtCom= 1.00D+00 WtEn= 0.00D+00
 Coeff-Com:  0.521D-06-0.183D-05-0.181D-04 0.141D-04 0.161D-03 0.914D-04
 Coeff-Com: -0.179D-02-0.124D-02 0.515D-02 0.307D-02-0.961D-02-0.148D-01
 Coeff-Com:  0.548D-01 0.152D-01-0.151D+00-0.457D-02 0.110D+01
 Coeff:      0.521D-06-0.183D-05-0.181D-04 0.141D-04 0.161D-03 0.914D-04
 Coeff:     -0.179D-02-0.124D-02 0.515D-02 0.307D-02-0.961D-02-0.148D-01
 Coeff:      0.548D-01 0.152D-01-0.151D+00-0.457D-02 0.110D+01
 RMSDP=5.03D-08 MaxDP=2.73D-06 DE=-6.53D-10 OVMax= 0.00D+00

 Cycle  18  Pass 1  IDiag  1:
 RMSU=  1.80D-08    CP:  9.92D-01  1.18D+00  1.03D+00  1.32D+00  1.49D+00
                    CP:  2.79D+00  3.00D+00  3.00D+00  3.00D+00  3.00D+00
                    CP:  2.59D+00  2.01D+00  3.00D+00  3.00D+00  3.00D+00
                    CP:  1.36D+00  1.22D+00
 E= -474.751072970090     Delta-E=       -0.000000000005 Rises=F Damp=F
 DIIS: error= 8.37D-08 at cycle  18 NSaved=  18.
 NSaved=18 IEnMin=18 EnMin= -474.751072970090     IErMin=18 ErrMin= 8.37D-08
 ErrMax= 8.37D-08  0.00D+00 EMaxC= 1.00D-01 BMatC= 6.14D-13 BMatP= 3.48D-12
 IDIUse=1 WtCom= 1.00D+00 WtEn= 0.00D+00
 Coeff-Com: -0.121D-05 0.822D-05 0.771D-07-0.913D-04-0.697D-04 0.641D-03
 Coeff-Com:  0.149D-02-0.339D-02-0.563D-02 0.110D-01 0.724D-02-0.313D-01
 Coeff-Com: -0.105D-01 0.652D-01 0.345D-02-0.210D+00-0.425D-01 0.121D+01
 Coeff:     -0.121D-05 0.822D-05 0.771D-07-0.913D-04-0.697D-04 0.641D-03
 Coeff:      0.149D-02-0.339D-02-0.563D-02 0.110D-01 0.724D-02-0.313D-01
 Coeff:     -0.105D-01 0.652D-01 0.345D-02-0.210D+00-0.425D-01 0.121D+01
 RMSDP=1.77D-08 MaxDP=9.95D-07 DE=-5.46D-12 OVMax= 0.00D+00

 Cycle  19  Pass 1  IDiag  1:
 RMSU=  5.80D-09    CP:  9.92D-01  1.18D+00  1.03D+00  1.32D+00  1.49D+00
                    CP:  2.79D+00  3.00D+00  3.00D+00  3.00D+00  3.00D+00
                    CP:  2.59D+00  2.01D+00  3.00D+00  3.00D+00  3.00D+00
                    CP:  1.37D+00  1.29D+00  1.58D+00
 E= -474.751072970103     Delta-E=       -0.000000000014 Rises=F Damp=F
 DIIS: error= 4.23D-08 at cycle  19 NSaved=  19.
 NSaved=19 IEnMin=19 EnMin= -474.751072970103     IErMin=19 ErrMin= 4.23D-08
 ErrMax= 4.23D-08  0.00D+00 EMaxC= 1.00D-01 BMatC= 6.47D-14 BMatP= 6.14D-13
 IDIUse=1 WtCom= 1.00D+00 WtEn= 0.00D+00
 Coeff-Com: -0.135D-06 0.759D-06 0.237D-05-0.787D-05-0.231D-04 0.285D-04
 Coeff-Com:  0.270D-03-0.416D-04-0.842D-03 0.296D-03 0.166D-02 0.635D-05
 Coeff-Com: -0.664D-02-0.116D-02 0.194D-01-0.662D-02-0.139D+00 0.737D-01
 Coeff-Com:  0.106D+01
 Coeff:     -0.135D-06 0.759D-06 0.237D-05-0.787D-05-0.231D-04 0.285D-04
 Coeff:      0.270D-03-0.416D-04-0.842D-03 0.296D-03 0.166D-02 0.635D-05
 Coeff:     -0.664D-02-0.116D-02 0.194D-01-0.662D-02-0.139D+00 0.737D-01
 Coeff:      0.106D+01
 RMSDP=6.20D-09 MaxDP=2.86D-07 DE=-1.36D-11 OVMax= 0.00D+00

 SCF Done:  E(RZINDO/S) =  -474.751072970     A.U. after   19 cycles
            NFock= 19  Conv=0.62D-08     -V/T= 0.9499
 KE=-9.469804817031D+03 PE=-1.205919033964D-06 EE= 4.597543007967D+03
 Leave Link  502 at Sat Apr 30 07:44:56 2022, MaxMem=  6710886400 cpu:              17.2 elap:               0.7
 (Enter /sw/apps/gaussian-16.0/g16/l801.exe)
 Range of M.O.s used for correlation:     1   338
 NBasis=   338 NAE=   176 NBE=   176 NFC=     0 NFV=     0
 NROrb=    338 NOA=   176 NOB=   176 NVA=   162 NVB=   162
 Leave Link  801 at Sat Apr 30 07:44:56 2022, MaxMem=  6710886400 cpu:               0.4 elap:               0.0
 (Enter /sw/apps/gaussian-16.0/g16/l914.exe)
 RHF ground state
 Two-electron integral symmetry not used.
 MDV=  6710886400 DFT=F DoStab=F Mixed=F DoRPA=F DoScal=F NonHer=F
 Making orbital integer symmetry assigments:
 Orbital symmetries:
       Occupied  (A) (A) (A) (A) (A) (A) (A) (A) (A) (A) (A) (A)
                 (A) (A) (A) (A) (A) (A) (A) (A) (A) (A) (A) (A)
                 (A) (A) (A) (A) (A) (A) (A) (A) (A) (A) (A) (A)
                 (A) (A) (A) (A) (A) (A) (A) (A) (A) (A) (A) (A)
                 (A) (A) (A) (A) (A) (A) (A) (A) (A) (A) (A) (A)
                 (A) (A) (A) (A) (A) (A) (A) (A) (A) (A) (A) (A)
                 (A) (A) (A) (A) (A) (A) (A) (A) (A) (A) (A) (A)
                 (A) (A) (A) (A) (A) (A) (A) (A) (A) (A) (A) (A)
                 (A) (A) (A) (A) (A) (A) (A) (A) (A) (A) (A) (A)
                 (A) (A) (A) (A) (A) (A) (A) (A) (A) (A) (A) (A)
                 (A) (A) (A) (A) (A) (A) (A) (A) (A) (A) (A) (A)
                 (A) (A) (A) (A) (A) (A) (A) (A) (A) (A) (A) (A)
                 (A) (A) (A) (A) (A) (A) (A) (A) (A) (A) (A) (A)
                 (A) (A) (A) (A) (A) (A) (A) (A) (A) (A) (A) (A)
                 (A) (A) (A) (A) (A) (A) (A) (A)
       Virtual   (A) (A) (A) (A) (A) (A) (A) (A) (A) (A) (A) (A)
                 (A) (A) (A) (A) (A) (A) (A) (A) (A) (A) (A) (A)
                 (A) (A) (A) (A) (A) (A) (A) (A) (A) (A) (A) (A)
                 (A) (A) (A) (A) (A) (A) (A) (A) (A) (A) (A) (A)
                 (A) (A) (A) (A) (A) (A) (A) (A) (A) (A) (A) (A)
                 (A) (A) (A) (A) (A) (A) (A) (A) (A) (A) (A) (A)
                 (A) (A) (A) (A) (A) (A) (A) (A) (A) (A) (A) (A)
                 (A) (A) (A) (A) (A) (A) (A) (A) (A) (A) (A) (A)
                 (A) (A) (A) (A) (A) (A) (A) (A) (A) (A) (A) (A)
                 (A) (A) (A) (A) (A) (A) (A) (A) (A) (A) (A) (A)
                 (A) (A) (A) (A) (A) (A) (A) (A) (A) (A) (A) (A)
                 (A) (A) (A) (A) (A) (A) (A) (A) (A) (A) (A) (A)
                 (A) (A) (A) (A) (A) (A) (A) (A) (A) (A) (A) (A)
                 (A) (A) (A) (A) (A) (A)
    20 initial guesses have been made.
 Convergence on wavefunction:    0.001000000000000
 Davidson Disk Diagonalization:  ConvIn= 1.00D-03 SkipCon=T Conv= 1.00D-03.
 Max sub-space:  2000 roots to seek:    20 dimension of matrix:        57024
 Iteration     1 Dimension    20 NMult     0 NNew     20
 CISAX will form    20 AO SS matrices at one time.
 NMat=    20 NSing=    20 JSym2X= 0.
 New state      3 was old state      4
 New state      4 was old state      3
 New state      5 was old state     12
 Excitation Energies [eV] at current iteration:
 Root      1 :     1.617654783082009
 Root      2 :     2.154110823166627
 Root      3 :     3.237600317132743
 Root      4 :     3.431542868511322
 Root      5 :     3.547410869087125
 Root      6 :     3.640264735211982
 Root      7 :     3.697104807373765
 Root      8 :     3.774064249660417
 Root      9 :     3.925336427771329
 Root     10 :     4.078330863806630
 Root     11 :     4.200945065598053
 Root     12 :     4.257108094171942
 Root     13 :     4.359677340403515
 Root     14 :     4.395870914471828
 Root     15 :     4.492446403437712
 Root     16 :     4.540734197257366
 Root     17 :     4.694083538653410
 Root     18 :     4.853309620602945
 Root     19 :     5.171876709937852
 Root     20 :     5.502509778682834
 Iteration     2 Dimension    40 NMult    20 NNew     20
 CISAX will form    20 AO SS matrices at one time.
 NMat=    20 NSing=    20 JSym2X= 0.
 Root      1 not converged, maximum delta is    0.046374695214647
 Root      2 not converged, maximum delta is    0.028820221742715
 Root      3 not converged, maximum delta is    0.176925784226120
 Root      4 not converged, maximum delta is    0.260977735490811
 New state      5 was old state      6
 Root      5 not converged, maximum delta is    0.459312608873053
 Excitation Energies [eV] at current iteration:
 Root      1 :     1.270806737737441   Change is   -0.346848045344567
 Root      2 :     1.958127492125650   Change is   -0.195983331040976
 Root      3 :     2.992437653514444   Change is   -0.245162663618299
 Root      4 :     3.059170078527364   Change is   -0.372372789983958
 Root      5 :     3.409945580712736   Change is   -0.230319154499247
 Root      6 :     3.429445120778560   Change is   -0.344619128881857
 Root      7 :     3.466733134994314   Change is   -0.892944205409200
 Root      8 :     3.471833744901199   Change is   -0.075577124185925
 Root      9 :     3.555866355508735   Change is   -0.141238451865030
 Root     10 :     3.684269209085992   Change is   -0.241067218685337
 Root     11 :     3.801519856314761   Change is   -0.276811007491869
 Root     12 :     3.806592881158517   Change is   -0.394352184439536
 Root     13 :     4.093464180488662   Change is   -0.759845440114283
 Root     14 :     4.158843053987223   Change is   -0.098265040184719
 Root     15 :     4.210592693906055   Change is   -0.330141503351311
 Root     16 :     4.308004424159239   Change is   -0.184441979278474
 Root     17 :     4.341428211817203   Change is   -0.352655326836207
 Root     18 :     4.356524567100092   Change is   -0.039346347371735
 Root     19 :     5.162146730475961   Change is   -0.009729979461891
 Root     20 :     5.486802252678484   Change is   -0.015707526004349
 Iteration     3 Dimension    45 NMult    40 NNew      5
 CISAX will form     5 AO SS matrices at one time.
 NMat=     5 NSing=     5 JSym2X= 0.
 Root      1 not converged, maximum delta is    0.012744229392613
 Root      2 not converged, maximum delta is    0.021112873351476
 Root      3 not converged, maximum delta is    0.032706217499945
 Root      4 not converged, maximum delta is    0.116997606500384
 Root      5 not converged, maximum delta is    0.275838618490229
 Excitation Energies [eV] at current iteration:
 Root      1 :     1.254356231255434   Change is   -0.016450506482008
 Root      2 :     1.930836915354104   Change is   -0.027290576771546
 Root      3 :     2.961577431480912   Change is   -0.030860222033532
 Root      4 :     3.027558785290518   Change is   -0.031611293236846
 Root      5 :     3.127908080134395   Change is   -0.282037500578341
 Iteration     4 Dimension    50 NMult    45 NNew      5
 CISAX will form     5 AO SS matrices at one time.
 NMat=     5 NSing=     5 JSym2X= 0.
 Root      1 not converged, maximum delta is    0.002330725364776
 Root      2 not converged, maximum delta is    0.002675258078893
 New state      3 was old state      5
 Root      3 not converged, maximum delta is    0.308471817522485
 New state      4 was old state      3
 Root      4 not converged, maximum delta is    0.123351769858069
 New state      5 was old state      4
 Root      5 not converged, maximum delta is    0.233178859239949
 Excitation Energies [eV] at current iteration:
 Root      1 :     1.253661405440278   Change is   -0.000694825815156
 Root      2 :     1.930077232233283   Change is   -0.000759683120822
 Root      3 :     2.905115090991755   Change is   -0.222792989142640
 Root      4 :     2.964092820043089   Change is    0.002515388562178
 Root      5 :     3.046917018872693   Change is    0.019358233582176
 Iteration     5 Dimension    55 NMult    50 NNew      5
 CISAX will form     5 AO SS matrices at one time.
 NMat=     5 NSing=     5 JSym2X= 0.
 Root      1 has converged.
 Root      2 has converged.
 Root      3 not converged, maximum delta is    0.029830038665915
 Root      4 not converged, maximum delta is    0.020526342761778
 Root      5 not converged, maximum delta is    0.014232907058951
 Excitation Energies [eV] at current iteration:
 Root      1 :     1.253615257780000   Change is   -0.000046147660278
 Root      2 :     1.930035732409713   Change is   -0.000041499823569
 Root      3 :     2.886208638932742   Change is   -0.018906452059013
 Root      4 :     2.962958064738880   Change is   -0.001134755304209
 Root      5 :     3.045134023973758   Change is   -0.001782994898935
 Iteration     6 Dimension    58 NMult    55 NNew      3
 CISAX will form     3 AO SS matrices at one time.
 NMat=     3 NSing=     3 JSym2X= 0.
 Root      1 has converged.
 Root      2 has converged.
 Root      3 not converged, maximum delta is    0.007714380695545
 Root      4 not converged, maximum delta is    0.001933556479874
 Root      5 not converged, maximum delta is    0.003866694529897
 Excitation Energies [eV] at current iteration:
 Root      1 :     1.253615092270326   Change is   -0.000000165509674
 Root      2 :     1.930035638591550   Change is   -0.000000093818164
 Root      3 :     2.884094145095375   Change is   -0.002114493837367
 Root      4 :     2.962810566642995   Change is   -0.000147498095885
 Root      5 :     3.044845516719228   Change is   -0.000288507254530
 Iteration     7 Dimension    61 NMult    58 NNew      3
 CISAX will form     3 AO SS matrices at one time.
 NMat=     3 NSing=     3 JSym2X= 0.
 Root      1 has converged.
 Root      2 has converged.
 Root      3 not converged, maximum delta is    0.009286319746745
 Root      4 not converged, maximum delta is    0.004972541353021
 Root      5 not converged, maximum delta is    0.016474127264797
 Excitation Energies [eV] at current iteration:
 Root      1 :     1.253614476783880   Change is   -0.000000615486445
 Root      2 :     1.930035574399026   Change is   -0.000000064192524
 Root      3 :     2.883571746874093   Change is   -0.000522398221283
 Root      4 :     2.962732807331746   Change is   -0.000077759311250
 Root      5 :     3.044495176530255   Change is   -0.000350340188972
 Iteration     8 Dimension    64 NMult    61 NNew      3
 CISAX will form     3 AO SS matrices at one time.
 NMat=     3 NSing=     3 JSym2X= 0.
 Root      1 has converged.
 Root      2 has converged.
 Root      3 not converged, maximum delta is    0.007654286502720
 Root      4 not converged, maximum delta is    0.007561484108017
 Root      5 not converged, maximum delta is    0.067248483995327
 Excitation Energies [eV] at current iteration:
 Root      1 :     1.253614245206540   Change is   -0.000000231577341
 Root      2 :     1.930035410917608   Change is   -0.000000163481418
 Root      3 :     2.883352102209630   Change is   -0.000219644664463
 Root      4 :     2.962649454376912   Change is   -0.000083352954834
 Root      5 :     3.043280230798008   Change is   -0.001214945732247
 Iteration     9 Dimension    67 NMult    64 NNew      3
 CISAX will form     3 AO SS matrices at one time.
 NMat=     3 NSing=     3 JSym2X= 0.
 Root      1 has converged.
 Root      2 has converged.
 Root      3 not converged, maximum delta is    0.001964705030703
 Root      4 not converged, maximum delta is    0.003062441517207
 Root      5 not converged, maximum delta is    0.086952594299784
 Excitation Energies [eV] at current iteration:
 Root      1 :     1.253614226601252   Change is   -0.000000018605288
 Root      2 :     1.930035316920814   Change is   -0.000000093996794
 Root      3 :     2.883303926240259   Change is   -0.000048175969371
 Root      4 :     2.962616732511660   Change is   -0.000032721865253
 Root      5 :     3.041501875856153   Change is   -0.001778354941855
 Iteration    10 Dimension    70 NMult    67 NNew      3
 CISAX will form     3 AO SS matrices at one time.
 NMat=     3 NSing=     3 JSym2X= 0.
 Root      1 has converged.
 Root      2 has converged.
 Root      3 has converged.
 Root      4 has converged.
 Root      5 not converged, maximum delta is    0.019701330500983
 Excitation Energies [eV] at current iteration:
 Root      1 :     1.253614212825944   Change is   -0.000000013775309
 Root      2 :     1.930035305592180   Change is   -0.000000011328634
 Root      3 :     2.883298019065731   Change is   -0.000005907174528
 Root      4 :     2.962611476352594   Change is   -0.000005256159066
 Root      5 :     3.041024183876702   Change is   -0.000477691979451
 Iteration    11 Dimension    71 NMult    70 NNew      1
 CISAX will form     1 AO SS matrices at one time.
 NMat=     1 NSing=     1 JSym2X= 0.
 Root      1 has converged.
 Root      2 has converged.
 Root      3 has converged.
 Root      4 has converged.
 Root      5 not converged, maximum delta is    0.002972260505986
 Excitation Energies [eV] at current iteration:
 Root      1 :     1.253614201420484   Change is   -0.000000011405460
 Root      2 :     1.930035296133081   Change is   -0.000000009459099
 Root      3 :     2.883297484840151   Change is   -0.000000534225579
 Root      4 :     2.962610835570035   Change is   -0.000000640782558
 Root      5 :     3.040949472350777   Change is   -0.000074711525925
 Iteration    12 Dimension    72 NMult    71 NNew      1
 CISAX will form     1 AO SS matrices at one time.
 NMat=     1 NSing=     1 JSym2X= 0.
 Root      1 has converged.
 Root      2 has converged.
 Root      3 has converged.
 Root      4 has converged.
 Root      5 has converged.
 Excitation Energies [eV] at current iteration:
 Root      1 :     1.253614201382841   Change is   -0.000000000037643
 Root      2 :     1.930035287695478   Change is   -0.000000008437603
 Root      3 :     2.883297442619874   Change is   -0.000000042220278
 Root      4 :     2.962610777639755   Change is   -0.000000057930280
 Root      5 :     3.040939911218850   Change is   -0.000009561131927
 Convergence achieved on expansion vectors.
 ***********************************************************************
 Excited states from <AA,BB:AA,BB> singles matrix:
 ***********************************************************************
 
 1PDM for each excited state written to RWF  633
 Ground to excited state transition densities written to RWF  633
 Ground to excited state transition electric dipole moments (Au):
       state          X           Y           Z        Dip. S.      Osc.
         1        -3.0378     -3.1686      0.4445     19.4659      0.5979
         2        -0.2274      0.0424      0.0626      0.0574      0.0027
         3         0.4979     -0.8160     -0.0008      0.9138      0.0646
         4        -0.8258      0.8895      0.0433      1.4750      0.1071
         5        -2.2648      2.5042      0.0788     11.4065      0.8498
 Ground to excited state transition velocity dipole moments (Au):
       state          X           Y           Z        Dip. S.      Osc.
         1        -0.0654     -0.0226      0.0158      0.0050      0.0729
         2         0.0027     -0.0077     -0.0004      0.0001      0.0006
         3        -0.0143      0.0254     -0.0074      0.0009      0.0057
         4         0.0170     -0.0365     -0.0079      0.0017      0.0103
         5         0.0824     -0.0795     -0.0067      0.0132      0.0785
 Ground to excited state transition magnetic dipole moments (Au):
       state          X           Y           Z
         1        -0.0167      0.0800     -0.0270
         2         0.0249      0.0432      0.2186
         3        -0.1580     -0.7571     -0.1592
         4        -0.0218     -0.2114     -0.1029
         5         0.4488     -0.3153      0.7026
 Ground to excited state transition velocity quadrupole moments (Au):
       state          XX          YY          ZZ          XY          XZ          YZ
         1         1.1501      0.0239      0.0146      0.2322     -0.1597     -0.0222
         2        -0.0546     -0.0180     -0.0090      0.0616      0.0251     -0.0210
         3         0.1965      0.0287     -0.0437     -0.1524      0.0726      0.0679
         4         0.2779     -0.5305      0.0648     -0.2189      0.0190      0.1429
         5        -1.3594      0.1583      0.0345      0.9387     -0.0057     -0.0731
 <0|del|b> * <b|rxdel|0> + <0|del|b> * <b|delr+rdel|0>
 Rotatory Strengths (R) in cgs (10**-40 erg-esu-cm/Gauss)
       state          XX          YY          ZZ    R(velocity)    E-M Angle
         1       -16.7726    -11.8815     11.0581     -5.8653      100.83
         2        -1.2787     -0.2709     -2.0052     -1.1850      101.16
         3       -62.5609      4.4630    -47.2358    -35.1112      131.66
         4        35.5610      3.7119     13.7626     17.6785       32.62
         5        42.8828    103.0248    216.7984    120.9020       55.89
 1/2[<0|r|b>*<b|rxdel|0> + (<0|rxdel|b>*<b|r|0>)*]
 Rotatory Strengths (R) in cgs (10**-40 erg-esu-cm/Gauss)
       state          XX          YY          ZZ     R(length)
         1       -35.8200    179.1701      8.4810     50.6104
         2         4.0055     -1.2944     -9.6738     -2.3209
         3        55.6410   -436.8657     -0.0934   -127.1060
         4       -12.7313    132.9780      3.1500     41.1322
         5       718.7201    558.4181    -39.1482    412.6633
  1/2[<0|del|b>*<b|r|0> + (<0|r|b>*<b|del|0>)*] (Au)
       state          X           Y           Z        Dip. S.   Osc.(frdel)
         1         0.1986      0.0717      0.0070     -0.2773     -0.1849
         2        -0.0006     -0.0003     -0.0000      0.0010      0.0007
         3        -0.0071     -0.0207      0.0000      0.0278      0.0186
         4        -0.0140     -0.0325     -0.0003      0.0469      0.0312
         5        -0.1867     -0.1990     -0.0005      0.3862      0.2575

 Excitation energies and oscillator strengths:
 
 Excited State   1:      Singlet-A      1.2536 eV  989.01 nm  f=0.5979  <S**2>=0.000
     175 ->178        -0.20233
     176 ->177         0.66007
 This state for optimization and/or second-order correction.
 Total Energy, E(CIS/TDA) =  -474.705003496    
 Copying the excited state density for this state as the 1-particle RhoCI density.
 
 Excited State   2:      Singlet-A      1.9300 eV  642.39 nm  f=0.0027  <S**2>=0.000
     175 ->177         0.48914
     176 ->178         0.49200
 
 Excited State   3:      Singlet-A      2.8833 eV  430.01 nm  f=0.0646  <S**2>=0.000
     169 ->179        -0.10171
     170 ->177         0.35001
     170 ->178        -0.10521
     170 ->179         0.34621
     170 ->180         0.26639
     170 ->186        -0.16753
     170 ->188        -0.13576
     170 ->200         0.12102
     175 ->177        -0.10239
     176 ->178         0.11425
 
 Excited State   4:      Singlet-A      2.9626 eV  418.50 nm  f=0.1071  <S**2>=0.000
     175 ->177         0.14559
     176 ->178        -0.17029
     176 ->179         0.62941
 
 Excited State   5:      Singlet-A      3.0409 eV  407.72 nm  f=0.8498  <S**2>=0.000
     168 ->177        -0.13726
     168 ->179         0.19552
     168 ->180        -0.21733
     168 ->186        -0.12822
     175 ->177         0.36766
     176 ->178        -0.36672
     176 ->179        -0.19438
     176 ->180         0.11977
 SavETr:  write IOETrn=   770 NScale= 10 NData=  16 NLR=1 NState=    5 LETran=     100.
 Leave Link  914 at Sat Apr 30 07:45:00 2022, MaxMem=  6710886400 cpu:              96.6 elap:               4.1
 (Enter /sw/apps/gaussian-16.0/g16/l601.exe)
 Copying SCF densities to generalized density rwf, IOpCl= 0 IROHF=0.

 **********************************************************************

            Population analysis using the SCF density.

 **********************************************************************

 Orbital symmetries:
       Occupied  (A) (A) (A) (A) (A) (A) (A) (A) (A) (A) (A) (A)
                 (A) (A) (A) (A) (A) (A) (A) (A) (A) (A) (A) (A)
                 (A) (A) (A) (A) (A) (A) (A) (A) (A) (A) (A) (A)
                 (A) (A) (A) (A) (A) (A) (A) (A) (A) (A) (A) (A)
                 (A) (A) (A) (A) (A) (A) (A) (A) (A) (A) (A) (A)
                 (A) (A) (A) (A) (A) (A) (A) (A) (A) (A) (A) (A)
                 (A) (A) (A) (A) (A) (A) (A) (A) (A) (A) (A) (A)
                 (A) (A) (A) (A) (A) (A) (A) (A) (A) (A) (A) (A)
                 (A) (A) (A) (A) (A) (A) (A) (A) (A) (A) (A) (A)
                 (A) (A) (A) (A) (A) (A) (A) (A) (A) (A) (A) (A)
                 (A) (A) (A) (A) (A) (A) (A) (A) (A) (A) (A) (A)
                 (A) (A) (A) (A) (A) (A) (A) (A) (A) (A) (A) (A)
                 (A) (A) (A) (A) (A) (A) (A) (A) (A) (A) (A) (A)
                 (A) (A) (A) (A) (A) (A) (A) (A) (A) (A) (A) (A)
                 (A) (A) (A) (A) (A) (A) (A) (A)
       Virtual   (A) (A) (A) (A) (A) (A) (A) (A) (A) (A) (A) (A)
                 (A) (A) (A) (A) (A) (A) (A) (A) (A) (A) (A) (A)
                 (A) (A) (A) (A) (A) (A) (A) (A) (A) (A) (A) (A)
                 (A) (A) (A) (A) (A) (A) (A) (A) (A) (A) (A) (A)
                 (A) (A) (A) (A) (A) (A) (A) (A) (A) (A) (A) (A)
                 (A) (A) (A) (A) (A) (A) (A) (A) (A) (A) (A) (A)
                 (A) (A) (A) (A) (A) (A) (A) (A) (A) (A) (A) (A)
                 (A) (A) (A) (A) (A) (A) (A) (A) (A) (A) (A) (A)
                 (A) (A) (A) (A) (A) (A) (A) (A) (A) (A) (A) (A)
                 (A) (A) (A) (A) (A) (A) (A) (A) (A) (A) (A) (A)
                 (A) (A) (A) (A) (A) (A) (A) (A) (A) (A) (A) (A)
                 (A) (A) (A) (A) (A) (A) (A) (A) (A) (A) (A) (A)
                 (A) (A) (A) (A) (A) (A) (A) (A) (A) (A) (A) (A)
                 (A) (A) (A) (A) (A) (A)
 The electronic state is 1-A.
 Alpha  occ. eigenvalues --   -1.86642  -1.83299  -1.80741  -1.74610  -1.73546
 Alpha  occ. eigenvalues --   -1.71558  -1.66953  -1.63005  -1.61252  -1.58994
 Alpha  occ. eigenvalues --   -1.55185  -1.51478  -1.49052  -1.48219  -1.47856
 Alpha  occ. eigenvalues --   -1.46420  -1.42792  -1.41651  -1.39543  -1.39181
 Alpha  occ. eigenvalues --   -1.37893  -1.34089  -1.33745  -1.32669  -1.29408
 Alpha  occ. eigenvalues --   -1.27413  -1.25437  -1.21839  -1.20729  -1.19519
 Alpha  occ. eigenvalues --   -1.18426  -1.17281  -1.15666  -1.14781  -1.13514
 Alpha  occ. eigenvalues --   -1.12568  -1.10264  -1.09422  -1.05371  -1.04177
 Alpha  occ. eigenvalues --   -1.03641  -1.00942  -0.98103  -0.97309  -0.96834
 Alpha  occ. eigenvalues --   -0.95597  -0.94713  -0.94149  -0.92897  -0.91632
 Alpha  occ. eigenvalues --   -0.91290  -0.90323  -0.89223  -0.88214  -0.86388
 Alpha  occ. eigenvalues --   -0.85934  -0.85459  -0.83357  -0.83032  -0.81395
 Alpha  occ. eigenvalues --   -0.80230  -0.79178  -0.78668  -0.77734  -0.77272
 Alpha  occ. eigenvalues --   -0.76199  -0.75047  -0.74580  -0.73649  -0.73234
 Alpha  occ. eigenvalues --   -0.72940  -0.72636  -0.71557  -0.71125  -0.70773
 Alpha  occ. eigenvalues --   -0.70088  -0.69537  -0.69057  -0.68591  -0.68257
 Alpha  occ. eigenvalues --   -0.67854  -0.66912  -0.66564  -0.66060  -0.65893
 Alpha  occ. eigenvalues --   -0.65808  -0.65089  -0.64417  -0.63763  -0.63305
 Alpha  occ. eigenvalues --   -0.63138  -0.63104  -0.62843  -0.62087  -0.61704
 Alpha  occ. eigenvalues --   -0.61452  -0.61378  -0.60700  -0.60439  -0.60201
 Alpha  occ. eigenvalues --   -0.59754  -0.59215  -0.58439  -0.58194  -0.57815
 Alpha  occ. eigenvalues --   -0.57487  -0.57424  -0.57095  -0.56946  -0.56110
 Alpha  occ. eigenvalues --   -0.56019  -0.55293  -0.54876  -0.54749  -0.54322
 Alpha  occ. eigenvalues --   -0.54081  -0.53625  -0.53430  -0.52966  -0.52520
 Alpha  occ. eigenvalues --   -0.52321  -0.52143  -0.51880  -0.51817  -0.51411
 Alpha  occ. eigenvalues --   -0.51188  -0.51132  -0.50971  -0.50283  -0.49816
 Alpha  occ. eigenvalues --   -0.49612  -0.49385  -0.49259  -0.49123  -0.48677
 Alpha  occ. eigenvalues --   -0.48541  -0.48369  -0.48260  -0.47888  -0.47643
 Alpha  occ. eigenvalues --   -0.47458  -0.47327  -0.46682  -0.46506  -0.46142
 Alpha  occ. eigenvalues --   -0.45894  -0.45643  -0.45559  -0.45159  -0.45090
 Alpha  occ. eigenvalues --   -0.45061  -0.44805  -0.44342  -0.44266  -0.44171
 Alpha  occ. eigenvalues --   -0.43861  -0.43463  -0.42565  -0.42277  -0.42149
 Alpha  occ. eigenvalues --   -0.41620  -0.41146  -0.40951  -0.39202  -0.38965
 Alpha  occ. eigenvalues --   -0.37481  -0.36673  -0.35191  -0.34874  -0.34164
 Alpha  occ. eigenvalues --   -0.33004  -0.32521  -0.32181  -0.32055  -0.26609
 Alpha  occ. eigenvalues --   -0.21124
 Alpha virt. eigenvalues --   -0.07842  -0.02117  -0.00159   0.01684   0.02102
 Alpha virt. eigenvalues --    0.02933   0.03075   0.03493   0.04607   0.05262
 Alpha virt. eigenvalues --    0.06573   0.06692   0.07418   0.08363   0.08548
 Alpha virt. eigenvalues --    0.08665   0.08935   0.09114   0.09444   0.09625
 Alpha virt. eigenvalues --    0.09996   0.10140   0.10194   0.10510   0.10756
 Alpha virt. eigenvalues --    0.10926   0.11444   0.11652   0.12186   0.12422
 Alpha virt. eigenvalues --    0.12480   0.12992   0.13269   0.13398   0.13774
 Alpha virt. eigenvalues --    0.13909   0.13948   0.14128   0.14894   0.15055
 Alpha virt. eigenvalues --    0.15111   0.15221   0.15400   0.15694   0.15704
 Alpha virt. eigenvalues --    0.15790   0.16519   0.16699   0.16703   0.16907
 Alpha virt. eigenvalues --    0.17035   0.17283   0.17692   0.17971   0.18299
 Alpha virt. eigenvalues --    0.18474   0.19011   0.19106   0.19124   0.19257
 Alpha virt. eigenvalues --    0.19415   0.19789   0.20321   0.20814   0.20862
 Alpha virt. eigenvalues --    0.21602   0.21748   0.23416   0.23592   0.23821
 Alpha virt. eigenvalues --    0.23831   0.23982   0.24192   0.24239   0.24246
 Alpha virt. eigenvalues --    0.24487   0.24606   0.24700   0.24872   0.24920
 Alpha virt. eigenvalues --    0.24976   0.25043   0.25172   0.25247   0.25262
 Alpha virt. eigenvalues --    0.25297   0.25346   0.25435   0.25518   0.25536
 Alpha virt. eigenvalues --    0.25597   0.25624   0.25658   0.25741   0.25743
 Alpha virt. eigenvalues --    0.25882   0.25951   0.25957   0.26055   0.26067
 Alpha virt. eigenvalues --    0.26088   0.26095   0.26183   0.26298   0.26310
 Alpha virt. eigenvalues --    0.26648   0.26696   0.26947   0.26998   0.27153
 Alpha virt. eigenvalues --    0.27210   0.27260   0.27387   0.27477   0.28263
 Alpha virt. eigenvalues --    0.28513   0.28570   0.29071   0.29518   0.29667
 Alpha virt. eigenvalues --    0.29913   0.30337   0.30613   0.30824   0.31479
 Alpha virt. eigenvalues --    0.31737   0.32015   0.32086   0.34015   0.34862
 Alpha virt. eigenvalues --    0.34921   0.35409   0.35699   0.35863   0.36303
 Alpha virt. eigenvalues --    0.36853   0.37178   0.37444   0.38306   0.38412
 Alpha virt. eigenvalues --    0.39257   0.39427   0.40184   0.40515   0.41114
 Alpha virt. eigenvalues --    0.41249   0.41682   0.41947   0.42622   0.43481
 Alpha virt. eigenvalues --    0.44130   0.44912   0.45077   0.46062   0.47744
 Alpha virt. eigenvalues --    0.47923   0.48118   0.49121   0.51678   0.53966
 Alpha virt. eigenvalues --    0.55079   0.57317
          Condensed to atoms (all electrons):
 Mulliken charges:
               1
     1  Mg   0.423476
     2  C   -0.059522
     3  C   -0.071042
     4  C   -0.065072
     5  C   -0.077115
     6  N   -0.292943
     7  C    0.151629
     8  C    0.018643
     9  C    0.003295
    10  C    0.112222
    11  C   -0.041113
    12  C   -0.014821
    13  C    0.000590
    14  C    0.480187
    15  O   -0.518973
    16  O   -0.262650
    17  N   -0.318899
    18  C    0.095126
    19  C    0.000051
    20  C   -0.056756
    21  C    0.133479
    22  C   -0.039017
    23  C    0.329377
    24  O   -0.519028
    25  C   -0.034441
    26  N   -0.246049
    27  C    0.118306
    28  C   -0.001798
    29  C    0.008226
    30  C    0.135586
    31  C   -0.054747
    32  C   -0.032960
    33  C   -0.056906
    34  N   -0.322559
    35  C    0.096517
    36  C    0.034607
    37  C   -0.063824
    38  C    0.127137
    39  C   -0.028277
    40  C    0.347234
    41  O   -0.524046
    42  C    0.061556
    43  C    0.496883
    44  O   -0.523635
    45  O   -0.271029
    46  C    0.073426
    47  C    0.105481
    48  C   -0.092654
    49  C   -0.025814
    50  C   -0.049074
    51  C   -0.025850
    52  C   -0.029608
    53  C   -0.032143
    54  C   -0.019219
    55  C   -0.060809
    56  C   -0.040894
    57  C   -0.042089
    58  C   -0.040437
    59  C   -0.020153
    60  C   -0.055374
    61  C   -0.028327
    62  C   -0.035686
    63  C   -0.043685
    64  C   -0.008024
    65  C   -0.062196
    66  C   -0.063601
    67  H    0.025824
    68  H    0.040643
    69  H    0.025989
    70  H    0.038823
    71  H    0.026029
    72  H    0.020704
    73  H    0.024249
    74  H    0.022219
    75  H    0.016906
    76  H    0.030489
    77  H    0.022382
    78  H    0.053375
    79  H    0.024137
    80  H    0.019802
    81  H    0.036016
    82  H    0.029456
    83  H    0.047902
    84  H    0.032953
    85  H    0.040759
    86  H    0.031706
    87  H    0.027727
    88  H    0.015174
    89  H    0.024939
    90  H    0.025640
    91  H    0.013119
    92  H    0.016017
    93  H    0.018546
    94  H    0.019773
    95  H    0.024349
    96  H    0.037555
    97  H    0.044768
    98  H    0.052598
    99  H    0.040017
   100  H    0.028077
   101  H    0.049447
   102  H    0.043676
   103  H    0.057333
   104  H    0.027718
   105  H    0.031376
   106  H    0.026246
   107  H    0.032457
   108  H    0.019676
   109  H    0.030606
   110  H    0.019786
   111  H    0.029520
   112  H    0.028404
   113  H    0.007720
   114  H    0.014694
   115  H    0.018753
   116  H    0.022187
   117  H    0.018267
   118  H    0.007040
   119  H    0.018102
   120  H    0.029305
   121  H    0.027903
   122  H    0.018939
   123  H    0.020666
   124  H    0.014373
   125  H    0.024760
   126  H    0.017385
   127  H    0.010126
   128  H    0.033040
   129  H    0.013964
   130  H    0.020181
   131  H    0.035876
   132  H    0.010376
   133  H    0.021650
   134  H    0.018245
   135  H    0.004069
   136  H    0.015632
   137  H    0.033559
   138  H    0.015577
   139  H    0.012526
   140  H    0.020005
 Sum of Mulliken charges =  -0.00000
 Mulliken charges with hydrogens summed into heavy atoms:
               1
     1  Mg   0.423476
     2  C   -0.059522
     3  C   -0.045218
     4  C   -0.024429
     5  C   -0.051126
     6  N   -0.292943
     7  C    0.151629
     8  C    0.057466
     9  C    0.029324
    10  C    0.112222
    11  C    0.026059
    12  C    0.032574
    13  C    0.076348
    14  C    0.480187
    15  O   -0.518973
    16  O   -0.262650
    17  N   -0.318899
    18  C    0.095126
    19  C    0.000051
    20  C   -0.056756
    21  C    0.133479
    22  C    0.040937
    23  C    0.329377
    24  O   -0.519028
    25  C    0.075870
    26  N   -0.246049
    27  C    0.118306
    28  C    0.038961
    29  C    0.039932
    30  C    0.135586
    31  C    0.013093
    32  C    0.005799
    33  C   -0.002571
    34  N   -0.322559
    35  C    0.096517
    36  C    0.034607
    37  C   -0.063824
    38  C    0.127137
    39  C    0.078395
    40  C    0.347234
    41  O   -0.524046
    42  C    0.114154
    43  C    0.496883
    44  O   -0.523635
    45  O   -0.271029
    46  C    0.190967
    47  C    0.206489
    48  C   -0.064936
    49  C   -0.025814
    50  C    0.041004
    51  C    0.024432
    52  C    0.019698
    53  C    0.003981
    54  C   -0.004525
    55  C   -0.001601
    56  C   -0.015752
    57  C    0.015119
    58  C   -0.000831
    59  C   -0.005780
    60  C   -0.003102
    61  C    0.018678
    62  C    0.020370
    63  C   -0.011659
    64  C    0.010220
    65  C   -0.008935
    66  C   -0.015493
 Charge=             -0.0000 electrons
 Dipole moment (field-independent basis, Debye):
    X=              6.0421    Y=              4.2633    Z=              0.6041  Tot=              7.4194
 N-N= 4.397510737300D+03 E-N= 0.000000000000D+00  KE=-9.469804817031D+03
 Leave Link  601 at Sat Apr 30 07:45:00 2022, MaxMem=  6710886400 cpu:               2.9 elap:               0.1
 (Enter /sw/apps/gaussian-16.0/g16/l9999.exe)
 1\1\GINC-BP1-COMPUTE150\SP\RZINDO CIS\STO-3G\C55H74Mg1N4O6\OF15641\30-
 Apr-2022\0\\#p ZINDO=(nstates=5)\\step_651_chromophore_15 ZINDO\\0,1\M
 g,0,46.075,34.792,28.16\C,0,44.675,32.966,30.806\C,0,46.436,37.476,30.
 332\C,0,47.231,36.423,25.624\C,0,45.403,31.98,26.141\N,0,45.752,35.102
 ,30.371\C,0,45.155,34.212,31.21\C,0,45.247,34.653,32.583\C,0,45.31,36.
 225,32.414\C,0,45.912,36.32,30.969\C,0,44.025,36.991,32.422\C,0,46.538
 ,34.107,33.265\C,0,46.65,33.986,34.795\C,0,45.973,35.,35.72\O,0,44.784
 ,35.161,35.779\O,0,46.884,35.689,36.457\N,0,46.907,36.63,28.044\C,0,46
 .914,37.592,29.051\C,0,47.512,38.82,28.448\C,0,47.822,38.501,27.088\C,
 0,47.326,37.144,26.858\C,0,47.77,40.072,29.208\C,0,48.592,39.354,26.03
 5\O,0,48.756,38.966,24.89\C,0,49.27,40.637,26.421\N,0,46.333,34.234,26
 .19\C,0,46.809,35.135,25.32\C,0,47.01,34.526,23.891\C,0,46.532,33.097,
 24.117\C,0,46.108,33.08,25.586\C,0,46.279,35.303,22.804\C,0,47.544,31.
 938,23.93\C,0,47.269,30.805,22.938\N,0,45.198,32.874,28.375\C,0,45.005
 ,31.839,27.482\C,0,44.435,30.634,28.123\C,0,44.27,31.095,29.458\C,0,44
 .744,32.452,29.537\C,0,44.243,29.275,27.519\C,0,43.788,30.694,30.702\O
 ,0,43.429,29.631,31.152\C,0,43.799,31.923,31.517\C,0,44.08,31.674,32.8
 91\O,0,44.983,30.964,33.29\O,0,43.062,32.241,33.608\C,0,43.114,32.167,
 35.05\C,0,46.359,36.632,37.459\C,0,47.053,37.987,37.231\C,0,46.847,39.
 176,37.859\C,0,45.785,39.348,38.963\C,0,47.552,40.51,37.336\C,0,47.708
 ,41.729,38.222\C,0,49.231,41.893,38.463\C,0,49.781,43.008,37.531\C,0,5
 1.129,42.617,36.827\C,0,49.881,44.384,38.23\C,0,49.021,45.53,37.704\C,
 0,47.872,45.753,38.784\C,0,46.495,46.18,38.177\C,0,46.2,47.659,38.317\
 C,0,45.261,45.365,38.685\C,0,44.08,45.666,37.812\C,0,42.888,46.033,38.
 771\C,0,41.8,46.895,38.102\C,0,40.914,47.544,39.148\C,0,40.984,46.064,
 37.09\H,0,46.461,38.402,30.911\H,0,47.624,36.884,24.716\H,0,45.177,31.
 193,25.418\H,0,44.424,34.445,33.267\H,0,46.027,36.74,33.054\H,0,44.194
 ,38.067,32.442\H,0,43.472,36.677,33.308\H,0,43.48,36.753,31.508\H,0,47
 .388,34.736,33.\H,0,46.803,33.15,32.815\H,0,47.735,34.038,34.879\H,0,4
 6.461,32.95,35.076\H,0,47.071,40.239,30.027\H,0,47.625,41.003,28.66\H,
 0,48.815,40.035,29.515\H,0,49.681,40.572,27.428\H,0,48.737,41.572,26.2
 42\H,0,50.093,40.692,25.709\H,0,47.996,34.581,23.429\H,0,45.704,32.832
 ,23.459\H,0,45.898,36.214,23.267\H,0,45.44,34.683,22.489\H,0,46.916,35
 .51,21.944\H,0,47.821,31.374,24.82\H,0,48.456,32.423,23.581\H,0,47.693
 ,29.889,23.348\H,0,47.765,31.022,21.992\H,0,46.219,30.58,22.747\H,0,44
 .41,29.294,26.442\H,0,43.218,28.954,27.703\H,0,44.934,28.602,28.026\H,
 0,42.784,32.321,31.488\H,0,42.527,31.318,35.4\H,0,42.593,33.056,35.407
 \H,0,44.095,32.174,35.524\H,0,46.541,36.329,38.49\H,0,45.274,36.737,37
 .459\H,0,47.784,37.971,36.423\H,0,46.284,39.526,39.916\H,0,45.104,38.5
 13,39.13\H,0,45.287,40.215,38.53\H,0,46.831,40.887,36.611\H,0,48.476,4
 0.186,36.857\H,0,47.238,41.586,39.195\H,0,47.212,42.539,37.687\H,0,49.
 869,41.011,38.431\H,0,49.298,42.193,39.509\H,0,49.096,43.188,36.702\H,
 0,51.494,43.526,36.35\H,0,50.982,41.782,36.141\H,0,51.835,42.367,37.61
 8\H,0,50.916,44.713,38.132\H,0,49.712,44.189,39.289\H,0,48.663,45.124,
 36.758\H,0,49.69,46.384,37.593\H,0,48.238,46.517,39.469\H,0,47.754,44.
 834,39.358\H,0,46.697,46.021,37.118\H,0,45.546,48.038,37.532\H,0,47.12
 3,48.215,38.479\H,0,45.669,47.829,39.254\H,0,45.196,45.604,39.747\H,0,
 45.358,44.296,38.494\H,0,43.699,44.749,37.362\H,0,44.174,46.48,37.093\
 H,0,43.272,46.56,39.644\H,0,42.289,45.236,39.211\H,0,42.265,47.646,37.
 463\H,0,40.869,48.598,38.876\H,0,41.49,47.656,40.067\H,0,39.879,47.236
 ,39.297\H,0,41.517,45.115,37.024\H,0,40.939,46.456,36.074\H,0,39.927,4
 5.925,37.32\\Version=ES64L-G16RevA.03\State=1-A\HF=-474.751073\RMSD=6.
 202e-09\PG=C01 [X(C55H74Mg1N4O6)]\\@


 EVERYTHING'S GOT A MORAL, IF ONLY YOU CAN FIND IT.

                                    -- LEWIS CARROL, ALICE IN WONDERLAND
 Job cpu time:       0 days  0 hours  2 minutes 21.5 seconds.
 Elapsed time:       0 days  0 hours  0 minutes  6.2 seconds.
 File lengths (MBytes):  RWF=   1263 Int=      0 D2E=      0 Chk=     38 Scr=      1
 Normal termination of Gaussian 16 at Sat Apr 30 07:45:00 2022.
