 Entering Gaussian System, Link 0=g16
 Initial command:
 /sw/apps/gaussian-16.0/g16/l1.exe "/tmp/Gau-214661.inp" -scrdir="/tmp/"
 Entering Link 1 = /sw/apps/gaussian-16.0/g16/l1.exe PID=    214662.
  
 Copyright (c) 1988,1990,1992,1993,1995,1998,2003,2009,2016,
            Gaussian, Inc.  All Rights Reserved.
  
 This is part of the Gaussian(R) 16 program.  It is based on
 the Gaussian(R) 09 system (copyright 2009, Gaussian, Inc.),
 the Gaussian(R) 03 system (copyright 2003, Gaussian, Inc.),
 the Gaussian(R) 98 system (copyright 1998, Gaussian, Inc.),
 the Gaussian(R) 94 system (copyright 1995, Gaussian, Inc.),
 the Gaussian 92(TM) system (copyright 1992, Gaussian, Inc.),
 the Gaussian 90(TM) system (copyright 1990, Gaussian, Inc.),
 the Gaussian 88(TM) system (copyright 1988, Gaussian, Inc.),
 the Gaussian 86(TM) system (copyright 1986, Carnegie Mellon
 University), and the Gaussian 82(TM) system (copyright 1983,
 Carnegie Mellon University). Gaussian is a federally registered
 trademark of Gaussian, Inc.
  
 This software contains proprietary and confidential information,
 including trade secrets, belonging to Gaussian, Inc.
  
 This software is provided under written license and may be
 used, copied, transmitted, or stored only in accord with that
 written license.
  
 The following legend is applicable only to US Government
 contracts under FAR:
  
                    RESTRICTED RIGHTS LEGEND
  
 Use, reproduction and disclosure by the US Government is
 subject to restrictions as set forth in subparagraphs (a)
 and (c) of the Commercial Computer Software - Restricted
 Rights clause in FAR 52.227-19.
  
 Gaussian, Inc.
 340 Quinnipiac St., Bldg. 40, Wallingford CT 06492
  
  
 ---------------------------------------------------------------
 Warning -- This program may not be used in any manner that
 competes with the business of Gaussian, Inc. or will provide
 assistance to any competitor of Gaussian, Inc.  The licensee
 of this program is prohibited from giving any competitor of
 Gaussian, Inc. access to this program.  By using this program,
 the user acknowledges that Gaussian, Inc. is engaged in the
 business of creating and licensing software in the field of
 computational chemistry and represents and warrants to the
 licensee that it is not a competitor of Gaussian, Inc. and that
 it will not use this program in any manner prohibited above.
 ---------------------------------------------------------------
  

 Cite this work as:
 Gaussian 16, Revision A.03,
 M. J. Frisch, G. W. Trucks, H. B. Schlegel, G. E. Scuseria, 
 M. A. Robb, J. R. Cheeseman, G. Scalmani, V. Barone, 
 G. A. Petersson, H. Nakatsuji, X. Li, M. Caricato, A. V. Marenich, 
 J. Bloino, B. G. Janesko, R. Gomperts, B. Mennucci, H. P. Hratchian, 
 J. V. Ortiz, A. F. Izmaylov, J. L. Sonnenberg, D. Williams-Young, 
 F. Ding, F. Lipparini, F. Egidi, J. Goings, B. Peng, A. Petrone, 
 T. Henderson, D. Ranasinghe, V. G. Zakrzewski, J. Gao, N. Rega, 
 G. Zheng, W. Liang, M. Hada, M. Ehara, K. Toyota, R. Fukuda, 
 J. Hasegawa, M. Ishida, T. Nakajima, Y. Honda, O. Kitao, H. Nakai, 
 T. Vreven, K. Throssell, J. A. Montgomery, Jr., J. E. Peralta, 
 F. Ogliaro, M. J. Bearpark, J. J. Heyd, E. N. Brothers, K. N. Kudin, 
 V. N. Staroverov, T. A. Keith, R. Kobayashi, J. Normand, 
 K. Raghavachari, A. P. Rendell, J. C. Burant, S. S. Iyengar, 
 J. Tomasi, M. Cossi, J. M. Millam, M. Klene, C. Adamo, R. Cammi, 
 J. W. Ochterski, R. L. Martin, K. Morokuma, O. Farkas, 
 J. B. Foresman, and D. J. Fox, Gaussian, Inc., Wallingford CT, 2016.
 
 ******************************************
 Gaussian 16:  ES64L-G16RevA.03 25-Dec-2016
                29-Apr-2022 
 ******************************************
 %nproc=24
 Will use up to   24 processors via shared memory.
 %mem=50gb
 --------------------
 #p ZINDO=(nstates=5)
 --------------------
 1/38=1,172=1/1;
 2/12=2,17=6,18=5,40=1/2;
 3/5=2,25=1,41=400000/1,2,3,8;
 4/5=3,35=1/1;
 5/5=2,35=1,38=5/2;
 8/6=1,108=5/1;
 9/41=5,42=1,49=10/14;
 6/7=2,8=2,9=2,10=2/1;
 99/5=1,9=1/99;
 Leave Link    1 at Fri Apr 29 04:10:28 2022, MaxMem=  6710886400 cpu:               0.9 elap:               0.0
 (Enter /sw/apps/gaussian-16.0/g16/l101.exe)
 -----------------------------
 step_1851_chromophore_2 ZINDO
 -----------------------------
 Symbolic Z-matrix:
 Charge =  0 Multiplicity = 1
 Mg                    1.907    -0.478     43.111 
 C                     5.416     0.126     42.709 
 C                     1.238     2.459     41.38 
 C                    -1.311    -1.26      43.081 
 C                     2.725    -3.635     44.501 
 N                     3.215     1.109     42.107 
 C                     4.613     1.137     42.103 
 C                     5.199     2.411     41.48 
 C                     3.799     3.29      41.443 
 C                     2.639     2.214     41.614 
 C                     3.683     4.432     42.475 
 C                     6.026     2.293     40.142 
 C                     5.378     1.477     39.077 
 C                     5.436     2.005     37.642 
 O                     5.689     3.159     37.281 
 O                     4.965     0.988     36.851 
 N                     0.22      0.391     42.247 
 C                     0.116     1.633     41.655 
 C                    -1.251     1.96      41.35 
 C                    -1.952     0.848     41.887 
 C                    -1.019    -0.039     42.501 
 C                    -1.778     3.123     40.666 
 C                    -3.438     0.729     41.745 
 O                    -4.123     1.632     41.26 
 C                    -4.238    -0.479     42.244 
 N                     0.881    -2.154     43.729 
 C                    -0.463    -2.217     43.755 
 C                    -0.945    -3.571     44.252 
 C                     0.254    -4.217     44.901 
 C                     1.361    -3.331     44.247 
 C                    -2.248    -3.697     45.094 
 C                     0.413    -5.71      44.512 
 C                     0.62     -6.702     45.672 
 N                     3.662    -1.505     43.603 
 C                     3.826    -2.796     44.109 
 C                     5.22     -3.085     44.256 
 C                     5.849    -1.952     43.784 
 C                     4.909    -1.024     43.33 
 C                     5.826    -4.325     44.811 
 C                     7.187    -1.399     43.473 
 O                     8.319    -1.812     43.733 
 C                     6.987     0.014     42.817 
 C                     7.647     1.082     43.583 
 O                     8.255     1.984     43.073 
 O                     7.634     0.796     44.94 
 C                     8.634     1.668     45.68 
 C                     4.898     1.276     35.37 
 C                     5.344     0.091     34.569 
 C                     4.601    -0.868     34.013 
 C                     3.132    -1.101     34.1 
 C                     5.378    -1.822     33.003 
 C                     5.638    -1.387     31.581 
 C                     5.68      0.17      31.373 
 C                     5.43      0.667     29.979 
 C                     6.701     0.812     29.127 
 C                     4.546     1.914     29.824 
 C                     3.072     1.554     29.423 
 C                     2.279     1.111     30.702 
 C                     1.066     2.046     30.949 
 C                     0.932     2.368     32.453 
 C                    -0.276     1.483     30.355 
 C                    -1.266     2.676     30.118 
 C                    -1.396     3.06      28.634 
 C                    -2.787     3.276     28.106 
 C                    -3.3       2.233     27.16 
 C                    -2.865     4.516     27.289 
 H                     1.058     3.433     40.919 
 H                    -2.319    -1.67      43.18 
 H                     2.894    -4.457     45.2 
 H                     5.868     2.767     42.264 
 H                     3.618     3.668     40.437 
 H                     2.822     4.265     43.123 
 H                     3.674     5.399     41.972 
 H                     4.569     4.447     43.109 
 H                     7.02      1.974     40.453 
 H                     6.051     3.329     39.804 
 H                     4.318     1.305     39.262 
 H                     5.906     0.526     39.004 
 H                    -0.973     3.672     40.177 
 H                    -2.289     3.822     41.328 
 H                    -2.427     2.923     39.814 
 H                    -4.115    -0.412     43.325 
 H                    -4.22     -1.439     41.728 
 H                    -5.227    -0.125     41.954 
 H                    -1.252    -4.002     43.299 
 H                     0.35     -4.074     45.977 
 H                    -2.043    -4.249     46.012 
 H                    -3.193    -4.074     44.705 
 H                    -2.473    -2.642     45.254 
 H                     1.26     -5.673     43.827 
 H                    -0.406    -6.082     43.896 
 H                    -0.051    -7.559     45.611 
 H                     0.188    -6.317     46.595 
 H                     1.664    -6.972     45.832 
 H                     5.694    -5.138     44.098 
 H                     5.242    -4.467     45.72 
 H                     6.9      -4.218     44.965 
 H                     7.45     -0.067     41.833 
 H                     9.517     1.876     45.075 
 H                     8.902     1.016     46.511 
 H                     8.248     2.622     46.038 
 H                     5.525     2.093     35.014 
 H                     3.864     1.499     35.106 
 H                     6.381     0.118     34.237 
 H                     2.935    -2.172     34.144 
 H                     2.691    -0.612     33.232 
 H                     2.687    -0.58      34.948 
 H                     4.879    -2.791     33.037 
 H                     6.255    -2.146     33.563 
 H                     5.143    -1.983     30.815 
 H                     6.675    -1.646     31.366 
 H                     6.684     0.505     31.63 
 H                     4.956     0.619     32.053 
 H                     4.855    -0.151     29.544 
 H                     6.722     1.438     28.235 
 H                     6.895    -0.12      28.596 
 H                     7.579     0.991     29.748 
 H                     4.947     2.773     29.287 
 H                     4.333     2.342     30.804 
 H                     2.937     0.778     28.67 
 H                     2.677     2.495     29.041 
 H                     2.945     0.937     31.548 
 H                     1.844     0.128     30.519 
 H                     1.294     3.013     30.5 
 H                    -0.081     2.33      32.854 
 H                     1.27      3.386     32.65 
 H                     1.64      1.736     32.989 
 H                    -0.748     0.851     31.108 
 H                    -0.17      0.821     29.496 
 H                    -1.027     3.533     30.747 
 H                    -2.151     2.238     30.581 
 H                    -1.014     2.29      27.963 
 H                    -0.799     3.972     28.632 
 H                    -3.359     3.386     29.027 
 H                    -4.079     2.613     26.5 
 H                    -3.568     1.359     27.754 
 H                    -2.44      1.911     26.573 
 H                    -1.98      5.146     27.388 
 H                    -3.79      4.99      27.616 
 H                    -3.138     4.399     26.24 
 
 ITRead=  0  0  0  0  0  0  0  0  0  0  0  0  0  0  0  0  0  0  0  0
 ITRead=  0  0  0  0  0  0  0  0  0  0  0  0  0  0  0  0  0  0  0  0
 ITRead=  0  0  0  0  0  0  0  0  0  0  0  0  0  0  0  0  0  0  0  0
 ITRead=  0  0  0  0  0  0  0  0  0  0  0  0  0  0  0  0  0  0  0  0
 ITRead=  0  0  0  0  0  0  0  0  0  0  0  0  0  0  0  0  0  0  0  0
 ITRead=  0  0  0  0  0  0  0  0  0  0  0  0  0  0  0  0  0  0  0  0
 ITRead=  0  0  0  0  0  0  0  0  0  0  0  0  0  0  0  0  0  0  0  0
 MicOpt= -1 -1 -1 -1 -1 -1 -1 -1 -1 -1 -1 -1 -1 -1 -1 -1 -1 -1 -1 -1
 MicOpt= -1 -1 -1 -1 -1 -1 -1 -1 -1 -1 -1 -1 -1 -1 -1 -1 -1 -1 -1 -1
 MicOpt= -1 -1 -1 -1 -1 -1 -1 -1 -1 -1 -1 -1 -1 -1 -1 -1 -1 -1 -1 -1
 MicOpt= -1 -1 -1 -1 -1 -1 -1 -1 -1 -1 -1 -1 -1 -1 -1 -1 -1 -1 -1 -1
 MicOpt= -1 -1 -1 -1 -1 -1 -1 -1 -1 -1 -1 -1 -1 -1 -1 -1 -1 -1 -1 -1
 MicOpt= -1 -1 -1 -1 -1 -1 -1 -1 -1 -1 -1 -1 -1 -1 -1 -1 -1 -1 -1 -1
 MicOpt= -1 -1 -1 -1 -1 -1 -1 -1 -1 -1 -1 -1 -1 -1 -1 -1 -1 -1 -1 -1
 NAtoms=    140 NQM=      140 NQMF=       0 NMMI=      0 NMMIF=      0
                NMic=       0 NMicF=      0.
                    Isotopes and Nuclear Properties:
 (Nuclear quadrupole moments (NQMom) in fm**2, nuclear magnetic moments (NMagM)
  in nuclear magnetons)

  Atom         1           2           3           4           5           6           7           8           9          10
 IAtWgt=          24          12          12          12          12          14          12          12          12          12
 AtmWgt=  23.9850450  12.0000000  12.0000000  12.0000000  12.0000000  14.0030740  12.0000000  12.0000000  12.0000000  12.0000000
 NucSpn=           0           0           0           0           0           2           0           0           0           0
 AtZEff=  -0.0000000  -0.0000000  -0.0000000  -0.0000000  -0.0000000  -0.0000000  -0.0000000  -0.0000000  -0.0000000  -0.0000000
 NQMom=    0.0000000   0.0000000   0.0000000   0.0000000   0.0000000   2.0440000   0.0000000   0.0000000   0.0000000   0.0000000
 NMagM=    0.0000000   0.0000000   0.0000000   0.0000000   0.0000000   0.4037610   0.0000000   0.0000000   0.0000000   0.0000000
 AtZNuc=  12.0000000   6.0000000   6.0000000   6.0000000   6.0000000   7.0000000   6.0000000   6.0000000   6.0000000   6.0000000

  Atom        11          12          13          14          15          16          17          18          19          20
 IAtWgt=          12          12          12          12          16          16          14          12          12          12
 AtmWgt=  12.0000000  12.0000000  12.0000000  12.0000000  15.9949146  15.9949146  14.0030740  12.0000000  12.0000000  12.0000000
 NucSpn=           0           0           0           0           0           0           2           0           0           0
 AtZEff=  -0.0000000  -0.0000000  -0.0000000  -0.0000000  -0.0000000  -0.0000000  -0.0000000  -0.0000000  -0.0000000  -0.0000000
 NQMom=    0.0000000   0.0000000   0.0000000   0.0000000   0.0000000   0.0000000   2.0440000   0.0000000   0.0000000   0.0000000
 NMagM=    0.0000000   0.0000000   0.0000000   0.0000000   0.0000000   0.0000000   0.4037610   0.0000000   0.0000000   0.0000000
 AtZNuc=   6.0000000   6.0000000   6.0000000   6.0000000   8.0000000   8.0000000   7.0000000   6.0000000   6.0000000   6.0000000

  Atom        21          22          23          24          25          26          27          28          29          30
 IAtWgt=          12          12          12          16          12          14          12          12          12          12
 AtmWgt=  12.0000000  12.0000000  12.0000000  15.9949146  12.0000000  14.0030740  12.0000000  12.0000000  12.0000000  12.0000000
 NucSpn=           0           0           0           0           0           2           0           0           0           0
 AtZEff=  -0.0000000  -0.0000000  -0.0000000  -0.0000000  -0.0000000  -0.0000000  -0.0000000  -0.0000000  -0.0000000  -0.0000000
 NQMom=    0.0000000   0.0000000   0.0000000   0.0000000   0.0000000   2.0440000   0.0000000   0.0000000   0.0000000   0.0000000
 NMagM=    0.0000000   0.0000000   0.0000000   0.0000000   0.0000000   0.4037610   0.0000000   0.0000000   0.0000000   0.0000000
 AtZNuc=   6.0000000   6.0000000   6.0000000   8.0000000   6.0000000   7.0000000   6.0000000   6.0000000   6.0000000   6.0000000

  Atom        31          32          33          34          35          36          37          38          39          40
 IAtWgt=          12          12          12          14          12          12          12          12          12          12
 AtmWgt=  12.0000000  12.0000000  12.0000000  14.0030740  12.0000000  12.0000000  12.0000000  12.0000000  12.0000000  12.0000000
 NucSpn=           0           0           0           2           0           0           0           0           0           0
 AtZEff=  -0.0000000  -0.0000000  -0.0000000  -0.0000000  -0.0000000  -0.0000000  -0.0000000  -0.0000000  -0.0000000  -0.0000000
 NQMom=    0.0000000   0.0000000   0.0000000   2.0440000   0.0000000   0.0000000   0.0000000   0.0000000   0.0000000   0.0000000
 NMagM=    0.0000000   0.0000000   0.0000000   0.4037610   0.0000000   0.0000000   0.0000000   0.0000000   0.0000000   0.0000000
 AtZNuc=   6.0000000   6.0000000   6.0000000   7.0000000   6.0000000   6.0000000   6.0000000   6.0000000   6.0000000   6.0000000

  Atom        41          42          43          44          45          46          47          48          49          50
 IAtWgt=          16          12          12          16          16          12          12          12          12          12
 AtmWgt=  15.9949146  12.0000000  12.0000000  15.9949146  15.9949146  12.0000000  12.0000000  12.0000000  12.0000000  12.0000000
 NucSpn=           0           0           0           0           0           0           0           0           0           0
 AtZEff=  -0.0000000  -0.0000000  -0.0000000  -0.0000000  -0.0000000  -0.0000000  -0.0000000  -0.0000000  -0.0000000  -0.0000000
 NQMom=    0.0000000   0.0000000   0.0000000   0.0000000   0.0000000   0.0000000   0.0000000   0.0000000   0.0000000   0.0000000
 NMagM=    0.0000000   0.0000000   0.0000000   0.0000000   0.0000000   0.0000000   0.0000000   0.0000000   0.0000000   0.0000000
 AtZNuc=   8.0000000   6.0000000   6.0000000   8.0000000   8.0000000   6.0000000   6.0000000   6.0000000   6.0000000   6.0000000

  Atom        51          52          53          54          55          56          57          58          59          60
 IAtWgt=          12          12          12          12          12          12          12          12          12          12
 AtmWgt=  12.0000000  12.0000000  12.0000000  12.0000000  12.0000000  12.0000000  12.0000000  12.0000000  12.0000000  12.0000000
 NucSpn=           0           0           0           0           0           0           0           0           0           0
 AtZEff=  -0.0000000  -0.0000000  -0.0000000  -0.0000000  -0.0000000  -0.0000000  -0.0000000  -0.0000000  -0.0000000  -0.0000000
 NQMom=    0.0000000   0.0000000   0.0000000   0.0000000   0.0000000   0.0000000   0.0000000   0.0000000   0.0000000   0.0000000
 NMagM=    0.0000000   0.0000000   0.0000000   0.0000000   0.0000000   0.0000000   0.0000000   0.0000000   0.0000000   0.0000000
 AtZNuc=   6.0000000   6.0000000   6.0000000   6.0000000   6.0000000   6.0000000   6.0000000   6.0000000   6.0000000   6.0000000

  Atom        61          62          63          64          65          66          67          68          69          70
 IAtWgt=          12          12          12          12          12          12           1           1           1           1
 AtmWgt=  12.0000000  12.0000000  12.0000000  12.0000000  12.0000000  12.0000000   1.0078250   1.0078250   1.0078250   1.0078250
 NucSpn=           0           0           0           0           0           0           1           1           1           1
 AtZEff=  -0.0000000  -0.0000000  -0.0000000  -0.0000000  -0.0000000  -0.0000000  -0.0000000  -0.0000000  -0.0000000  -0.0000000
 NQMom=    0.0000000   0.0000000   0.0000000   0.0000000   0.0000000   0.0000000   0.0000000   0.0000000   0.0000000   0.0000000
 NMagM=    0.0000000   0.0000000   0.0000000   0.0000000   0.0000000   0.0000000   2.7928460   2.7928460   2.7928460   2.7928460
 AtZNuc=   6.0000000   6.0000000   6.0000000   6.0000000   6.0000000   6.0000000   1.0000000   1.0000000   1.0000000   1.0000000

  Atom        71          72          73          74          75          76          77          78          79          80
 IAtWgt=           1           1           1           1           1           1           1           1           1           1
 AtmWgt=   1.0078250   1.0078250   1.0078250   1.0078250   1.0078250   1.0078250   1.0078250   1.0078250   1.0078250   1.0078250
 NucSpn=           1           1           1           1           1           1           1           1           1           1
 AtZEff=  -0.0000000  -0.0000000  -0.0000000  -0.0000000  -0.0000000  -0.0000000  -0.0000000  -0.0000000  -0.0000000  -0.0000000
 NQMom=    0.0000000   0.0000000   0.0000000   0.0000000   0.0000000   0.0000000   0.0000000   0.0000000   0.0000000   0.0000000
 NMagM=    2.7928460   2.7928460   2.7928460   2.7928460   2.7928460   2.7928460   2.7928460   2.7928460   2.7928460   2.7928460
 AtZNuc=   1.0000000   1.0000000   1.0000000   1.0000000   1.0000000   1.0000000   1.0000000   1.0000000   1.0000000   1.0000000

  Atom        81          82          83          84          85          86          87          88          89          90
 IAtWgt=           1           1           1           1           1           1           1           1           1           1
 AtmWgt=   1.0078250   1.0078250   1.0078250   1.0078250   1.0078250   1.0078250   1.0078250   1.0078250   1.0078250   1.0078250
 NucSpn=           1           1           1           1           1           1           1           1           1           1
 AtZEff=  -0.0000000  -0.0000000  -0.0000000  -0.0000000  -0.0000000  -0.0000000  -0.0000000  -0.0000000  -0.0000000  -0.0000000
 NQMom=    0.0000000   0.0000000   0.0000000   0.0000000   0.0000000   0.0000000   0.0000000   0.0000000   0.0000000   0.0000000
 NMagM=    2.7928460   2.7928460   2.7928460   2.7928460   2.7928460   2.7928460   2.7928460   2.7928460   2.7928460   2.7928460
 AtZNuc=   1.0000000   1.0000000   1.0000000   1.0000000   1.0000000   1.0000000   1.0000000   1.0000000   1.0000000   1.0000000

  Atom        91          92          93          94          95          96          97          98          99         100
 IAtWgt=           1           1           1           1           1           1           1           1           1           1
 AtmWgt=   1.0078250   1.0078250   1.0078250   1.0078250   1.0078250   1.0078250   1.0078250   1.0078250   1.0078250   1.0078250
 NucSpn=           1           1           1           1           1           1           1           1           1           1
 AtZEff=  -0.0000000  -0.0000000  -0.0000000  -0.0000000  -0.0000000  -0.0000000  -0.0000000  -0.0000000  -0.0000000  -0.0000000
 NQMom=    0.0000000   0.0000000   0.0000000   0.0000000   0.0000000   0.0000000   0.0000000   0.0000000   0.0000000   0.0000000
 NMagM=    2.7928460   2.7928460   2.7928460   2.7928460   2.7928460   2.7928460   2.7928460   2.7928460   2.7928460   2.7928460
 AtZNuc=   1.0000000   1.0000000   1.0000000   1.0000000   1.0000000   1.0000000   1.0000000   1.0000000   1.0000000   1.0000000

  Atom       101         102         103         104         105         106         107         108         109         110
 IAtWgt=           1           1           1           1           1           1           1           1           1           1
 AtmWgt=   1.0078250   1.0078250   1.0078250   1.0078250   1.0078250   1.0078250   1.0078250   1.0078250   1.0078250   1.0078250
 NucSpn=           1           1           1           1           1           1           1           1           1           1
 AtZEff=  -0.0000000  -0.0000000  -0.0000000  -0.0000000  -0.0000000  -0.0000000  -0.0000000  -0.0000000  -0.0000000  -0.0000000
 NQMom=    0.0000000   0.0000000   0.0000000   0.0000000   0.0000000   0.0000000   0.0000000   0.0000000   0.0000000   0.0000000
 NMagM=    2.7928460   2.7928460   2.7928460   2.7928460   2.7928460   2.7928460   2.7928460   2.7928460   2.7928460   2.7928460
 AtZNuc=   1.0000000   1.0000000   1.0000000   1.0000000   1.0000000   1.0000000   1.0000000   1.0000000   1.0000000   1.0000000

  Atom       111         112         113         114         115         116         117         118         119         120
 IAtWgt=           1           1           1           1           1           1           1           1           1           1
 AtmWgt=   1.0078250   1.0078250   1.0078250   1.0078250   1.0078250   1.0078250   1.0078250   1.0078250   1.0078250   1.0078250
 NucSpn=           1           1           1           1           1           1           1           1           1           1
 AtZEff=  -0.0000000  -0.0000000  -0.0000000  -0.0000000  -0.0000000  -0.0000000  -0.0000000  -0.0000000  -0.0000000  -0.0000000
 NQMom=    0.0000000   0.0000000   0.0000000   0.0000000   0.0000000   0.0000000   0.0000000   0.0000000   0.0000000   0.0000000
 NMagM=    2.7928460   2.7928460   2.7928460   2.7928460   2.7928460   2.7928460   2.7928460   2.7928460   2.7928460   2.7928460
 AtZNuc=   1.0000000   1.0000000   1.0000000   1.0000000   1.0000000   1.0000000   1.0000000   1.0000000   1.0000000   1.0000000

  Atom       121         122         123         124         125         126         127         128         129         130
 IAtWgt=           1           1           1           1           1           1           1           1           1           1
 AtmWgt=   1.0078250   1.0078250   1.0078250   1.0078250   1.0078250   1.0078250   1.0078250   1.0078250   1.0078250   1.0078250
 NucSpn=           1           1           1           1           1           1           1           1           1           1
 AtZEff=  -0.0000000  -0.0000000  -0.0000000  -0.0000000  -0.0000000  -0.0000000  -0.0000000  -0.0000000  -0.0000000  -0.0000000
 NQMom=    0.0000000   0.0000000   0.0000000   0.0000000   0.0000000   0.0000000   0.0000000   0.0000000   0.0000000   0.0000000
 NMagM=    2.7928460   2.7928460   2.7928460   2.7928460   2.7928460   2.7928460   2.7928460   2.7928460   2.7928460   2.7928460
 AtZNuc=   1.0000000   1.0000000   1.0000000   1.0000000   1.0000000   1.0000000   1.0000000   1.0000000   1.0000000   1.0000000

  Atom       131         132         133         134         135         136         137         138         139         140
 IAtWgt=           1           1           1           1           1           1           1           1           1           1
 AtmWgt=   1.0078250   1.0078250   1.0078250   1.0078250   1.0078250   1.0078250   1.0078250   1.0078250   1.0078250   1.0078250
 NucSpn=           1           1           1           1           1           1           1           1           1           1
 AtZEff=  -0.0000000  -0.0000000  -0.0000000  -0.0000000  -0.0000000  -0.0000000  -0.0000000  -0.0000000  -0.0000000  -0.0000000
 NQMom=    0.0000000   0.0000000   0.0000000   0.0000000   0.0000000   0.0000000   0.0000000   0.0000000   0.0000000   0.0000000
 NMagM=    2.7928460   2.7928460   2.7928460   2.7928460   2.7928460   2.7928460   2.7928460   2.7928460   2.7928460   2.7928460
 AtZNuc=   1.0000000   1.0000000   1.0000000   1.0000000   1.0000000   1.0000000   1.0000000   1.0000000   1.0000000   1.0000000
 Leave Link  101 at Fri Apr 29 04:10:28 2022, MaxMem=  6710886400 cpu:               3.7 elap:               0.2
 (Enter /sw/apps/gaussian-16.0/g16/l202.exe)
 Stoichiometry    C55H74MgN4O6
 Framework group  C1[X(C55H74MgN4O6)]
 Deg. of freedom   414
 Full point group                 C1      NOp   1
 Largest Abelian subgroup         C1      NOp   1
 Largest concise Abelian subgroup C1      NOp   1
                         Standard orientation:                         
 ---------------------------------------------------------------------
 Center     Atomic      Atomic             Coordinates (Angstroms)
 Number     Number       Type             X           Y           Z
 ---------------------------------------------------------------------
      1         12           0        4.237030    1.134141   -0.362177
      2          6           0        4.086835   -2.429085   -0.709109
      3          6           0        1.819494    1.442791   -2.838090
      4          6           0        4.041100    4.378972    0.270780
      5          6           0        6.390842    0.659522    2.413378
      6          7           0        3.043524   -0.363983   -1.614620
      7          6           0        3.183350   -1.754897   -1.582809
      8          6           0        2.352479   -2.479261   -2.650306
      9          6           0        1.965630   -1.149479   -3.553654
     10          6           0        2.252286    0.089288   -2.596627
     11          6           0        2.690973   -1.010992   -4.909140
     12          6           0        1.173519   -3.419902   -2.188415
     13          6           0        0.259769   -2.823886   -1.173619
     14          6           0       -1.243142   -3.052022   -1.348500
     15          8           0       -1.828840   -3.412926   -2.374538
     16          8           0       -1.826853   -2.592727   -0.195183
     17          7           0        3.021417    2.671267   -1.074325
     18          6           0        2.153771    2.637344   -2.146651
     19          6           0        1.637200    3.944987   -2.449750
     20          6           0        2.335512    4.764854   -1.524281
     21          6           0        3.232376    3.954191   -0.767503
     22          6           0        0.653159    4.327689   -3.441393
     23          6           0        2.065745    6.235284   -1.437208
     24          8           0        1.316677    6.810781   -2.229395
     25          6           0        2.738581    7.156160   -0.413712
     26          7           0        5.107631    2.321359    1.078707
     27          6           0        5.002883    3.663003    1.077992
     28          6           0        5.741267    4.277338    2.256987
     29          6           0        6.645519    3.190023    2.782528
     30          6           0        5.929195    1.970521    2.120819
     31          6           0        6.444899    5.659727    2.128338
     32          6           0        6.627141    3.092702    4.330378
     33          6           0        7.998369    3.061831    5.031302
     34          7           0        5.136067   -0.495480    0.593273
     35          6           0        5.938128   -0.526112    1.735802
     36          6           0        6.296033   -1.878035    2.040061
     37          6           0        5.648092   -2.621590    1.076001
     38          6           0        4.895934   -1.791483    0.241686
     39          6           0        7.181315   -2.346413    3.139951
     40          6           0        5.364516   -4.016292    0.667142
     41          8           0        5.831953   -5.089147    1.054541
     42          6           0        4.385583   -3.972088   -0.560311
     43          6           0        4.953747   -4.624827   -1.749471
     44          8           0        4.319535   -5.336039   -2.481127
     45          8           0        6.330748   -4.464590   -1.789553
     46          6           0        6.955018   -5.444734   -2.768118
     47          6           0       -3.332887   -2.685382   -0.131367
     48          6           0       -3.789457   -3.126967    1.225574
     49          6           0       -4.188222   -2.378990    2.256293
     50          6           0       -4.208540   -0.896292    2.401255
     51          6           0       -4.864245   -3.184273    3.451473
     52          6           0       -6.311652   -3.605761    3.372281
     53          6           0       -6.863989   -3.768880    1.910230
     54          6           0       -8.353215   -3.685153    1.743079
     55          6           0       -9.074298   -5.037944    1.854282
     56          6           0       -8.882888   -2.903160    0.531294
     57          6           0       -9.346947   -1.453465    0.913541
     58          6           0       -8.093309   -0.515555    1.011805
     59          6           0       -8.198062    0.651737   -0.004590
     60          6           0       -6.830661    0.906400   -0.674677
     61          6           0       -8.788342    1.965269    0.625466
     62          6           0       -9.396410    2.848311   -0.519091
     63          6           0      -10.934034    2.811683   -0.550443
     64          6           0      -11.643614    4.129274   -0.694563
     65          6           0      -12.375881    4.617293    0.518515
     66          6           0      -12.725731    4.048324   -1.711246
     67          1           0        1.131653    1.514284   -3.683879
     68          1           0        4.122308    5.416431    0.604020
     69          1           0        7.273086    0.611593    3.055401
     70          1           0        3.101629   -3.092737   -3.151679
     71          1           0        0.886430   -1.089738   -3.693085
     72          1           0        3.263701   -0.083379   -4.934232
     73          1           0        1.982448   -1.112887   -5.731205
     74          1           0        3.396151   -1.831977   -5.035177
     75          1           0        1.654022   -4.356978   -1.909986
     76          1           0        0.612547   -3.544435   -3.114680
     77          1           0        0.364259   -1.742162   -1.093840
     78          1           0        0.463002   -3.293191   -0.210830
     79          1           0        0.141034    3.445830   -3.826880
     80          1           0        1.079239    4.852403   -4.296436
     81          1           0       -0.195269    4.904664   -3.074823
     82          1           0        3.782500    7.132084   -0.726495
     83          1           0        2.460453    7.152054    0.640237
     84          1           0        2.270942    8.087974   -0.730843
     85          1           0        4.884580    4.520097    2.885775
     86          1           0        7.664344    3.187329    2.395967
     87          1           0        7.481261    5.579167    2.458366
     88          1           0        6.053129    6.586186    2.546266
     89          1           0        6.334631    5.829503    1.056766
     90          1           0        6.046796    2.183977    4.489821
     91          1           0        6.028104    3.872152    4.801772
     92          1           0        8.063020    3.778553    5.850167
     93          1           0        8.757193    3.553319    4.423515
     94          1           0        8.326938    2.057572    5.299525
     95          1           0        6.662887   -2.229792    4.090947
     96          1           0        8.030626   -1.670847    3.041042
     97          1           0        7.421201   -3.405661    3.044613
     98          1           0        3.501636   -4.520005   -0.232271
     99          1           0        6.416897   -6.392802   -2.791995
    100          1           0        7.936796   -5.589593   -2.317988
    101          1           0        7.042121   -5.089662   -3.794574
    102          1           0       -3.796631   -3.395317   -0.815683
    103          1           0       -3.750282   -1.697847   -0.329198
    104          1           0       -4.005544   -4.190311    1.320068
    105          1           0       -3.942526   -0.626489    3.423130
    106          1           0       -5.207469   -0.572446    2.110926
    107          1           0       -3.554744   -0.407882    1.678360
    108          1           0       -4.663625   -2.622087    4.364060
    109          1           0       -4.154220   -3.981195    3.671666
    110          1           0       -6.969894   -3.147749    4.109804
    111          1           0       -6.349210   -4.639336    3.717228
    112          1           0       -6.584020   -4.763719    1.566421
    113          1           0       -6.386266   -3.014550    1.284975
    114          1           0       -8.649060   -3.101795    2.615515
    115          1           0      -10.078137   -5.184249    1.455679
    116          1           0       -9.354440   -5.220130    2.891851
    117          1           0       -8.420012   -5.862924    1.571647
    118          1           0       -9.555630   -3.408499   -0.160877
    119          1           0       -8.055217   -2.626620   -0.122494
    120          1           0       -9.912852   -1.340072    1.837826
    121          1           0       -9.973891   -1.158757    0.072400
    122          1           0       -7.163449   -1.085562    1.010640
    123          1           0       -8.092597   -0.036601    1.991400
    124          1           0       -8.828889    0.319537   -0.829438
    125          1           0       -6.542718    1.953163   -0.773626
    126          1           0       -6.836233    0.522843   -1.695574
    127          1           0       -6.091664    0.295194   -0.156706
    128          1           0       -7.966055    2.546790    1.043670
    129          1           0       -9.456978    1.821771    1.473815
    130          1           0       -8.957824    2.614564   -1.488738
    131          1           0       -8.943382    3.799924   -0.238670
    132          1           0      -11.366458    2.418895    0.370314
    133          1           0      -11.080151    2.158904   -1.411074
    134          1           0      -10.838954    4.777600   -1.040568
    135          1           0      -13.184937    5.303729    0.271382
    136          1           0      -11.630279    4.996901    1.217452
    137          1           0      -12.778015    3.728390    1.004304
    138          1           0      -12.678795    3.137451   -2.309605
    139          1           0      -12.616872    4.967220   -2.286581
    140          1           0      -13.743370    4.227702   -1.363609
 ---------------------------------------------------------------------
 Rotational constants (GHZ):           0.0336900           0.0137692           0.0115644
 Leave Link  202 at Fri Apr 29 04:10:28 2022, MaxMem=  6710886400 cpu:               0.2 elap:               0.0
 (Enter /sw/apps/gaussian-16.0/g16/l301.exe)
 Standard basis: VSTO-6G (5D, 7F)
 Ernie: Thresh=  0.10000D-02 Tol=  0.10000D-05 Strict=F.
 There are   338 symmetry adapted cartesian basis functions of A   symmetry.
 There are   338 symmetry adapted basis functions of A   symmetry.
   338 basis functions,  2028 primitive gaussians,   338 cartesian basis functions
   176 alpha electrons      176 beta electrons
       nuclear repulsion energy      4919.2700421248 Hartrees.
 IExCor=    0 DFT=F Ex=HF Corr=None ExCW=0 ScaHFX=  1.000000
 ScaDFX=  1.000000  1.000000  1.000000  1.000000 ScalE2=  1.000000  1.000000
 IRadAn=      5 IRanWt=     -1 IRanGd=            0 ICorTp=0 IEmpDi=  4
 Integral buffers will be    131072 words long.
 Regular integral format.
 Two-electron integral symmetry is turned off.
 Leave Link  301 at Fri Apr 29 04:10:28 2022, MaxMem=  6710886400 cpu:               1.2 elap:               0.1
 (Enter /sw/apps/gaussian-16.0/g16/l302.exe)
 Do NDO integrals.
 NPDir=0 NMtPBC=     1 NCelOv=     1 NCel=       1 NClECP=     1 NCelD=      1
         NCelK=      1 NCelE2=     1 NClLst=     1 CellRange=     0.0.
 One-electron integrals computed using PRISM.
 Generate ZINDO/S integrals.
 NDO Nuclear repulsion=  4432.977931215441 Hartrees.
 NBasis=   338 RedAO= F EigKep=  0.00D+00  NBF=   338
 NBsUse=   338 1.00D-04 EigRej=  0.00D+00 NBFU=   338
 Leave Link  302 at Fri Apr 29 04:10:28 2022, MaxMem=  6710886400 cpu:               8.0 elap:               0.4
 (Enter /sw/apps/gaussian-16.0/g16/l303.exe)
 DipDrv:  MaxL=1.
 DipDrv:  will hold  3 matrices at once.
 Leave Link  303 at Fri Apr 29 04:10:28 2022, MaxMem=  6710886400 cpu:               1.3 elap:               0.1
 (Enter /sw/apps/gaussian-16.0/g16/l308.exe)
 Leave Link  308 at Fri Apr 29 04:10:29 2022, MaxMem=  6710886400 cpu:               4.5 elap:               0.2
 (Enter /sw/apps/gaussian-16.0/g16/l401.exe)
 Simple Huckel Guess.
 JPrj=0 DoOrth=F DoCkMO=F.
 Leave Link  401 at Fri Apr 29 04:10:29 2022, MaxMem=  6710886400 cpu:               2.4 elap:               0.1
 (Enter /sw/apps/gaussian-16.0/g16/l502.exe)
 Two-electron integral symmetry not used.
 Closed shell SCF:
 Using DIIS extrapolation, IDIIS=  1040.
 Overlap will be assumed to be unity.
 NGot=  6710886400 LenX=  6710643598 LenY=  6710528913
 Requested convergence on RMS density matrix=1.00D-08 within 128 cycles.
 Requested convergence on MAX density matrix=1.00D-06.
 Requested convergence on             energy=1.00D-06.
 No special actions if energy rises.
 Fock matrices will be formed incrementally for  20 cycles.

 Cycle   1  Pass 1  IDiag  1:
 E= -472.357417430552    
 DIIS: error= 5.21D-02 at cycle   1 NSaved=   1.
 NSaved= 1 IEnMin= 1 EnMin= -472.357417430552     IErMin= 1 ErrMin= 5.21D-02
 ErrMax= 5.21D-02  0.00D+00 EMaxC= 1.00D-01 BMatC= 8.32D-01 BMatP= 8.32D-01
 IDIUse=3 WtCom= 4.79D-01 WtEn= 5.21D-01
 Coeff-Com:  0.100D+01
 Coeff-En:   0.100D+01
 Coeff:      0.100D+01
 GapD=    2.000 DampG=2.000 DampE=0.500 DampFc=1.0000 IDamp=-1.
 RMSDP=4.02D-03 MaxDP=1.48D-01              OVMax= 0.00D+00

 Cycle   2  Pass 1  IDiag  1:
 RMSU=  4.02D-03    CP:  9.95D-01
 E= -474.194543765211     Delta-E=       -1.837126334659 Rises=F Damp=F
 DIIS: error= 1.86D-02 at cycle   2 NSaved=   2.
 NSaved= 2 IEnMin= 2 EnMin= -474.194543765211     IErMin= 2 ErrMin= 1.86D-02
 ErrMax= 1.86D-02  0.00D+00 EMaxC= 1.00D-01 BMatC= 5.33D-02 BMatP= 8.32D-01
 IDIUse=3 WtCom= 8.14D-01 WtEn= 1.86D-01
 Coeff-Com: -0.687D-01 0.107D+01
 Coeff-En:   0.000D+00 0.100D+01
 Coeff:     -0.559D-01 0.106D+01
 RMSDP=1.12D-03 MaxDP=6.11D-02 DE=-1.84D+00 OVMax= 0.00D+00

 Cycle   3  Pass 1  IDiag  1:
 RMSU=  1.06D-03    CP:  9.93D-01  1.09D+00
 E= -474.297540012493     Delta-E=       -0.102996247282 Rises=F Damp=F
 DIIS: error= 7.34D-03 at cycle   3 NSaved=   3.
 NSaved= 3 IEnMin= 3 EnMin= -474.297540012493     IErMin= 3 ErrMin= 7.34D-03
 ErrMax= 7.34D-03  0.00D+00 EMaxC= 1.00D-01 BMatC= 7.59D-03 BMatP= 5.33D-02
 IDIUse=3 WtCom= 9.27D-01 WtEn= 7.34D-02
 Coeff-Com: -0.686D-01 0.245D+00 0.824D+00
 Coeff-En:   0.000D+00 0.000D+00 0.100D+01
 Coeff:     -0.636D-01 0.227D+00 0.836D+00
 RMSDP=3.81D-04 MaxDP=1.59D-02 DE=-1.03D-01 OVMax= 0.00D+00

 Cycle   4  Pass 1  IDiag  1:
 RMSU=  2.47D-04    CP:  9.93D-01  1.16D+00  9.18D-01
 E= -474.311012595796     Delta-E=       -0.013472583303 Rises=F Damp=F
 DIIS: error= 1.58D-03 at cycle   4 NSaved=   4.
 NSaved= 4 IEnMin= 4 EnMin= -474.311012595796     IErMin= 4 ErrMin= 1.58D-03
 ErrMax= 1.58D-03  0.00D+00 EMaxC= 1.00D-01 BMatC= 3.21D-04 BMatP= 7.59D-03
 IDIUse=3 WtCom= 9.84D-01 WtEn= 1.58D-02
 Coeff-Com: -0.143D-02-0.284D-01 0.394D-01 0.990D+00
 Coeff-En:   0.000D+00 0.000D+00 0.000D+00 0.100D+01
 Coeff:     -0.141D-02-0.279D-01 0.387D-01 0.991D+00
 RMSDP=1.33D-04 MaxDP=6.23D-03 DE=-1.35D-02 OVMax= 0.00D+00

 Cycle   5  Pass 1  IDiag  1:
 RMSU=  8.98D-05    CP:  9.92D-01  1.16D+00  1.01D+00  1.10D+00
 E= -474.312114459355     Delta-E=       -0.001101863559 Rises=F Damp=F
 DIIS: error= 8.00D-04 at cycle   5 NSaved=   5.
 NSaved= 5 IEnMin= 5 EnMin= -474.312114459355     IErMin= 5 ErrMin= 8.00D-04
 ErrMax= 8.00D-04  0.00D+00 EMaxC= 1.00D-01 BMatC= 6.25D-05 BMatP= 3.21D-04
 IDIUse=3 WtCom= 9.92D-01 WtEn= 8.00D-03
 Coeff-Com:  0.631D-02-0.254D-01-0.968D-01 0.171D+00 0.945D+00
 Coeff-En:   0.000D+00 0.000D+00 0.000D+00 0.000D+00 0.100D+01
 Coeff:      0.626D-02-0.252D-01-0.960D-01 0.170D+00 0.945D+00
 RMSDP=7.42D-05 MaxDP=2.60D-03 DE=-1.10D-03 OVMax= 0.00D+00

 Cycle   6  Pass 1  IDiag  1:
 RMSU=  4.15D-05    CP:  9.92D-01  1.17D+00  1.02D+00  1.31D+00  1.27D+00
 E= -474.312388078270     Delta-E=       -0.000273618914 Rises=F Damp=F
 DIIS: error= 1.87D-04 at cycle   6 NSaved=   6.
 NSaved= 6 IEnMin= 6 EnMin= -474.312388078270     IErMin= 6 ErrMin= 1.87D-04
 ErrMax= 1.87D-04  0.00D+00 EMaxC= 1.00D-01 BMatC= 1.10D-05 BMatP= 6.25D-05
 IDIUse=3 WtCom= 9.98D-01 WtEn= 1.87D-03
 Coeff-Com: -0.217D-03 0.604D-02-0.126D-01-0.114D+00 0.349D-01 0.109D+01
 Coeff-En:   0.000D+00 0.000D+00 0.000D+00 0.000D+00 0.000D+00 0.100D+01
 Coeff:     -0.217D-03 0.603D-02-0.126D-01-0.114D+00 0.348D-01 0.109D+01
 RMSDP=5.36D-05 MaxDP=1.62D-03 DE=-2.74D-04 OVMax= 0.00D+00

 Cycle   7  Pass 1  IDiag  1:
 RMSU=  1.94D-05    CP:  9.92D-01  1.17D+00  1.03D+00  1.39D+00  1.65D+00
                    CP:  1.71D+00
 E= -474.312490745900     Delta-E=       -0.000102667630 Rises=F Damp=F
 DIIS: error= 1.10D-04 at cycle   7 NSaved=   7.
 NSaved= 7 IEnMin= 7 EnMin= -474.312490745900     IErMin= 7 ErrMin= 1.10D-04
 ErrMax= 1.10D-04  0.00D+00 EMaxC= 1.00D-01 BMatC= 3.68D-06 BMatP= 1.10D-05
 IDIUse=3 WtCom= 9.99D-01 WtEn= 1.10D-03
 Coeff-Com: -0.905D-03 0.276D-02 0.155D-01-0.411D-03-0.137D+00-0.288D+00
 Coeff-Com:  0.141D+01
 Coeff-En:   0.000D+00 0.000D+00 0.000D+00 0.000D+00 0.000D+00 0.000D+00
 Coeff-En:   0.100D+01
 Coeff:     -0.904D-03 0.276D-02 0.155D-01-0.410D-03-0.136D+00-0.288D+00
 Coeff:      0.141D+01
 RMSDP=5.57D-05 MaxDP=1.76D-03 DE=-1.03D-04 OVMax= 0.00D+00

 Cycle   8  Pass 1  IDiag  1:
 RMSU=  8.70D-06    CP:  9.92D-01  1.17D+00  1.04D+00  1.45D+00  1.96D+00
                    CP:  2.63D+00  2.18D+00
 E= -474.312564744747     Delta-E=       -0.000073998847 Rises=F Damp=F
 DIIS: error= 7.17D-05 at cycle   8 NSaved=   8.
 NSaved= 8 IEnMin= 8 EnMin= -474.312564744747     IErMin= 8 ErrMin= 7.17D-05
 ErrMax= 7.17D-05  0.00D+00 EMaxC= 1.00D-01 BMatC= 2.22D-06 BMatP= 3.68D-06
 IDIUse=1 WtCom= 1.00D+00 WtEn= 0.00D+00
 Coeff-Com:  0.563D-03-0.481D-02 0.803D-03 0.619D-01 0.534D-01-0.527D+00
 Coeff-Com: -0.406D+00 0.182D+01
 Coeff:      0.563D-03-0.481D-02 0.803D-03 0.619D-01 0.534D-01-0.527D+00
 Coeff:     -0.406D+00 0.182D+01
 RMSDP=7.48D-05 MaxDP=2.00D-03 DE=-7.40D-05 OVMax= 0.00D+00

 Cycle   9  Pass 1  IDiag  1:
 RMSU=  4.02D-05    CP:  9.92D-01  1.17D+00  1.04D+00  1.53D+00  2.35D+00
                    CP:  3.00D+00  3.00D+00  2.38D+00
 E= -474.312632118884     Delta-E=       -0.000067374137 Rises=F Damp=F
 DIIS: error= 5.14D-05 at cycle   9 NSaved=   9.
 NSaved= 9 IEnMin= 9 EnMin= -474.312632118884     IErMin= 9 ErrMin= 5.14D-05
 ErrMax= 5.14D-05  0.00D+00 EMaxC= 1.00D-01 BMatC= 7.38D-07 BMatP= 2.22D-06
 IDIUse=1 WtCom= 1.00D+00 WtEn= 0.00D+00
 Coeff-Com:  0.500D-03-0.169D-02-0.784D-02-0.222D-02 0.916D-01 0.111D+00
 Coeff-Com: -0.765D+00 0.125D-01 0.156D+01
 Coeff:      0.500D-03-0.169D-02-0.784D-02-0.222D-02 0.916D-01 0.111D+00
 Coeff:     -0.765D+00 0.125D-01 0.156D+01
 RMSDP=6.71D-05 MaxDP=1.81D-03 DE=-6.74D-05 OVMax= 0.00D+00

 Cycle  10  Pass 1  IDiag  1:
 RMSU=  1.20D-05    CP:  9.92D-01  1.17D+00  1.05D+00  1.60D+00  2.68D+00
                    CP:  3.00D+00  3.00D+00  3.00D+00  2.38D+00
 E= -474.312661753891     Delta-E=       -0.000029635007 Rises=F Damp=F
 DIIS: error= 2.48D-05 at cycle  10 NSaved=  10.
 NSaved=10 IEnMin=10 EnMin= -474.312661753891     IErMin=10 ErrMin= 2.48D-05
 ErrMax= 2.48D-05  0.00D+00 EMaxC= 1.00D-01 BMatC= 1.41D-07 BMatP= 7.38D-07
 IDIUse=1 WtCom= 1.00D+00 WtEn= 0.00D+00
 Coeff-Com: -0.167D-03 0.131D-02 0.121D-03-0.187D-01-0.396D-02 0.123D+00
 Coeff-Com:  0.128D+00-0.478D+00-0.827D-01 0.133D+01
 Coeff:     -0.167D-03 0.131D-02 0.121D-03-0.187D-01-0.396D-02 0.123D+00
 Coeff:      0.128D+00-0.478D+00-0.827D-01 0.133D+01
 RMSDP=2.64D-05 MaxDP=7.05D-04 DE=-2.96D-05 OVMax= 0.00D+00

 Cycle  11  Pass 1  IDiag  1:
 RMSU=  3.48D-06    CP:  9.92D-01  1.17D+00  1.05D+00  1.62D+00  2.80D+00
                    CP:  3.00D+00  3.00D+00  3.00D+00  2.92D+00  1.57D+00
 E= -474.312665625543     Delta-E=       -0.000003871652 Rises=F Damp=F
 DIIS: error= 1.32D-05 at cycle  11 NSaved=  11.
 NSaved=11 IEnMin=11 EnMin= -474.312665625543     IErMin=11 ErrMin= 1.32D-05
 ErrMax= 1.32D-05  0.00D+00 EMaxC= 1.00D-01 BMatC= 2.07D-08 BMatP= 1.41D-07
 IDIUse=1 WtCom= 1.00D+00 WtEn= 0.00D+00
 Coeff-Com: -0.832D-04 0.335D-03 0.137D-02-0.230D-02-0.114D-01-0.139D-01
 Coeff-Com:  0.130D+00-0.130D-01-0.295D+00 0.108D+00 0.110D+01
 Coeff:     -0.832D-04 0.335D-03 0.137D-02-0.230D-02-0.114D-01-0.139D-01
 Coeff:      0.130D+00-0.130D-01-0.295D+00 0.108D+00 0.110D+01
 RMSDP=6.06D-06 MaxDP=1.61D-04 DE=-3.87D-06 OVMax= 0.00D+00

 Cycle  12  Pass 1  IDiag  1:
 RMSU=  1.85D-06    CP:  9.92D-01  1.17D+00  1.05D+00  1.63D+00  2.83D+00
                    CP:  3.00D+00  3.00D+00  3.00D+00  3.00D+00  1.74D+00
                    CP:  1.37D+00
 E= -474.312665891049     Delta-E=       -0.000000265506 Rises=F Damp=F
 DIIS: error= 5.02D-06 at cycle  12 NSaved=  12.
 NSaved=12 IEnMin=12 EnMin= -474.312665891049     IErMin=12 ErrMin= 5.02D-06
 ErrMax= 5.02D-06  0.00D+00 EMaxC= 1.00D-01 BMatC= 3.25D-09 BMatP= 2.07D-08
 IDIUse=1 WtCom= 1.00D+00 WtEn= 0.00D+00
 Coeff-Com:  0.329D-04-0.250D-03 0.376D-04 0.305D-02 0.243D-02-0.246D-01
 Coeff-Com: -0.273D-01 0.100D+00-0.115D-03-0.233D+00 0.928D-02 0.117D+01
 Coeff:      0.329D-04-0.250D-03 0.376D-04 0.305D-02 0.243D-02-0.246D-01
 Coeff:     -0.273D-01 0.100D+00-0.115D-03-0.233D+00 0.928D-02 0.117D+01
 RMSDP=1.54D-06 MaxDP=5.74D-05 DE=-2.66D-07 OVMax= 0.00D+00

 Cycle  13  Pass 1  IDiag  1:
 RMSU=  4.44D-07    CP:  9.92D-01  1.17D+00  1.05D+00  1.63D+00  2.83D+00
                    CP:  3.00D+00  3.00D+00  3.00D+00  3.00D+00  1.77D+00
                    CP:  1.56D+00  1.60D+00
 E= -474.312665922471     Delta-E=       -0.000000031422 Rises=F Damp=F
 DIIS: error= 2.36D-06 at cycle  13 NSaved=  13.
 NSaved=13 IEnMin=13 EnMin= -474.312665922471     IErMin=13 ErrMin= 2.36D-06
 ErrMax= 2.36D-06  0.00D+00 EMaxC= 1.00D-01 BMatC= 5.47D-10 BMatP= 3.25D-09
 IDIUse=1 WtCom= 1.00D+00 WtEn= 0.00D+00
 Coeff-Com:  0.106D-04-0.500D-04-0.158D-03 0.428D-03 0.172D-02-0.242D-03
 Coeff-Com: -0.178D-01 0.143D-01 0.287D-01-0.298D-01-0.131D+00 0.509D-01
 Coeff-Com:  0.108D+01
 Coeff:      0.106D-04-0.500D-04-0.158D-03 0.428D-03 0.172D-02-0.242D-03
 Coeff:     -0.178D-01 0.143D-01 0.287D-01-0.298D-01-0.131D+00 0.509D-01
 Coeff:      0.108D+01
 RMSDP=4.36D-07 MaxDP=1.86D-05 DE=-3.14D-08 OVMax= 0.00D+00

 Cycle  14  Pass 1  IDiag  1:
 RMSU=  3.39D-07    CP:  9.92D-01  1.17D+00  1.05D+00  1.63D+00  2.83D+00
                    CP:  3.00D+00  3.00D+00  3.00D+00  3.00D+00  1.78D+00
                    CP:  1.61D+00  1.68D+00  1.27D+00
 E= -474.312665928403     Delta-E=       -0.000000005932 Rises=F Damp=F
 DIIS: error= 1.31D-06 at cycle  14 NSaved=  14.
 NSaved=14 IEnMin=14 EnMin= -474.312665928403     IErMin=14 ErrMin= 1.31D-06
 ErrMax= 1.31D-06  0.00D+00 EMaxC= 1.00D-01 BMatC= 2.02D-10 BMatP= 5.47D-10
 IDIUse=1 WtCom= 1.00D+00 WtEn= 0.00D+00
 Coeff-Com: -0.101D-04 0.696D-04 0.992D-05-0.775D-03-0.991D-03 0.621D-02
 Coeff-Com:  0.747D-02-0.248D-01-0.747D-02 0.636D-01 0.418D-01-0.318D+00
 Coeff-Com: -0.160D+00 0.139D+01
 Coeff:     -0.101D-04 0.696D-04 0.992D-05-0.775D-03-0.991D-03 0.621D-02
 Coeff:      0.747D-02-0.248D-01-0.747D-02 0.636D-01 0.418D-01-0.318D+00
 Coeff:     -0.160D+00 0.139D+01
 RMSDP=4.10D-07 MaxDP=1.38D-05 DE=-5.93D-09 OVMax= 0.00D+00

 Cycle  15  Pass 1  IDiag  1:
 RMSU=  1.28D-07    CP:  9.92D-01  1.17D+00  1.05D+00  1.63D+00  2.83D+00
                    CP:  3.00D+00  3.00D+00  3.00D+00  3.00D+00  1.78D+00
                    CP:  1.64D+00  1.81D+00  1.70D+00  1.60D+00
 E= -474.312665931458     Delta-E=       -0.000000003055 Rises=F Damp=F
 DIIS: error= 5.48D-07 at cycle  15 NSaved=  15.
 NSaved=15 IEnMin=15 EnMin= -474.312665931458     IErMin=15 ErrMin= 5.48D-07
 ErrMax= 5.48D-07  0.00D+00 EMaxC= 1.00D-01 BMatC= 7.67D-11 BMatP= 2.02D-10
 IDIUse=1 WtCom= 1.00D+00 WtEn= 0.00D+00
 Coeff-Com: -0.472D-05 0.232D-04 0.682D-04-0.155D-03-0.103D-02 0.103D-02
 Coeff-Com:  0.740D-02-0.464D-02-0.117D-01 0.769D-02 0.562D-01-0.586D-01
 Coeff-Com: -0.326D+00-0.300D-01 0.136D+01
 Coeff:     -0.472D-05 0.232D-04 0.682D-04-0.155D-03-0.103D-02 0.103D-02
 Coeff:      0.740D-02-0.464D-02-0.117D-01 0.769D-02 0.562D-01-0.586D-01
 Coeff:     -0.326D+00-0.300D-01 0.136D+01
 RMSDP=3.20D-07 MaxDP=8.49D-06 DE=-3.05D-09 OVMax= 0.00D+00

 Cycle  16  Pass 1  IDiag  1:
 RMSU=  5.46D-08    CP:  9.92D-01  1.17D+00  1.05D+00  1.63D+00  2.83D+00
                    CP:  3.00D+00  3.00D+00  3.00D+00  3.00D+00  1.78D+00
                    CP:  1.65D+00  1.80D+00  1.91D+00  2.43D+00  1.54D+00
 E= -474.312665932820     Delta-E=       -0.000000001362 Rises=F Damp=F
 DIIS: error= 4.67D-07 at cycle  16 NSaved=  16.
 NSaved=16 IEnMin=16 EnMin= -474.312665932820     IErMin=16 ErrMin= 4.67D-07
 ErrMax= 4.67D-07  0.00D+00 EMaxC= 1.00D-01 BMatC= 2.39D-11 BMatP= 7.67D-11
 IDIUse=1 WtCom= 1.00D+00 WtEn= 0.00D+00
 Coeff-Com:  0.443D-05-0.288D-04-0.778D-05 0.329D-03 0.253D-03-0.189D-02
 Coeff-Com: -0.442D-02 0.885D-02 0.460D-02-0.253D-01-0.770D-02 0.100D+00
 Coeff-Com:  0.113D+00-0.544D+00-0.709D-01 0.143D+01
 Coeff:      0.443D-05-0.288D-04-0.778D-05 0.329D-03 0.253D-03-0.189D-02
 Coeff:     -0.442D-02 0.885D-02 0.460D-02-0.253D-01-0.770D-02 0.100D+00
 Coeff:      0.113D+00-0.544D+00-0.709D-01 0.143D+01
 RMSDP=2.21D-07 MaxDP=7.28D-06 DE=-1.36D-09 OVMax= 0.00D+00

 Cycle  17  Pass 1  IDiag  1:
 RMSU=  3.28D-08    CP:  9.92D-01  1.17D+00  1.05D+00  1.63D+00  2.83D+00
                    CP:  3.00D+00  3.00D+00  3.00D+00  3.00D+00  1.79D+00
                    CP:  1.66D+00  1.86D+00  2.10D+00  2.71D+00  2.32D+00
                    CP:  1.62D+00
 E= -474.312665933217     Delta-E=       -0.000000000397 Rises=F Damp=F
 DIIS: error= 1.66D-07 at cycle  17 NSaved=  17.
 NSaved=17 IEnMin=17 EnMin= -474.312665933217     IErMin=17 ErrMin= 1.66D-07
 ErrMax= 1.66D-07  0.00D+00 EMaxC= 1.00D-01 BMatC= 4.89D-12 BMatP= 2.39D-11
 IDIUse=1 WtCom= 1.00D+00 WtEn= 0.00D+00
 Coeff-Com:  0.116D-05-0.653D-05-0.135D-04 0.657D-04 0.153D-03-0.244D-03
 Coeff-Com: -0.176D-02 0.211D-02 0.244D-02-0.446D-02-0.694D-02 0.126D-01
 Coeff-Com:  0.694D-01-0.350D-01-0.292D+00 0.200D+00 0.105D+01
 Coeff:      0.116D-05-0.653D-05-0.135D-04 0.657D-04 0.153D-03-0.244D-03
 Coeff:     -0.176D-02 0.211D-02 0.244D-02-0.446D-02-0.694D-02 0.126D-01
 Coeff:      0.694D-01-0.350D-01-0.292D+00 0.200D+00 0.105D+01
 RMSDP=8.34D-08 MaxDP=2.76D-06 DE=-3.97D-10 OVMax= 0.00D+00

 Cycle  18  Pass 1  IDiag  1:
 RMSU=  1.36D-08    CP:  9.92D-01  1.17D+00  1.05D+00  1.63D+00  2.83D+00
                    CP:  3.00D+00  3.00D+00  3.00D+00  3.00D+00  1.79D+00
                    CP:  1.66D+00  1.85D+00  2.12D+00  2.89D+00  2.45D+00
                    CP:  2.13D+00  1.26D+00
 E= -474.312665933280     Delta-E=       -0.000000000063 Rises=F Damp=F
 DIIS: error= 1.51D-07 at cycle  18 NSaved=  18.
 NSaved=18 IEnMin=18 EnMin= -474.312665933280     IErMin=18 ErrMin= 1.51D-07
 ErrMax= 1.51D-07  0.00D+00 EMaxC= 1.00D-01 BMatC= 1.21D-12 BMatP= 4.89D-12
 IDIUse=1 WtCom= 1.00D+00 WtEn= 0.00D+00
 Coeff-Com: -0.168D-05 0.109D-04 0.179D-05-0.119D-03-0.112D-03 0.767D-03
 Coeff-Com:  0.137D-02-0.321D-02-0.189D-02 0.887D-02 0.465D-02-0.398D-01
 Coeff-Com: -0.414D-01 0.210D+00 0.651D-02-0.461D+00-0.194D+00 0.151D+01
 Coeff:     -0.168D-05 0.109D-04 0.179D-05-0.119D-03-0.112D-03 0.767D-03
 Coeff:      0.137D-02-0.321D-02-0.189D-02 0.887D-02 0.465D-02-0.398D-01
 Coeff:     -0.414D-01 0.210D+00 0.651D-02-0.461D+00-0.194D+00 0.151D+01
 RMSDP=4.37D-08 MaxDP=1.39D-06 DE=-6.28D-11 OVMax= 0.00D+00

 Cycle  19  Pass 1  IDiag  1:
 RMSU=  6.18D-09    CP:  9.92D-01  1.17D+00  1.05D+00  1.63D+00  2.83D+00
                    CP:  3.00D+00  3.00D+00  3.00D+00  3.00D+00  1.79D+00
                    CP:  1.66D+00  1.86D+00  2.15D+00  2.94D+00  2.60D+00
                    CP:  2.42D+00  1.77D+00  1.73D+00
 E= -474.312665933316     Delta-E=       -0.000000000035 Rises=F Damp=F
 DIIS: error= 7.78D-08 at cycle  19 NSaved=  19.
 NSaved=19 IEnMin=19 EnMin= -474.312665933316     IErMin=19 ErrMin= 7.78D-08
 ErrMax= 7.78D-08  0.00D+00 EMaxC= 1.00D-01 BMatC= 1.78D-13 BMatP= 1.21D-12
 IDIUse=1 WtCom= 1.00D+00 WtEn= 0.00D+00
 Coeff-Com: -0.141D-06 0.746D-06 0.314D-05-0.740D-05-0.248D-04 0.118D-04
 Coeff-Com:  0.228D-03-0.153D-03-0.464D-03 0.581D-03 0.134D-02-0.216D-03
 Coeff-Com: -0.105D-01-0.551D-02 0.480D-01 0.836D-02-0.218D+00-0.363D-01
 Coeff-Com:  0.121D+01
 Coeff:     -0.141D-06 0.746D-06 0.314D-05-0.740D-05-0.248D-04 0.118D-04
 Coeff:      0.228D-03-0.153D-03-0.464D-03 0.581D-03 0.134D-02-0.216D-03
 Coeff:     -0.105D-01-0.551D-02 0.480D-01 0.836D-02-0.218D+00-0.363D-01
 Coeff:      0.121D+01
 RMSDP=1.22D-08 MaxDP=7.44D-07 DE=-3.55D-11 OVMax= 0.00D+00

 Cycle  20  Pass 1  IDiag  1:
 RMSU=  2.07D-09    CP:  9.92D-01  1.17D+00  1.05D+00  1.63D+00  2.83D+00
                    CP:  3.00D+00  3.00D+00  3.00D+00  3.00D+00  1.79D+00
                    CP:  1.66D+00  1.86D+00  2.15D+00  2.95D+00  2.62D+00
                    CP:  2.51D+00  1.90D+00  2.14D+00  1.49D+00
 E= -474.312665933292     Delta-E=        0.000000000024 Rises=F Damp=F
 DIIS: error= 2.77D-08 at cycle  20 NSaved=  20.
 NSaved=20 IEnMin=19 EnMin= -474.312665933316     IErMin=20 ErrMin= 2.77D-08
 ErrMax= 2.77D-08  0.00D+00 EMaxC= 1.00D-01 BMatC= 3.53D-14 BMatP= 1.78D-13
 IDIUse=1 WtCom= 1.00D+00 WtEn= 0.00D+00
 Coeff-Com:  0.332D-06-0.217D-05 0.611D-07 0.226D-04 0.229D-04-0.158D-03
 Coeff-Com: -0.263D-03 0.654D-03 0.306D-03-0.171D-02-0.110D-02 0.796D-02
 Coeff-Com:  0.856D-02-0.447D-01 0.160D-02 0.100D+00 0.126D-01-0.313D+00
 Coeff-Com:  0.591D-01 0.117D+01
 Coeff:      0.332D-06-0.217D-05 0.611D-07 0.226D-04 0.229D-04-0.158D-03
 Coeff:     -0.263D-03 0.654D-03 0.306D-03-0.171D-02-0.110D-02 0.796D-02
 Coeff:      0.856D-02-0.447D-01 0.160D-02 0.100D+00 0.126D-01-0.313D+00
 Coeff:      0.591D-01 0.117D+01
 RMSDP=5.05D-09 MaxDP=3.35D-07 DE= 2.36D-11 OVMax= 0.00D+00

 SCF Done:  E(RZINDO/S) =  -474.312665933     A.U. after   20 cycles
            NFock= 20  Conv=0.50D-08     -V/T= 0.9503
 KE=-9.539964109807D+03 PE= 6.575100996997D-08 EE= 4.632673512593D+03
 Leave Link  502 at Fri Apr 29 04:10:30 2022, MaxMem=  6710886400 cpu:              20.8 elap:               0.9
 (Enter /sw/apps/gaussian-16.0/g16/l801.exe)
 Range of M.O.s used for correlation:     1   338
 NBasis=   338 NAE=   176 NBE=   176 NFC=     0 NFV=     0
 NROrb=    338 NOA=   176 NOB=   176 NVA=   162 NVB=   162
 Leave Link  801 at Fri Apr 29 04:10:30 2022, MaxMem=  6710886400 cpu:               0.6 elap:               0.0
 (Enter /sw/apps/gaussian-16.0/g16/l914.exe)
 RHF ground state
 Two-electron integral symmetry not used.
 MDV=  6710886400 DFT=F DoStab=F Mixed=F DoRPA=F DoScal=F NonHer=F
 Making orbital integer symmetry assigments:
 Orbital symmetries:
       Occupied  (A) (A) (A) (A) (A) (A) (A) (A) (A) (A) (A) (A)
                 (A) (A) (A) (A) (A) (A) (A) (A) (A) (A) (A) (A)
                 (A) (A) (A) (A) (A) (A) (A) (A) (A) (A) (A) (A)
                 (A) (A) (A) (A) (A) (A) (A) (A) (A) (A) (A) (A)
                 (A) (A) (A) (A) (A) (A) (A) (A) (A) (A) (A) (A)
                 (A) (A) (A) (A) (A) (A) (A) (A) (A) (A) (A) (A)
                 (A) (A) (A) (A) (A) (A) (A) (A) (A) (A) (A) (A)
                 (A) (A) (A) (A) (A) (A) (A) (A) (A) (A) (A) (A)
                 (A) (A) (A) (A) (A) (A) (A) (A) (A) (A) (A) (A)
                 (A) (A) (A) (A) (A) (A) (A) (A) (A) (A) (A) (A)
                 (A) (A) (A) (A) (A) (A) (A) (A) (A) (A) (A) (A)
                 (A) (A) (A) (A) (A) (A) (A) (A) (A) (A) (A) (A)
                 (A) (A) (A) (A) (A) (A) (A) (A) (A) (A) (A) (A)
                 (A) (A) (A) (A) (A) (A) (A) (A) (A) (A) (A) (A)
                 (A) (A) (A) (A) (A) (A) (A) (A)
       Virtual   (A) (A) (A) (A) (A) (A) (A) (A) (A) (A) (A) (A)
                 (A) (A) (A) (A) (A) (A) (A) (A) (A) (A) (A) (A)
                 (A) (A) (A) (A) (A) (A) (A) (A) (A) (A) (A) (A)
                 (A) (A) (A) (A) (A) (A) (A) (A) (A) (A) (A) (A)
                 (A) (A) (A) (A) (A) (A) (A) (A) (A) (A) (A) (A)
                 (A) (A) (A) (A) (A) (A) (A) (A) (A) (A) (A) (A)
                 (A) (A) (A) (A) (A) (A) (A) (A) (A) (A) (A) (A)
                 (A) (A) (A) (A) (A) (A) (A) (A) (A) (A) (A) (A)
                 (A) (A) (A) (A) (A) (A) (A) (A) (A) (A) (A) (A)
                 (A) (A) (A) (A) (A) (A) (A) (A) (A) (A) (A) (A)
                 (A) (A) (A) (A) (A) (A) (A) (A) (A) (A) (A) (A)
                 (A) (A) (A) (A) (A) (A) (A) (A) (A) (A) (A) (A)
                 (A) (A) (A) (A) (A) (A) (A) (A) (A) (A) (A) (A)
                 (A) (A) (A) (A) (A) (A)
    20 initial guesses have been made.
 Convergence on wavefunction:    0.001000000000000
 Davidson Disk Diagonalization:  ConvIn= 1.00D-03 SkipCon=T Conv= 1.00D-03.
 Max sub-space:  2000 roots to seek:    20 dimension of matrix:        57024
 Iteration     1 Dimension    20 NMult     0 NNew     20
 CISAX will form    20 AO SS matrices at one time.
 NMat=    20 NSing=    20 JSym2X= 0.
 New state      3 was old state      4
 New state      4 was old state      7
 New state      5 was old state      3
 Excitation Energies [eV] at current iteration:
 Root      1 :     1.653206811765635
 Root      2 :     2.150401457669945
 Root      3 :     3.373438499484374
 Root      4 :     3.420601176963685
 Root      5 :     3.467365517006574
 Root      6 :     3.565202146283932
 Root      7 :     3.827763244530081
 Root      8 :     3.866804430376019
 Root      9 :     3.924877670715287
 Root     10 :     4.029071732487643
 Root     11 :     4.091429756599968
 Root     12 :     4.285775543493247
 Root     13 :     4.489134017402855
 Root     14 :     4.522382782323413
 Root     15 :     4.548682023781580
 Root     16 :     4.566875351362333
 Root     17 :     4.674119049459640
 Root     18 :     4.699318752036419
 Root     19 :     5.009819558535545
 Root     20 :     5.790549389714372
 Iteration     2 Dimension    40 NMult    20 NNew     20
 CISAX will form    20 AO SS matrices at one time.
 NMat=    20 NSing=    20 JSym2X= 0.
 Root      1 not converged, maximum delta is    0.045172569451096
 Root      2 not converged, maximum delta is    0.029131572249367
 New state      3 was old state      5
 Root      3 not converged, maximum delta is    0.281361189105372
 New state      4 was old state      3
 Root      4 not converged, maximum delta is    0.308282444391969
 New state      5 was old state      6
 Root      5 not converged, maximum delta is    0.183814821724806
 Excitation Energies [eV] at current iteration:
 Root      1 :     1.346923931589953   Change is   -0.306282880175682
 Root      2 :     1.948949549050845   Change is   -0.201451908619100
 Root      3 :     3.054497355181693   Change is   -0.412868161824881
 Root      4 :     3.153537804346931   Change is   -0.219900695137442
 Root      5 :     3.333595208217387   Change is   -0.231606938066545
 Root      6 :     3.374381351008385   Change is   -0.046219825955300
 Root      7 :     3.550902726761117   Change is   -0.276860517768963
 Root      8 :     3.602109713812019   Change is   -0.887024303590836
 Root      9 :     3.639248976579293   Change is   -0.227555453796726
 Root     10 :     3.694013050887129   Change is   -0.230864619828158
 Root     11 :     3.747945124678149   Change is   -0.343484631921820
 Root     12 :     3.775957143002854   Change is   -0.253114589484788
 Root     13 :     3.930897704515188   Change is   -0.768421047521230
 Root     14 :     4.146341351399925   Change is   -0.139434192093322
 Root     15 :     4.247164860237291   Change is   -0.319710491125043
 Root     16 :     4.291137309802806   Change is   -0.231245472520606
 Root     17 :     4.428810011522314   Change is   -0.245309037937326
 Root     18 :     4.509779248389484   Change is   -0.038902775392096
 Root     19 :     5.003339554534146   Change is   -0.006480004001399
 Root     20 :     5.697780541809070
 Iteration     3 Dimension    45 NMult    40 NNew      5
 CISAX will form     5 AO SS matrices at one time.
 NMat=     5 NSing=     5 JSym2X= 0.
 Root      1 not converged, maximum delta is    0.012580949170543
 Root      2 not converged, maximum delta is    0.021345025230320
 Root      3 not converged, maximum delta is    0.011183480123721
 Root      4 not converged, maximum delta is    0.026744753306712
 Root      5 not converged, maximum delta is    0.069189515402562
 Excitation Energies [eV] at current iteration:
 Root      1 :     1.331608366919907   Change is   -0.015315564670046
 Root      2 :     1.921079031914907   Change is   -0.027870517135938
 Root      3 :     3.039325116146604   Change is   -0.015172239035089
 Root      4 :     3.114014305099884   Change is   -0.039523499247048
 Root      5 :     3.285683367160120   Change is   -0.047911841057267
 Iteration     4 Dimension    50 NMult    45 NNew      5
 CISAX will form     5 AO SS matrices at one time.
 NMat=     5 NSing=     5 JSym2X= 0.
 Root      1 not converged, maximum delta is    0.002652142225664
 Root      2 not converged, maximum delta is    0.002295766478084
 New state      3 was old state      5
 Root      3 not converged, maximum delta is    0.337487236489836
 New state      4 was old state      3
 Root      4 not converged, maximum delta is    0.053299960871464
 New state      5 was old state      4
 Root      5 not converged, maximum delta is    0.014877420820424
 Excitation Energies [eV] at current iteration:
 Root      1 :     1.330888931817898   Change is   -0.000719435102008
 Root      2 :     1.920420903884991   Change is   -0.000658128029915
 Root      3 :     3.022979092326911   Change is   -0.262704274833209
 Root      4 :     3.037783931284668   Change is   -0.001541184861936
 Root      5 :     3.110835881457645   Change is   -0.003178423642238
 Iteration     5 Dimension    55 NMult    50 NNew      5
 CISAX will form     5 AO SS matrices at one time.
 NMat=     5 NSing=     5 JSym2X= 0.
 Root      1 has converged.
 Root      2 has converged.
 Root      3 not converged, maximum delta is    0.081691492559829
 Root      4 not converged, maximum delta is    0.046024349279861
 Root      5 not converged, maximum delta is    0.006729869522507
 Excitation Energies [eV] at current iteration:
 Root      1 :     1.330840614658291   Change is   -0.000048317159608
 Root      2 :     1.920387672169009   Change is   -0.000033231715982
 Root      3 :     2.891916006102771   Change is   -0.131063086224140
 Root      4 :     3.037160180336587   Change is   -0.000623750948082
 Root      5 :     3.110242000962834   Change is   -0.000593880494811
 Iteration     6 Dimension    58 NMult    55 NNew      3
 CISAX will form     3 AO SS matrices at one time.
 NMat=     3 NSing=     3 JSym2X= 0.
 Root      1 has converged.
 Root      2 has converged.
 Root      3 not converged, maximum delta is    0.024070905269239
 Root      4 not converged, maximum delta is    0.005214816572467
 Root      5 not converged, maximum delta is    0.004549849027775
 Excitation Energies [eV] at current iteration:
 Root      1 :     1.330840553440367   Change is   -0.000000061217924
 Root      2 :     1.920387578137123   Change is   -0.000000094031886
 Root      3 :     2.875757414092737   Change is   -0.016158592010034
 Root      4 :     3.036954295848695   Change is   -0.000205884487892
 Root      5 :     3.110063942313109   Change is   -0.000178058649725
 Iteration     7 Dimension    61 NMult    58 NNew      3
 CISAX will form     3 AO SS matrices at one time.
 NMat=     3 NSing=     3 JSym2X= 0.
 Root      1 has converged.
 Root      2 has converged.
 Root      3 not converged, maximum delta is    0.013566637118876
 Root      4 not converged, maximum delta is    0.018153938809915
 Root      5 not converged, maximum delta is    0.034786010474519
 Excitation Energies [eV] at current iteration:
 Root      1 :     1.330840484254907   Change is   -0.000000069185460
 Root      2 :     1.920387469783567   Change is   -0.000000108353556
 Root      3 :     2.872643755966003   Change is   -0.003113658126734
 Root      4 :     3.036508070709975   Change is   -0.000446225138720
 Root      5 :     3.109387807798615   Change is   -0.000676134514494
 Iteration     8 Dimension    64 NMult    61 NNew      3
 CISAX will form     3 AO SS matrices at one time.
 NMat=     3 NSing=     3 JSym2X= 0.
 Root      1 has converged.
 Root      2 has converged.
 Root      3 not converged, maximum delta is    0.005015243007401
 Root      4 not converged, maximum delta is    0.029865667559810
 Root      5 not converged, maximum delta is    0.442684107045822
 Excitation Energies [eV] at current iteration:
 Root      1 :     1.330840413758013   Change is   -0.000000070496894
 Root      2 :     1.920387372582016   Change is   -0.000000097201551
 Root      3 :     2.872150236485724   Change is   -0.000493519480279
 Root      4 :     3.035862110796812   Change is   -0.000645959913163
 Root      5 :     3.090521190665805   Change is   -0.018866617132810
 Iteration     9 Dimension    67 NMult    64 NNew      3
 CISAX will form     3 AO SS matrices at one time.
 NMat=     3 NSing=     3 JSym2X= 0.
 Root      1 has converged.
 Root      2 has converged.
 Root      3 not converged, maximum delta is    0.001568460903628
 Root      4 not converged, maximum delta is    0.028968860141004
 Root      5 not converged, maximum delta is    0.099158848302006
 Excitation Energies [eV] at current iteration:
 Root      1 :     1.330840361127458   Change is   -0.000000052630555
 Root      2 :     1.920387341394301   Change is   -0.000000031187714
 Root      3 :     2.872072671379280   Change is   -0.000077565106444
 Root      4 :     3.035254170090170   Change is   -0.000607940706643
 Root      5 :     3.070207534572645   Change is   -0.020313656093159
 Iteration    10 Dimension    70 NMult    67 NNew      3
 CISAX will form     3 AO SS matrices at one time.
 NMat=     3 NSing=     3 JSym2X= 0.
 Root      1 has converged.
 Root      2 has converged.
 Root      3 has converged.
 Root      4 not converged, maximum delta is    0.024572068018295
 Root      5 not converged, maximum delta is    0.034544001936125
 Excitation Energies [eV] at current iteration:
 Root      1 :     1.330840349604080   Change is   -0.000000011523378
 Root      2 :     1.920387096649866   Change is   -0.000000244744435
 Root      3 :     2.872062459092245   Change is   -0.000010212287035
 Root      4 :     3.034709424798263   Change is   -0.000544745291906
 Root      5 :     3.061081191509570   Change is   -0.009126343063075
 Iteration    11 Dimension    72 NMult    70 NNew      2
 CISAX will form     2 AO SS matrices at one time.
 NMat=     2 NSing=     2 JSym2X= 0.
 Root      1 has converged.
 Root      2 has converged.
 Root      3 has converged.
 Root      4 not converged, maximum delta is    0.007806402418234
 Root      5 not converged, maximum delta is    0.011468092498889
 Excitation Energies [eV] at current iteration:
 Root      1 :     1.330840347164432   Change is   -0.000000002439647
 Root      2 :     1.920387036990954   Change is   -0.000000059658912
 Root      3 :     2.872061958646628   Change is   -0.000000500445617
 Root      4 :     3.034527765161982   Change is   -0.000181659636281
 Root      5 :     3.058946048333385   Change is   -0.002135143176185
 Iteration    12 Dimension    74 NMult    72 NNew      2
 CISAX will form     2 AO SS matrices at one time.
 NMat=     2 NSing=     2 JSym2X= 0.
 Root      1 has converged.
 Root      2 has converged.
 Root      3 has converged.
 Root      4 not converged, maximum delta is    0.001208445498383
 Root      5 not converged, maximum delta is    0.002276535307674
 Excitation Energies [eV] at current iteration:
 Root      1 :     1.330840344642491   Change is   -0.000000002521941
 Root      2 :     1.920387006046279   Change is   -0.000000030944675
 Root      3 :     2.872061853437530   Change is   -0.000000105209099
 Root      4 :     3.034499929120071   Change is   -0.000027836041911
 Root      5 :     3.058642307216688   Change is   -0.000303741116697
 Iteration    13 Dimension    76 NMult    74 NNew      2
 CISAX will form     2 AO SS matrices at one time.
 NMat=     2 NSing=     2 JSym2X= 0.
 Root      1 has converged.
 Root      2 has converged.
 Root      3 has converged.
 Root      4 has converged.
 Root      5 has converged.
 Excitation Energies [eV] at current iteration:
 Root      1 :     1.330840344145851   Change is   -0.000000000496640
 Root      2 :     1.920386986931318   Change is   -0.000000019114960
 Root      3 :     2.872061820722574   Change is   -0.000000032714956
 Root      4 :     3.034495649182780   Change is   -0.000004279937291
 Root      5 :     3.058596582448045   Change is   -0.000045724768644
 Convergence achieved on expansion vectors.
 ***********************************************************************
 Excited states from <AA,BB:AA,BB> singles matrix:
 ***********************************************************************
 
 1PDM for each excited state written to RWF  633
 Ground to excited state transition densities written to RWF  633
 Ground to excited state transition electric dipole moments (Au):
       state          X           Y           Z        Dip. S.      Osc.
         1         1.9485     -2.9213      1.9800     16.2514      0.5299
         2        -0.1354     -0.3795     -0.3317      0.2724      0.0128
         3        -0.0099      0.0139      0.0054      0.0003      0.0000
         4        -1.5954     -3.0135     -2.2231     16.5689      1.2318
         5         0.5534      1.2309      0.8364      2.5211      0.1889
 Ground to excited state transition velocity dipole moments (Au):
       state          X           Y           Z        Dip. S.      Osc.
         1         0.0340     -0.0139      0.0369      0.0027      0.0369
         2         0.0009      0.0151      0.0045      0.0002      0.0024
         3        -0.0033     -0.0010      0.0042      0.0000      0.0002
         4         0.0562      0.1066      0.0657      0.0188      0.1127
         5        -0.0252     -0.0516     -0.0310      0.0043      0.0252
 Ground to excited state transition magnetic dipole moments (Au):
       state          X           Y           Z
         1         0.0487     -0.2949     -0.0926
         2         0.8038      0.0793     -0.5862
         3        -0.3927      0.3965     -0.3745
         4         0.4986     -0.8808      0.7501
         5         0.1586     -0.3871     -0.2852
 Ground to excited state transition velocity quadrupole moments (Au):
       state          XX          YY          ZZ          XY          XZ          YZ
         1         0.4944     -0.0306     -0.0288     -0.0987      0.2301     -0.0600
         2         0.0221      0.0584     -0.0249      0.1319      0.0578     -0.0043
         3        -0.0276     -0.0425      0.0100     -0.0772      0.0215      0.0738
         4         0.5271      0.3010     -0.0713      0.9911      0.7854      0.1175
         5        -0.3259     -0.0124     -0.0395     -0.4439     -0.3687     -0.0521
 <0|del|b> * <b|rxdel|0> + <0|del|b> * <b|delr+rdel|0>
 Rotatory Strengths (R) in cgs (10**-40 erg-esu-cm/Gauss)
       state          XX          YY          ZZ    R(velocity)    E-M Angle
         1         1.6470     -1.1409     33.1822     11.2294       81.77
         2        -8.7244    -12.9290     13.8255     -2.6093       92.84
         3        -7.7016     -0.7359      3.6570     -1.5935      101.25
         4      -200.4466     59.5746     35.6341    -35.0793       95.51
         5        74.0694    -23.9096    105.9275     52.0291       41.29
 1/2[<0|r|b>*<b|rxdel|0> + (<0|rxdel|b>*<b|r|0>)*]
 Rotatory Strengths (R) in cgs (10**-40 erg-esu-cm/Gauss)
       state          XX          YY          ZZ     R(length)
         1       -67.0668   -609.2690    129.5979   -182.2460
         2        76.9737     21.2718   -137.5097    -13.0880
         3        -2.7466     -3.8972      1.4227     -1.7404
         4       562.5940  -1877.0901   1179.2565    -45.0798
         5       -62.0697    336.9282    168.6826    147.8470
  1/2[<0|del|b>*<b|r|0> + (<0|r|b>*<b|del|0>)*] (Au)
       state          X           Y           Z        Dip. S.   Osc.(frdel)
         1         0.0662      0.0405      0.0731     -0.1798     -0.1199
         2        -0.0001     -0.0057     -0.0015      0.0074      0.0049
         3         0.0000     -0.0000      0.0000     -0.0000     -0.0000
         4        -0.0897     -0.3213     -0.1461      0.5571      0.3714
         5        -0.0139     -0.0635     -0.0259      0.1033      0.0689

 Excitation energies and oscillator strengths:
 
 Excited State   1:      Singlet-A      1.3308 eV  931.62 nm  f=0.5299  <S**2>=0.000
     175 ->178         0.18447
     176 ->177         0.66624
 This state for optimization and/or second-order correction.
 Total Energy, E(CIS/TDA) =  -474.263758451    
 Copying the excited state density for this state as the 1-particle RhoCI density.
 
 Excited State   2:      Singlet-A      1.9204 eV  645.62 nm  f=0.0128  <S**2>=0.000
     175 ->177         0.51006
     176 ->178        -0.46462
 
 Excited State   3:      Singlet-A      2.8721 eV  431.69 nm  f=0.0000  <S**2>=0.000
     168 ->177         0.32676
     168 ->178        -0.13616
     168 ->179        -0.40057
     168 ->180         0.29174
     168 ->185        -0.22901
 
 Excited State   4:      Singlet-A      3.0345 eV  408.58 nm  f=1.2318  <S**2>=0.000
     170 ->177         0.12269
     170 ->179         0.10748
     170 ->180         0.12883
     175 ->177         0.41677
     176 ->178         0.47077
 
 Excited State   5:      Singlet-A      3.0586 eV  405.36 nm  f=0.1889  <S**2>=0.000
     170 ->177         0.22818
     170 ->179         0.28830
     170 ->180         0.33417
     170 ->184         0.10477
     170 ->185         0.21289
     170 ->187         0.17240
     171 ->177         0.12041
     175 ->177        -0.15483
     176 ->178        -0.17592
 SavETr:  write IOETrn=   770 NScale= 10 NData=  16 NLR=1 NState=    5 LETran=     100.
 Leave Link  914 at Fri Apr 29 04:10:35 2022, MaxMem=  6710886400 cpu:             139.5 elap:               5.8
 (Enter /sw/apps/gaussian-16.0/g16/l601.exe)
 Copying SCF densities to generalized density rwf, IOpCl= 0 IROHF=0.

 **********************************************************************

            Population analysis using the SCF density.

 **********************************************************************

 Orbital symmetries:
       Occupied  (A) (A) (A) (A) (A) (A) (A) (A) (A) (A) (A) (A)
                 (A) (A) (A) (A) (A) (A) (A) (A) (A) (A) (A) (A)
                 (A) (A) (A) (A) (A) (A) (A) (A) (A) (A) (A) (A)
                 (A) (A) (A) (A) (A) (A) (A) (A) (A) (A) (A) (A)
                 (A) (A) (A) (A) (A) (A) (A) (A) (A) (A) (A) (A)
                 (A) (A) (A) (A) (A) (A) (A) (A) (A) (A) (A) (A)
                 (A) (A) (A) (A) (A) (A) (A) (A) (A) (A) (A) (A)
                 (A) (A) (A) (A) (A) (A) (A) (A) (A) (A) (A) (A)
                 (A) (A) (A) (A) (A) (A) (A) (A) (A) (A) (A) (A)
                 (A) (A) (A) (A) (A) (A) (A) (A) (A) (A) (A) (A)
                 (A) (A) (A) (A) (A) (A) (A) (A) (A) (A) (A) (A)
                 (A) (A) (A) (A) (A) (A) (A) (A) (A) (A) (A) (A)
                 (A) (A) (A) (A) (A) (A) (A) (A) (A) (A) (A) (A)
                 (A) (A) (A) (A) (A) (A) (A) (A) (A) (A) (A) (A)
                 (A) (A) (A) (A) (A) (A) (A) (A)
       Virtual   (A) (A) (A) (A) (A) (A) (A) (A) (A) (A) (A) (A)
                 (A) (A) (A) (A) (A) (A) (A) (A) (A) (A) (A) (A)
                 (A) (A) (A) (A) (A) (A) (A) (A) (A) (A) (A) (A)
                 (A) (A) (A) (A) (A) (A) (A) (A) (A) (A) (A) (A)
                 (A) (A) (A) (A) (A) (A) (A) (A) (A) (A) (A) (A)
                 (A) (A) (A) (A) (A) (A) (A) (A) (A) (A) (A) (A)
                 (A) (A) (A) (A) (A) (A) (A) (A) (A) (A) (A) (A)
                 (A) (A) (A) (A) (A) (A) (A) (A) (A) (A) (A) (A)
                 (A) (A) (A) (A) (A) (A) (A) (A) (A) (A) (A) (A)
                 (A) (A) (A) (A) (A) (A) (A) (A) (A) (A) (A) (A)
                 (A) (A) (A) (A) (A) (A) (A) (A) (A) (A) (A) (A)
                 (A) (A) (A) (A) (A) (A) (A) (A) (A) (A) (A) (A)
                 (A) (A) (A) (A) (A) (A) (A) (A) (A) (A) (A) (A)
                 (A) (A) (A) (A) (A) (A)
 The electronic state is 1-A.
 Alpha  occ. eigenvalues --   -1.84353  -1.83042  -1.79889  -1.72166  -1.71858
 Alpha  occ. eigenvalues --   -1.69612  -1.66772  -1.63660  -1.60747  -1.56829
 Alpha  occ. eigenvalues --   -1.56084  -1.52065  -1.49198  -1.47969  -1.46543
 Alpha  occ. eigenvalues --   -1.44889  -1.42150  -1.41453  -1.39556  -1.38714
 Alpha  occ. eigenvalues --   -1.35416  -1.33727  -1.32771  -1.31742  -1.28768
 Alpha  occ. eigenvalues --   -1.28009  -1.26253  -1.23334  -1.22242  -1.18655
 Alpha  occ. eigenvalues --   -1.15895  -1.14817  -1.14644  -1.14249  -1.13015
 Alpha  occ. eigenvalues --   -1.12917  -1.11577  -1.11373  -1.05987  -1.04648
 Alpha  occ. eigenvalues --   -1.04457  -1.00965  -1.00741  -0.97956  -0.96910
 Alpha  occ. eigenvalues --   -0.96374  -0.94425  -0.93916  -0.93135  -0.91633
 Alpha  occ. eigenvalues --   -0.91142  -0.90489  -0.89098  -0.88562  -0.88087
 Alpha  occ. eigenvalues --   -0.85971  -0.83615  -0.83341  -0.81843  -0.80389
 Alpha  occ. eigenvalues --   -0.79030  -0.78372  -0.77285  -0.77184  -0.76765
 Alpha  occ. eigenvalues --   -0.76235  -0.75977  -0.74858  -0.74026  -0.73198
 Alpha  occ. eigenvalues --   -0.73036  -0.72422  -0.72343  -0.71138  -0.71091
 Alpha  occ. eigenvalues --   -0.70715  -0.70064  -0.69597  -0.68499  -0.68090
 Alpha  occ. eigenvalues --   -0.66940  -0.66710  -0.66656  -0.66160  -0.65496
 Alpha  occ. eigenvalues --   -0.65387  -0.64848  -0.64486  -0.64130  -0.64023
 Alpha  occ. eigenvalues --   -0.63637  -0.63249  -0.62263  -0.62126  -0.61771
 Alpha  occ. eigenvalues --   -0.61662  -0.61338  -0.60879  -0.60631  -0.59983
 Alpha  occ. eigenvalues --   -0.59177  -0.59144  -0.58615  -0.58272  -0.58119
 Alpha  occ. eigenvalues --   -0.57526  -0.57176  -0.56883  -0.56618  -0.56409
 Alpha  occ. eigenvalues --   -0.55913  -0.55789  -0.55546  -0.55099  -0.54805
 Alpha  occ. eigenvalues --   -0.54734  -0.54120  -0.53634  -0.53421  -0.53154
 Alpha  occ. eigenvalues --   -0.52942  -0.52632  -0.52367  -0.52179  -0.51984
 Alpha  occ. eigenvalues --   -0.51270  -0.51115  -0.51084  -0.50982  -0.50486
 Alpha  occ. eigenvalues --   -0.50128  -0.49822  -0.49523  -0.49233  -0.48960
 Alpha  occ. eigenvalues --   -0.48788  -0.48702  -0.48226  -0.47733  -0.47683
 Alpha  occ. eigenvalues --   -0.47205  -0.47056  -0.46738  -0.46411  -0.46222
 Alpha  occ. eigenvalues --   -0.45956  -0.45679  -0.45382  -0.45047  -0.44710
 Alpha  occ. eigenvalues --   -0.44540  -0.44427  -0.44163  -0.44067  -0.43586
 Alpha  occ. eigenvalues --   -0.43134  -0.42789  -0.42223  -0.41955  -0.41793
 Alpha  occ. eigenvalues --   -0.41587  -0.41368  -0.41199  -0.39345  -0.39178
 Alpha  occ. eigenvalues --   -0.38538  -0.37251  -0.35720  -0.35061  -0.34350
 Alpha  occ. eigenvalues --   -0.34140  -0.32697  -0.32627  -0.32347  -0.27156
 Alpha  occ. eigenvalues --   -0.22273
 Alpha virt. eigenvalues --   -0.08510  -0.02903  -0.00712   0.01353   0.01645
 Alpha virt. eigenvalues --    0.01734   0.02496   0.02795   0.04127   0.04694
 Alpha virt. eigenvalues --    0.05770   0.06510   0.06745   0.07434   0.07622
 Alpha virt. eigenvalues --    0.08069   0.08349   0.08801   0.09164   0.09358
 Alpha virt. eigenvalues --    0.09681   0.09975   0.10184   0.10587   0.10763
 Alpha virt. eigenvalues --    0.11033   0.11076   0.11490   0.11944   0.11991
 Alpha virt. eigenvalues --    0.12246   0.12473   0.13219   0.13282   0.13709
 Alpha virt. eigenvalues --    0.13859   0.13926   0.14106   0.14362   0.14515
 Alpha virt. eigenvalues --    0.14700   0.15310   0.15435   0.15862   0.15887
 Alpha virt. eigenvalues --    0.16001   0.16083   0.16277   0.16605   0.17019
 Alpha virt. eigenvalues --    0.17192   0.17376   0.17575   0.17772   0.18048
 Alpha virt. eigenvalues --    0.18432   0.18889   0.19091   0.19134   0.19306
 Alpha virt. eigenvalues --    0.19917   0.19953   0.20210   0.20412   0.20685
 Alpha virt. eigenvalues --    0.21079   0.21850   0.22295   0.22610   0.23397
 Alpha virt. eigenvalues --    0.23442   0.23561   0.23724   0.24029   0.24073
 Alpha virt. eigenvalues --    0.24156   0.24329   0.24348   0.24399   0.24470
 Alpha virt. eigenvalues --    0.24481   0.24493   0.24601   0.24784   0.24939
 Alpha virt. eigenvalues --    0.25056   0.25123   0.25145   0.25223   0.25332
 Alpha virt. eigenvalues --    0.25415   0.25511   0.25540   0.25625   0.25647
 Alpha virt. eigenvalues --    0.25696   0.25949   0.25990   0.26060   0.26111
 Alpha virt. eigenvalues --    0.26246   0.26275   0.26387   0.26427   0.26561
 Alpha virt. eigenvalues --    0.26576   0.26774   0.26884   0.26991   0.27056
 Alpha virt. eigenvalues --    0.27312   0.27655   0.27763   0.27864   0.28011
 Alpha virt. eigenvalues --    0.28247   0.28461   0.28636   0.28909   0.30019
 Alpha virt. eigenvalues --    0.30055   0.30279   0.30499   0.31431   0.31572
 Alpha virt. eigenvalues --    0.32247   0.32723   0.32885   0.33177   0.33690
 Alpha virt. eigenvalues --    0.34800   0.35149   0.35808   0.36291   0.36534
 Alpha virt. eigenvalues --    0.36576   0.36904   0.37045   0.37406   0.37658
 Alpha virt. eigenvalues --    0.39414   0.39508   0.40204   0.40338   0.40546
 Alpha virt. eigenvalues --    0.41600   0.41738   0.41764   0.41969   0.42078
 Alpha virt. eigenvalues --    0.43344   0.44034   0.45239   0.45455   0.47183
 Alpha virt. eigenvalues --    0.47671   0.47964   0.48403   0.50305   0.52864
 Alpha virt. eigenvalues --    0.53515   0.56360
          Condensed to atoms (all electrons):
 Mulliken charges:
               1
     1  Mg   0.428052
     2  C   -0.035877
     3  C   -0.078610
     4  C   -0.111095
     5  C   -0.072423
     6  N   -0.275854
     7  C    0.086386
     8  C   -0.010629
     9  C    0.000924
    10  C    0.155968
    11  C   -0.044406
    12  C   -0.015379
    13  C    0.015041
    14  C    0.464255
    15  O   -0.519359
    16  O   -0.269400
    17  N   -0.334242
    18  C    0.132091
    19  C    0.067124
    20  C   -0.046988
    21  C    0.166612
    22  C   -0.023532
    23  C    0.319161
    24  O   -0.527662
    25  C   -0.046651
    26  N   -0.258450
    27  C    0.159165
    28  C    0.016304
    29  C    0.004363
    30  C    0.071267
    31  C   -0.065867
    32  C   -0.032973
    33  C   -0.061242
    34  N   -0.326473
    35  C    0.064556
    36  C    0.018158
    37  C   -0.055441
    38  C    0.093347
    39  C   -0.039510
    40  C    0.320007
    41  O   -0.531056
    42  C    0.053737
    43  C    0.497144
    44  O   -0.516195
    45  O   -0.264856
    46  C    0.071816
    47  C    0.102450
    48  C   -0.089784
    49  C    0.002434
    50  C   -0.037387
    51  C   -0.028966
    52  C   -0.029027
    53  C   -0.029312
    54  C   -0.000816
    55  C   -0.062699
    56  C   -0.039229
    57  C   -0.040989
    58  C   -0.042130
    59  C   -0.010526
    60  C   -0.061729
    61  C   -0.037212
    62  C   -0.043016
    63  C   -0.033549
    64  C   -0.005713
    65  C   -0.048632
    66  C   -0.058886
    67  H    0.031209
    68  H    0.023796
    69  H    0.035132
    70  H    0.039634
    71  H    0.026799
    72  H    0.027170
    73  H    0.026174
    74  H    0.023344
    75  H    0.040584
    76  H    0.032556
    77  H    0.051117
    78  H    0.039182
    79  H    0.009591
    80  H    0.046661
    81  H    0.045550
    82  H    0.044922
    83  H    0.050159
    84  H    0.029650
    85  H    0.036464
    86  H    0.042795
    87  H    0.024060
    88  H    0.027183
    89  H    0.015492
    90  H    0.023402
    91  H    0.018112
    92  H    0.018802
    93  H    0.013246
    94  H    0.030464
    95  H    0.029867
    96  H    0.030449
    97  H    0.036655
    98  H    0.056820
    99  H    0.052439
   100  H    0.032662
   101  H    0.044035
   102  H    0.055121
   103  H    0.038705
   104  H    0.027451
   105  H    0.031625
   106  H    0.034938
   107  H    0.020711
   108  H    0.006411
   109  H    0.021795
   110  H    0.032259
   111  H    0.008410
   112  H    0.021090
   113  H    0.024260
   114  H    0.012993
   115  H    0.022794
   116  H    0.004189
   117  H    0.020915
   118  H    0.025285
   119  H    0.009241
   120  H    0.023013
   121  H    0.015073
   122  H    0.028804
   123  H    0.006570
   124  H    0.021375
   125  H    0.022382
   126  H    0.010882
   127  H    0.018062
   128  H    0.010264
   129  H    0.024647
   130  H    0.024277
   131  H    0.011601
   132  H    0.022628
   133  H    0.020298
   134  H    0.019969
   135  H    0.027781
   136  H    0.007583
   137  H    0.017887
   138  H    0.019549
   139  H    0.008651
   140  H    0.017749
 Sum of Mulliken charges =  -0.00000
 Mulliken charges with hydrogens summed into heavy atoms:
               1
     1  Mg   0.428052
     2  C   -0.035877
     3  C   -0.047401
     4  C   -0.087299
     5  C   -0.037291
     6  N   -0.275854
     7  C    0.086386
     8  C    0.029004
     9  C    0.027723
    10  C    0.155968
    11  C    0.032281
    12  C    0.057761
    13  C    0.105340
    14  C    0.464255
    15  O   -0.519359
    16  O   -0.269400
    17  N   -0.334242
    18  C    0.132091
    19  C    0.067124
    20  C   -0.046988
    21  C    0.166612
    22  C    0.078269
    23  C    0.319161
    24  O   -0.527662
    25  C    0.078079
    26  N   -0.258450
    27  C    0.159165
    28  C    0.052768
    29  C    0.047158
    30  C    0.071267
    31  C    0.000867
    32  C    0.008541
    33  C    0.001269
    34  N   -0.326473
    35  C    0.064556
    36  C    0.018158
    37  C   -0.055441
    38  C    0.093347
    39  C    0.057460
    40  C    0.320007
    41  O   -0.531056
    42  C    0.110557
    43  C    0.497144
    44  O   -0.516195
    45  O   -0.264856
    46  C    0.200952
    47  C    0.196276
    48  C   -0.062333
    49  C    0.002434
    50  C    0.049886
    51  C   -0.000760
    52  C    0.011642
    53  C    0.016037
    54  C    0.012177
    55  C   -0.014802
    56  C   -0.004703
    57  C   -0.002903
    58  C   -0.006756
    59  C    0.010848
    60  C   -0.010404
    61  C   -0.002301
    62  C   -0.007137
    63  C    0.009378
    64  C    0.014256
    65  C    0.004619
    66  C   -0.012937
 Charge=             -0.0000 electrons
 Dipole moment (field-independent basis, Debye):
    X=              1.2514    Y=              7.6502    Z=              2.1117  Tot=              8.0344
 N-N= 4.432977931215D+03 E-N= 0.000000000000D+00  KE=-9.539964109807D+03
 Leave Link  601 at Fri Apr 29 04:10:36 2022, MaxMem=  6710886400 cpu:               0.8 elap:               0.1
 (Enter /sw/apps/gaussian-16.0/g16/l9999.exe)
 1\1\GINC-BP1-COMPUTE154\SP\RZINDO CIS\STO-3G\C55H74Mg1N4O6\OF15641\29-
 Apr-2022\0\\#p ZINDO=(nstates=5)\\step_1851_chromophore_2 ZINDO\\0,1\M
 g,0,1.907,-0.478,43.111\C,0,5.416,0.126,42.709\C,0,1.238,2.459,41.38\C
 ,0,-1.311,-1.26,43.081\C,0,2.725,-3.635,44.501\N,0,3.215,1.109,42.107\
 C,0,4.613,1.137,42.103\C,0,5.199,2.411,41.48\C,0,3.799,3.29,41.443\C,0
 ,2.639,2.214,41.614\C,0,3.683,4.432,42.475\C,0,6.026,2.293,40.142\C,0,
 5.378,1.477,39.077\C,0,5.436,2.005,37.642\O,0,5.689,3.159,37.281\O,0,4
 .965,0.988,36.851\N,0,0.22,0.391,42.247\C,0,0.116,1.633,41.655\C,0,-1.
 251,1.96,41.35\C,0,-1.952,0.848,41.887\C,0,-1.019,-0.039,42.501\C,0,-1
 .778,3.123,40.666\C,0,-3.438,0.729,41.745\O,0,-4.123,1.632,41.26\C,0,-
 4.238,-0.479,42.244\N,0,0.881,-2.154,43.729\C,0,-0.463,-2.217,43.755\C
 ,0,-0.945,-3.571,44.252\C,0,0.254,-4.217,44.901\C,0,1.361,-3.331,44.24
 7\C,0,-2.248,-3.697,45.094\C,0,0.413,-5.71,44.512\C,0,0.62,-6.702,45.6
 72\N,0,3.662,-1.505,43.603\C,0,3.826,-2.796,44.109\C,0,5.22,-3.085,44.
 256\C,0,5.849,-1.952,43.784\C,0,4.909,-1.024,43.33\C,0,5.826,-4.325,44
 .811\C,0,7.187,-1.399,43.473\O,0,8.319,-1.812,43.733\C,0,6.987,0.014,4
 2.817\C,0,7.647,1.082,43.583\O,0,8.255,1.984,43.073\O,0,7.634,0.796,44
 .94\C,0,8.634,1.668,45.68\C,0,4.898,1.276,35.37\C,0,5.344,0.091,34.569
 \C,0,4.601,-0.868,34.013\C,0,3.132,-1.101,34.1\C,0,5.378,-1.822,33.003
 \C,0,5.638,-1.387,31.581\C,0,5.68,0.17,31.373\C,0,5.43,0.667,29.979\C,
 0,6.701,0.812,29.127\C,0,4.546,1.914,29.824\C,0,3.072,1.554,29.423\C,0
 ,2.279,1.111,30.702\C,0,1.066,2.046,30.949\C,0,0.932,2.368,32.453\C,0,
 -0.276,1.483,30.355\C,0,-1.266,2.676,30.118\C,0,-1.396,3.06,28.634\C,0
 ,-2.787,3.276,28.106\C,0,-3.3,2.233,27.16\C,0,-2.865,4.516,27.289\H,0,
 1.058,3.433,40.919\H,0,-2.319,-1.67,43.18\H,0,2.894,-4.457,45.2\H,0,5.
 868,2.767,42.264\H,0,3.618,3.668,40.437\H,0,2.822,4.265,43.123\H,0,3.6
 74,5.399,41.972\H,0,4.569,4.447,43.109\H,0,7.02,1.974,40.453\H,0,6.051
 ,3.329,39.804\H,0,4.318,1.305,39.262\H,0,5.906,0.526,39.004\H,0,-0.973
 ,3.672,40.177\H,0,-2.289,3.822,41.328\H,0,-2.427,2.923,39.814\H,0,-4.1
 15,-0.412,43.325\H,0,-4.22,-1.439,41.728\H,0,-5.227,-0.125,41.954\H,0,
 -1.252,-4.002,43.299\H,0,0.35,-4.074,45.977\H,0,-2.043,-4.249,46.012\H
 ,0,-3.193,-4.074,44.705\H,0,-2.473,-2.642,45.254\H,0,1.26,-5.673,43.82
 7\H,0,-0.406,-6.082,43.896\H,0,-0.051,-7.559,45.611\H,0,0.188,-6.317,4
 6.595\H,0,1.664,-6.972,45.832\H,0,5.694,-5.138,44.098\H,0,5.242,-4.467
 ,45.72\H,0,6.9,-4.218,44.965\H,0,7.45,-0.067,41.833\H,0,9.517,1.876,45
 .075\H,0,8.902,1.016,46.511\H,0,8.248,2.622,46.038\H,0,5.525,2.093,35.
 014\H,0,3.864,1.499,35.106\H,0,6.381,0.118,34.237\H,0,2.935,-2.172,34.
 144\H,0,2.691,-0.612,33.232\H,0,2.687,-0.58,34.948\H,0,4.879,-2.791,33
 .037\H,0,6.255,-2.146,33.563\H,0,5.143,-1.983,30.815\H,0,6.675,-1.646,
 31.366\H,0,6.684,0.505,31.63\H,0,4.956,0.619,32.053\H,0,4.855,-0.151,2
 9.544\H,0,6.722,1.438,28.235\H,0,6.895,-0.12,28.596\H,0,7.579,0.991,29
 .748\H,0,4.947,2.773,29.287\H,0,4.333,2.342,30.804\H,0,2.937,0.778,28.
 67\H,0,2.677,2.495,29.041\H,0,2.945,0.937,31.548\H,0,1.844,0.128,30.51
 9\H,0,1.294,3.013,30.5\H,0,-0.081,2.33,32.854\H,0,1.27,3.386,32.65\H,0
 ,1.64,1.736,32.989\H,0,-0.748,0.851,31.108\H,0,-0.17,0.821,29.496\H,0,
 -1.027,3.533,30.747\H,0,-2.151,2.238,30.581\H,0,-1.014,2.29,27.963\H,0
 ,-0.799,3.972,28.632\H,0,-3.359,3.386,29.027\H,0,-4.079,2.613,26.5\H,0
 ,-3.568,1.359,27.754\H,0,-2.44,1.911,26.573\H,0,-1.98,5.146,27.388\H,0
 ,-3.79,4.99,27.616\H,0,-3.138,4.399,26.24\\Version=ES64L-G16RevA.03\St
 ate=1-A\HF=-474.3126659\RMSD=5.047e-09\PG=C01 [X(C55H74Mg1N4O6)]\\@


 ACCORDING TO HEN3RY, LIFE IS MUCH LIKE A SEWER........
 YOU GET OUT OF IT JUST WHAT YOU PUT INTO IT...........
                         TOM LEHRER - (THE 3 IS SILENT)
 Job cpu time:       0 days  0 hours  3 minutes  6.4 seconds.
 Elapsed time:       0 days  0 hours  0 minutes  8.0 seconds.
 File lengths (MBytes):  RWF=   1273 Int=      0 D2E=      0 Chk=     38 Scr=      1
 Normal termination of Gaussian 16 at Fri Apr 29 04:10:36 2022.
