 Entering Gaussian System, Link 0=g16
 Initial command:
 /sw/apps/gaussian-16.0/g16/l1.exe "/tmp/Gau-236475.inp" -scrdir="/tmp/"
 Entering Link 1 = /sw/apps/gaussian-16.0/g16/l1.exe PID=    236476.
  
 Copyright (c) 1988,1990,1992,1993,1995,1998,2003,2009,2016,
            Gaussian, Inc.  All Rights Reserved.
  
 This is part of the Gaussian(R) 16 program.  It is based on
 the Gaussian(R) 09 system (copyright 2009, Gaussian, Inc.),
 the Gaussian(R) 03 system (copyright 2003, Gaussian, Inc.),
 the Gaussian(R) 98 system (copyright 1998, Gaussian, Inc.),
 the Gaussian(R) 94 system (copyright 1995, Gaussian, Inc.),
 the Gaussian 92(TM) system (copyright 1992, Gaussian, Inc.),
 the Gaussian 90(TM) system (copyright 1990, Gaussian, Inc.),
 the Gaussian 88(TM) system (copyright 1988, Gaussian, Inc.),
 the Gaussian 86(TM) system (copyright 1986, Carnegie Mellon
 University), and the Gaussian 82(TM) system (copyright 1983,
 Carnegie Mellon University). Gaussian is a federally registered
 trademark of Gaussian, Inc.
  
 This software contains proprietary and confidential information,
 including trade secrets, belonging to Gaussian, Inc.
  
 This software is provided under written license and may be
 used, copied, transmitted, or stored only in accord with that
 written license.
  
 The following legend is applicable only to US Government
 contracts under FAR:
  
                    RESTRICTED RIGHTS LEGEND
  
 Use, reproduction and disclosure by the US Government is
 subject to restrictions as set forth in subparagraphs (a)
 and (c) of the Commercial Computer Software - Restricted
 Rights clause in FAR 52.227-19.
  
 Gaussian, Inc.
 340 Quinnipiac St., Bldg. 40, Wallingford CT 06492
  
  
 ---------------------------------------------------------------
 Warning -- This program may not be used in any manner that
 competes with the business of Gaussian, Inc. or will provide
 assistance to any competitor of Gaussian, Inc.  The licensee
 of this program is prohibited from giving any competitor of
 Gaussian, Inc. access to this program.  By using this program,
 the user acknowledges that Gaussian, Inc. is engaged in the
 business of creating and licensing software in the field of
 computational chemistry and represents and warrants to the
 licensee that it is not a competitor of Gaussian, Inc. and that
 it will not use this program in any manner prohibited above.
 ---------------------------------------------------------------
  

 Cite this work as:
 Gaussian 16, Revision A.03,
 M. J. Frisch, G. W. Trucks, H. B. Schlegel, G. E. Scuseria, 
 M. A. Robb, J. R. Cheeseman, G. Scalmani, V. Barone, 
 G. A. Petersson, H. Nakatsuji, X. Li, M. Caricato, A. V. Marenich, 
 J. Bloino, B. G. Janesko, R. Gomperts, B. Mennucci, H. P. Hratchian, 
 J. V. Ortiz, A. F. Izmaylov, J. L. Sonnenberg, D. Williams-Young, 
 F. Ding, F. Lipparini, F. Egidi, J. Goings, B. Peng, A. Petrone, 
 T. Henderson, D. Ranasinghe, V. G. Zakrzewski, J. Gao, N. Rega, 
 G. Zheng, W. Liang, M. Hada, M. Ehara, K. Toyota, R. Fukuda, 
 J. Hasegawa, M. Ishida, T. Nakajima, Y. Honda, O. Kitao, H. Nakai, 
 T. Vreven, K. Throssell, J. A. Montgomery, Jr., J. E. Peralta, 
 F. Ogliaro, M. J. Bearpark, J. J. Heyd, E. N. Brothers, K. N. Kudin, 
 V. N. Staroverov, T. A. Keith, R. Kobayashi, J. Normand, 
 K. Raghavachari, A. P. Rendell, J. C. Burant, S. S. Iyengar, 
 J. Tomasi, M. Cossi, J. M. Millam, M. Klene, C. Adamo, R. Cammi, 
 J. W. Ochterski, R. L. Martin, K. Morokuma, O. Farkas, 
 J. B. Foresman, and D. J. Fox, Gaussian, Inc., Wallingford CT, 2016.
 
 ******************************************
 Gaussian 16:  ES64L-G16RevA.03 25-Dec-2016
                 4-May-2022 
 ******************************************
 %nproc=24
 Will use up to   24 processors via shared memory.
 %mem=75GB
 ------------------------------
 #p blyp/Def2SVP td=(nstates=5)
 ------------------------------
 1/38=1,172=1/1;
 2/12=2,17=6,18=5,40=1/2;
 3/5=43,7=101,11=9,25=1,30=1,74=402/1,2,3,8;
 4//1;
 5/5=2,38=5/2;
 8/6=1,10=1,108=5/1;
 9/41=5,42=1,70=2/14;
 6/7=2,8=2,9=2,10=2/1;
 99/5=1,9=1/99;
 Leave Link    1 at Wed May  4 08:43:16 2022, MaxMem= 10066329600 cpu:               0.9 elap:               0.0
 (Enter /sw/apps/gaussian-16.0/g16/l101.exe)
 ---------------------------------------------------
 step_1501_chromophore_26 TDDFT with blyp functional
 ---------------------------------------------------
 Symbolic Z-matrix:
 Charge =  0 Multiplicity = 1
 Mg                   -8.537     18.271    42.878 
 C                    -5.071     17.717    42.747 
 C                    -8.077     21.57     41.486 
 C                    -11.799    18.507    42.238 
 C                    -8.965     14.779    43.044 
 N                    -6.804     19.439    42.208 
 C                    -5.428     19.06     42.267 
 C                    -4.541     20.196    41.929 
 C                    -5.542     21.382    41.577 
 C                    -6.918     20.75     41.728 
 C                    -5.311     22.711    42.345 
 C                    -3.399     19.857    40.88 
 C                    -3.731     18.902    39.655 
 C                    -3.427     19.521    38.311 
 O                    -2.455     20.241    38.098 
 O                    -4.451     19.235    37.431 
 N                    -9.863     19.922    42.215 
 C                    -9.442     21.17     41.696 
 C                    -10.664    21.884    41.361 
 C                    -11.809    20.996    41.664 
 C                    -11.165    19.747    42.046 
 C                    -10.603    23.277    40.767 
 C                    -13.284    21.344    41.393 
 O                    -13.517    22.406    40.871 
 C                    -14.366    20.522    41.747 
 N                    -10.154    16.81     42.643 
 C                    -11.476    17.24     42.587 
 C                    -12.462    16.14     42.893 
 C                    -11.535    14.91     42.994 
 C                    -10.134    15.515    42.98 
 C                    -13.509    16.332    44.037 
 C                    -11.663    13.818    41.868 
 C                    -11.797    12.319    42.281 
 N                    -7.219     16.57     43.065 
 C                    -7.595     15.187    43.147 
 C                    -6.394     14.468    43.422 
 C                    -5.373     15.407    43.269 
 C                    -5.91      16.63     43.034 
 C                    -6.18      13.062    43.766 
 C                    -3.938     15.584    43.329 
 O                    -3.042     14.764    43.487 
 C                    -3.661     17.092    43.029 
 C                    -2.781     17.667    44.111 
 O                    -1.57      17.775    43.976 
 O                    -3.538     18.183    45.143 
 C                    -2.884     18.833    46.29 
 C                    -4.314     19.905    36.089 
 C                    -5.357     19.127    35.252 
 C                    -6.095     19.649    34.196 
 C                    -5.877     21.023    33.66 
 C                    -6.995     18.593    33.554 
 C                    -7.581     18.995    32.158 
 C                    -9.055     18.595    31.914 
 C                    -10.14     19.65     32.256 
 C                    -11.517    19.002    32.658 
 C                    -10.343    20.69     31.15 
 C                    -10.621    22.102    31.647 
 C                    -9.558     23.202    31.321 
 C                    -10.032    24.16     30.174 
 C                    -9.382     25.462    30.455 
 C                    -9.763     23.552    28.689 
 C                    -11.032    22.773    28.236 
 C                    -11.676    23.226    26.923 
 C                    -10.974    22.427    25.732 
 C                    -10.261    23.369    24.756 
 C                    -12.009    21.477    25.027 
 H                    -7.981     22.625    41.222 
 H                    -12.876    18.502    42.054 
 H                    -9.063     13.691    43.033 
 H                    -3.979     20.419    42.836 
 H                    -5.395     21.625    40.525 
 H                    -6.217     22.918    42.913 
 H                    -5.117     23.493    41.611 
 H                    -4.498     22.524    43.046 
 H                    -2.509     19.546    41.427 
 H                    -3.094     20.783    40.392 
 H                    -4.763     18.567    39.759 
 H                    -3.155     17.977    39.704 
 H                    -9.948     23.32     39.897 
 H                    -10.231    23.89     41.588 
 H                    -11.546    23.731    40.461 
 H                    -14.016    20.113    42.694 
 H                    -14.491    19.639    41.12 
 H                    -15.274    21.108    41.889 
 H                    -12.941    15.913    41.941 
 H                    -11.931    14.416    43.881 
 H                    -14.429    16.495    43.476 
 H                    -13.266    17.232    44.602 
 H                    -13.74     15.511    44.717 
 H                    -10.805    13.874    41.198 
 H                    -12.531    13.944    41.221 
 H                    -12.714    11.903    41.862 
 H                    -11.841    12.342    43.37 
 H                    -10.969    11.693    41.951 
 H                    -5.61      12.662    42.927 
 H                    -7.13      12.542    43.888 
 H                    -5.563     13.112    44.663 
 H                    -3.045     17.055    42.131 
 H                    -3.316     19.834    46.307 
 H                    -1.808     18.791    46.125 
 H                    -3.148     18.271    47.186 
 H                    -3.307     19.833    35.68 
 H                    -4.493     20.98     36.089 
 H                    -5.657     18.157    35.649 
 H                    -6.828     21.494    33.908 
 H                    -5.712     21.071    32.584 
 H                    -5.02      21.573    34.048 
 H                    -7.8       18.342    34.246 
 H                    -6.424     17.691    33.337 
 H                    -7.101     18.543    31.29 
 H                    -7.503     20.077    32.056 
 H                    -9.245     17.79     32.624 
 H                    -9.068     18.381    30.845 
 H                    -9.803     20.225    33.119 
 H                    -11.625    18.898    33.738 
 H                    -11.609    18.017    32.202 
 H                    -12.33     19.636    32.304 
 H                    -11.099    20.35     30.442 
 H                    -9.397     20.748    30.611 
 H                    -10.819    22.044    32.717 
 H                    -11.51     22.359    31.071 
 H                    -8.609     22.719    31.088 
 H                    -9.312     23.74     32.237 
 H                    -11.095    24.347    30.33 
 H                    -8.615     25.496    31.229 
 H                    -10.191    26.148    30.703 
 H                    -8.998     25.854    29.513 
 H                    -8.991     22.783    28.699 
 H                    -9.423     24.375    28.061 
 H                    -11.883    22.747    28.917 
 H                    -10.631    21.759    28.244 
 H                    -11.275    24.237    26.842 
 H                    -12.766    23.235    26.914 
 H                    -10.33     21.653    26.149 
 H                    -9.553     22.936    24.05 
 H                    -9.729     24.129    25.329 
 H                    -11.075    23.828    24.194 
 H                    -12.262    21.767    24.007 
 H                    -12.829    21.187    25.684 
 H                    -11.594    20.477    24.904 
 
 ITRead=  0  0  0  0  0  0  0  0  0  0  0  0  0  0  0  0  0  0  0  0
 ITRead=  0  0  0  0  0  0  0  0  0  0  0  0  0  0  0  0  0  0  0  0
 ITRead=  0  0  0  0  0  0  0  0  0  0  0  0  0  0  0  0  0  0  0  0
 ITRead=  0  0  0  0  0  0  0  0  0  0  0  0  0  0  0  0  0  0  0  0
 ITRead=  0  0  0  0  0  0  0  0  0  0  0  0  0  0  0  0  0  0  0  0
 ITRead=  0  0  0  0  0  0  0  0  0  0  0  0  0  0  0  0  0  0  0  0
 ITRead=  0  0  0  0  0  0  0  0  0  0  0  0  0  0  0  0  0  0  0  0
 MicOpt= -1 -1 -1 -1 -1 -1 -1 -1 -1 -1 -1 -1 -1 -1 -1 -1 -1 -1 -1 -1
 MicOpt= -1 -1 -1 -1 -1 -1 -1 -1 -1 -1 -1 -1 -1 -1 -1 -1 -1 -1 -1 -1
 MicOpt= -1 -1 -1 -1 -1 -1 -1 -1 -1 -1 -1 -1 -1 -1 -1 -1 -1 -1 -1 -1
 MicOpt= -1 -1 -1 -1 -1 -1 -1 -1 -1 -1 -1 -1 -1 -1 -1 -1 -1 -1 -1 -1
 MicOpt= -1 -1 -1 -1 -1 -1 -1 -1 -1 -1 -1 -1 -1 -1 -1 -1 -1 -1 -1 -1
 MicOpt= -1 -1 -1 -1 -1 -1 -1 -1 -1 -1 -1 -1 -1 -1 -1 -1 -1 -1 -1 -1
 MicOpt= -1 -1 -1 -1 -1 -1 -1 -1 -1 -1 -1 -1 -1 -1 -1 -1 -1 -1 -1 -1
 NAtoms=    140 NQM=      140 NQMF=       0 NMMI=      0 NMMIF=      0
                NMic=       0 NMicF=      0.
                    Isotopes and Nuclear Properties:
 (Nuclear quadrupole moments (NQMom) in fm**2, nuclear magnetic moments (NMagM)
  in nuclear magnetons)

  Atom         1           2           3           4           5           6           7           8           9          10
 IAtWgt=          24          12          12          12          12          14          12          12          12          12
 AtmWgt=  23.9850450  12.0000000  12.0000000  12.0000000  12.0000000  14.0030740  12.0000000  12.0000000  12.0000000  12.0000000
 NucSpn=           0           0           0           0           0           2           0           0           0           0
 AtZEff=  -0.0000000  -0.0000000  -0.0000000  -0.0000000  -0.0000000  -0.0000000  -0.0000000  -0.0000000  -0.0000000  -0.0000000
 NQMom=    0.0000000   0.0000000   0.0000000   0.0000000   0.0000000   2.0440000   0.0000000   0.0000000   0.0000000   0.0000000
 NMagM=    0.0000000   0.0000000   0.0000000   0.0000000   0.0000000   0.4037610   0.0000000   0.0000000   0.0000000   0.0000000
 AtZNuc=  12.0000000   6.0000000   6.0000000   6.0000000   6.0000000   7.0000000   6.0000000   6.0000000   6.0000000   6.0000000

  Atom        11          12          13          14          15          16          17          18          19          20
 IAtWgt=          12          12          12          12          16          16          14          12          12          12
 AtmWgt=  12.0000000  12.0000000  12.0000000  12.0000000  15.9949146  15.9949146  14.0030740  12.0000000  12.0000000  12.0000000
 NucSpn=           0           0           0           0           0           0           2           0           0           0
 AtZEff=  -0.0000000  -0.0000000  -0.0000000  -0.0000000  -0.0000000  -0.0000000  -0.0000000  -0.0000000  -0.0000000  -0.0000000
 NQMom=    0.0000000   0.0000000   0.0000000   0.0000000   0.0000000   0.0000000   2.0440000   0.0000000   0.0000000   0.0000000
 NMagM=    0.0000000   0.0000000   0.0000000   0.0000000   0.0000000   0.0000000   0.4037610   0.0000000   0.0000000   0.0000000
 AtZNuc=   6.0000000   6.0000000   6.0000000   6.0000000   8.0000000   8.0000000   7.0000000   6.0000000   6.0000000   6.0000000

  Atom        21          22          23          24          25          26          27          28          29          30
 IAtWgt=          12          12          12          16          12          14          12          12          12          12
 AtmWgt=  12.0000000  12.0000000  12.0000000  15.9949146  12.0000000  14.0030740  12.0000000  12.0000000  12.0000000  12.0000000
 NucSpn=           0           0           0           0           0           2           0           0           0           0
 AtZEff=  -0.0000000  -0.0000000  -0.0000000  -0.0000000  -0.0000000  -0.0000000  -0.0000000  -0.0000000  -0.0000000  -0.0000000
 NQMom=    0.0000000   0.0000000   0.0000000   0.0000000   0.0000000   2.0440000   0.0000000   0.0000000   0.0000000   0.0000000
 NMagM=    0.0000000   0.0000000   0.0000000   0.0000000   0.0000000   0.4037610   0.0000000   0.0000000   0.0000000   0.0000000
 AtZNuc=   6.0000000   6.0000000   6.0000000   8.0000000   6.0000000   7.0000000   6.0000000   6.0000000   6.0000000   6.0000000

  Atom        31          32          33          34          35          36          37          38          39          40
 IAtWgt=          12          12          12          14          12          12          12          12          12          12
 AtmWgt=  12.0000000  12.0000000  12.0000000  14.0030740  12.0000000  12.0000000  12.0000000  12.0000000  12.0000000  12.0000000
 NucSpn=           0           0           0           2           0           0           0           0           0           0
 AtZEff=  -0.0000000  -0.0000000  -0.0000000  -0.0000000  -0.0000000  -0.0000000  -0.0000000  -0.0000000  -0.0000000  -0.0000000
 NQMom=    0.0000000   0.0000000   0.0000000   2.0440000   0.0000000   0.0000000   0.0000000   0.0000000   0.0000000   0.0000000
 NMagM=    0.0000000   0.0000000   0.0000000   0.4037610   0.0000000   0.0000000   0.0000000   0.0000000   0.0000000   0.0000000
 AtZNuc=   6.0000000   6.0000000   6.0000000   7.0000000   6.0000000   6.0000000   6.0000000   6.0000000   6.0000000   6.0000000

  Atom        41          42          43          44          45          46          47          48          49          50
 IAtWgt=          16          12          12          16          16          12          12          12          12          12
 AtmWgt=  15.9949146  12.0000000  12.0000000  15.9949146  15.9949146  12.0000000  12.0000000  12.0000000  12.0000000  12.0000000
 NucSpn=           0           0           0           0           0           0           0           0           0           0
 AtZEff=  -0.0000000  -0.0000000  -0.0000000  -0.0000000  -0.0000000  -0.0000000  -0.0000000  -0.0000000  -0.0000000  -0.0000000
 NQMom=    0.0000000   0.0000000   0.0000000   0.0000000   0.0000000   0.0000000   0.0000000   0.0000000   0.0000000   0.0000000
 NMagM=    0.0000000   0.0000000   0.0000000   0.0000000   0.0000000   0.0000000   0.0000000   0.0000000   0.0000000   0.0000000
 AtZNuc=   8.0000000   6.0000000   6.0000000   8.0000000   8.0000000   6.0000000   6.0000000   6.0000000   6.0000000   6.0000000

  Atom        51          52          53          54          55          56          57          58          59          60
 IAtWgt=          12          12          12          12          12          12          12          12          12          12
 AtmWgt=  12.0000000  12.0000000  12.0000000  12.0000000  12.0000000  12.0000000  12.0000000  12.0000000  12.0000000  12.0000000
 NucSpn=           0           0           0           0           0           0           0           0           0           0
 AtZEff=  -0.0000000  -0.0000000  -0.0000000  -0.0000000  -0.0000000  -0.0000000  -0.0000000  -0.0000000  -0.0000000  -0.0000000
 NQMom=    0.0000000   0.0000000   0.0000000   0.0000000   0.0000000   0.0000000   0.0000000   0.0000000   0.0000000   0.0000000
 NMagM=    0.0000000   0.0000000   0.0000000   0.0000000   0.0000000   0.0000000   0.0000000   0.0000000   0.0000000   0.0000000
 AtZNuc=   6.0000000   6.0000000   6.0000000   6.0000000   6.0000000   6.0000000   6.0000000   6.0000000   6.0000000   6.0000000

  Atom        61          62          63          64          65          66          67          68          69          70
 IAtWgt=          12          12          12          12          12          12           1           1           1           1
 AtmWgt=  12.0000000  12.0000000  12.0000000  12.0000000  12.0000000  12.0000000   1.0078250   1.0078250   1.0078250   1.0078250
 NucSpn=           0           0           0           0           0           0           1           1           1           1
 AtZEff=  -0.0000000  -0.0000000  -0.0000000  -0.0000000  -0.0000000  -0.0000000  -0.0000000  -0.0000000  -0.0000000  -0.0000000
 NQMom=    0.0000000   0.0000000   0.0000000   0.0000000   0.0000000   0.0000000   0.0000000   0.0000000   0.0000000   0.0000000
 NMagM=    0.0000000   0.0000000   0.0000000   0.0000000   0.0000000   0.0000000   2.7928460   2.7928460   2.7928460   2.7928460
 AtZNuc=   6.0000000   6.0000000   6.0000000   6.0000000   6.0000000   6.0000000   1.0000000   1.0000000   1.0000000   1.0000000

  Atom        71          72          73          74          75          76          77          78          79          80
 IAtWgt=           1           1           1           1           1           1           1           1           1           1
 AtmWgt=   1.0078250   1.0078250   1.0078250   1.0078250   1.0078250   1.0078250   1.0078250   1.0078250   1.0078250   1.0078250
 NucSpn=           1           1           1           1           1           1           1           1           1           1
 AtZEff=  -0.0000000  -0.0000000  -0.0000000  -0.0000000  -0.0000000  -0.0000000  -0.0000000  -0.0000000  -0.0000000  -0.0000000
 NQMom=    0.0000000   0.0000000   0.0000000   0.0000000   0.0000000   0.0000000   0.0000000   0.0000000   0.0000000   0.0000000
 NMagM=    2.7928460   2.7928460   2.7928460   2.7928460   2.7928460   2.7928460   2.7928460   2.7928460   2.7928460   2.7928460
 AtZNuc=   1.0000000   1.0000000   1.0000000   1.0000000   1.0000000   1.0000000   1.0000000   1.0000000   1.0000000   1.0000000

  Atom        81          82          83          84          85          86          87          88          89          90
 IAtWgt=           1           1           1           1           1           1           1           1           1           1
 AtmWgt=   1.0078250   1.0078250   1.0078250   1.0078250   1.0078250   1.0078250   1.0078250   1.0078250   1.0078250   1.0078250
 NucSpn=           1           1           1           1           1           1           1           1           1           1
 AtZEff=  -0.0000000  -0.0000000  -0.0000000  -0.0000000  -0.0000000  -0.0000000  -0.0000000  -0.0000000  -0.0000000  -0.0000000
 NQMom=    0.0000000   0.0000000   0.0000000   0.0000000   0.0000000   0.0000000   0.0000000   0.0000000   0.0000000   0.0000000
 NMagM=    2.7928460   2.7928460   2.7928460   2.7928460   2.7928460   2.7928460   2.7928460   2.7928460   2.7928460   2.7928460
 AtZNuc=   1.0000000   1.0000000   1.0000000   1.0000000   1.0000000   1.0000000   1.0000000   1.0000000   1.0000000   1.0000000

  Atom        91          92          93          94          95          96          97          98          99         100
 IAtWgt=           1           1           1           1           1           1           1           1           1           1
 AtmWgt=   1.0078250   1.0078250   1.0078250   1.0078250   1.0078250   1.0078250   1.0078250   1.0078250   1.0078250   1.0078250
 NucSpn=           1           1           1           1           1           1           1           1           1           1
 AtZEff=  -0.0000000  -0.0000000  -0.0000000  -0.0000000  -0.0000000  -0.0000000  -0.0000000  -0.0000000  -0.0000000  -0.0000000
 NQMom=    0.0000000   0.0000000   0.0000000   0.0000000   0.0000000   0.0000000   0.0000000   0.0000000   0.0000000   0.0000000
 NMagM=    2.7928460   2.7928460   2.7928460   2.7928460   2.7928460   2.7928460   2.7928460   2.7928460   2.7928460   2.7928460
 AtZNuc=   1.0000000   1.0000000   1.0000000   1.0000000   1.0000000   1.0000000   1.0000000   1.0000000   1.0000000   1.0000000

  Atom       101         102         103         104         105         106         107         108         109         110
 IAtWgt=           1           1           1           1           1           1           1           1           1           1
 AtmWgt=   1.0078250   1.0078250   1.0078250   1.0078250   1.0078250   1.0078250   1.0078250   1.0078250   1.0078250   1.0078250
 NucSpn=           1           1           1           1           1           1           1           1           1           1
 AtZEff=  -0.0000000  -0.0000000  -0.0000000  -0.0000000  -0.0000000  -0.0000000  -0.0000000  -0.0000000  -0.0000000  -0.0000000
 NQMom=    0.0000000   0.0000000   0.0000000   0.0000000   0.0000000   0.0000000   0.0000000   0.0000000   0.0000000   0.0000000
 NMagM=    2.7928460   2.7928460   2.7928460   2.7928460   2.7928460   2.7928460   2.7928460   2.7928460   2.7928460   2.7928460
 AtZNuc=   1.0000000   1.0000000   1.0000000   1.0000000   1.0000000   1.0000000   1.0000000   1.0000000   1.0000000   1.0000000

  Atom       111         112         113         114         115         116         117         118         119         120
 IAtWgt=           1           1           1           1           1           1           1           1           1           1
 AtmWgt=   1.0078250   1.0078250   1.0078250   1.0078250   1.0078250   1.0078250   1.0078250   1.0078250   1.0078250   1.0078250
 NucSpn=           1           1           1           1           1           1           1           1           1           1
 AtZEff=  -0.0000000  -0.0000000  -0.0000000  -0.0000000  -0.0000000  -0.0000000  -0.0000000  -0.0000000  -0.0000000  -0.0000000
 NQMom=    0.0000000   0.0000000   0.0000000   0.0000000   0.0000000   0.0000000   0.0000000   0.0000000   0.0000000   0.0000000
 NMagM=    2.7928460   2.7928460   2.7928460   2.7928460   2.7928460   2.7928460   2.7928460   2.7928460   2.7928460   2.7928460
 AtZNuc=   1.0000000   1.0000000   1.0000000   1.0000000   1.0000000   1.0000000   1.0000000   1.0000000   1.0000000   1.0000000

  Atom       121         122         123         124         125         126         127         128         129         130
 IAtWgt=           1           1           1           1           1           1           1           1           1           1
 AtmWgt=   1.0078250   1.0078250   1.0078250   1.0078250   1.0078250   1.0078250   1.0078250   1.0078250   1.0078250   1.0078250
 NucSpn=           1           1           1           1           1           1           1           1           1           1
 AtZEff=  -0.0000000  -0.0000000  -0.0000000  -0.0000000  -0.0000000  -0.0000000  -0.0000000  -0.0000000  -0.0000000  -0.0000000
 NQMom=    0.0000000   0.0000000   0.0000000   0.0000000   0.0000000   0.0000000   0.0000000   0.0000000   0.0000000   0.0000000
 NMagM=    2.7928460   2.7928460   2.7928460   2.7928460   2.7928460   2.7928460   2.7928460   2.7928460   2.7928460   2.7928460
 AtZNuc=   1.0000000   1.0000000   1.0000000   1.0000000   1.0000000   1.0000000   1.0000000   1.0000000   1.0000000   1.0000000

  Atom       131         132         133         134         135         136         137         138         139         140
 IAtWgt=           1           1           1           1           1           1           1           1           1           1
 AtmWgt=   1.0078250   1.0078250   1.0078250   1.0078250   1.0078250   1.0078250   1.0078250   1.0078250   1.0078250   1.0078250
 NucSpn=           1           1           1           1           1           1           1           1           1           1
 AtZEff=  -0.0000000  -0.0000000  -0.0000000  -0.0000000  -0.0000000  -0.0000000  -0.0000000  -0.0000000  -0.0000000  -0.0000000
 NQMom=    0.0000000   0.0000000   0.0000000   0.0000000   0.0000000   0.0000000   0.0000000   0.0000000   0.0000000   0.0000000
 NMagM=    2.7928460   2.7928460   2.7928460   2.7928460   2.7928460   2.7928460   2.7928460   2.7928460   2.7928460   2.7928460
 AtZNuc=   1.0000000   1.0000000   1.0000000   1.0000000   1.0000000   1.0000000   1.0000000   1.0000000   1.0000000   1.0000000
 Leave Link  101 at Wed May  4 08:43:16 2022, MaxMem= 10066329600 cpu:               2.8 elap:               0.1
 (Enter /sw/apps/gaussian-16.0/g16/l202.exe)
 Stoichiometry    C55H74MgN4O6
 Framework group  C1[X(C55H74MgN4O6)]
 Deg. of freedom   414
 Full point group                 C1      NOp   1
 Largest Abelian subgroup         C1      NOp   1
 Largest concise Abelian subgroup C1      NOp   1
                         Standard orientation:                         
 ---------------------------------------------------------------------
 Center     Atomic      Atomic             Coordinates (Angstroms)
 Number     Number       Type             X           Y           Z
 ---------------------------------------------------------------------
      1         12           0       -4.243165    1.249870    0.637962
      2          6           0       -5.025237   -2.086523   -0.132801
      3          6           0       -1.965145    0.137405    3.208119
      4          6           0       -2.898985    4.293288    0.829604
      5          6           0       -5.463170    2.142076   -2.543290
      6          7           0       -3.599388   -0.707959    1.392194
      7          6           0       -4.064711   -1.992875    0.976305
      8          6           0       -3.561576   -3.062733    1.867243
      9          6           0       -2.637208   -2.297951    2.912783
     10          6           0       -2.699882   -0.847497    2.456870
     11          6           0       -2.952137   -2.559180    4.410115
     12          6           0       -2.945170   -4.317341    1.115255
     13          6           0       -2.064795   -4.084828   -0.186188
     14          6           0       -0.685793   -4.694797   -0.095608
     15          8           0       -0.453078   -5.772810    0.445026
     16          8           0        0.242077   -3.811820   -0.609592
     17          7           0       -2.811137    2.218485    2.028906
     18          6           0       -2.007609    1.557809    2.989092
     19          6           0       -1.209282    2.601539    3.612475
     20          6           0       -1.544559    3.885580    2.956574
     21          6           0       -2.443315    3.482638    1.883943
     22          6           0       -0.214007    2.260807    4.703500
     23          6           0       -0.873806    5.234173    3.275254
     24          8           0        0.006626    5.235267    4.099545
     25          6           0       -1.247253    6.457169    2.695133
     26          7           0       -4.174948    2.974110   -0.713622
     27          6           0       -3.706709    4.200318   -0.252226
     28          6           0       -4.147925    5.356672   -1.114784
     29          6           0       -4.840454    4.626020   -2.284818
     30          6           0       -4.918017    3.178472   -1.807733
     31          6           0       -4.920159    6.553824   -0.472685
     32          6           0       -4.138898    4.694070   -3.691912
     33          6           0       -4.987502    5.088060   -4.940979
     34          7           0       -5.251922    0.212501   -0.965712
     35          6           0       -5.707215    0.770309   -2.207624
     36          6           0       -6.447609   -0.262733   -2.855411
     37          6           0       -6.207794   -1.406067   -2.091966
     38          6           0       -5.475165   -1.078670   -0.998628
     39          6           0       -7.274127   -0.232418   -4.062439
     40          6           0       -6.502218   -2.819330   -1.991194
     41          8           0       -7.105054   -3.562074   -2.756112
     42          6           0       -5.784327   -3.334404   -0.702735
     43          6           0       -6.772586   -4.078439    0.160691
     44          8           0       -6.863869   -5.298166    0.142136
     45          8           0       -7.394644   -3.225285    1.049229
     46          6           0       -8.371008   -3.746892    2.019004
     47          6           0        1.670777   -4.264885   -0.460657
     48          6           0        2.400133   -3.293113   -1.418467
     49          6           0        3.698150   -2.823111   -1.255635
     50          6           0        4.601165   -3.304609   -0.171467
     51          6           0        4.126300   -1.921529   -2.413711
     52          6           0        5.666022   -1.643880   -2.491050
     53          6           0        6.064091   -0.196157   -2.862334
     54          6           0        6.323688    0.788280   -1.691562
     55          6           0        6.024876    2.285488   -2.074599
     56          6           0        7.728190    0.661126   -1.093859
     57          6           0        7.795824    0.839080    0.416702
     58          6           0        8.239471   -0.395943    1.267668
     59          6           0        9.710807   -0.255177    1.790551
     60          6           0        9.748279   -1.006937    3.067311
     61          6           0       10.820669   -0.699046    0.686723
     62          6           0       11.243116    0.560433   -0.124239
     63          6           0       12.735356    0.902672   -0.121407
     64          6           0       13.421502    0.111608   -1.326856
     65          6           0       14.483808   -0.874783   -0.830020
     66          6           0       13.970750    1.120508   -2.399795
     67          1           0       -1.392797   -0.136890    4.096442
     68          1           0       -2.507769    5.313454    0.824901
     69          1           0       -5.792887    2.374613   -3.558515
     70          1           0       -4.439283   -3.481870    2.359357
     71          1           0       -1.618889   -2.655787    2.763309
     72          1           0       -3.218449   -1.601983    4.856388
     73          1           0       -2.057860   -2.976241    4.872982
     74          1           0       -3.828034   -3.206999    4.431870
     75          1           0       -3.736337   -5.051362    0.962622
     76          1           0       -2.252703   -4.818283    1.792153
     77          1           0       -2.057270   -3.016328   -0.401399
     78          1           0       -2.535650   -4.520723   -1.068284
     79          1           0        0.465149    1.464178    4.400345
     80          1           0       -0.844013    1.962460    5.541519
     81          1           0        0.413655    3.070333    5.077276
     82          1           0       -2.327009    6.332607    2.623004
     83          1           0       -0.936467    6.582585    1.657768
     84          1           0       -0.995546    7.293750    3.346899
     85          1           0       -3.247343    5.687437   -1.631332
     86          1           0       -5.738309    5.230243   -2.412850
     87          1           0       -4.158873    7.333575   -0.461530
     88          1           0       -5.192733    6.300221    0.551845
     89          1           0       -5.769961    7.002577   -0.988689
     90          1           0       -3.681667    3.732423   -3.925095
     91          1           0       -3.321489    5.412780   -3.748530
     92          1           0       -4.549229    5.963471   -5.421684
     93          1           0       -5.973196    5.317847   -4.536020
     94          1           0       -5.062794    4.301934   -5.691110
     95          1           0       -6.752521   -0.884149   -4.763863
     96          1           0       -7.361431    0.782749   -4.449219
     97          1           0       -8.211313   -0.684935   -3.738854
     98          1           0       -5.097787   -4.087628   -1.088150
     99          1           0       -7.965631   -3.449792    2.986638
    100          1           0       -8.456317   -4.820900    1.857777
    101          1           0       -9.327051   -3.261313    1.822660
    102          1           0        1.814460   -5.310212   -0.731140
    103          1           0        2.063799   -4.227216    0.555109
    104          1           0        1.775829   -2.807298   -2.168625
    105          1           0        4.726151   -2.392904    0.412416
    106          1           0        5.573286   -3.659331   -0.512725
    107          1           0        4.248238   -4.143928    0.427264
    108          1           0        3.573264   -0.982927   -2.358315
    109          1           0        3.908953   -2.401826   -3.367025
    110          1           0        6.215785   -2.206156   -3.245858
    111          1           0        6.101921   -1.875814   -1.519757
    112          1           0        5.183462    0.215749   -3.355336
    113          1           0        6.979973   -0.342444   -3.435472
    114          1           0        5.649704    0.536273   -0.872294
    115          1           0        5.018705    2.592395   -1.787704
    116          1           0        6.137640    2.421489   -3.149500
    117          1           0        6.729334    2.936760   -1.557081
    118          1           0        8.424241    1.319284   -1.614186
    119          1           0        8.047235   -0.363873   -1.284616
    120          1           0        6.832764    1.226254    0.748483
    121          1           0        8.595603    1.573958    0.508646
    122          1           0        8.097120   -1.301550    0.677930
    123          1           0        7.523336   -0.545143    2.076311
    124          1           0        9.849704    0.786076    2.083423
    125          1           0        8.887891   -1.625307    3.323966
    126          1           0        9.914973   -0.261304    3.843730
    127          1           0       10.665486   -1.596017    3.081460
    128          1           0       10.396684   -1.353010   -0.074863
    129          1           0       11.600647   -1.245421    1.216272
    130          1           0       10.784238    1.513336    0.140422
    131          1           0       10.816855    0.299616   -1.093433
    132          1           0       13.061391    0.368073    0.771559
    133          1           0       12.972815    1.964239   -0.051046
    134          1           0       12.647776   -0.345817   -1.943144
    135          1           0       14.843424   -1.633874   -1.524027
    136          1           0       14.097551   -1.391318    0.049156
    137          1           0       15.322007   -0.236459   -0.548798
    138          1           0       15.058179    1.152816   -2.470248
    139          1           0       13.440135    2.072631   -2.392207
    140          1           0       13.666806    0.821408   -3.402547
 ---------------------------------------------------------------------
 Rotational constants (GHZ):           0.0369242           0.0128085           0.0114176
 Leave Link  202 at Wed May  4 08:43:16 2022, MaxMem= 10066329600 cpu:               0.2 elap:               0.0
 (Enter /sw/apps/gaussian-16.0/g16/l301.exe)
 Standard basis: def2SVP (5D, 7F)
 Ernie: Thresh=  0.10000D-02 Tol=  0.10000D-05 Strict=F.
 There are  1364 symmetry adapted cartesian basis functions of A   symmetry.
 There are  1298 symmetry adapted basis functions of A   symmetry.
  1298 basis functions,  2180 primitive gaussians,  1364 cartesian basis functions
   246 alpha electrons      246 beta electrons
       nuclear repulsion energy      9759.4150921164 Hartrees.
 IExCor=  402 DFT=T Ex=B Corr=LYP ExCW=0 ScaHFX=  0.000000
 ScaDFX=  1.000000  1.000000  1.000000  1.000000 ScalE2=  1.000000  1.000000
 IRadAn=      5 IRanWt=     -1 IRanGd=            0 ICorTp=0 IEmpDi=  4
 NAtoms=  140 NActive=  140 NUniq=  140 SFac= 1.00D+00 NAtFMM=   60 NAOKFM=T Big=T
 Integral buffers will be    131072 words long.
 Regular integral format.
 Two-electron integral symmetry is turned on.
 Leave Link  301 at Wed May  4 08:43:16 2022, MaxMem= 10066329600 cpu:               1.3 elap:               0.1
 (Enter /sw/apps/gaussian-16.0/g16/l302.exe)
 NPDir=0 NMtPBC=     1 NCelOv=     1 NCel=       1 NClECP=     1 NCelD=      1
         NCelK=      1 NCelE2=     1 NClLst=     1 CellRange=     0.0.
 One-electron integrals computed using PRISM.
 One-electron integral symmetry used in STVInt
   1 Symmetry operations used in ECPInt.
 ECPInt:  NShTT=  192510 NPrTT=  683786 LenC2=  102305 LenP2D=  219405.
 LDataN:  DoStor=T MaxTD1= 4 Len=   56
 NBasis=  1298 RedAO= T EigKep=  2.92D-04  NBF=  1298
 NBsUse=  1298 1.00D-06 EigRej= -1.00D+00 NBFU=  1298
 Precomputing XC quadrature grid using
 IXCGrd= 4 IRadAn=           5 IRanWt=          -1 IRanGd=           0 AccXCQ= 0.00D+00.
 Generated NRdTot=       0 NPtTot=           0 NUsed=           0 NTot=          32
 NSgBfM=   969   965   968   969   969 MxSgAt=   140 MxSgA2=   139.
 Leave Link  302 at Wed May  4 08:43:20 2022, MaxMem= 10066329600 cpu:              82.9 elap:               3.5
 (Enter /sw/apps/gaussian-16.0/g16/l303.exe)
 DipDrv:  MaxL=1.
 Leave Link  303 at Wed May  4 08:43:20 2022, MaxMem= 10066329600 cpu:               6.1 elap:               0.3
 (Enter /sw/apps/gaussian-16.0/g16/l308.exe)
 Leave Link  308 at Wed May  4 08:43:21 2022, MaxMem= 10066329600 cpu:              10.0 elap:               0.5
 (Enter /sw/apps/gaussian-16.0/g16/l401.exe)
 ExpMin= 3.36D-02 ExpMax= 4.95D+03 ExpMxC= 7.45D+02 IAcc=3 IRadAn=         5 AccDes= 0.00D+00
 Harris functional with IExCor=  402 and IRadAn=       5 diagonalized for initial guess.
 HarFok:  IExCor=  402 AccDes= 0.00D+00 IRadAn=         5 IDoV= 1 UseB2=F ITyADJ=14
 ICtDFT=  3500011 ScaDFX=  1.000000  1.000000  1.000000  1.000000
 FoFCou: FMM=F IPFlag=           0 FMFlag=      100000 FMFlg1=        2001
         NFxFlg=           0 DoJE=T BraDBF=F KetDBF=T FulRan=T
         wScrn=  0.000000 ICntrl=       500 IOpCl=  0 I1Cent=   200000004 NGrid=           0
         NMat0=    1 NMatS0=      1 NMatT0=    0 NMatD0=    1 NMtDS0=    0 NMtDT0=    0
 Petite list used in FoFCou.
 Harris En= -3008.71934038190    
 JPrj=0 DoOrth=F DoCkMO=F.
 Leave Link  401 at Wed May  4 08:43:26 2022, MaxMem= 10066329600 cpu:             139.8 elap:               5.9
 (Enter /sw/apps/gaussian-16.0/g16/l502.exe)
 Integral symmetry usage will be decided dynamically.
 Closed shell SCF:
 Using DIIS extrapolation, IDIIS=  1040.
 NGot= 10066329600 LenX= 10062561258 LenY= 10060699398
 Requested convergence on RMS density matrix=1.00D-08 within 128 cycles.
 Requested convergence on MAX density matrix=1.00D-06.
 Requested convergence on             energy=1.00D-06.
 No special actions if energy rises.
 Fock matrices will be formed incrementally for  20 cycles.

 Cycle   1  Pass 1  IDiag  1:
 FoFJK:  IHMeth= 1 ICntrl=     500 DoSepK=F KAlg= 0 I1Cent=           0 FoldK=F
 IRaf= 540000000 NMat=       1 IRICut=       1 DoRegI=T DoRafI=F ISym2E= 0 IDoP0=0 IntGTp=1.
 FoFCou: FMM=T IPFlag=           0 FMFlag=      100000 FMFlg1=        2001
         NFxFlg=           0 DoJE=T BraDBF=F KetDBF=F FulRan=T
         wScrn=  0.000000 ICntrl=       500 IOpCl=  0 I1Cent=           0 NGrid=           0
         NMat0=    1 NMatS0=      1 NMatT0=    0 NMatD0=    1 NMtDS0=    0 NMtDT0=    0
 Symmetry not used in FoFCou.
 FMM levels:  10  Number of levels for PrismC:   9
 E= -3005.61871720111    
 DIIS: error= 2.16D-02 at cycle   1 NSaved=   1.
 NSaved= 1 IEnMin= 1 EnMin= -3005.61871720111     IErMin= 1 ErrMin= 2.16D-02
 ErrMax= 2.16D-02  0.00D+00 EMaxC= 1.00D-01 BMatC= 1.54D+00 BMatP= 1.54D+00
 IDIUse=3 WtCom= 7.84D-01 WtEn= 2.16D-01
 Coeff-Com:  0.100D+01
 Coeff-En:   0.100D+01
 Coeff:      0.100D+01
 Gap=     0.054 Goal=   None    Shift=    0.000
 GapD=    0.054 DampG=0.500 DampE=0.500 DampFc=0.2500 IDamp=-1.
 Damping current iteration by 2.50D-01
 RMSDP=3.73D-03 MaxDP=4.73D-01              OVMax= 9.12D-01

 Cycle   2  Pass 1  IDiag  1:
 RMSU=  9.24D-04    CP:  9.87D-01
 E= -3005.97858444240     Delta-E=       -0.359867241288 Rises=F Damp=T
 DIIS: error= 8.40D-03 at cycle   2 NSaved=   2.
 NSaved= 2 IEnMin= 2 EnMin= -3005.97858444240     IErMin= 2 ErrMin= 8.40D-03
 ErrMax= 8.40D-03  0.00D+00 EMaxC= 1.00D-01 BMatC= 2.86D-01 BMatP= 1.54D+00
 IDIUse=3 WtCom= 9.16D-01 WtEn= 8.40D-02
 Coeff-Com: -0.179D+00 0.118D+01
 Coeff-En:   0.267D+00 0.733D+00
 Coeff:     -0.142D+00 0.114D+01
 Gap=    -0.088 Goal=   None    Shift=    0.000
 RMSDP=2.08D-03 MaxDP=1.89D-01 DE=-3.60D-01 OVMax= 5.10D-01

 Cycle   3  Pass 1  IDiag  1:
 RMSU=  2.05D-03    CP:  9.62D-01  1.25D+00
 E= -3003.25192661255     Delta-E=        2.726657829850 Rises=F Damp=F
 DIIS: error= 3.62D-02 at cycle   3 NSaved=   3.
 NSaved= 3 IEnMin= 2 EnMin= -3005.97858444240     IErMin= 2 ErrMin= 8.40D-03
 ErrMax= 3.62D-02  0.00D+00 EMaxC= 1.00D-01 BMatC= 2.98D+00 BMatP= 2.86D-01
 IDIUse=2 WtCom= 0.00D+00 WtEn= 1.00D+00
 EnCoef did     2 forward-backward iterations
 Coeff-En:   0.570D-01 0.727D+00 0.216D+00
 Coeff:      0.570D-01 0.727D+00 0.216D+00
 Gap=     0.125 Goal=   None    Shift=    0.000
 RMSDP=2.31D-03 MaxDP=2.24D-01 DE= 2.73D+00 OVMax= 7.49D-01

 Cycle   4  Pass 1  IDiag  1:
 RMSU=  1.24D-03    CP:  9.71D-01  1.49D+00  5.58D-02
 E= -3006.88427439751     Delta-E=       -3.632347784964 Rises=F Damp=F
 DIIS: error= 9.60D-03 at cycle   4 NSaved=   4.
 NSaved= 4 IEnMin= 4 EnMin= -3006.88427439751     IErMin= 2 ErrMin= 8.40D-03
 ErrMax= 9.60D-03  0.00D+00 EMaxC= 1.00D-01 BMatC= 3.93D-01 BMatP= 2.86D-01
 IDIUse=3 WtCom= 9.26D-02 WtEn= 9.07D-01
 EnCoef did     3 forward-backward iterations
 Coeff-Com:  0.473D-01 0.414D+00 0.146D+00 0.393D+00
 Coeff-En:   0.134D+00 0.000D+00 0.762D-01 0.790D+00
 Coeff:      0.126D+00 0.384D-01 0.827D-01 0.753D+00
 Gap=     0.105 Goal=   None    Shift=    0.000
 RMSDP=1.56D-03 MaxDP=1.09D-01 DE=-3.63D+00 OVMax= 6.94D-01

 Cycle   5  Pass 1  IDiag  1:
 RMSU=  1.11D-03    CP:  9.81D-01  7.73D-01  3.14D-01  4.41D-01
 E= -3006.23341824371     Delta-E=        0.650856153803 Rises=F Damp=F
 DIIS: error= 2.00D-02 at cycle   5 NSaved=   5.
 NSaved= 5 IEnMin= 4 EnMin= -3006.88427439751     IErMin= 2 ErrMin= 8.40D-03
 ErrMax= 2.00D-02  0.00D+00 EMaxC= 1.00D-01 BMatC= 8.96D-01 BMatP= 2.86D-01
 IDIUse=2 WtCom= 0.00D+00 WtEn= 1.00D+00
 Coeff-En:   0.000D+00 0.000D+00 0.000D+00 0.659D+00 0.341D+00
 Coeff:      0.000D+00 0.000D+00 0.000D+00 0.659D+00 0.341D+00
 Gap=     0.029 Goal=   None    Shift=    0.000
 RMSDP=1.21D-03 MaxDP=1.12D-01 DE= 6.51D-01 OVMax= 6.40D-01

 Cycle   6  Pass 1  IDiag  1:
 RMSU=  5.32D-04    CP:  9.78D-01  8.59D-01  1.71D-01  4.96D-01  6.33D-02
 E= -3007.03327016965     Delta-E=       -0.799851925940 Rises=F Damp=F
 DIIS: error= 1.22D-02 at cycle   6 NSaved=   6.
 NSaved= 6 IEnMin= 6 EnMin= -3007.03327016965     IErMin= 2 ErrMin= 8.40D-03
 ErrMax= 1.22D-02  0.00D+00 EMaxC= 1.00D-01 BMatC= 2.62D-01 BMatP= 2.86D-01
 IDIUse=3 WtCom= 8.78D-01 WtEn= 1.22D-01
 EnCoef did     3 forward-backward iterations
 Coeff-Com: -0.938D-02 0.145D+00 0.162D-01 0.391D+00 0.212D+00 0.245D+00
 Coeff-En:   0.000D+00 0.000D+00 0.000D+00 0.410D+00 0.200D+00 0.390D+00
 Coeff:     -0.824D-02 0.127D+00 0.142D-01 0.393D+00 0.210D+00 0.263D+00
 Gap=     0.044 Goal=   None    Shift=    0.000
 RMSDP=6.64D-04 MaxDP=6.31D-02 DE=-8.00D-01 OVMax= 3.94D-01

 Cycle   7  Pass 1  IDiag  1:
 RMSU=  2.69D-04    CP:  9.77D-01  1.04D+00  1.38D-01  6.64D-01  3.33D-01
                    CP:  1.55D-01
 E= -3007.29445136996     Delta-E=       -0.261181200309 Rises=F Damp=F
 DIIS: error= 6.03D-03 at cycle   7 NSaved=   7.
 NSaved= 7 IEnMin= 7 EnMin= -3007.29445136996     IErMin= 7 ErrMin= 6.03D-03
 ErrMax= 6.03D-03  0.00D+00 EMaxC= 1.00D-01 BMatC= 2.03D-02 BMatP= 2.62D-01
 IDIUse=3 WtCom= 9.40D-01 WtEn= 6.03D-02
 Coeff-Com: -0.774D-01 0.135D+00-0.856D-02 0.130D+00 0.896D-01 0.250D+00
 Coeff-Com:  0.480D+00
 Coeff-En:   0.000D+00 0.000D+00 0.000D+00 0.000D+00 0.000D+00 0.967D-01
 Coeff-En:   0.903D+00
 Coeff:     -0.728D-01 0.127D+00-0.805D-02 0.122D+00 0.842D-01 0.241D+00
 Coeff:      0.506D+00
 Gap=     0.040 Goal=   None    Shift=    0.000
 RMSDP=3.19D-04 MaxDP=2.51D-02 DE=-2.61D-01 OVMax= 2.56D-01

 Cycle   8  Pass 1  IDiag  1:
 RMSU=  1.67D-04    CP:  9.77D-01  1.04D+00  1.49D-01  6.81D-01  2.37D-01
                    CP:  4.88D-01  3.57D-01
 E= -3007.30400782000     Delta-E=       -0.009556450041 Rises=F Damp=F
 DIIS: error= 3.72D-03 at cycle   8 NSaved=   8.
 NSaved= 8 IEnMin= 8 EnMin= -3007.30400782000     IErMin= 8 ErrMin= 3.72D-03
 ErrMax= 3.72D-03  0.00D+00 EMaxC= 1.00D-01 BMatC= 1.45D-02 BMatP= 2.03D-02
 IDIUse=3 WtCom= 9.63D-01 WtEn= 3.72D-02
 Coeff-Com: -0.503D-01 0.878D-01-0.784D-02 0.165D-01 0.132D-01 0.898D-01
 Coeff-Com:  0.455D+00 0.396D+00
 Coeff-En:   0.000D+00 0.000D+00 0.000D+00 0.000D+00 0.000D+00 0.000D+00
 Coeff-En:   0.437D+00 0.563D+00
 Coeff:     -0.484D-01 0.846D-01-0.754D-02 0.159D-01 0.127D-01 0.865D-01
 Coeff:      0.455D+00 0.402D+00
 Gap=     0.041 Goal=   None    Shift=    0.000
 RMSDP=1.65D-04 MaxDP=1.25D-02 DE=-9.56D-03 OVMax= 1.14D-01

 Cycle   9  Pass 1  IDiag  1:
 RMSU=  5.71D-05    CP:  9.77D-01  1.05D+00  1.38D-01  6.79D-01  2.72D-01
                    CP:  3.67D-01  6.75D-01  3.91D-01
 E= -3007.32263344268     Delta-E=       -0.018625622686 Rises=F Damp=F
 DIIS: error= 7.91D-04 at cycle   9 NSaved=   9.
 NSaved= 9 IEnMin= 9 EnMin= -3007.32263344268     IErMin= 9 ErrMin= 7.91D-04
 ErrMax= 7.91D-04  0.00D+00 EMaxC= 1.00D-01 BMatC= 1.86D-03 BMatP= 1.45D-02
 IDIUse=3 WtCom= 9.92D-01 WtEn= 7.91D-03
 Coeff-Com: -0.271D-01 0.572D-01-0.507D-02 0.476D-02 0.139D-02 0.198D-01
 Coeff-Com:  0.267D+00 0.301D+00 0.381D+00
 Coeff-En:   0.000D+00 0.000D+00 0.000D+00 0.000D+00 0.000D+00 0.000D+00
 Coeff-En:   0.000D+00 0.167D-01 0.983D+00
 Coeff:     -0.269D-01 0.568D-01-0.503D-02 0.472D-02 0.138D-02 0.196D-01
 Coeff:      0.264D+00 0.299D+00 0.386D+00
 Gap=     0.041 Goal=   None    Shift=    0.000
 RMSDP=6.30D-05 MaxDP=5.75D-03 DE=-1.86D-02 OVMax= 4.29D-02

 Cycle  10  Pass 1  IDiag  1:
 RMSU=  4.04D-05    CP:  9.77D-01  1.05D+00  1.35D-01  6.88D-01  2.77D-01
                    CP:  3.51D-01  6.48D-01  5.17D-01  3.02D-01
 E= -3007.32383595359     Delta-E=       -0.001202510904 Rises=F Damp=F
 DIIS: error= 7.28D-04 at cycle  10 NSaved=  10.
 NSaved=10 IEnMin=10 EnMin= -3007.32383595359     IErMin=10 ErrMin= 7.28D-04
 ErrMax= 7.28D-04  0.00D+00 EMaxC= 1.00D-01 BMatC= 7.62D-04 BMatP= 1.86D-03
 IDIUse=3 WtCom= 9.93D-01 WtEn= 7.28D-03
 Coeff-Com: -0.116D-01 0.333D-01-0.268D-02 0.558D-02 0.393D-03-0.138D-01
 Coeff-Com:  0.898D-01 0.148D+00 0.362D+00 0.389D+00
 Coeff-En:   0.000D+00 0.000D+00 0.000D+00 0.000D+00 0.000D+00 0.000D+00
 Coeff-En:   0.000D+00 0.000D+00 0.290D+00 0.710D+00
 Coeff:     -0.115D-01 0.330D-01-0.266D-02 0.554D-02 0.390D-03-0.137D-01
 Coeff:      0.891D-01 0.147D+00 0.362D+00 0.391D+00
 Gap=     0.042 Goal=   None    Shift=    0.000
 RMSDP=5.73D-05 MaxDP=3.86D-03 DE=-1.20D-03 OVMax= 5.26D-02

 Cycle  11  Pass 1  IDiag  1:
 RMSU=  3.35D-05    CP:  9.77D-01  1.05D+00  1.32D-01  6.96D-01  2.75D-01
                    CP:  3.38D-01  6.52D-01  4.95D-01  7.07D-01  7.96D-02
 E= -3007.32410816643     Delta-E=       -0.000272212839 Rises=F Damp=F
 DIIS: error= 7.63D-04 at cycle  11 NSaved=  11.
 NSaved=11 IEnMin=11 EnMin= -3007.32410816643     IErMin=10 ErrMin= 7.28D-04
 ErrMax= 7.63D-04  0.00D+00 EMaxC= 1.00D-01 BMatC= 4.95D-04 BMatP= 7.62D-04
 IDIUse=3 WtCom= 9.93D-01 WtEn= 7.28D-03
 Coeff-Com: -0.398D-02 0.182D-01-0.147D-02 0.603D-02 0.118D-02-0.220D-01
 Coeff-Com:  0.203D-02 0.524D-01 0.247D+00 0.422D+00 0.278D+00
 Coeff-En:   0.000D+00 0.000D+00 0.000D+00 0.000D+00 0.000D+00 0.000D+00
 Coeff-En:   0.000D+00 0.000D+00 0.000D+00 0.439D+00 0.561D+00
 Coeff:     -0.395D-02 0.181D-01-0.145D-02 0.598D-02 0.117D-02-0.219D-01
 Coeff:      0.202D-02 0.520D-01 0.246D+00 0.422D+00 0.280D+00
 Gap=     0.042 Goal=   None    Shift=    0.000
 RMSDP=3.79D-05 MaxDP=2.61D-03 DE=-2.72D-04 OVMax= 3.52D-02

 Cycle  12  Pass 1  IDiag  1:
 RMSU=  1.50D-05    CP:  9.77D-01  1.05D+00  1.31D-01  6.99D-01  2.79D-01
                    CP:  3.34D-01  6.40D-01  5.19D-01  5.74D-01  5.97D-01
                    CP:  2.43D-01
 E= -3007.32481181690     Delta-E=       -0.000703650478 Rises=F Damp=F
 DIIS: error= 2.10D-04 at cycle  12 NSaved=  12.
 NSaved=12 IEnMin=12 EnMin= -3007.32481181690     IErMin=12 ErrMin= 2.10D-04
 ErrMax= 2.10D-04  0.00D+00 EMaxC= 1.00D-01 BMatC= 6.97D-05 BMatP= 4.95D-04
 IDIUse=3 WtCom= 9.98D-01 WtEn= 2.10D-03
 Coeff-Com: -0.119D-02 0.704D-02-0.631D-03 0.328D-02 0.120D-02-0.127D-01
 Coeff-Com: -0.269D-01-0.744D-02 0.671D-01 0.211D+00 0.265D+00 0.495D+00
 Coeff-En:   0.000D+00 0.000D+00 0.000D+00 0.000D+00 0.000D+00 0.000D+00
 Coeff-En:   0.000D+00 0.000D+00 0.000D+00 0.000D+00 0.158D+00 0.842D+00
 Coeff:     -0.118D-02 0.702D-02-0.630D-03 0.327D-02 0.120D-02-0.127D-01
 Coeff:     -0.269D-01-0.742D-02 0.669D-01 0.210D+00 0.265D+00 0.495D+00
 Gap=     0.042 Goal=   None    Shift=    0.000
 RMSDP=1.22D-05 MaxDP=1.17D-03 DE=-7.04D-04 OVMax= 8.17D-03

 Cycle  13  Pass 1  IDiag  1:
 RMSU=  6.54D-06    CP:  9.77D-01  1.05D+00  1.31D-01  7.01D-01  2.80D-01
                    CP:  3.32D-01  6.40D-01  5.22D-01  6.26D-01  5.61D-01
                    CP:  4.53D-01  5.98D-01
 E= -3007.32488617257     Delta-E=       -0.000074355668 Rises=F Damp=F
 DIIS: error= 6.84D-05 at cycle  13 NSaved=  13.
 NSaved=13 IEnMin=13 EnMin= -3007.32488617257     IErMin=13 ErrMin= 6.84D-05
 ErrMax= 6.84D-05  0.00D+00 EMaxC= 1.00D-01 BMatC= 1.65D-05 BMatP= 6.97D-05
 IDIUse=1 WtCom= 1.00D+00 WtEn= 0.00D+00
 Coeff-Com: -0.801D-03 0.241D-02-0.232D-03 0.101D-02 0.676D-03-0.317D-02
 Coeff-Com: -0.179D-01-0.180D-01-0.212D-01 0.409D-01 0.134D+00 0.402D+00
 Coeff-Com:  0.480D+00
 Coeff:     -0.801D-03 0.241D-02-0.232D-03 0.101D-02 0.676D-03-0.317D-02
 Coeff:     -0.179D-01-0.180D-01-0.212D-01 0.409D-01 0.134D+00 0.402D+00
 Coeff:      0.480D+00
 Gap=     0.042 Goal=   None    Shift=    0.000
 RMSDP=4.82D-06 MaxDP=6.51D-04 DE=-7.44D-05 OVMax= 1.66D-03

 Cycle  14  Pass 1  IDiag  1:
 RMSU=  2.90D-06    CP:  9.77D-01  1.05D+00  1.31D-01  7.01D-01  2.80D-01
                    CP:  3.32D-01  6.38D-01  5.22D-01  6.29D-01  5.59D-01
                    CP:  4.52D-01  7.09D-01  5.26D-01
 E= -3007.32490076480     Delta-E=       -0.000014592231 Rises=F Damp=F
 DIIS: error= 5.24D-05 at cycle  14 NSaved=  14.
 NSaved=14 IEnMin=14 EnMin= -3007.32490076480     IErMin=14 ErrMin= 5.24D-05
 ErrMax= 5.24D-05  0.00D+00 EMaxC= 1.00D-01 BMatC= 3.10D-06 BMatP= 1.65D-05
 IDIUse=1 WtCom= 1.00D+00 WtEn= 0.00D+00
 Coeff-Com: -0.747D-03 0.133D-02-0.822D-04 0.174D-03 0.268D-03 0.250D-04
 Coeff-Com: -0.689D-02-0.112D-01-0.295D-01-0.920D-02 0.474D-01 0.204D+00
 Coeff-Com:  0.347D+00 0.457D+00
 Coeff:     -0.747D-03 0.133D-02-0.822D-04 0.174D-03 0.268D-03 0.250D-04
 Coeff:     -0.689D-02-0.112D-01-0.295D-01-0.920D-02 0.474D-01 0.204D+00
 Coeff:      0.347D+00 0.457D+00
 Gap=     0.042 Goal=   None    Shift=    0.000
 RMSDP=1.91D-06 MaxDP=1.82D-04 DE=-1.46D-05 OVMax= 4.74D-04

 Cycle  15  Pass 1  IDiag  1:
 RMSU=  9.11D-07    CP:  9.77D-01  1.05D+00  1.30D-01  7.01D-01  2.80D-01
                    CP:  3.31D-01  6.39D-01  5.21D-01  6.25D-01  5.60D-01
                    CP:  4.62D-01  7.14D-01  5.85D-01  4.91D-01
 E= -3007.32490340615     Delta-E=       -0.000002641349 Rises=F Damp=F
 DIIS: error= 2.12D-05 at cycle  15 NSaved=  15.
 NSaved=15 IEnMin=15 EnMin= -3007.32490340615     IErMin=15 ErrMin= 2.12D-05
 ErrMax= 2.12D-05  0.00D+00 EMaxC= 1.00D-01 BMatC= 6.69D-07 BMatP= 3.10D-06
 IDIUse=1 WtCom= 1.00D+00 WtEn= 0.00D+00
 Coeff-Com: -0.384D-03 0.549D-03-0.391D-04-0.897D-05 0.130D-03 0.411D-03
 Coeff-Com: -0.302D-02-0.641D-02-0.215D-01-0.161D-01 0.982D-02 0.849D-01
 Coeff-Com:  0.178D+00 0.331D+00 0.443D+00
 Coeff:     -0.384D-03 0.549D-03-0.391D-04-0.897D-05 0.130D-03 0.411D-03
 Coeff:     -0.302D-02-0.641D-02-0.215D-01-0.161D-01 0.982D-02 0.849D-01
 Coeff:      0.178D+00 0.331D+00 0.443D+00
 Gap=     0.042 Goal=   None    Shift=    0.000
 RMSDP=9.77D-07 MaxDP=1.24D-04 DE=-2.64D-06 OVMax= 3.02D-04

 Cycle  16  Pass 1  IDiag  1:
 RMSU=  4.34D-07    CP:  9.77D-01  1.05D+00  1.30D-01  7.02D-01  2.80D-01
                    CP:  3.31D-01  6.38D-01  5.22D-01  6.25D-01  5.66D-01
                    CP:  4.63D-01  7.40D-01  5.91D-01  5.15D-01  4.99D-01
 E= -3007.32490404930     Delta-E=       -0.000000643149 Rises=F Damp=F
 DIIS: error= 8.30D-06 at cycle  16 NSaved=  16.
 NSaved=16 IEnMin=16 EnMin= -3007.32490404930     IErMin=16 ErrMin= 8.30D-06
 ErrMax= 8.30D-06  0.00D+00 EMaxC= 1.00D-01 BMatC= 1.13D-07 BMatP= 6.69D-07
 IDIUse=1 WtCom= 1.00D+00 WtEn= 0.00D+00
 Coeff-Com: -0.140D-03 0.162D-03-0.145D-04-0.203D-04 0.548D-04 0.268D-03
 Coeff-Com: -0.134D-02-0.321D-02-0.124D-01-0.123D-01-0.224D-02 0.269D-01
 Coeff-Com:  0.740D-01 0.175D+00 0.329D+00 0.427D+00
 Coeff:     -0.140D-03 0.162D-03-0.145D-04-0.203D-04 0.548D-04 0.268D-03
 Coeff:     -0.134D-02-0.321D-02-0.124D-01-0.123D-01-0.224D-02 0.269D-01
 Coeff:      0.740D-01 0.175D+00 0.329D+00 0.427D+00
 Gap=     0.042 Goal=   None    Shift=    0.000
 RMSDP=4.24D-07 MaxDP=5.04D-05 DE=-6.43D-07 OVMax= 1.09D-04

 Cycle  17  Pass 1  IDiag  1:
 RMSU=  1.56D-07    CP:  9.77D-01  1.05D+00  1.30D-01  7.02D-01  2.80D-01
                    CP:  3.30D-01  6.38D-01  5.22D-01  6.25D-01  5.68D-01
                    CP:  4.66D-01  7.46D-01  6.01D-01  5.42D-01  5.56D-01
                    CP:  5.01D-01
 E= -3007.32490416993     Delta-E=       -0.000000120628 Rises=F Damp=F
 DIIS: error= 3.72D-06 at cycle  17 NSaved=  17.
 NSaved=17 IEnMin=17 EnMin= -3007.32490416993     IErMin=17 ErrMin= 3.72D-06
 ErrMax= 3.72D-06  0.00D+00 EMaxC= 1.00D-01 BMatC= 1.36D-08 BMatP= 1.13D-07
 IDIUse=1 WtCom= 1.00D+00 WtEn= 0.00D+00
 Coeff-Com: -0.375D-04 0.238D-04-0.567D-05-0.140D-04 0.211D-04 0.124D-03
 Coeff-Com: -0.459D-03-0.121D-02-0.555D-02-0.668D-02-0.382D-02 0.327D-02
 Coeff-Com:  0.217D-01 0.691D-01 0.159D+00 0.307D+00 0.457D+00
 Coeff:     -0.375D-04 0.238D-04-0.567D-05-0.140D-04 0.211D-04 0.124D-03
 Coeff:     -0.459D-03-0.121D-02-0.555D-02-0.668D-02-0.382D-02 0.327D-02
 Coeff:      0.217D-01 0.691D-01 0.159D+00 0.307D+00 0.457D+00
 Gap=     0.042 Goal=   None    Shift=    0.000
 RMSDP=1.57D-07 MaxDP=2.76D-05 DE=-1.21D-07 OVMax= 3.95D-05

 Cycle  18  Pass 1  IDiag  1:
 RMSU=  6.45D-08    CP:  9.77D-01  1.05D+00  1.30D-01  7.02D-01  2.80D-01
                    CP:  3.30D-01  6.38D-01  5.22D-01  6.26D-01  5.69D-01
                    CP:  4.67D-01  7.47D-01  6.06D-01  5.54D-01  5.54D-01
                    CP:  5.54D-01  5.22D-01
 E= -3007.32490418207     Delta-E=       -0.000000012138 Rises=F Damp=F
 DIIS: error= 1.79D-06 at cycle  18 NSaved=  18.
 NSaved=18 IEnMin=18 EnMin= -3007.32490418207     IErMin=18 ErrMin= 1.79D-06
 ErrMax= 1.79D-06  0.00D+00 EMaxC= 1.00D-01 BMatC= 1.63D-09 BMatP= 1.36D-08
 IDIUse=1 WtCom= 1.00D+00 WtEn= 0.00D+00
 Coeff-Com: -0.608D-05-0.590D-05-0.131D-05-0.434D-05 0.745D-05 0.482D-04
 Coeff-Com: -0.166D-03-0.447D-03-0.238D-02-0.324D-02-0.240D-02-0.103D-02
 Coeff-Com:  0.620D-02 0.268D-01 0.705D-01 0.158D+00 0.329D+00 0.420D+00
 Coeff:     -0.608D-05-0.590D-05-0.131D-05-0.434D-05 0.745D-05 0.482D-04
 Coeff:     -0.166D-03-0.447D-03-0.238D-02-0.324D-02-0.240D-02-0.103D-02
 Coeff:      0.620D-02 0.268D-01 0.705D-01 0.158D+00 0.329D+00 0.420D+00
 Gap=     0.042 Goal=   None    Shift=    0.000
 RMSDP=5.03D-08 MaxDP=5.75D-06 DE=-1.21D-08 OVMax= 1.46D-05

 Cycle  19  Pass 1  IDiag  1:
 RMSU=  2.78D-08    CP:  9.77D-01  1.05D+00  1.30D-01  7.02D-01  2.80D-01
                    CP:  3.30D-01  6.38D-01  5.22D-01  6.26D-01  5.69D-01
                    CP:  4.67D-01  7.47D-01  6.07D-01  5.53D-01  5.58D-01
                    CP:  5.48D-01  5.65D-01  5.26D-01
 E= -3007.32490418307     Delta-E=       -0.000000000999 Rises=F Damp=F
 DIIS: error= 7.62D-07 at cycle  19 NSaved=  19.
 NSaved=19 IEnMin=19 EnMin= -3007.32490418307     IErMin=19 ErrMin= 7.62D-07
 ErrMax= 7.62D-07  0.00D+00 EMaxC= 1.00D-01 BMatC= 3.85D-10 BMatP= 1.63D-09
 IDIUse=1 WtCom= 1.00D+00 WtEn= 0.00D+00
 Coeff-Com: -0.479D-05 0.370D-05-0.114D-06-0.163D-05 0.118D-05 0.179D-04
 Coeff-Com: -0.452D-04-0.147D-03-0.960D-03-0.137D-02-0.951D-03-0.402D-03
 Coeff-Com:  0.261D-02 0.108D-01 0.281D-01 0.652D-01 0.166D+00 0.326D+00
 Coeff-Com:  0.405D+00
 Coeff:     -0.479D-05 0.370D-05-0.114D-06-0.163D-05 0.118D-05 0.179D-04
 Coeff:     -0.452D-04-0.147D-03-0.960D-03-0.137D-02-0.951D-03-0.402D-03
 Coeff:      0.261D-02 0.108D-01 0.281D-01 0.652D-01 0.166D+00 0.326D+00
 Coeff:      0.405D+00
 Gap=     0.042 Goal=   None    Shift=    0.000
 RMSDP=2.29D-08 MaxDP=3.23D-06 DE=-9.99D-10 OVMax= 7.97D-06

 Cycle  20  Pass 1  IDiag  1:
 RMSU=  9.41D-09    CP:  9.77D-01  1.05D+00  1.30D-01  7.02D-01  2.80D-01
                    CP:  3.30D-01  6.38D-01  5.22D-01  6.26D-01  5.69D-01
                    CP:  4.67D-01  7.47D-01  6.06D-01  5.53D-01  5.62D-01
                    CP:  5.48D-01  5.71D-01  5.70D-01  4.54D-01
 E= -3007.32490418357     Delta-E=       -0.000000000498 Rises=F Damp=F
 DIIS: error= 8.94D-08 at cycle  20 NSaved=  20.
 NSaved=20 IEnMin=20 EnMin= -3007.32490418357     IErMin=20 ErrMin= 8.94D-08
 ErrMax= 8.94D-08  0.00D+00 EMaxC= 1.00D-01 BMatC= 1.95D-11 BMatP= 3.85D-10
 IDIUse=1 WtCom= 1.00D+00 WtEn= 0.00D+00
 Coeff-Com: -0.181D-05 0.162D-05 0.589D-07-0.818D-07 0.825D-07 0.654D-05
 Coeff-Com: -0.147D-04-0.514D-04-0.380D-03-0.565D-03-0.376D-03-0.129D-03
 Coeff-Com:  0.105D-02 0.431D-02 0.109D-01 0.261D-01 0.723D-01 0.167D+00
 Coeff-Com:  0.257D+00 0.463D+00
 Coeff:     -0.181D-05 0.162D-05 0.589D-07-0.818D-07 0.825D-07 0.654D-05
 Coeff:     -0.147D-04-0.514D-04-0.380D-03-0.565D-03-0.376D-03-0.129D-03
 Coeff:      0.105D-02 0.431D-02 0.109D-01 0.261D-01 0.723D-01 0.167D+00
 Coeff:      0.257D+00 0.463D+00
 Gap=     0.042 Goal=   None    Shift=    0.000
 RMSDP=5.78D-09 MaxDP=8.15D-07 DE=-4.98D-10 OVMax= 1.68D-06

 SCF Done:  E(RB-LYP) =  -3007.32490418     A.U. after   20 cycles
            NFock= 20  Conv=0.58D-08     -V/T= 2.0100
 KE= 2.977631520088D+03 PE=-2.651406918845D+04 EE= 1.076969767207D+04
 Leave Link  502 at Wed May  4 08:47:11 2022, MaxMem= 10066329600 cpu:            5378.7 elap:             225.0
 (Enter /sw/apps/gaussian-16.0/g16/l801.exe)
 DoSCS=F DFT=T ScalE2(SS,OS)=  1.000000  1.000000
 ExpMin= 3.36D-02 ExpMax= 4.95D+03 ExpMxC= 7.45D+02 IAcc=3 IRadAn=         5 AccDes= 0.00D+00
 HarFok:  IExCor=  205 AccDes= 0.00D+00 IRadAn=         5 IDoV=-2 UseB2=F ITyADJ=14
 ICtDFT= 12500011 ScaDFX=  1.000000  1.000000  1.000000  1.000000
 GSVD:  LWork=       -5460 too small for GESVD, short by       25550 words or       25550 for optimal perf.
 Largest valence mixing into a core orbital is  9.02D-05
 Largest core mixing into a valence orbital is  4.61D-05
 Range of M.O.s used for correlation:    71  1298
 NBasis=  1298 NAE=   246 NBE=   246 NFC=    70 NFV=     0
 NROrb=   1228 NOA=   176 NOB=   176 NVA=  1052 NVB=  1052

 **** Warning!!: The smallest alpha delta epsilon is  0.41682466D-01

 Leave Link  801 at Wed May  4 08:47:12 2022, MaxMem= 10066329600 cpu:               6.5 elap:               0.3
 (Enter /sw/apps/gaussian-16.0/g16/l914.exe)
 RHF ground state
 Two-electron integrals replicated using symmetry.
 MDV= 10066329600 DFT=T DoStab=F Mixed=F DoRPA=T DoScal=T NonHer=F
 Making orbital integer symmetry assigments:
 Orbital symmetries:
       Occupied  (A) (A) (A) (A) (A) (A) (A) (A) (A) (A) (A) (A)
                 (A) (A) (A) (A) (A) (A) (A) (A) (A) (A) (A) (A)
                 (A) (A) (A) (A) (A) (A) (A) (A) (A) (A) (A) (A)
                 (A) (A) (A) (A) (A) (A) (A) (A) (A) (A) (A) (A)
                 (A) (A) (A) (A) (A) (A) (A) (A) (A) (A) (A) (A)
                 (A) (A) (A) (A) (A) (A) (A) (A) (A) (A) (A) (A)
                 (A) (A) (A) (A) (A) (A) (A) (A) (A) (A) (A) (A)
                 (A) (A) (A) (A) (A) (A) (A) (A) (A) (A) (A) (A)
                 (A) (A) (A) (A) (A) (A) (A) (A) (A) (A) (A) (A)
                 (A) (A) (A) (A) (A) (A) (A) (A) (A) (A) (A) (A)
                 (A) (A) (A) (A) (A) (A) (A) (A) (A) (A) (A) (A)
                 (A) (A) (A) (A) (A) (A) (A) (A) (A) (A) (A) (A)
                 (A) (A) (A) (A) (A) (A) (A) (A) (A) (A) (A) (A)
                 (A) (A) (A) (A) (A) (A) (A) (A) (A) (A) (A) (A)
                 (A) (A) (A) (A) (A) (A) (A) (A) (A) (A) (A) (A)
                 (A) (A) (A) (A) (A) (A) (A) (A) (A) (A) (A) (A)
                 (A) (A) (A) (A) (A) (A) (A) (A) (A) (A) (A) (A)
                 (A) (A) (A) (A) (A) (A) (A) (A) (A) (A) (A) (A)
                 (A) (A) (A) (A) (A) (A) (A) (A) (A) (A) (A) (A)
                 (A) (A) (A) (A) (A) (A) (A) (A) (A) (A) (A) (A)
                 (A) (A) (A) (A) (A) (A)
       Virtual   (A) (A) (A) (A) (A) (A) (A) (A) (A) (A) (A) (A)
                 (A) (A) (A) (A) (A) (A) (A) (A) (A) (A) (A) (A)
                 (A) (A) (A) (A) (A) (A) (A) (A) (A) (A) (A) (A)
                 (A) (A) (A) (A) (A) (A) (A) (A) (A) (A) (A) (A)
                 (A) (A) (A) (A) (A) (A) (A) (A) (A) (A) (A) (A)
                 (A) (A) (A) (A) (A) (A) (A) (A) (A) (A) (A) (A)
                 (A) (A) (A) (A) (A) (A) (A) (A) (A) (A) (A) (A)
                 (A) (A) (A) (A) (A) (A) (A) (A) (A) (A) (A) (A)
                 (A) (A) (A) (A) (A) (A) (A) (A) (A) (A) (A) (A)
                 (A) (A) (A) (A) (A) (A) (A) (A) (A) (A) (A) (A)
                 (A) (A) (A) (A) (A) (A) (A) (A) (A) (A) (A) (A)
                 (A) (A) (A) (A) (A) (A) (A) (A) (A) (A) (A) (A)
                 (A) (A) (A) (A) (A) (A) (A) (A) (A) (A) (A) (A)
                 (A) (A) (A) (A) (A) (A) (A) (A) (A) (A) (A) (A)
                 (A) (A) (A) (A) (A) (A) (A) (A) (A) (A) (A) (A)
                 (A) (A) (A) (A) (A) (A) (A) (A) (A) (A) (A) (A)
                 (A) (A) (A) (A) (A) (A) (A) (A) (A) (A) (A) (A)
                 (A) (A) (A) (A) (A) (A) (A) (A) (A) (A) (A) (A)
                 (A) (A) (A) (A) (A) (A) (A) (A) (A) (A) (A) (A)
                 (A) (A) (A) (A) (A) (A) (A) (A) (A) (A) (A) (A)
                 (A) (A) (A) (A) (A) (A) (A) (A) (A) (A) (A) (A)
                 (A) (A) (A) (A) (A) (A) (A) (A) (A) (A) (A) (A)
                 (A) (A) (A) (A) (A) (A) (A) (A) (A) (A) (A) (A)
                 (A) (A) (A) (A) (A) (A) (A) (A) (A) (A) (A) (A)
                 (A) (A) (A) (A) (A) (A) (A) (A) (A) (A) (A) (A)
                 (A) (A) (A) (A) (A) (A) (A) (A) (A) (A) (A) (A)
                 (A) (A) (A) (A) (A) (A) (A) (A) (A) (A) (A) (A)
                 (A) (A) (A) (A) (A) (A) (A) (A) (A) (A) (A) (A)
                 (A) (A) (A) (A) (A) (A) (A) (A) (A) (A) (A) (A)
                 (A) (A) (A) (A) (A) (A) (A) (A) (A) (A) (A) (A)
                 (A) (A) (A) (A) (A) (A) (A) (A) (A) (A) (A) (A)
                 (A) (A) (A) (A) (A) (A) (A) (A) (A) (A) (A) (A)
                 (A) (A) (A) (A) (A) (A) (A) (A) (A) (A) (A) (A)
                 (A) (A) (A) (A) (A) (A) (A) (A) (A) (A) (A) (A)
                 (A) (A) (A) (A) (A) (A) (A) (A) (A) (A) (A) (A)
                 (A) (A) (A) (A) (A) (A) (A) (A) (A) (A) (A) (A)
                 (A) (A) (A) (A) (A) (A) (A) (A) (A) (A) (A) (A)
                 (A) (A) (A) (A) (A) (A) (A) (A) (A) (A) (A) (A)
                 (A) (A) (A) (A) (A) (A) (A) (A) (A) (A) (A) (A)
                 (A) (A) (A) (A) (A) (A) (A) (A) (A) (A) (A) (A)
                 (A) (A) (A) (A) (A) (A) (A) (A) (A) (A) (A) (A)
                 (A) (A) (A) (A) (A) (A) (A) (A) (A) (A) (A) (A)
                 (A) (A) (A) (A) (A) (A) (A) (A) (A) (A) (A) (A)
                 (A) (A) (A) (A) (A) (A) (A) (A) (A) (A) (A) (A)
                 (A) (A) (A) (A) (A) (A) (A) (A) (A) (A) (A) (A)
                 (A) (A) (A) (A) (A) (A) (A) (A) (A) (A) (A) (A)
                 (A) (A) (A) (A) (A) (A) (A) (A) (A) (A) (A) (A)
                 (A) (A) (A) (A) (A) (A) (A) (A) (A) (A) (A) (A)
                 (A) (A) (A) (A) (A) (A) (A) (A) (A) (A) (A) (A)
                 (A) (A) (A) (A) (A) (A) (A) (A) (A) (A) (A) (A)
                 (A) (A) (A) (A) (A) (A) (A) (A) (A) (A) (A) (A)
                 (A) (A) (A) (A) (A) (A) (A) (A) (A) (A) (A) (A)
                 (A) (A) (A) (A) (A) (A) (A) (A) (A) (A) (A) (A)
                 (A) (A) (A) (A) (A) (A) (A) (A) (A) (A) (A) (A)
                 (A) (A) (A) (A) (A) (A) (A) (A) (A) (A) (A) (A)
                 (A) (A) (A) (A) (A) (A) (A) (A) (A) (A) (A) (A)
                 (A) (A) (A) (A) (A) (A) (A) (A) (A) (A) (A) (A)
                 (A) (A) (A) (A) (A) (A) (A) (A) (A) (A) (A) (A)
                 (A) (A) (A) (A) (A) (A) (A) (A) (A) (A) (A) (A)
                 (A) (A) (A) (A) (A) (A) (A) (A) (A) (A) (A) (A)
                 (A) (A) (A) (A) (A) (A) (A) (A) (A) (A) (A) (A)
                 (A) (A) (A) (A) (A) (A) (A) (A) (A) (A) (A) (A)
                 (A) (A) (A) (A) (A) (A) (A) (A) (A) (A) (A) (A)
                 (A) (A) (A) (A) (A) (A) (A) (A) (A) (A) (A) (A)
                 (A) (A) (A) (A) (A) (A) (A) (A) (A) (A) (A) (A)
                 (A) (A) (A) (A) (A) (A) (A) (A) (A) (A) (A) (A)
                 (A) (A) (A) (A) (A) (A) (A) (A) (A) (A) (A) (A)
                 (A) (A) (A) (A) (A) (A) (A) (A) (A) (A) (A) (A)
                 (A) (A) (A) (A) (A) (A) (A) (A) (A) (A) (A) (A)
                 (A) (A) (A) (A) (A) (A) (A) (A) (A) (A) (A) (A)
                 (A) (A) (A) (A) (A) (A) (A) (A) (A) (A) (A) (A)
                 (A) (A) (A) (A) (A) (A) (A) (A) (A) (A) (A) (A)
                 (A) (A) (A) (A) (A) (A) (A) (A) (A) (A) (A) (A)
                 (A) (A) (A) (A) (A) (A) (A) (A) (A) (A) (A) (A)
                 (A) (A) (A) (A) (A) (A) (A) (A) (A) (A) (A) (A)
                 (A) (A) (A) (A) (A) (A) (A) (A) (A) (A) (A) (A)
                 (A) (A) (A) (A) (A) (A) (A) (A) (A) (A) (A) (A)
                 (A) (A) (A) (A) (A) (A) (A) (A) (A) (A) (A) (A)
                 (A) (A) (A) (A) (A) (A) (A) (A) (A) (A) (A) (A)
                 (A) (A) (A) (A) (A) (A) (A) (A) (A) (A) (A) (A)
                 (A) (A) (A) (A) (A) (A) (A) (A) (A) (A) (A) (A)
                 (A) (A) (A) (A) (A) (A) (A) (A) (A) (A) (A) (A)
                 (A) (A) (A) (A) (A) (A) (A) (A) (A) (A) (A) (A)
                 (A) (A) (A) (A) (A) (A) (A) (A) (A) (A) (A) (A)
                 (A) (A) (A) (A) (A) (A) (A) (A) (A) (A) (A) (A)
                 (A) (A) (A) (A) (A) (A) (A) (A) (A) (A) (A) (A)
                 (A) (A) (A) (A) (A) (A) (A) (A) (A) (A) (A) (A)
                 (A) (A) (A) (A) (A) (A) (A) (A)
    20 initial guesses have been made.
 Convergence on wavefunction:    0.001000000000000
 Davidson Disk Diagonalization:  ConvIn= 1.00D-03 SkipCon=T Conv= 1.00D-03.
 Max sub-space:  2000 roots to seek:    20 dimension of matrix:       370304
 Iteration     1 Dimension    20 NMult     0 NNew     20
 CISAX will form    20 AO SS matrices at one time.
 NMat=    20 NSing=    20 JSym2X= 0.
 FoFJK:  IHMeth= 1 ICntrl=     500 DoSepK=F KAlg= 0 I1Cent=           0 FoldK=F
 IRaf= 540000000 NMat=      20 IRICut=       1 DoRegI=T DoRafI=F ISym2E= 0 IDoP0=0 IntGTp=1.
 FoFCou: FMM=T IPFlag=           0 FMFlag=      100000 FMFlg1=        2001
         NFxFlg=           0 DoJE=F BraDBF=F KetDBF=F FulRan=T
         wScrn=  0.000000 ICntrl=       500 IOpCl=  0 I1Cent=           0 NGrid=           0
         NMat0=   20 NMatS0=     20 NMatT0=    0 NMatD0=   20 NMtDS0=    0 NMtDT0=    0
 Symmetry not used in FoFCou.
 FMM levels:  10  Number of levels for PrismC:   9
 New state      1 was old state      3
 New state      2 was old state      4
 New state      3 was old state      5
 New state      4 was old state      1
 New state      5 was old state      2
 Excitation Energies [eV] at current iteration:
 Root      1 :     1.711786537575042
 Root      2 :     1.798918246737850
 Root      3 :     1.948019581327616
 Root      4 :     2.123810236332516
 Root      5 :     2.240356340428443
 Root      6 :     2.514866445535965
 Root      7 :     2.720838369997671
 Root      8 :     2.746179932721625
 Root      9 :     2.777679483584594
 Root     10 :     3.018114740097983
 Root     11 :     3.043929093348877
 Root     12 :     3.079371405361523
 Root     13 :     3.108146738988987
 Root     14 :     3.289694255972806
 Root     15 :     3.322309570476769
 Root     16 :     3.510237448001106
 Root     17 :     3.867870087862685
 Root     18 :     3.980913277938830
 Root     19 :     4.356277355434350
 Root     20 :     4.424104101177022
 Iteration     2 Dimension    40 NMult    20 NNew     20
 CISAX will form    20 AO SS matrices at one time.
 NMat=    20 NSing=    20 JSym2X= 0.
 Root      1 not converged, maximum delta is    0.062087124375328
 Root      2 not converged, maximum delta is    0.070697930971465
 New state      3 was old state      4
 Root      3 not converged, maximum delta is    0.095698891626443
 New state      4 was old state      3
 Root      4 not converged, maximum delta is    0.056247320322463
 Root      5 not converged, maximum delta is    0.099686844512480
 Excitation Energies [eV] at current iteration:
 Root      1 :     1.694521498397074   Change is   -0.017265039177968
 Root      2 :     1.784057506099112   Change is   -0.014860740638738
 Root      3 :     1.863501855364027   Change is   -0.260308380968489
 Root      4 :     1.948209795549658   Change is    0.000190214222042
 Root      5 :     2.036240166679285   Change is   -0.204116173749158
 Root      6 :     2.263001215801477   Change is   -0.251865229734488
 Root      7 :     2.425470556723765   Change is   -0.295367813273906
 Root      8 :     2.707515306092673   Change is   -0.038664626628952
 Root      9 :     2.770566078782398   Change is   -0.007113404802197
 Root     10 :     2.921961937924544   Change is   -0.096152802173439
 Root     11 :     3.008425798888898   Change is   -0.070945606472625
 Root     12 :     3.043929022444619   Change is   -0.000000070904257
 Root     13 :     3.078941758282724   Change is   -0.029204980706263
 Root     14 :     3.123769096705832   Change is   -0.165925159266974
 Root     15 :     3.252260376875558   Change is   -0.070049193601211
 Root     16 :     3.365517799215171   Change is   -0.144719648785935
 Root     17 :     3.465358778867698   Change is   -0.402511308994987
 Root     18 :     3.749028470782953   Change is   -0.231884807155877
 Root     19 :     3.870038781843300   Change is   -0.486238573591050
 Root     20 :     3.917521122556435   Change is   -0.506582978620588
 Iteration     3 Dimension    45 NMult    40 NNew      5
 CISAX will form     5 AO SS matrices at one time.
 NMat=     5 NSing=     5 JSym2X= 0.
 Root      1 not converged, maximum delta is    0.029271670298515
 Root      2 not converged, maximum delta is    0.052833316204771
 Root      3 not converged, maximum delta is    0.043253658910406
 Root      4 not converged, maximum delta is    0.013263163402514
 Root      5 not converged, maximum delta is    0.031755004850913
 Excitation Energies [eV] at current iteration:
 Root      1 :     1.690333901571930   Change is   -0.004187596825144
 Root      2 :     1.778414949601895   Change is   -0.005642556497217
 Root      3 :     1.821730774770275   Change is   -0.041771080593752
 Root      4 :     1.947990850559011   Change is   -0.000218944990647
 Root      5 :     2.003753332806721   Change is   -0.032486833872564
 Iteration     4 Dimension    50 NMult    45 NNew      5
 CISAX will form     5 AO SS matrices at one time.
 NMat=     5 NSing=     5 JSym2X= 0.
 Root      1 not converged, maximum delta is    0.017026492260797
 Root      2 not converged, maximum delta is    0.045092218667052
 Root      3 not converged, maximum delta is    0.036874427623230
 Root      4 not converged, maximum delta is    0.011621761970865
 Root      5 not converged, maximum delta is    0.017431917866056
 Excitation Energies [eV] at current iteration:
 Root      1 :     1.688267781374400   Change is   -0.002066120197530
 Root      2 :     1.775274037712939   Change is   -0.003140911888956
 Root      3 :     1.806407404268589   Change is   -0.015323370501686
 Root      4 :     1.947872976813023   Change is   -0.000117873745988
 Root      5 :     1.989976555595020   Change is   -0.013776777211701
 Iteration     5 Dimension    55 NMult    50 NNew      5
 CISAX will form     5 AO SS matrices at one time.
 NMat=     5 NSing=     5 JSym2X= 0.
 Root      1 not converged, maximum delta is    0.005864896952540
 Root      2 not converged, maximum delta is    0.023049573430618
 Root      3 not converged, maximum delta is    0.020258140642851
 Root      4 not converged, maximum delta is    0.005922730707037
 Root      5 not converged, maximum delta is    0.008654135325522
 Excitation Energies [eV] at current iteration:
 Root      1 :     1.687475649246674   Change is   -0.000792132127725
 Root      2 :     1.773850680740691   Change is   -0.001423356972247
 Root      3 :     1.801557916587590   Change is   -0.004849487680999
 Root      4 :     1.947817224384192   Change is   -0.000055752428831
 Root      5 :     1.985137962154245   Change is   -0.004838593440774
 Iteration     6 Dimension    60 NMult    55 NNew      5
 CISAX will form     5 AO SS matrices at one time.
 NMat=     5 NSing=     5 JSym2X= 0.
 Root      1 not converged, maximum delta is    0.002807132935985
 Root      2 not converged, maximum delta is    0.012411002347149
 Root      3 not converged, maximum delta is    0.011145409482468
 Root      4 not converged, maximum delta is    0.003095241112474
 Root      5 not converged, maximum delta is    0.004829602145580
 Excitation Energies [eV] at current iteration:
 Root      1 :     1.687051762293759   Change is   -0.000423886952916
 Root      2 :     1.773083530067229   Change is   -0.000767150673462
 Root      3 :     1.799422134382905   Change is   -0.002135782204685
 Root      4 :     1.947788128604097   Change is   -0.000029095780096
 Root      5 :     1.982930018320837   Change is   -0.002207943833408
 Iteration     7 Dimension    65 NMult    60 NNew      5
 CISAX will form     5 AO SS matrices at one time.
 NMat=     5 NSing=     5 JSym2X= 0.
 Root      1 not converged, maximum delta is    0.001097000610451
 Root      2 not converged, maximum delta is    0.005913604242701
 Root      3 not converged, maximum delta is    0.005473184124473
 Root      4 not converged, maximum delta is    0.001418999942551
 Root      5 not converged, maximum delta is    0.003868297544531
 Excitation Energies [eV] at current iteration:
 Root      1 :     1.686869893863663   Change is   -0.000181868430096
 Root      2 :     1.772717656470136   Change is   -0.000365873597093
 Root      3 :     1.798572536647289   Change is   -0.000849597735616
 Root      4 :     1.947774917867561   Change is   -0.000013210736535
 Root      5 :     1.981956441907195   Change is   -0.000973576413642
 Iteration     8 Dimension    70 NMult    65 NNew      5
 CISAX will form     5 AO SS matrices at one time.
 NMat=     5 NSing=     5 JSym2X= 0.
 Root      1 has converged.
 Root      2 not converged, maximum delta is    0.002740903282883
 Root      3 not converged, maximum delta is    0.002531197685568
 Root      4 has converged.
 Root      5 not converged, maximum delta is    0.002847447326022
 Excitation Energies [eV] at current iteration:
 Root      1 :     1.686791318712740   Change is   -0.000078575150922
 Root      2 :     1.772556007229245   Change is   -0.000161649240892
 Root      3 :     1.798218546616761   Change is   -0.000353990030528
 Root      4 :     1.947768632992617   Change is   -0.000006284874944
 Root      5 :     1.981506785445712   Change is   -0.000449656461483
 Iteration     9 Dimension    73 NMult    70 NNew      3
 CISAX will form     3 AO SS matrices at one time.
 NMat=     3 NSing=     3 JSym2X= 0.
 Root      1 has converged.
 Root      2 not converged, maximum delta is    0.001300370026489
 Root      3 not converged, maximum delta is    0.001218506690868
 Root      4 has converged.
 Root      5 not converged, maximum delta is    0.001953272735014
 Excitation Energies [eV] at current iteration:
 Root      1 :     1.686777605246736   Change is   -0.000013713466004
 Root      2 :     1.772479868545386   Change is   -0.000076138683859
 Root      3 :     1.798063571668911   Change is   -0.000154974947850
 Root      4 :     1.947766180391297   Change is   -0.000002452601320
 Root      5 :     1.981297985615465   Change is   -0.000208799830247
 Iteration    10 Dimension    76 NMult    73 NNew      3
 CISAX will form     3 AO SS matrices at one time.
 NMat=     3 NSing=     3 JSym2X= 0.
 Root      1 has converged.
 Root      2 has converged.
 Root      3 has converged.
 Root      4 has converged.
 Root      5 not converged, maximum delta is    0.001071137631957
 Excitation Energies [eV] at current iteration:
 Root      1 :     1.686772752606761   Change is   -0.000004852639976
 Root      2 :     1.772447146055808   Change is   -0.000032722489578
 Root      3 :     1.797997521172143   Change is   -0.000066050496769
[...]
 Alpha virt. eigenvalues --    1.10107   1.10704   1.10999   1.11442   1.12132
 Alpha virt. eigenvalues --    1.12767   1.13325   1.13473   1.13598   1.14073
 Alpha virt. eigenvalues --    1.14303   1.15259   1.15644   1.16089   1.16610
 Alpha virt. eigenvalues --    1.17059   1.17333   1.17559   1.17982   1.19693
 Alpha virt. eigenvalues --    1.20342   1.20868   1.21215   1.21575   1.22169
 Alpha virt. eigenvalues --    1.22457   1.23461   1.23596   1.24121   1.24789
 Alpha virt. eigenvalues --    1.24809   1.24954   1.25210   1.25521   1.25759
 Alpha virt. eigenvalues --    1.26420   1.26771   1.27440   1.27863   1.28343
 Alpha virt. eigenvalues --    1.28617   1.29083   1.29159   1.29742   1.30477
 Alpha virt. eigenvalues --    1.30761   1.30983   1.31531   1.31781   1.32631
 Alpha virt. eigenvalues --    1.32935   1.32999   1.33273   1.33852   1.34416
 Alpha virt. eigenvalues --    1.34625   1.34715   1.35129   1.35625   1.35893
 Alpha virt. eigenvalues --    1.36226   1.36278   1.37171   1.37302   1.37768
 Alpha virt. eigenvalues --    1.38148   1.38557   1.38810   1.39173   1.39607
 Alpha virt. eigenvalues --    1.40430   1.41299   1.41785   1.41853   1.42641
 Alpha virt. eigenvalues --    1.43013   1.43302   1.43538   1.43854   1.44002
 Alpha virt. eigenvalues --    1.44410   1.44894   1.45220   1.45715   1.46107
 Alpha virt. eigenvalues --    1.46471   1.46742   1.47091   1.47199   1.47276
 Alpha virt. eigenvalues --    1.47439   1.47857   1.48299   1.48350   1.48613
 Alpha virt. eigenvalues --    1.48715   1.49073   1.49241   1.49640   1.49847
 Alpha virt. eigenvalues --    1.50006   1.50153   1.50842   1.50991   1.51202
 Alpha virt. eigenvalues --    1.51424   1.51739   1.52132   1.52622   1.52901
 Alpha virt. eigenvalues --    1.53117   1.53561   1.53609   1.54157   1.54299
 Alpha virt. eigenvalues --    1.54772   1.55327   1.55442   1.55685   1.56385
 Alpha virt. eigenvalues --    1.56482   1.56977   1.57721   1.57890   1.58144
 Alpha virt. eigenvalues --    1.58934   1.59393   1.60137   1.60304   1.60380
 Alpha virt. eigenvalues --    1.61248   1.61450   1.62045   1.62220   1.62328
 Alpha virt. eigenvalues --    1.62752   1.63029   1.63583   1.63830   1.64028
 Alpha virt. eigenvalues --    1.64111   1.64333   1.64440   1.64915   1.65410
 Alpha virt. eigenvalues --    1.65852   1.66077   1.66270   1.66459   1.66771
 Alpha virt. eigenvalues --    1.66887   1.67050   1.67382   1.67577   1.68160
 Alpha virt. eigenvalues --    1.68243   1.68478   1.68707   1.68937   1.69087
 Alpha virt. eigenvalues --    1.69217   1.69225   1.69279   1.69606   1.69830
 Alpha virt. eigenvalues --    1.70100   1.70317   1.70415   1.70504   1.70842
 Alpha virt. eigenvalues --    1.71089   1.71340   1.71371   1.71432   1.71577
 Alpha virt. eigenvalues --    1.71932   1.72049   1.72233   1.72307   1.72597
 Alpha virt. eigenvalues --    1.72839   1.72959   1.73035   1.73248   1.73686
 Alpha virt. eigenvalues --    1.73971   1.74070   1.74174   1.74687   1.75001
 Alpha virt. eigenvalues --    1.75449   1.75517   1.75670   1.75715   1.75996
 Alpha virt. eigenvalues --    1.76008   1.76248   1.76321   1.76754   1.77033
 Alpha virt. eigenvalues --    1.77379   1.77541   1.77697   1.77839   1.78051
 Alpha virt. eigenvalues --    1.78359   1.78681   1.78903   1.79071   1.79433
 Alpha virt. eigenvalues --    1.79598   1.79855   1.80020   1.80185   1.80243
 Alpha virt. eigenvalues --    1.80849   1.81090   1.81455   1.81593   1.81624
 Alpha virt. eigenvalues --    1.81812   1.82340   1.82409   1.82700   1.82755
 Alpha virt. eigenvalues --    1.82894   1.83234   1.83422   1.83731   1.83799
 Alpha virt. eigenvalues --    1.83979   1.84393   1.84791   1.85038   1.85191
 Alpha virt. eigenvalues --    1.85296   1.85701   1.85791   1.85991   1.86154
 Alpha virt. eigenvalues --    1.86358   1.86832   1.87046   1.87548   1.88331
 Alpha virt. eigenvalues --    1.88423   1.88855   1.88985   1.89444   1.89617
 Alpha virt. eigenvalues --    1.89986   1.90165   1.90427   1.90802   1.91038
 Alpha virt. eigenvalues --    1.91294   1.91449   1.92084   1.92124   1.92682
 Alpha virt. eigenvalues --    1.92906   1.93192   1.93539   1.93821   1.94070
 Alpha virt. eigenvalues --    1.94215   1.94758   1.94854   1.94948   1.96074
 Alpha virt. eigenvalues --    1.96095   1.96632   1.96970   1.97379   1.97534
 Alpha virt. eigenvalues --    1.97750   1.98339   1.98481   1.98724   1.98933
 Alpha virt. eigenvalues --    1.99070   1.99390   1.99654   2.00041   2.00455
 Alpha virt. eigenvalues --    2.00655   2.00909   2.01082   2.01575   2.01662
 Alpha virt. eigenvalues --    2.01852   2.02170   2.02493   2.02749   2.02869
 Alpha virt. eigenvalues --    2.03231   2.03442   2.03862   2.04002   2.04256
 Alpha virt. eigenvalues --    2.04735   2.05035   2.05288   2.05373   2.05480
 Alpha virt. eigenvalues --    2.05980   2.06236   2.06416   2.06921   2.07105
 Alpha virt. eigenvalues --    2.07381   2.08048   2.08287   2.08557   2.09045
 Alpha virt. eigenvalues --    2.09413   2.10037   2.10151   2.10375   2.10913
 Alpha virt. eigenvalues --    2.11109   2.11250   2.11453   2.11915   2.12513
 Alpha virt. eigenvalues --    2.12951   2.13610   2.14126   2.14204   2.14795
 Alpha virt. eigenvalues --    2.15292   2.15760   2.16122   2.16598   2.16984
 Alpha virt. eigenvalues --    2.17223   2.18177   2.18355   2.18852   2.19336
 Alpha virt. eigenvalues --    2.19766   2.20229   2.20493   2.20600   2.21018
 Alpha virt. eigenvalues --    2.21733   2.21834   2.22040   2.22582   2.23035
 Alpha virt. eigenvalues --    2.23294   2.23746   2.23975   2.24108   2.24434
 Alpha virt. eigenvalues --    2.25193   2.25326   2.25584   2.25739   2.26324
 Alpha virt. eigenvalues --    2.26427   2.26792   2.27160   2.27447   2.27625
 Alpha virt. eigenvalues --    2.27922   2.28637   2.28785   2.29318   2.29599
 Alpha virt. eigenvalues --    2.29852   2.30183   2.30251   2.30902   2.31308
 Alpha virt. eigenvalues --    2.31758   2.32360   2.32585   2.33158   2.33668
 Alpha virt. eigenvalues --    2.33801   2.33897   2.34195   2.35067   2.35430
 Alpha virt. eigenvalues --    2.36152   2.36386   2.36551   2.37032   2.37300
 Alpha virt. eigenvalues --    2.37344   2.37760   2.38474   2.38672   2.38998
 Alpha virt. eigenvalues --    2.39527   2.39911   2.40686   2.41148   2.41488
 Alpha virt. eigenvalues --    2.41705   2.41924   2.42475   2.42740   2.43949
 Alpha virt. eigenvalues --    2.44149   2.44269   2.44615   2.44950   2.45709
 Alpha virt. eigenvalues --    2.45860   2.46613   2.47204   2.47376   2.47666
 Alpha virt. eigenvalues --    2.47724   2.47853   2.48120   2.48557   2.48995
 Alpha virt. eigenvalues --    2.49080   2.49568   2.49654   2.50512   2.50592
 Alpha virt. eigenvalues --    2.51241   2.52153   2.52449   2.52748   2.52781
 Alpha virt. eigenvalues --    2.53192   2.53422   2.54427   2.54867   2.55286
 Alpha virt. eigenvalues --    2.55591   2.56274   2.56327   2.56700   2.56948
 Alpha virt. eigenvalues --    2.57132   2.57672   2.58081   2.58696   2.59371
 Alpha virt. eigenvalues --    2.59626   2.59864   2.60100   2.60526   2.60826
 Alpha virt. eigenvalues --    2.61246   2.62086   2.62458   2.62701   2.62828
 Alpha virt. eigenvalues --    2.63108   2.63334   2.64172   2.64364   2.65366
 Alpha virt. eigenvalues --    2.65625   2.66076   2.66121   2.66549   2.66653
 Alpha virt. eigenvalues --    2.67204   2.67556   2.67844   2.68412   2.68817
 Alpha virt. eigenvalues --    2.69140   2.70414   2.70549   2.70894   2.71126
 Alpha virt. eigenvalues --    2.71316   2.72265   2.72675   2.72828   2.73020
 Alpha virt. eigenvalues --    2.73582   2.75496   2.76092   2.76307   2.76791
 Alpha virt. eigenvalues --    2.77701   2.78396   2.78651   2.78822   2.79343
 Alpha virt. eigenvalues --    2.79660   2.79914   2.80097   2.80300   2.80538
 Alpha virt. eigenvalues --    2.81295   2.81964   2.82189   2.82728   2.82917
 Alpha virt. eigenvalues --    2.83237   2.83447   2.83791   2.84090   2.84375
 Alpha virt. eigenvalues --    2.84648   2.84780   2.84973   2.85415   2.85653
 Alpha virt. eigenvalues --    2.85697   2.86194   2.86670   2.86738   2.86791
 Alpha virt. eigenvalues --    2.87064   2.87104   2.87408   2.87458   2.87941
 Alpha virt. eigenvalues --    2.88242   2.88586   2.89052   2.89282   2.89567
 Alpha virt. eigenvalues --    2.89877   2.90380   2.90507   2.90735   2.90897
 Alpha virt. eigenvalues --    2.91354   2.91554   2.91817   2.92319   2.92506
 Alpha virt. eigenvalues --    2.92958   2.93169   2.93435   2.93595   2.94440
 Alpha virt. eigenvalues --    2.95222   2.95258   2.95640   2.95722   2.96272
 Alpha virt. eigenvalues --    2.96669   2.97123   2.97738   2.98567   2.98838
 Alpha virt. eigenvalues --    2.99028   2.99318   2.99920   3.00691   3.00792
 Alpha virt. eigenvalues --    3.01493   3.01847   3.02588   3.04434   3.04940
 Alpha virt. eigenvalues --    3.05329   3.07750   3.07978   3.08694   3.09542
 Alpha virt. eigenvalues --    3.09684   3.11052   3.11500   3.12184   3.12309
 Alpha virt. eigenvalues --    3.13984   3.20062   3.24703   3.28450   3.29399
 Alpha virt. eigenvalues --    3.30586   3.35487   3.36457   3.38769   3.43615
 Alpha virt. eigenvalues --    3.45721   3.49181   3.49404   3.54176   3.56983
 Alpha virt. eigenvalues --    3.57469   3.58002
          Condensed to atoms (all electrons):
 Mulliken charges:
               1
     1  Mg   0.673751
     2  C    0.065929
     3  C   -0.054671
     4  C   -0.016082
     5  C   -0.072347
     6  N   -0.261259
     7  C   -0.071320
     8  C    0.066356
     9  C   -0.030543
    10  C    0.085152
    11  C    0.141292
    12  C    0.077083
    13  C    0.112474
    14  C    0.077441
    15  O   -0.197592
    16  O   -0.276750
    17  N   -0.259160
    18  C    0.086056
    19  C   -0.135739
    20  C    0.006559
    21  C    0.138817
    22  C    0.157857
    23  C   -0.100200
    24  O   -0.150702
    25  C    0.175673
    26  N   -0.224999
    27  C   -0.089449
    28  C    0.080493
    29  C    0.013810
    30  C    0.076633
    31  C    0.140409
    32  C    0.052146
    33  C    0.055602
    34  N   -0.248968
    35  C    0.091926
    36  C   -0.180292
    37  C    0.120642
    38  C    0.019918
    39  C    0.196442
    40  C   -0.098022
    41  O   -0.130045
    42  C    0.035576
    43  C    0.116591
    44  O   -0.168561
    45  O   -0.295975
    46  C    0.202979
    47  C    0.303385
    48  C   -0.101469
    49  C   -0.173532
    50  C    0.159238
    51  C    0.128398
    52  C    0.038766
    53  C    0.107121
    54  C   -0.076771
    55  C    0.108212
    56  C    0.067537
    57  C    0.092002
    58  C    0.078305
    59  C   -0.089611
    60  C    0.137506
    61  C    0.118497
    62  C    0.011169
    63  C    0.124134
    64  C   -0.079989
    65  C    0.103948
    66  C    0.090075
    67  H   -0.044988
    68  H   -0.107113
    69  H   -0.067118
    70  H   -0.017170
    71  H   -0.015625
    72  H   -0.005284
    73  H    0.002718
    74  H   -0.010339
    75  H   -0.001956
    76  H   -0.010818
    77  H    0.003883
    78  H    0.013477
    79  H    0.000589
    80  H   -0.003781
    81  H    0.002561
    82  H   -0.009990
    83  H    0.027697
    84  H    0.001855
    85  H   -0.031978
    86  H   -0.038814
    87  H   -0.005108
    88  H    0.002332
    89  H    0.003467
    90  H   -0.011966
    91  H   -0.022487
    92  H   -0.005965
    93  H   -0.011806
    94  H    0.001903
    95  H    0.015158
    96  H   -0.016708
    97  H    0.017711
    98  H    0.001177
    99  H    0.020981
   100  H    0.029392
   101  H    0.022216
   102  H    0.008898
   103  H    0.001668
   104  H   -0.026467
   105  H    0.010912
   106  H    0.011787
   107  H   -0.013688
   108  H   -0.003838
   109  H   -0.002590
   110  H   -0.029652
   111  H   -0.040800
   112  H   -0.035353
   113  H   -0.033347
   114  H   -0.049520
   115  H   -0.015539
   116  H   -0.014818
   117  H   -0.019833
   118  H   -0.028205
   119  H   -0.046101
   120  H   -0.031172
   121  H   -0.035185
   122  H   -0.035763
   123  H   -0.038178
   124  H   -0.031332
   125  H   -0.008904
   126  H   -0.026607
   127  H   -0.041566
   128  H   -0.030403
   129  H   -0.020846
   130  H   -0.021214
   131  H   -0.020852
   132  H   -0.042767
   133  H   -0.020909
   134  H   -0.030756
   135  H   -0.012992
   136  H   -0.014630
   137  H   -0.012093
   138  H   -0.015804
   139  H   -0.024096
   140  H   -0.037397
 Sum of Mulliken charges =  -0.00000
 Mulliken charges with hydrogens summed into heavy atoms:
               1
     1  Mg   0.673751
     2  C    0.065929
     3  C   -0.099659
     4  C   -0.123195
     5  C   -0.139466
     6  N   -0.261259
     7  C   -0.071320
     8  C    0.049186
     9  C   -0.046168
    10  C    0.085152
    11  C    0.128386
    12  C    0.064309
    13  C    0.129834
    14  C    0.077441
    15  O   -0.197592
    16  O   -0.276750
    17  N   -0.259160
    18  C    0.086056
    19  C   -0.135739
    20  C    0.006559
    21  C    0.138817
    22  C    0.157225
    23  C   -0.100200
    24  O   -0.150702
    25  C    0.195234
    26  N   -0.224999
    27  C   -0.089449
    28  C    0.048515
    29  C   -0.025004
    30  C    0.076633
    31  C    0.141100
    32  C    0.017693
    33  C    0.039734
    34  N   -0.248968
    35  C    0.091926
    36  C   -0.180292
    37  C    0.120642
    38  C    0.019918
    39  C    0.212603
    40  C   -0.098022
    41  O   -0.130045
    42  C    0.036753
    43  C    0.116591
    44  O   -0.168561
    45  O   -0.295975
    46  C    0.275568
    47  C    0.313951
    48  C   -0.127936
    49  C   -0.173532
    50  C    0.168250
    51  C    0.121971
    52  C   -0.031687
    53  C    0.038421
    54  C   -0.126291
    55  C    0.058022
    56  C   -0.006769
    57  C    0.025644
    58  C    0.004364
    59  C   -0.120943
    60  C    0.060430
    61  C    0.067248
    62  C   -0.030897
    63  C    0.060458
    64  C   -0.110745
    65  C    0.064234
    66  C    0.012778
 Electronic spatial extent (au):  <R**2>=          97851.7121
 Charge=             -0.0000 electrons
 Dipole moment (field-independent basis, Debye):
    X=              0.1529    Y=              6.0354    Z=              0.4296  Tot=              6.0526
 Quadrupole moment (field-independent basis, Debye-Ang):
   XX=           -395.4123   YY=           -427.8154   ZZ=           -404.7390
   XY=            -52.6583   XZ=            -24.7683   YZ=            -33.3968
 Traceless Quadrupole moment (field-independent basis, Debye-Ang):
   XX=             13.9099   YY=            -18.4931   ZZ=              4.5832
   XY=            -52.6583   XZ=            -24.7683   YZ=            -33.3968
 Octapole moment (field-independent basis, Debye-Ang**2):
  XXX=           -153.6414  YYY=            335.9591  ZZZ=            -28.0874  XYY=             29.4875
  XXY=            191.5681  XXZ=            188.5813  XZZ=            -89.2866  YZZ=            -67.2723
  YYZ=            -52.8283  XYZ=            145.0791
 Hexadecapole moment (field-independent basis, Debye-Ang**3):
 XXXX=         -98359.5904 YYYY=         -25657.8002 ZZZZ=         -12854.2125 XXXY=          -1347.6253
 XXXZ=          -1509.6027 YYYX=          -1610.6091 YYYZ=           -475.4380 ZZZX=           -121.0862
 ZZZY=           -444.7799 XXYY=         -21094.1534 XXZZ=         -18421.1202 YYZZ=          -6546.2361
 XXYZ=           -847.4858 YYXZ=           -409.9695 ZZXY=           -108.3473
 N-N= 9.759415092116D+03 E-N=-2.651406918636D+04  KE= 2.977631520088D+03
 Leave Link  601 at Wed May  4 08:57:10 2022, MaxMem= 10066329600 cpu:              12.9 elap:               0.6
 (Enter /sw/apps/gaussian-16.0/g16/l9999.exe)
 1\1\GINC-BP1-COMPUTE050\SP\RBLYP TD-FC\def2SVP\C55H74Mg1N4O6\OF15641\0
 4-May-2022\0\\#p blyp/Def2SVP td=(nstates=5)\\step_1501_chromophore_26
  TDDFT with blyp functional\\0,1\Mg,0,-8.537,18.271,42.878\C,0,-5.071,
 17.717,42.747\C,0,-8.077,21.57,41.486\C,0,-11.799,18.507,42.238\C,0,-8
 .965,14.779,43.044\N,0,-6.804,19.439,42.208\C,0,-5.428,19.06,42.267\C,
 0,-4.541,20.196,41.929\C,0,-5.542,21.382,41.577\C,0,-6.918,20.75,41.72
 8\C,0,-5.311,22.711,42.345\C,0,-3.399,19.857,40.88\C,0,-3.731,18.902,3
 9.655\C,0,-3.427,19.521,38.311\O,0,-2.455,20.241,38.098\O,0,-4.451,19.
 235,37.431\N,0,-9.863,19.922,42.215\C,0,-9.442,21.17,41.696\C,0,-10.66
 4,21.884,41.361\C,0,-11.809,20.996,41.664\C,0,-11.165,19.747,42.046\C,
 0,-10.603,23.277,40.767\C,0,-13.284,21.344,41.393\O,0,-13.517,22.406,4
 0.871\C,0,-14.366,20.522,41.747\N,0,-10.154,16.81,42.643\C,0,-11.476,1
 7.24,42.587\C,0,-12.462,16.14,42.893\C,0,-11.535,14.91,42.994\C,0,-10.
 134,15.515,42.98\C,0,-13.509,16.332,44.037\C,0,-11.663,13.818,41.868\C
 ,0,-11.797,12.319,42.281\N,0,-7.219,16.57,43.065\C,0,-7.595,15.187,43.
 147\C,0,-6.394,14.468,43.422\C,0,-5.373,15.407,43.269\C,0,-5.91,16.63,
 43.034\C,0,-6.18,13.062,43.766\C,0,-3.938,15.584,43.329\O,0,-3.042,14.
 764,43.487\C,0,-3.661,17.092,43.029\C,0,-2.781,17.667,44.111\O,0,-1.57
 ,17.775,43.976\O,0,-3.538,18.183,45.143\C,0,-2.884,18.833,46.29\C,0,-4
 .314,19.905,36.089\C,0,-5.357,19.127,35.252\C,0,-6.095,19.649,34.196\C
 ,0,-5.877,21.023,33.66\C,0,-6.995,18.593,33.554\C,0,-7.581,18.995,32.1
 58\C,0,-9.055,18.595,31.914\C,0,-10.14,19.65,32.256\C,0,-11.517,19.002
 ,32.658\C,0,-10.343,20.69,31.15\C,0,-10.621,22.102,31.647\C,0,-9.558,2
 3.202,31.321\C,0,-10.032,24.16,30.174\C,0,-9.382,25.462,30.455\C,0,-9.
 763,23.552,28.689\C,0,-11.032,22.773,28.236\C,0,-11.676,23.226,26.923\
 C,0,-10.974,22.427,25.732\C,0,-10.261,23.369,24.756\C,0,-12.009,21.477
 ,25.027\H,0,-7.981,22.625,41.222\H,0,-12.876,18.502,42.054\H,0,-9.063,
 13.691,43.033\H,0,-3.979,20.419,42.836\H,0,-5.395,21.625,40.525\H,0,-6
 .217,22.918,42.913\H,0,-5.117,23.493,41.611\H,0,-4.498,22.524,43.046\H
 ,0,-2.509,19.546,41.427\H,0,-3.094,20.783,40.392\H,0,-4.763,18.567,39.
 759\H,0,-3.155,17.977,39.704\H,0,-9.948,23.32,39.897\H,0,-10.231,23.89
 ,41.588\H,0,-11.546,23.731,40.461\H,0,-14.016,20.113,42.694\H,0,-14.49
 1,19.639,41.12\H,0,-15.274,21.108,41.889\H,0,-12.941,15.913,41.941\H,0
 ,-11.931,14.416,43.881\H,0,-14.429,16.495,43.476\H,0,-13.266,17.232,44
 .602\H,0,-13.74,15.511,44.717\H,0,-10.805,13.874,41.198\H,0,-12.531,13
 .944,41.221\H,0,-12.714,11.903,41.862\H,0,-11.841,12.342,43.37\H,0,-10
 .969,11.693,41.951\H,0,-5.61,12.662,42.927\H,0,-7.13,12.542,43.888\H,0
 ,-5.563,13.112,44.663\H,0,-3.045,17.055,42.131\H,0,-3.316,19.834,46.30
 7\H,0,-1.808,18.791,46.125\H,0,-3.148,18.271,47.186\H,0,-3.307,19.833,
 35.68\H,0,-4.493,20.98,36.089\H,0,-5.657,18.157,35.649\H,0,-6.828,21.4
 94,33.908\H,0,-5.712,21.071,32.584\H,0,-5.02,21.573,34.048\H,0,-7.8,18
 .342,34.246\H,0,-6.424,17.691,33.337\H,0,-7.101,18.543,31.29\H,0,-7.50
 3,20.077,32.056\H,0,-9.245,17.79,32.624\H,0,-9.068,18.381,30.845\H,0,-
 9.803,20.225,33.119\H,0,-11.625,18.898,33.738\H,0,-11.609,18.017,32.20
 2\H,0,-12.33,19.636,32.304\H,0,-11.099,20.35,30.442\H,0,-9.397,20.748,
 30.611\H,0,-10.819,22.044,32.717\H,0,-11.51,22.359,31.071\H,0,-8.609,2
 2.719,31.088\H,0,-9.312,23.74,32.237\H,0,-11.095,24.347,30.33\H,0,-8.6
 15,25.496,31.229\H,0,-10.191,26.148,30.703\H,0,-8.998,25.854,29.513\H,
 0,-8.991,22.783,28.699\H,0,-9.423,24.375,28.061\H,0,-11.883,22.747,28.
 917\H,0,-10.631,21.759,28.244\H,0,-11.275,24.237,26.842\H,0,-12.766,23
 .235,26.914\H,0,-10.33,21.653,26.149\H,0,-9.553,22.936,24.05\H,0,-9.72
 9,24.129,25.329\H,0,-11.075,23.828,24.194\H,0,-12.262,21.767,24.007\H,
 0,-12.829,21.187,25.684\H,0,-11.594,20.477,24.904\\Version=ES64L-G16Re
 vA.03\State=1-A\HF=-3007.3249042\RMSD=5.783e-09\PG=C01 [X(C55H74Mg1N4O
 6)]\\@


 SCIENCE AND PEACE WILL TRIUMPH OVER IGNORANCE AND WAR

                          -- PASTEUR
 Job cpu time:       0 days  5 hours 32 minutes 10.5 seconds.
 Elapsed time:       0 days  0 hours 13 minutes 54.0 seconds.
 File lengths (MBytes):  RWF=   8042 Int=      0 D2E=      0 Chk=    390 Scr=      1
 Normal termination of Gaussian 16 at Wed May  4 08:57:10 2022.
