 Entering Gaussian System, Link 0=g16
 Initial command:
 /sw/apps/gaussian-16.0/g16/l1.exe "/tmp/Gau-237919.inp" -scrdir="/tmp/"
 Entering Link 1 = /sw/apps/gaussian-16.0/g16/l1.exe PID=    237920.
  
 Copyright (c) 1988,1990,1992,1993,1995,1998,2003,2009,2016,
            Gaussian, Inc.  All Rights Reserved.
  
 This is part of the Gaussian(R) 16 program.  It is based on
 the Gaussian(R) 09 system (copyright 2009, Gaussian, Inc.),
 the Gaussian(R) 03 system (copyright 2003, Gaussian, Inc.),
 the Gaussian(R) 98 system (copyright 1998, Gaussian, Inc.),
 the Gaussian(R) 94 system (copyright 1995, Gaussian, Inc.),
 the Gaussian 92(TM) system (copyright 1992, Gaussian, Inc.),
 the Gaussian 90(TM) system (copyright 1990, Gaussian, Inc.),
 the Gaussian 88(TM) system (copyright 1988, Gaussian, Inc.),
 the Gaussian 86(TM) system (copyright 1986, Carnegie Mellon
 University), and the Gaussian 82(TM) system (copyright 1983,
 Carnegie Mellon University). Gaussian is a federally registered
 trademark of Gaussian, Inc.
  
 This software contains proprietary and confidential information,
 including trade secrets, belonging to Gaussian, Inc.
  
 This software is provided under written license and may be
 used, copied, transmitted, or stored only in accord with that
 written license.
  
 The following legend is applicable only to US Government
 contracts under FAR:
  
                    RESTRICTED RIGHTS LEGEND
  
 Use, reproduction and disclosure by the US Government is
 subject to restrictions as set forth in subparagraphs (a)
 and (c) of the Commercial Computer Software - Restricted
 Rights clause in FAR 52.227-19.
  
 Gaussian, Inc.
 340 Quinnipiac St., Bldg. 40, Wallingford CT 06492
  
  
 ---------------------------------------------------------------
 Warning -- This program may not be used in any manner that
 competes with the business of Gaussian, Inc. or will provide
 assistance to any competitor of Gaussian, Inc.  The licensee
 of this program is prohibited from giving any competitor of
 Gaussian, Inc. access to this program.  By using this program,
 the user acknowledges that Gaussian, Inc. is engaged in the
 business of creating and licensing software in the field of
 computational chemistry and represents and warrants to the
 licensee that it is not a competitor of Gaussian, Inc. and that
 it will not use this program in any manner prohibited above.
 ---------------------------------------------------------------
  

 Cite this work as:
 Gaussian 16, Revision A.03,
 M. J. Frisch, G. W. Trucks, H. B. Schlegel, G. E. Scuseria, 
 M. A. Robb, J. R. Cheeseman, G. Scalmani, V. Barone, 
 G. A. Petersson, H. Nakatsuji, X. Li, M. Caricato, A. V. Marenich, 
 J. Bloino, B. G. Janesko, R. Gomperts, B. Mennucci, H. P. Hratchian, 
 J. V. Ortiz, A. F. Izmaylov, J. L. Sonnenberg, D. Williams-Young, 
 F. Ding, F. Lipparini, F. Egidi, J. Goings, B. Peng, A. Petrone, 
 T. Henderson, D. Ranasinghe, V. G. Zakrzewski, J. Gao, N. Rega, 
 G. Zheng, W. Liang, M. Hada, M. Ehara, K. Toyota, R. Fukuda, 
 J. Hasegawa, M. Ishida, T. Nakajima, Y. Honda, O. Kitao, H. Nakai, 
 T. Vreven, K. Throssell, J. A. Montgomery, Jr., J. E. Peralta, 
 F. Ogliaro, M. J. Bearpark, J. J. Heyd, E. N. Brothers, K. N. Kudin, 
 V. N. Staroverov, T. A. Keith, R. Kobayashi, J. Normand, 
 K. Raghavachari, A. P. Rendell, J. C. Burant, S. S. Iyengar, 
 J. Tomasi, M. Cossi, J. M. Millam, M. Klene, C. Adamo, R. Cammi, 
 J. W. Ochterski, R. L. Martin, K. Morokuma, O. Farkas, 
 J. B. Foresman, and D. J. Fox, Gaussian, Inc., Wallingford CT, 2016.
 
 ******************************************
 Gaussian 16:  ES64L-G16RevA.03 25-Dec-2016
                 4-May-2022 
 ******************************************
 %nproc=24
 Will use up to   24 processors via shared memory.
 %mem=50gb
 --------------------
 #p ZINDO=(nstates=5)
 --------------------
 1/38=1,172=1/1;
 2/12=2,17=6,18=5,40=1/2;
 3/5=2,25=1,41=400000/1,2,3,8;
 4/5=3,35=1/1;
 5/5=2,35=1,38=5/2;
 8/6=1,108=5/1;
 9/41=5,42=1,49=10/14;
 6/7=2,8=2,9=2,10=2/1;
 99/5=1,9=1/99;
 Leave Link    1 at Wed May  4 08:57:10 2022, MaxMem=  6710886400 cpu:               0.5 elap:               0.0
 (Enter /sw/apps/gaussian-16.0/g16/l101.exe)
 ------------------------------
 step_1501_chromophore_26 ZINDO
 ------------------------------
 Symbolic Z-matrix:
 Charge =  0 Multiplicity = 1
 Mg                   -8.537     18.271    42.878 
 C                    -5.071     17.717    42.747 
 C                    -8.077     21.57     41.486 
 C                    -11.799    18.507    42.238 
 C                    -8.965     14.779    43.044 
 N                    -6.804     19.439    42.208 
 C                    -5.428     19.06     42.267 
 C                    -4.541     20.196    41.929 
 C                    -5.542     21.382    41.577 
 C                    -6.918     20.75     41.728 
 C                    -5.311     22.711    42.345 
 C                    -3.399     19.857    40.88 
 C                    -3.731     18.902    39.655 
 C                    -3.427     19.521    38.311 
 O                    -2.455     20.241    38.098 
 O                    -4.451     19.235    37.431 
 N                    -9.863     19.922    42.215 
 C                    -9.442     21.17     41.696 
 C                    -10.664    21.884    41.361 
 C                    -11.809    20.996    41.664 
 C                    -11.165    19.747    42.046 
 C                    -10.603    23.277    40.767 
 C                    -13.284    21.344    41.393 
 O                    -13.517    22.406    40.871 
 C                    -14.366    20.522    41.747 
 N                    -10.154    16.81     42.643 
 C                    -11.476    17.24     42.587 
 C                    -12.462    16.14     42.893 
 C                    -11.535    14.91     42.994 
 C                    -10.134    15.515    42.98 
 C                    -13.509    16.332    44.037 
 C                    -11.663    13.818    41.868 
 C                    -11.797    12.319    42.281 
 N                    -7.219     16.57     43.065 
 C                    -7.595     15.187    43.147 
 C                    -6.394     14.468    43.422 
 C                    -5.373     15.407    43.269 
 C                    -5.91      16.63     43.034 
 C                    -6.18      13.062    43.766 
 C                    -3.938     15.584    43.329 
 O                    -3.042     14.764    43.487 
 C                    -3.661     17.092    43.029 
 C                    -2.781     17.667    44.111 
 O                    -1.57      17.775    43.976 
 O                    -3.538     18.183    45.143 
 C                    -2.884     18.833    46.29 
 C                    -4.314     19.905    36.089 
 C                    -5.357     19.127    35.252 
 C                    -6.095     19.649    34.196 
 C                    -5.877     21.023    33.66 
 C                    -6.995     18.593    33.554 
 C                    -7.581     18.995    32.158 
 C                    -9.055     18.595    31.914 
 C                    -10.14     19.65     32.256 
 C                    -11.517    19.002    32.658 
 C                    -10.343    20.69     31.15 
 C                    -10.621    22.102    31.647 
 C                    -9.558     23.202    31.321 
 C                    -10.032    24.16     30.174 
 C                    -9.382     25.462    30.455 
 C                    -9.763     23.552    28.689 
 C                    -11.032    22.773    28.236 
 C                    -11.676    23.226    26.923 
 C                    -10.974    22.427    25.732 
 C                    -10.261    23.369    24.756 
 C                    -12.009    21.477    25.027 
 H                    -7.981     22.625    41.222 
 H                    -12.876    18.502    42.054 
 H                    -9.063     13.691    43.033 
 H                    -3.979     20.419    42.836 
 H                    -5.395     21.625    40.525 
 H                    -6.217     22.918    42.913 
 H                    -5.117     23.493    41.611 
 H                    -4.498     22.524    43.046 
 H                    -2.509     19.546    41.427 
 H                    -3.094     20.783    40.392 
 H                    -4.763     18.567    39.759 
 H                    -3.155     17.977    39.704 
 H                    -9.948     23.32     39.897 
 H                    -10.231    23.89     41.588 
 H                    -11.546    23.731    40.461 
 H                    -14.016    20.113    42.694 
 H                    -14.491    19.639    41.12 
 H                    -15.274    21.108    41.889 
 H                    -12.941    15.913    41.941 
 H                    -11.931    14.416    43.881 
 H                    -14.429    16.495    43.476 
 H                    -13.266    17.232    44.602 
 H                    -13.74     15.511    44.717 
 H                    -10.805    13.874    41.198 
 H                    -12.531    13.944    41.221 
 H                    -12.714    11.903    41.862 
 H                    -11.841    12.342    43.37 
 H                    -10.969    11.693    41.951 
 H                    -5.61      12.662    42.927 
 H                    -7.13      12.542    43.888 
 H                    -5.563     13.112    44.663 
 H                    -3.045     17.055    42.131 
 H                    -3.316     19.834    46.307 
 H                    -1.808     18.791    46.125 
 H                    -3.148     18.271    47.186 
 H                    -3.307     19.833    35.68 
 H                    -4.493     20.98     36.089 
 H                    -5.657     18.157    35.649 
 H                    -6.828     21.494    33.908 
 H                    -5.712     21.071    32.584 
 H                    -5.02      21.573    34.048 
 H                    -7.8       18.342    34.246 
 H                    -6.424     17.691    33.337 
 H                    -7.101     18.543    31.29 
 H                    -7.503     20.077    32.056 
 H                    -9.245     17.79     32.624 
 H                    -9.068     18.381    30.845 
 H                    -9.803     20.225    33.119 
 H                    -11.625    18.898    33.738 
 H                    -11.609    18.017    32.202 
 H                    -12.33     19.636    32.304 
 H                    -11.099    20.35     30.442 
 H                    -9.397     20.748    30.611 
 H                    -10.819    22.044    32.717 
 H                    -11.51     22.359    31.071 
 H                    -8.609     22.719    31.088 
 H                    -9.312     23.74     32.237 
 H                    -11.095    24.347    30.33 
 H                    -8.615     25.496    31.229 
 H                    -10.191    26.148    30.703 
 H                    -8.998     25.854    29.513 
 H                    -8.991     22.783    28.699 
 H                    -9.423     24.375    28.061 
 H                    -11.883    22.747    28.917 
 H                    -10.631    21.759    28.244 
 H                    -11.275    24.237    26.842 
 H                    -12.766    23.235    26.914 
 H                    -10.33     21.653    26.149 
 H                    -9.553     22.936    24.05 
 H                    -9.729     24.129    25.329 
 H                    -11.075    23.828    24.194 
 H                    -12.262    21.767    24.007 
 H                    -12.829    21.187    25.684 
 H                    -11.594    20.477    24.904 
 
 ITRead=  0  0  0  0  0  0  0  0  0  0  0  0  0  0  0  0  0  0  0  0
 ITRead=  0  0  0  0  0  0  0  0  0  0  0  0  0  0  0  0  0  0  0  0
 ITRead=  0  0  0  0  0  0  0  0  0  0  0  0  0  0  0  0  0  0  0  0
 ITRead=  0  0  0  0  0  0  0  0  0  0  0  0  0  0  0  0  0  0  0  0
 ITRead=  0  0  0  0  0  0  0  0  0  0  0  0  0  0  0  0  0  0  0  0
 ITRead=  0  0  0  0  0  0  0  0  0  0  0  0  0  0  0  0  0  0  0  0
 ITRead=  0  0  0  0  0  0  0  0  0  0  0  0  0  0  0  0  0  0  0  0
 MicOpt= -1 -1 -1 -1 -1 -1 -1 -1 -1 -1 -1 -1 -1 -1 -1 -1 -1 -1 -1 -1
 MicOpt= -1 -1 -1 -1 -1 -1 -1 -1 -1 -1 -1 -1 -1 -1 -1 -1 -1 -1 -1 -1
 MicOpt= -1 -1 -1 -1 -1 -1 -1 -1 -1 -1 -1 -1 -1 -1 -1 -1 -1 -1 -1 -1
 MicOpt= -1 -1 -1 -1 -1 -1 -1 -1 -1 -1 -1 -1 -1 -1 -1 -1 -1 -1 -1 -1
 MicOpt= -1 -1 -1 -1 -1 -1 -1 -1 -1 -1 -1 -1 -1 -1 -1 -1 -1 -1 -1 -1
 MicOpt= -1 -1 -1 -1 -1 -1 -1 -1 -1 -1 -1 -1 -1 -1 -1 -1 -1 -1 -1 -1
 MicOpt= -1 -1 -1 -1 -1 -1 -1 -1 -1 -1 -1 -1 -1 -1 -1 -1 -1 -1 -1 -1
 NAtoms=    140 NQM=      140 NQMF=       0 NMMI=      0 NMMIF=      0
                NMic=       0 NMicF=      0.
                    Isotopes and Nuclear Properties:
 (Nuclear quadrupole moments (NQMom) in fm**2, nuclear magnetic moments (NMagM)
  in nuclear magnetons)

  Atom         1           2           3           4           5           6           7           8           9          10
 IAtWgt=          24          12          12          12          12          14          12          12          12          12
 AtmWgt=  23.9850450  12.0000000  12.0000000  12.0000000  12.0000000  14.0030740  12.0000000  12.0000000  12.0000000  12.0000000
 NucSpn=           0           0           0           0           0           2           0           0           0           0
 AtZEff=  -0.0000000  -0.0000000  -0.0000000  -0.0000000  -0.0000000  -0.0000000  -0.0000000  -0.0000000  -0.0000000  -0.0000000
 NQMom=    0.0000000   0.0000000   0.0000000   0.0000000   0.0000000   2.0440000   0.0000000   0.0000000   0.0000000   0.0000000
 NMagM=    0.0000000   0.0000000   0.0000000   0.0000000   0.0000000   0.4037610   0.0000000   0.0000000   0.0000000   0.0000000
 AtZNuc=  12.0000000   6.0000000   6.0000000   6.0000000   6.0000000   7.0000000   6.0000000   6.0000000   6.0000000   6.0000000

  Atom        11          12          13          14          15          16          17          18          19          20
 IAtWgt=          12          12          12          12          16          16          14          12          12          12
 AtmWgt=  12.0000000  12.0000000  12.0000000  12.0000000  15.9949146  15.9949146  14.0030740  12.0000000  12.0000000  12.0000000
 NucSpn=           0           0           0           0           0           0           2           0           0           0
 AtZEff=  -0.0000000  -0.0000000  -0.0000000  -0.0000000  -0.0000000  -0.0000000  -0.0000000  -0.0000000  -0.0000000  -0.0000000
 NQMom=    0.0000000   0.0000000   0.0000000   0.0000000   0.0000000   0.0000000   2.0440000   0.0000000   0.0000000   0.0000000
 NMagM=    0.0000000   0.0000000   0.0000000   0.0000000   0.0000000   0.0000000   0.4037610   0.0000000   0.0000000   0.0000000
 AtZNuc=   6.0000000   6.0000000   6.0000000   6.0000000   8.0000000   8.0000000   7.0000000   6.0000000   6.0000000   6.0000000

  Atom        21          22          23          24          25          26          27          28          29          30
 IAtWgt=          12          12          12          16          12          14          12          12          12          12
 AtmWgt=  12.0000000  12.0000000  12.0000000  15.9949146  12.0000000  14.0030740  12.0000000  12.0000000  12.0000000  12.0000000
 NucSpn=           0           0           0           0           0           2           0           0           0           0
 AtZEff=  -0.0000000  -0.0000000  -0.0000000  -0.0000000  -0.0000000  -0.0000000  -0.0000000  -0.0000000  -0.0000000  -0.0000000
 NQMom=    0.0000000   0.0000000   0.0000000   0.0000000   0.0000000   2.0440000   0.0000000   0.0000000   0.0000000   0.0000000
 NMagM=    0.0000000   0.0000000   0.0000000   0.0000000   0.0000000   0.4037610   0.0000000   0.0000000   0.0000000   0.0000000
 AtZNuc=   6.0000000   6.0000000   6.0000000   8.0000000   6.0000000   7.0000000   6.0000000   6.0000000   6.0000000   6.0000000

  Atom        31          32          33          34          35          36          37          38          39          40
 IAtWgt=          12          12          12          14          12          12          12          12          12          12
 AtmWgt=  12.0000000  12.0000000  12.0000000  14.0030740  12.0000000  12.0000000  12.0000000  12.0000000  12.0000000  12.0000000
 NucSpn=           0           0           0           2           0           0           0           0           0           0
 AtZEff=  -0.0000000  -0.0000000  -0.0000000  -0.0000000  -0.0000000  -0.0000000  -0.0000000  -0.0000000  -0.0000000  -0.0000000
 NQMom=    0.0000000   0.0000000   0.0000000   2.0440000   0.0000000   0.0000000   0.0000000   0.0000000   0.0000000   0.0000000
 NMagM=    0.0000000   0.0000000   0.0000000   0.4037610   0.0000000   0.0000000   0.0000000   0.0000000   0.0000000   0.0000000
 AtZNuc=   6.0000000   6.0000000   6.0000000   7.0000000   6.0000000   6.0000000   6.0000000   6.0000000   6.0000000   6.0000000

  Atom        41          42          43          44          45          46          47          48          49          50
 IAtWgt=          16          12          12          16          16          12          12          12          12          12
 AtmWgt=  15.9949146  12.0000000  12.0000000  15.9949146  15.9949146  12.0000000  12.0000000  12.0000000  12.0000000  12.0000000
 NucSpn=           0           0           0           0           0           0           0           0           0           0
 AtZEff=  -0.0000000  -0.0000000  -0.0000000  -0.0000000  -0.0000000  -0.0000000  -0.0000000  -0.0000000  -0.0000000  -0.0000000
 NQMom=    0.0000000   0.0000000   0.0000000   0.0000000   0.0000000   0.0000000   0.0000000   0.0000000   0.0000000   0.0000000
 NMagM=    0.0000000   0.0000000   0.0000000   0.0000000   0.0000000   0.0000000   0.0000000   0.0000000   0.0000000   0.0000000
 AtZNuc=   8.0000000   6.0000000   6.0000000   8.0000000   8.0000000   6.0000000   6.0000000   6.0000000   6.0000000   6.0000000

  Atom        51          52          53          54          55          56          57          58          59          60
 IAtWgt=          12          12          12          12          12          12          12          12          12          12
 AtmWgt=  12.0000000  12.0000000  12.0000000  12.0000000  12.0000000  12.0000000  12.0000000  12.0000000  12.0000000  12.0000000
 NucSpn=           0           0           0           0           0           0           0           0           0           0
 AtZEff=  -0.0000000  -0.0000000  -0.0000000  -0.0000000  -0.0000000  -0.0000000  -0.0000000  -0.0000000  -0.0000000  -0.0000000
 NQMom=    0.0000000   0.0000000   0.0000000   0.0000000   0.0000000   0.0000000   0.0000000   0.0000000   0.0000000   0.0000000
 NMagM=    0.0000000   0.0000000   0.0000000   0.0000000   0.0000000   0.0000000   0.0000000   0.0000000   0.0000000   0.0000000
 AtZNuc=   6.0000000   6.0000000   6.0000000   6.0000000   6.0000000   6.0000000   6.0000000   6.0000000   6.0000000   6.0000000

  Atom        61          62          63          64          65          66          67          68          69          70
 IAtWgt=          12          12          12          12          12          12           1           1           1           1
 AtmWgt=  12.0000000  12.0000000  12.0000000  12.0000000  12.0000000  12.0000000   1.0078250   1.0078250   1.0078250   1.0078250
 NucSpn=           0           0           0           0           0           0           1           1           1           1
 AtZEff=  -0.0000000  -0.0000000  -0.0000000  -0.0000000  -0.0000000  -0.0000000  -0.0000000  -0.0000000  -0.0000000  -0.0000000
 NQMom=    0.0000000   0.0000000   0.0000000   0.0000000   0.0000000   0.0000000   0.0000000   0.0000000   0.0000000   0.0000000
 NMagM=    0.0000000   0.0000000   0.0000000   0.0000000   0.0000000   0.0000000   2.7928460   2.7928460   2.7928460   2.7928460
 AtZNuc=   6.0000000   6.0000000   6.0000000   6.0000000   6.0000000   6.0000000   1.0000000   1.0000000   1.0000000   1.0000000

  Atom        71          72          73          74          75          76          77          78          79          80
 IAtWgt=           1           1           1           1           1           1           1           1           1           1
 AtmWgt=   1.0078250   1.0078250   1.0078250   1.0078250   1.0078250   1.0078250   1.0078250   1.0078250   1.0078250   1.0078250
 NucSpn=           1           1           1           1           1           1           1           1           1           1
 AtZEff=  -0.0000000  -0.0000000  -0.0000000  -0.0000000  -0.0000000  -0.0000000  -0.0000000  -0.0000000  -0.0000000  -0.0000000
 NQMom=    0.0000000   0.0000000   0.0000000   0.0000000   0.0000000   0.0000000   0.0000000   0.0000000   0.0000000   0.0000000
 NMagM=    2.7928460   2.7928460   2.7928460   2.7928460   2.7928460   2.7928460   2.7928460   2.7928460   2.7928460   2.7928460
 AtZNuc=   1.0000000   1.0000000   1.0000000   1.0000000   1.0000000   1.0000000   1.0000000   1.0000000   1.0000000   1.0000000

  Atom        81          82          83          84          85          86          87          88          89          90
 IAtWgt=           1           1           1           1           1           1           1           1           1           1
 AtmWgt=   1.0078250   1.0078250   1.0078250   1.0078250   1.0078250   1.0078250   1.0078250   1.0078250   1.0078250   1.0078250
 NucSpn=           1           1           1           1           1           1           1           1           1           1
 AtZEff=  -0.0000000  -0.0000000  -0.0000000  -0.0000000  -0.0000000  -0.0000000  -0.0000000  -0.0000000  -0.0000000  -0.0000000
 NQMom=    0.0000000   0.0000000   0.0000000   0.0000000   0.0000000   0.0000000   0.0000000   0.0000000   0.0000000   0.0000000
 NMagM=    2.7928460   2.7928460   2.7928460   2.7928460   2.7928460   2.7928460   2.7928460   2.7928460   2.7928460   2.7928460
 AtZNuc=   1.0000000   1.0000000   1.0000000   1.0000000   1.0000000   1.0000000   1.0000000   1.0000000   1.0000000   1.0000000

  Atom        91          92          93          94          95          96          97          98          99         100
 IAtWgt=           1           1           1           1           1           1           1           1           1           1
 AtmWgt=   1.0078250   1.0078250   1.0078250   1.0078250   1.0078250   1.0078250   1.0078250   1.0078250   1.0078250   1.0078250
 NucSpn=           1           1           1           1           1           1           1           1           1           1
 AtZEff=  -0.0000000  -0.0000000  -0.0000000  -0.0000000  -0.0000000  -0.0000000  -0.0000000  -0.0000000  -0.0000000  -0.0000000
 NQMom=    0.0000000   0.0000000   0.0000000   0.0000000   0.0000000   0.0000000   0.0000000   0.0000000   0.0000000   0.0000000
 NMagM=    2.7928460   2.7928460   2.7928460   2.7928460   2.7928460   2.7928460   2.7928460   2.7928460   2.7928460   2.7928460
 AtZNuc=   1.0000000   1.0000000   1.0000000   1.0000000   1.0000000   1.0000000   1.0000000   1.0000000   1.0000000   1.0000000

  Atom       101         102         103         104         105         106         107         108         109         110
 IAtWgt=           1           1           1           1           1           1           1           1           1           1
 AtmWgt=   1.0078250   1.0078250   1.0078250   1.0078250   1.0078250   1.0078250   1.0078250   1.0078250   1.0078250   1.0078250
 NucSpn=           1           1           1           1           1           1           1           1           1           1
 AtZEff=  -0.0000000  -0.0000000  -0.0000000  -0.0000000  -0.0000000  -0.0000000  -0.0000000  -0.0000000  -0.0000000  -0.0000000
 NQMom=    0.0000000   0.0000000   0.0000000   0.0000000   0.0000000   0.0000000   0.0000000   0.0000000   0.0000000   0.0000000
 NMagM=    2.7928460   2.7928460   2.7928460   2.7928460   2.7928460   2.7928460   2.7928460   2.7928460   2.7928460   2.7928460
 AtZNuc=   1.0000000   1.0000000   1.0000000   1.0000000   1.0000000   1.0000000   1.0000000   1.0000000   1.0000000   1.0000000

  Atom       111         112         113         114         115         116         117         118         119         120
 IAtWgt=           1           1           1           1           1           1           1           1           1           1
 AtmWgt=   1.0078250   1.0078250   1.0078250   1.0078250   1.0078250   1.0078250   1.0078250   1.0078250   1.0078250   1.0078250
 NucSpn=           1           1           1           1           1           1           1           1           1           1
 AtZEff=  -0.0000000  -0.0000000  -0.0000000  -0.0000000  -0.0000000  -0.0000000  -0.0000000  -0.0000000  -0.0000000  -0.0000000
 NQMom=    0.0000000   0.0000000   0.0000000   0.0000000   0.0000000   0.0000000   0.0000000   0.0000000   0.0000000   0.0000000
 NMagM=    2.7928460   2.7928460   2.7928460   2.7928460   2.7928460   2.7928460   2.7928460   2.7928460   2.7928460   2.7928460
 AtZNuc=   1.0000000   1.0000000   1.0000000   1.0000000   1.0000000   1.0000000   1.0000000   1.0000000   1.0000000   1.0000000

  Atom       121         122         123         124         125         126         127         128         129         130
 IAtWgt=           1           1           1           1           1           1           1           1           1           1
 AtmWgt=   1.0078250   1.0078250   1.0078250   1.0078250   1.0078250   1.0078250   1.0078250   1.0078250   1.0078250   1.0078250
 NucSpn=           1           1           1           1           1           1           1           1           1           1
 AtZEff=  -0.0000000  -0.0000000  -0.0000000  -0.0000000  -0.0000000  -0.0000000  -0.0000000  -0.0000000  -0.0000000  -0.0000000
 NQMom=    0.0000000   0.0000000   0.0000000   0.0000000   0.0000000   0.0000000   0.0000000   0.0000000   0.0000000   0.0000000
 NMagM=    2.7928460   2.7928460   2.7928460   2.7928460   2.7928460   2.7928460   2.7928460   2.7928460   2.7928460   2.7928460
 AtZNuc=   1.0000000   1.0000000   1.0000000   1.0000000   1.0000000   1.0000000   1.0000000   1.0000000   1.0000000   1.0000000

  Atom       131         132         133         134         135         136         137         138         139         140
 IAtWgt=           1           1           1           1           1           1           1           1           1           1
 AtmWgt=   1.0078250   1.0078250   1.0078250   1.0078250   1.0078250   1.0078250   1.0078250   1.0078250   1.0078250   1.0078250
 NucSpn=           1           1           1           1           1           1           1           1           1           1
 AtZEff=  -0.0000000  -0.0000000  -0.0000000  -0.0000000  -0.0000000  -0.0000000  -0.0000000  -0.0000000  -0.0000000  -0.0000000
 NQMom=    0.0000000   0.0000000   0.0000000   0.0000000   0.0000000   0.0000000   0.0000000   0.0000000   0.0000000   0.0000000
 NMagM=    2.7928460   2.7928460   2.7928460   2.7928460   2.7928460   2.7928460   2.7928460   2.7928460   2.7928460   2.7928460
 AtZNuc=   1.0000000   1.0000000   1.0000000   1.0000000   1.0000000   1.0000000   1.0000000   1.0000000   1.0000000   1.0000000
 Leave Link  101 at Wed May  4 08:57:11 2022, MaxMem=  6710886400 cpu:               2.9 elap:               0.1
 (Enter /sw/apps/gaussian-16.0/g16/l202.exe)
 Stoichiometry    C55H74MgN4O6
 Framework group  C1[X(C55H74MgN4O6)]
 Deg. of freedom   414
 Full point group                 C1      NOp   1
 Largest Abelian subgroup         C1      NOp   1
 Largest concise Abelian subgroup C1      NOp   1
                         Standard orientation:                         
 ---------------------------------------------------------------------
 Center     Atomic      Atomic             Coordinates (Angstroms)
 Number     Number       Type             X           Y           Z
 ---------------------------------------------------------------------
      1         12           0       -4.243165    1.249870    0.637962
      2          6           0       -5.025237   -2.086523   -0.132801
      3          6           0       -1.965145    0.137405    3.208119
      4          6           0       -2.898985    4.293288    0.829604
      5          6           0       -5.463170    2.142076   -2.543290
      6          7           0       -3.599388   -0.707959    1.392194
      7          6           0       -4.064711   -1.992875    0.976305
      8          6           0       -3.561576   -3.062733    1.867243
      9          6           0       -2.637208   -2.297951    2.912783
     10          6           0       -2.699882   -0.847497    2.456870
     11          6           0       -2.952137   -2.559180    4.410115
     12          6           0       -2.945170   -4.317341    1.115255
     13          6           0       -2.064795   -4.084828   -0.186188
     14          6           0       -0.685793   -4.694797   -0.095608
     15          8           0       -0.453078   -5.772810    0.445026
     16          8           0        0.242077   -3.811820   -0.609592
     17          7           0       -2.811137    2.218485    2.028906
     18          6           0       -2.007609    1.557809    2.989092
     19          6           0       -1.209282    2.601539    3.612475
     20          6           0       -1.544559    3.885580    2.956574
     21          6           0       -2.443315    3.482638    1.883943
     22          6           0       -0.214007    2.260807    4.703500
     23          6           0       -0.873806    5.234173    3.275254
     24          8           0        0.006626    5.235267    4.099545
     25          6           0       -1.247253    6.457169    2.695133
     26          7           0       -4.174948    2.974110   -0.713622
     27          6           0       -3.706709    4.200318   -0.252226
     28          6           0       -4.147925    5.356672   -1.114784
     29          6           0       -4.840454    4.626020   -2.284818
     30          6           0       -4.918017    3.178472   -1.807733
     31          6           0       -4.920159    6.553824   -0.472685
     32          6           0       -4.138898    4.694070   -3.691912
     33          6           0       -4.987502    5.088060   -4.940979
     34          7           0       -5.251922    0.212501   -0.965712
     35          6           0       -5.707215    0.770309   -2.207624
     36          6           0       -6.447609   -0.262733   -2.855411
     37          6           0       -6.207794   -1.406067   -2.091966
     38          6           0       -5.475165   -1.078670   -0.998628
     39          6           0       -7.274127   -0.232418   -4.062439
     40          6           0       -6.502218   -2.819330   -1.991194
     41          8           0       -7.105054   -3.562074   -2.756112
     42          6           0       -5.784327   -3.334404   -0.702735
     43          6           0       -6.772586   -4.078439    0.160691
     44          8           0       -6.863869   -5.298166    0.142136
     45          8           0       -7.394644   -3.225285    1.049229
     46          6           0       -8.371008   -3.746892    2.019004
     47          6           0        1.670777   -4.264885   -0.460657
     48          6           0        2.400133   -3.293113   -1.418467
     49          6           0        3.698150   -2.823111   -1.255635
     50          6           0        4.601165   -3.304609   -0.171467
     51          6           0        4.126300   -1.921529   -2.413711
     52          6           0        5.666022   -1.643880   -2.491050
     53          6           0        6.064091   -0.196157   -2.862334
     54          6           0        6.323688    0.788280   -1.691562
     55          6           0        6.024876    2.285488   -2.074599
     56          6           0        7.728190    0.661126   -1.093859
     57          6           0        7.795824    0.839080    0.416702
     58          6           0        8.239471   -0.395943    1.267668
     59          6           0        9.710807   -0.255177    1.790551
     60          6           0        9.748279   -1.006937    3.067311
     61          6           0       10.820669   -0.699046    0.686723
     62          6           0       11.243116    0.560433   -0.124239
     63          6           0       12.735356    0.902672   -0.121407
     64          6           0       13.421502    0.111608   -1.326856
     65          6           0       14.483808   -0.874783   -0.830020
     66          6           0       13.970750    1.120508   -2.399795
     67          1           0       -1.392797   -0.136890    4.096442
     68          1           0       -2.507769    5.313454    0.824901
     69          1           0       -5.792887    2.374613   -3.558515
     70          1           0       -4.439283   -3.481870    2.359357
     71          1           0       -1.618889   -2.655787    2.763309
     72          1           0       -3.218449   -1.601983    4.856388
     73          1           0       -2.057860   -2.976241    4.872982
     74          1           0       -3.828034   -3.206999    4.431870
     75          1           0       -3.736337   -5.051362    0.962622
     76          1           0       -2.252703   -4.818283    1.792153
     77          1           0       -2.057270   -3.016328   -0.401399
     78          1           0       -2.535650   -4.520723   -1.068284
     79          1           0        0.465149    1.464178    4.400345
     80          1           0       -0.844013    1.962460    5.541519
     81          1           0        0.413655    3.070333    5.077276
     82          1           0       -2.327009    6.332607    2.623004
     83          1           0       -0.936467    6.582585    1.657768
     84          1           0       -0.995546    7.293750    3.346899
     85          1           0       -3.247343    5.687437   -1.631332
     86          1           0       -5.738309    5.230243   -2.412850
     87          1           0       -4.158873    7.333575   -0.461530
     88          1           0       -5.192733    6.300221    0.551845
     89          1           0       -5.769961    7.002577   -0.988689
     90          1           0       -3.681667    3.732423   -3.925095
     91          1           0       -3.321489    5.412780   -3.748530
     92          1           0       -4.549229    5.963471   -5.421684
     93          1           0       -5.973196    5.317847   -4.536020
     94          1           0       -5.062794    4.301934   -5.691110
     95          1           0       -6.752521   -0.884149   -4.763863
     96          1           0       -7.361431    0.782749   -4.449219
     97          1           0       -8.211313   -0.684935   -3.738854
     98          1           0       -5.097787   -4.087628   -1.088150
     99          1           0       -7.965631   -3.449792    2.986638
    100          1           0       -8.456317   -4.820900    1.857777
    101          1           0       -9.327051   -3.261313    1.822660
    102          1           0        1.814460   -5.310212   -0.731140
    103          1           0        2.063799   -4.227216    0.555109
    104          1           0        1.775829   -2.807298   -2.168625
    105          1           0        4.726151   -2.392904    0.412416
    106          1           0        5.573286   -3.659331   -0.512725
    107          1           0        4.248238   -4.143928    0.427264
    108          1           0        3.573264   -0.982927   -2.358315
    109          1           0        3.908953   -2.401826   -3.367025
    110          1           0        6.215785   -2.206156   -3.245858
    111          1           0        6.101921   -1.875814   -1.519757
    112          1           0        5.183462    0.215749   -3.355336
    113          1           0        6.979973   -0.342444   -3.435472
    114          1           0        5.649704    0.536273   -0.872294
    115          1           0        5.018705    2.592395   -1.787704
    116          1           0        6.137640    2.421489   -3.149500
    117          1           0        6.729334    2.936760   -1.557081
    118          1           0        8.424241    1.319284   -1.614186
    119          1           0        8.047235   -0.363873   -1.284616
    120          1           0        6.832764    1.226254    0.748483
    121          1           0        8.595603    1.573958    0.508646
    122          1           0        8.097120   -1.301550    0.677930
    123          1           0        7.523336   -0.545143    2.076311
    124          1           0        9.849704    0.786076    2.083423
    125          1           0        8.887891   -1.625307    3.323966
    126          1           0        9.914973   -0.261304    3.843730
    127          1           0       10.665486   -1.596017    3.081460
    128          1           0       10.396684   -1.353010   -0.074863
    129          1           0       11.600647   -1.245421    1.216272
    130          1           0       10.784238    1.513336    0.140422
    131          1           0       10.816855    0.299616   -1.093433
    132          1           0       13.061391    0.368073    0.771559
    133          1           0       12.972815    1.964239   -0.051046
    134          1           0       12.647776   -0.345817   -1.943144
    135          1           0       14.843424   -1.633874   -1.524027
    136          1           0       14.097551   -1.391318    0.049156
    137          1           0       15.322007   -0.236459   -0.548798
    138          1           0       15.058179    1.152816   -2.470248
    139          1           0       13.440135    2.072631   -2.392207
    140          1           0       13.666806    0.821408   -3.402547
 ---------------------------------------------------------------------
 Rotational constants (GHZ):           0.0369242           0.0128085           0.0114176
 Leave Link  202 at Wed May  4 08:57:11 2022, MaxMem=  6710886400 cpu:               0.2 elap:               0.0
 (Enter /sw/apps/gaussian-16.0/g16/l301.exe)
 Standard basis: VSTO-6G (5D, 7F)
 Ernie: Thresh=  0.10000D-02 Tol=  0.10000D-05 Strict=F.
 There are   338 symmetry adapted cartesian basis functions of A   symmetry.
 There are   338 symmetry adapted basis functions of A   symmetry.
   338 basis functions,  2028 primitive gaussians,   338 cartesian basis functions
   176 alpha electrons      176 beta electrons
       nuclear repulsion energy      4905.8646977480 Hartrees.
 IExCor=    0 DFT=F Ex=HF Corr=None ExCW=0 ScaHFX=  1.000000
 ScaDFX=  1.000000  1.000000  1.000000  1.000000 ScalE2=  1.000000  1.000000
 IRadAn=      5 IRanWt=     -1 IRanGd=            0 ICorTp=0 IEmpDi=  4
 Integral buffers will be    131072 words long.
 Regular integral format.
 Two-electron integral symmetry is turned off.
 Leave Link  301 at Wed May  4 08:57:11 2022, MaxMem=  6710886400 cpu:               1.2 elap:               0.1
 (Enter /sw/apps/gaussian-16.0/g16/l302.exe)
 Do NDO integrals.
 NPDir=0 NMtPBC=     1 NCelOv=     1 NCel=       1 NClECP=     1 NCelD=      1
         NCelK=      1 NCelE2=     1 NClLst=     1 CellRange=     0.0.
 One-electron integrals computed using PRISM.
 Generate ZINDO/S integrals.
 NDO Nuclear repulsion=  4425.933889726615 Hartrees.
 NBasis=   338 RedAO= F EigKep=  0.00D+00  NBF=   338
 NBsUse=   338 1.00D-04 EigRej=  0.00D+00 NBFU=   338
 Leave Link  302 at Wed May  4 08:57:11 2022, MaxMem=  6710886400 cpu:               9.2 elap:               0.4
 (Enter /sw/apps/gaussian-16.0/g16/l303.exe)
 DipDrv:  MaxL=1.
 DipDrv:  will hold  3 matrices at once.
 Leave Link  303 at Wed May  4 08:57:11 2022, MaxMem=  6710886400 cpu:               0.7 elap:               0.0
 (Enter /sw/apps/gaussian-16.0/g16/l308.exe)
 Leave Link  308 at Wed May  4 08:57:12 2022, MaxMem=  6710886400 cpu:               6.3 elap:               0.3
 (Enter /sw/apps/gaussian-16.0/g16/l401.exe)
 Simple Huckel Guess.
 JPrj=0 DoOrth=F DoCkMO=F.
 Leave Link  401 at Wed May  4 08:57:12 2022, MaxMem=  6710886400 cpu:               2.8 elap:               0.1
 (Enter /sw/apps/gaussian-16.0/g16/l502.exe)
 Two-electron integral symmetry not used.
 Closed shell SCF:
 Using DIIS extrapolation, IDIIS=  1040.
 Overlap will be assumed to be unity.
 NGot=  6710886400 LenX=  6710643598 LenY=  6710528913
 Requested convergence on RMS density matrix=1.00D-08 within 128 cycles.
 Requested convergence on MAX density matrix=1.00D-06.
 Requested convergence on             energy=1.00D-06.
 No special actions if energy rises.
 Fock matrices will be formed incrementally for  20 cycles.

 Cycle   1  Pass 1  IDiag  1:
 E= -472.109211491916    
 DIIS: error= 6.42D-02 at cycle   1 NSaved=   1.
 NSaved= 1 IEnMin= 1 EnMin= -472.109211491916     IErMin= 1 ErrMin= 6.42D-02
 ErrMax= 6.42D-02  0.00D+00 EMaxC= 1.00D-01 BMatC= 8.31D-01 BMatP= 8.31D-01
 IDIUse=3 WtCom= 3.58D-01 WtEn= 6.42D-01
 Coeff-Com:  0.100D+01
 Coeff-En:   0.100D+01
 Coeff:      0.100D+01
 GapD=    2.000 DampG=2.000 DampE=0.500 DampFc=1.0000 IDamp=-1.
 RMSDP=4.01D-03 MaxDP=1.87D-01              OVMax= 0.00D+00

 Cycle   2  Pass 1  IDiag  1:
 RMSU=  4.01D-03    CP:  9.95D-01
 E= -473.934888150100     Delta-E=       -1.825676658184 Rises=F Damp=F
 DIIS: error= 2.30D-02 at cycle   2 NSaved=   2.
 NSaved= 2 IEnMin= 2 EnMin= -473.934888150100     IErMin= 2 ErrMin= 2.30D-02
 ErrMax= 2.30D-02  0.00D+00 EMaxC= 1.00D-01 BMatC= 5.34D-02 BMatP= 8.31D-01
 IDIUse=3 WtCom= 7.70D-01 WtEn= 2.30D-01
 Coeff-Com: -0.657D-01 0.107D+01
 Coeff-En:   0.000D+00 0.100D+01
 Coeff:     -0.506D-01 0.105D+01
 RMSDP=1.12D-03 MaxDP=5.57D-02 DE=-1.83D+00 OVMax= 0.00D+00

 Cycle   3  Pass 1  IDiag  1:
 RMSU=  1.07D-03    CP:  9.93D-01  1.09D+00
 E= -474.037396028645     Delta-E=       -0.102507878545 Rises=F Damp=F
 DIIS: error= 1.14D-02 at cycle   3 NSaved=   3.
 NSaved= 3 IEnMin= 3 EnMin= -474.037396028645     IErMin= 3 ErrMin= 1.14D-02
 ErrMax= 1.14D-02  0.00D+00 EMaxC= 1.00D-01 BMatC= 7.52D-03 BMatP= 5.34D-02
 IDIUse=3 WtCom= 8.86D-01 WtEn= 1.14D-01
 Coeff-Com: -0.682D-01 0.241D+00 0.827D+00
 Coeff-En:   0.000D+00 0.000D+00 0.100D+01
 Coeff:     -0.604D-01 0.213D+00 0.847D+00
 RMSDP=4.05D-04 MaxDP=2.08D-02 DE=-1.03D-01 OVMax= 0.00D+00

 Cycle   4  Pass 1  IDiag  1:
 RMSU=  2.66D-04    CP:  9.93D-01  1.16D+00  9.02D-01
 E= -474.050885193084     Delta-E=       -0.013489164438 Rises=F Damp=F
 DIIS: error= 1.31D-03 at cycle   4 NSaved=   4.
 NSaved= 4 IEnMin= 4 EnMin= -474.050885193084     IErMin= 4 ErrMin= 1.31D-03
 ErrMax= 1.31D-03  0.00D+00 EMaxC= 1.00D-01 BMatC= 3.54D-04 BMatP= 7.52D-03
 IDIUse=3 WtCom= 9.87D-01 WtEn= 1.31D-02
 Coeff-Com: -0.179D-02-0.307D-01 0.565D-01 0.976D+00
 Coeff-En:   0.000D+00 0.000D+00 0.000D+00 0.100D+01
 Coeff:     -0.177D-02-0.303D-01 0.557D-01 0.976D+00
 RMSDP=1.35D-04 MaxDP=6.10D-03 DE=-1.35D-02 OVMax= 0.00D+00

 Cycle   5  Pass 1  IDiag  1:
 RMSU=  8.91D-05    CP:  9.93D-01  1.16D+00  9.96D-01  9.92D-01
 E= -474.051950033382     Delta-E=       -0.001064840299 Rises=F Damp=F
 DIIS: error= 5.09D-04 at cycle   5 NSaved=   5.
 NSaved= 5 IEnMin= 5 EnMin= -474.051950033382     IErMin= 5 ErrMin= 5.09D-04
 ErrMax= 5.09D-04  0.00D+00 EMaxC= 1.00D-01 BMatC= 5.96D-05 BMatP= 3.54D-04
 IDIUse=3 WtCom= 9.95D-01 WtEn= 5.09D-03
 Coeff-Com:  0.623D-02-0.267D-01-0.914D-01 0.192D+00 0.920D+00
 Coeff-En:   0.000D+00 0.000D+00 0.000D+00 0.000D+00 0.100D+01
 Coeff:      0.620D-02-0.266D-01-0.910D-01 0.191D+00 0.920D+00
 RMSDP=6.95D-05 MaxDP=2.27D-03 DE=-1.06D-03 OVMax= 0.00D+00

 Cycle   6  Pass 1  IDiag  1:
 RMSU=  3.87D-05    CP:  9.93D-01  1.16D+00  1.01D+00  1.20D+00  9.65D-01
 E= -474.052157361351     Delta-E=       -0.000207327968 Rises=F Damp=F
 DIIS: error= 1.91D-04 at cycle   6 NSaved=   6.
 NSaved= 6 IEnMin= 6 EnMin= -474.052157361351     IErMin= 6 ErrMin= 1.91D-04
 ErrMax= 1.91D-04  0.00D+00 EMaxC= 1.00D-01 BMatC= 9.22D-06 BMatP= 5.96D-05
 IDIUse=3 WtCom= 9.98D-01 WtEn= 1.91D-03
 Coeff-Com:  0.689D-03 0.240D-02-0.254D-01-0.878D-01 0.176D+00 0.934D+00
 Coeff-En:   0.000D+00 0.000D+00 0.000D+00 0.000D+00 0.000D+00 0.100D+01
 Coeff:      0.687D-03 0.239D-02-0.253D-01-0.876D-01 0.175D+00 0.934D+00
 RMSDP=2.38D-05 MaxDP=8.02D-04 DE=-2.07D-04 OVMax= 0.00D+00

 Cycle   7  Pass 1  IDiag  1:
 RMSU=  1.26D-05    CP:  9.92D-01  1.16D+00  1.01D+00  1.23D+00  1.12D+00
                    CP:  1.24D+00
 E= -474.052192093746     Delta-E=       -0.000034732396 Rises=F Damp=F
 DIIS: error= 6.13D-05 at cycle   7 NSaved=   7.
 NSaved= 7 IEnMin= 7 EnMin= -474.052192093746     IErMin= 7 ErrMin= 6.13D-05
 ErrMax= 6.13D-05  0.00D+00 EMaxC= 1.00D-01 BMatC= 1.04D-06 BMatP= 9.22D-06
 IDIUse=1 WtCom= 1.00D+00 WtEn= 0.00D+00
 Coeff-Com: -0.630D-03 0.355D-02 0.572D-02-0.347D-01-0.539D-01-0.289D-01
 Coeff-Com:  0.111D+01
 Coeff:     -0.630D-03 0.355D-02 0.572D-02-0.347D-01-0.539D-01-0.289D-01
 Coeff:      0.111D+01
 RMSDP=2.12D-05 MaxDP=7.35D-04 DE=-3.47D-05 OVMax= 0.00D+00

 Cycle   8  Pass 1  IDiag  1:
 RMSU=  9.06D-06    CP:  9.92D-01  1.16D+00  1.01D+00  1.26D+00  1.15D+00
                    CP:  1.64D+00  1.61D+00
 E= -474.052204717178     Delta-E=       -0.000012623432 Rises=F Damp=F
 DIIS: error= 5.90D-05 at cycle   8 NSaved=   8.
 NSaved= 8 IEnMin= 8 EnMin= -474.052204717178     IErMin= 8 ErrMin= 5.90D-05
 ErrMax= 5.90D-05  0.00D+00 EMaxC= 1.00D-01 BMatC= 8.44D-07 BMatP= 1.04D-06
 IDIUse=1 WtCom= 1.00D+00 WtEn= 0.00D+00
 Coeff-Com: -0.126D-03-0.451D-03 0.476D-02 0.142D-01-0.993D-02-0.301D+00
 Coeff-Com:  0.406D+00 0.887D+00
 Coeff:     -0.126D-03-0.451D-03 0.476D-02 0.142D-01-0.993D-02-0.301D+00
 Coeff:      0.406D+00 0.887D+00
 RMSDP=1.38D-05 MaxDP=4.06D-04 DE=-1.26D-05 OVMax= 0.00D+00

 Cycle   9  Pass 1  IDiag  1:
 RMSU=  3.01D-06    CP:  9.92D-01  1.16D+00  1.01D+00  1.28D+00  1.16D+00
                    CP:  1.85D+00  2.27D+00  1.60D+00
 E= -474.052211893182     Delta-E=       -0.000007176004 Rises=F Damp=F
 DIIS: error= 3.81D-05 at cycle   9 NSaved=   9.
 NSaved= 9 IEnMin= 9 EnMin= -474.052211893182     IErMin= 9 ErrMin= 3.81D-05
 ErrMax= 3.81D-05  0.00D+00 EMaxC= 1.00D-01 BMatC= 4.11D-07 BMatP= 8.44D-07
 IDIUse=1 WtCom= 1.00D+00 WtEn= 0.00D+00
 Coeff-Com:  0.258D-03-0.111D-02-0.308D-02 0.266D-02 0.492D-01-0.223D-01
 Coeff-Com: -0.197D+00-0.102D+01 0.219D+01
 Coeff:      0.258D-03-0.111D-02-0.308D-02 0.266D-02 0.492D-01-0.223D-01
 Coeff:     -0.197D+00-0.102D+01 0.219D+01
 RMSDP=2.61D-05 MaxDP=7.98D-04 DE=-7.18D-06 OVMax= 0.00D+00

 Cycle  10  Pass 1  IDiag  1:
 RMSU=  5.39D-06    CP:  9.92D-01  1.16D+00  1.01D+00  1.30D+00  1.16D+00
                    CP:  2.23D+00  3.00D+00  3.00D+00  3.00D+00
 E= -474.052221381095     Delta-E=       -0.000009487912 Rises=F Damp=F
 DIIS: error= 2.66D-05 at cycle  10 NSaved=  10.
 NSaved=10 IEnMin=10 EnMin= -474.052221381095     IErMin=10 ErrMin= 2.66D-05
 ErrMax= 2.66D-05  0.00D+00 EMaxC= 1.00D-01 BMatC= 2.12D-07 BMatP= 4.11D-07
 IDIUse=1 WtCom= 1.00D+00 WtEn= 0.00D+00
 Coeff-Com: -0.646D-04 0.931D-03-0.126D-02-0.175D-01 0.142D-01 0.101D+00
 Coeff-Com:  0.108D+00-0.645D+00-0.295D+00 0.174D+01
 Coeff:     -0.646D-04 0.931D-03-0.126D-02-0.175D-01 0.142D-01 0.101D+00
 Coeff:      0.108D+00-0.645D+00-0.295D+00 0.174D+01
 RMSDP=2.47D-05 MaxDP=7.88D-04 DE=-9.49D-06 OVMax= 0.00D+00

 Cycle  11  Pass 1  IDiag  1:
 RMSU=  1.45D-05    CP:  9.92D-01  1.16D+00  1.01D+00  1.32D+00  1.15D+00
                    CP:  2.57D+00  3.00D+00  3.00D+00  3.00D+00  3.00D+00
 E= -474.052227205632     Delta-E=       -0.000005824538 Rises=F Damp=F
 DIIS: error= 1.68D-05 at cycle  11 NSaved=  11.
 NSaved=11 IEnMin=11 EnMin= -474.052227205632     IErMin=11 ErrMin= 1.68D-05
 ErrMax= 1.68D-05  0.00D+00 EMaxC= 1.00D-01 BMatC= 7.13D-08 BMatP= 2.12D-07
 IDIUse=1 WtCom= 1.00D+00 WtEn= 0.00D+00
 Coeff-Com: -0.134D-03 0.651D-03 0.169D-02-0.597D-02-0.127D-01-0.106D-01
 Coeff-Com:  0.172D+00 0.395D+00-0.111D+01-0.134D+00 0.171D+01
 Coeff:     -0.134D-03 0.651D-03 0.169D-02-0.597D-02-0.127D-01-0.106D-01
 Coeff:      0.172D+00 0.395D+00-0.111D+01-0.134D+00 0.171D+01
 RMSDP=2.44D-05 MaxDP=7.89D-04 DE=-5.82D-06 OVMax= 0.00D+00

 Cycle  12  Pass 1  IDiag  1:
 RMSU=  1.07D-05    CP:  9.92D-01  1.16D+00  1.01D+00  1.35D+00  1.13D+00
                    CP:  2.88D+00  3.00D+00  3.00D+00  3.00D+00  3.00D+00
                    CP:  2.17D+00
 E= -474.052229901694     Delta-E=       -0.000002696062 Rises=F Damp=F
 DIIS: error= 8.31D-06 at cycle  12 NSaved=  12.
 NSaved=12 IEnMin=12 EnMin= -474.052229901694     IErMin=12 ErrMin= 8.31D-06
 ErrMax= 8.31D-06  0.00D+00 EMaxC= 1.00D-01 BMatC= 9.84D-09 BMatP= 7.13D-08
 IDIUse=1 WtCom= 1.00D+00 WtEn= 0.00D+00
 Coeff-Com:  0.410D-04-0.369D-03 0.270D-03 0.453D-02 0.267D-02-0.382D-01
 Coeff-Com: -0.455D-01 0.143D+00 0.270D+00-0.563D+00-0.152D+00 0.138D+01
 Coeff:      0.410D-04-0.369D-03 0.270D-03 0.453D-02 0.267D-02-0.382D-01
 Coeff:     -0.455D-01 0.143D+00 0.270D+00-0.563D+00-0.152D+00 0.138D+01
 RMSDP=7.17D-06 MaxDP=2.35D-04 DE=-2.70D-06 OVMax= 0.00D+00

 Cycle  13  Pass 1  IDiag  1:
 RMSU=  1.05D-06    CP:  9.92D-01  1.16D+00  1.01D+00  1.35D+00  1.13D+00
                    CP:  2.97D+00  3.00D+00  3.00D+00  3.00D+00  3.00D+00
                    CP:  2.52D+00  1.30D+00
 E= -474.052230135653     Delta-E=       -0.000000233959 Rises=F Damp=F
 DIIS: error= 2.93D-06 at cycle  13 NSaved=  13.
 NSaved=13 IEnMin=13 EnMin= -474.052230135653     IErMin=13 ErrMin= 2.93D-06
 ErrMax= 2.93D-06  0.00D+00 EMaxC= 1.00D-01 BMatC= 1.21D-09 BMatP= 9.84D-09
 IDIUse=1 WtCom= 1.00D+00 WtEn= 0.00D+00
 Coeff-Com:  0.227D-04-0.139D-03-0.166D-03 0.132D-02 0.314D-02-0.649D-02
 Coeff-Com: -0.307D-01-0.183D-01 0.177D+00-0.781D-01-0.244D+00 0.236D+00
 Coeff-Com:  0.961D+00
 Coeff:      0.227D-04-0.139D-03-0.166D-03 0.132D-02 0.314D-02-0.649D-02
 Coeff:     -0.307D-01-0.183D-01 0.177D+00-0.781D-01-0.244D+00 0.236D+00
 Coeff:      0.961D+00
 RMSDP=1.46D-06 MaxDP=4.90D-05 DE=-2.34D-07 OVMax= 0.00D+00

 Cycle  14  Pass 1  IDiag  1:
 RMSU=  2.30D-07    CP:  9.92D-01  1.16D+00  1.01D+00  1.36D+00  1.13D+00
                    CP:  2.99D+00  3.00D+00  3.00D+00  3.00D+00  3.00D+00
                    CP:  2.59D+00  1.36D+00  1.35D+00
 E= -474.052230150549     Delta-E=       -0.000000014896 Rises=F Damp=F
 DIIS: error= 1.42D-06 at cycle  14 NSaved=  14.
 NSaved=14 IEnMin=14 EnMin= -474.052230150549     IErMin=14 ErrMin= 1.42D-06
 ErrMax= 1.42D-06  0.00D+00 EMaxC= 1.00D-01 BMatC= 2.75D-10 BMatP= 1.21D-09
 IDIUse=1 WtCom= 1.00D+00 WtEn= 0.00D+00
 Coeff-Com: -0.106D-04 0.831D-04-0.308D-04-0.103D-02-0.331D-03 0.614D-02
 Coeff-Com:  0.120D-01-0.201D-01-0.704D-01 0.113D+00 0.434D-01-0.230D+00
 Coeff-Com: -0.241D+00 0.139D+01
 Coeff:     -0.106D-04 0.831D-04-0.308D-04-0.103D-02-0.331D-03 0.614D-02
 Coeff:      0.120D-01-0.201D-01-0.704D-01 0.113D+00 0.434D-01-0.230D+00
 Coeff:     -0.241D+00 0.139D+01
 RMSDP=4.46D-07 MaxDP=1.50D-05 DE=-1.49D-08 OVMax= 0.00D+00

 Cycle  15  Pass 1  IDiag  1:
 RMSU=  1.52D-07    CP:  9.92D-01  1.16D+00  1.01D+00  1.36D+00  1.13D+00
                    CP:  2.99D+00  3.00D+00  3.00D+00  3.00D+00  3.00D+00
                    CP:  2.59D+00  1.37D+00  1.60D+00  2.05D+00
 E= -474.052230154784     Delta-E=       -0.000000004236 Rises=F Damp=F
 DIIS: error= 6.31D-07 at cycle  15 NSaved=  15.
 NSaved=15 IEnMin=15 EnMin= -474.052230154784     IErMin=15 ErrMin= 6.31D-07
 ErrMax= 6.31D-07  0.00D+00 EMaxC= 1.00D-01 BMatC= 1.13D-10 BMatP= 2.75D-10
 IDIUse=1 WtCom= 1.00D+00 WtEn= 0.00D+00
 Coeff-Com: -0.382D-05 0.180D-04 0.658D-04-0.135D-03-0.734D-03-0.422D-03
 Coeff-Com:  0.772D-02 0.908D-02-0.322D-01-0.164D-02 0.422D-01 0.270D-01
 Coeff-Com: -0.307D+00-0.172D+00 0.143D+01
 Coeff:     -0.382D-05 0.180D-04 0.658D-04-0.135D-03-0.734D-03-0.422D-03
 Coeff:      0.772D-02 0.908D-02-0.322D-01-0.164D-02 0.422D-01 0.270D-01
 Coeff:     -0.307D+00-0.172D+00 0.143D+01
 RMSDP=3.34D-07 MaxDP=1.13D-05 DE=-4.24D-09 OVMax= 0.00D+00

 Cycle  16  Pass 1  IDiag  1:
 RMSU=  5.78D-08    CP:  9.92D-01  1.16D+00  1.01D+00  1.36D+00  1.13D+00
                    CP:  2.99D+00  3.00D+00  3.00D+00  3.00D+00  3.00D+00
                    CP:  2.60D+00  1.38D+00  1.77D+00  3.00D+00  1.90D+00
 E= -474.052230156790     Delta-E=       -0.000000002005 Rises=F Damp=F
 DIIS: error= 3.35D-07 at cycle  16 NSaved=  16.
 NSaved=16 IEnMin=16 EnMin= -474.052230156790     IErMin=16 ErrMin= 3.35D-07
 ErrMax= 3.35D-07  0.00D+00 EMaxC= 1.00D-01 BMatC= 3.71D-11 BMatP= 1.13D-10
 IDIUse=1 WtCom= 1.00D+00 WtEn= 0.00D+00
 Coeff-Com:  0.527D-05-0.393D-04 0.893D-05 0.471D-03 0.211D-03-0.283D-02
 Coeff-Com: -0.481D-02 0.424D-02 0.372D-01-0.447D-01-0.342D-01 0.112D+00
 Coeff-Com:  0.791D-01-0.451D+00-0.314D+00 0.162D+01
 Coeff:      0.527D-05-0.393D-04 0.893D-05 0.471D-03 0.211D-03-0.283D-02
 Coeff:     -0.481D-02 0.424D-02 0.372D-01-0.447D-01-0.342D-01 0.112D+00
 Coeff:      0.791D-01-0.451D+00-0.314D+00 0.162D+01
 RMSDP=2.89D-07 MaxDP=1.01D-05 DE=-2.01D-09 OVMax= 0.00D+00

 Cycle  17  Pass 1  IDiag  1:
 RMSU=  1.85D-07    CP:  9.92D-01  1.16D+00  1.01D+00  1.36D+00  1.13D+00
                    CP:  2.99D+00  3.00D+00  3.00D+00  3.00D+00  3.00D+00
                    CP:  2.60D+00  1.38D+00  1.90D+00  3.00D+00  2.82D+00
                    CP:  2.26D+00
 E= -474.052230157647     Delta-E=       -0.000000000857 Rises=F Damp=F
 DIIS: error= 1.74D-07 at cycle  17 NSaved=  17.
 NSaved=17 IEnMin=17 EnMin= -474.052230157647     IErMin=17 ErrMin= 1.74D-07
 ErrMax= 1.74D-07  0.00D+00 EMaxC= 1.00D-01 BMatC= 7.96D-12 BMatP= 3.71D-11
 IDIUse=1 WtCom= 1.00D+00 WtEn= 0.00D+00
 Coeff-Com:  0.106D-05-0.540D-05-0.183D-04 0.454D-04 0.195D-03-0.782D-04
 Coeff-Com: -0.161D-02-0.325D-02 0.983D-02-0.356D-03-0.118D-01 0.206D-02
 Coeff-Com:  0.554D-01 0.827D-01-0.376D+00 0.805D-02 0.123D+01
 Coeff:      0.106D-05-0.540D-05-0.183D-04 0.454D-04 0.195D-03-0.782D-04
 Coeff:     -0.161D-02-0.325D-02 0.983D-02-0.356D-03-0.118D-01 0.206D-02
 Coeff:      0.554D-01 0.827D-01-0.376D+00 0.805D-02 0.123D+01
 RMSDP=1.03D-07 MaxDP=4.16D-06 DE=-8.57D-10 OVMax= 0.00D+00

 Cycle  18  Pass 1  IDiag  1:
 RMSU=  3.11D-08    CP:  9.92D-01  1.16D+00  1.01D+00  1.36D+00  1.13D+00
                    CP:  2.99D+00  3.00D+00  3.00D+00  3.00D+00  3.00D+00
                    CP:  2.60D+00  1.38D+00  1.93D+00  3.00D+00  3.00D+00
                    CP:  3.00D+00  1.33D+00
 E= -474.052230157790     Delta-E=       -0.000000000144 Rises=F Damp=F
 DIIS: error= 1.41D-07 at cycle  18 NSaved=  18.
 NSaved=18 IEnMin=18 EnMin= -474.052230157790     IErMin=18 ErrMin= 1.41D-07
 ErrMax= 1.41D-07  0.00D+00 EMaxC= 1.00D-01 BMatC= 2.37D-12 BMatP= 7.96D-12
 IDIUse=1 WtCom= 1.00D+00 WtEn= 0.00D+00
 Coeff-Com: -0.195D-05 0.141D-04-0.291D-05-0.162D-03-0.800D-04 0.932D-03
 Coeff-Com:  0.187D-02-0.132D-02-0.129D-01 0.144D-01 0.117D-01-0.362D-01
 Coeff-Com: -0.412D-01 0.162D+00 0.119D+00-0.558D+00-0.229D-01 0.136D+01
 Coeff:     -0.195D-05 0.141D-04-0.291D-05-0.162D-03-0.800D-04 0.932D-03
 Coeff:      0.187D-02-0.132D-02-0.129D-01 0.144D-01 0.117D-01-0.362D-01
 Coeff:     -0.412D-01 0.162D+00 0.119D+00-0.558D+00-0.229D-01 0.136D+01
 RMSDP=6.68D-08 MaxDP=2.21D-06 DE=-1.44D-10 OVMax= 0.00D+00

 Cycle  19  Pass 1  IDiag  1:
 RMSU=  2.84D-08    CP:  9.92D-01  1.16D+00  1.01D+00  1.36D+00  1.13D+00
                    CP:  2.99D+00  3.00D+00  3.00D+00  3.00D+00  3.00D+00
                    CP:  2.60D+00  1.38D+00  1.96D+00  3.00D+00  3.00D+00
                    CP:  3.00D+00  1.52D+00  2.14D+00
 E= -474.052230157816     Delta-E=       -0.000000000025 Rises=F Damp=F
 DIIS: error= 8.37D-08 at cycle  19 NSaved=  19.
 NSaved=19 IEnMin=19 EnMin= -474.052230157816     IErMin=19 ErrMin= 8.37D-08
 ErrMax= 8.37D-08  0.00D+00 EMaxC= 1.00D-01 BMatC= 3.26D-13 BMatP= 2.37D-12
 IDIUse=1 WtCom= 1.00D+00 WtEn= 0.00D+00
 Coeff-Com: -0.319D-06 0.188D-05 0.448D-05-0.198D-04-0.394D-04 0.490D-04
 Coeff-Com:  0.374D-03 0.702D-03-0.273D-02 0.872D-03 0.306D-02-0.114D-02
 Coeff-Com: -0.141D-01-0.106D-01 0.808D-01-0.142D-01-0.227D+00-0.210D-01
 Coeff-Com:  0.121D+01
 Coeff:     -0.319D-06 0.188D-05 0.448D-05-0.198D-04-0.394D-04 0.490D-04
 Coeff:      0.374D-03 0.702D-03-0.273D-02 0.872D-03 0.306D-02-0.114D-02
 Coeff:     -0.141D-01-0.106D-01 0.808D-01-0.142D-01-0.227D+00-0.210D-01
 Coeff:      0.121D+01
 RMSDP=1.77D-08 MaxDP=7.27D-07 DE=-2.55D-11 OVMax= 0.00D+00

 Cycle  20  Pass 1  IDiag  1:
 RMSU=  5.33D-09    CP:  9.92D-01  1.16D+00  1.01D+00  1.36D+00  1.13D+00
                    CP:  2.99D+00  3.00D+00  3.00D+00  3.00D+00  3.00D+00
                    CP:  2.60D+00  1.38D+00  1.96D+00  3.00D+00  3.00D+00
                    CP:  3.00D+00  1.57D+00  2.51D+00  1.28D+00
 E= -474.052230157792     Delta-E=        0.000000000024 Rises=F Damp=F
 DIIS: error= 3.32D-08 at cycle  20 NSaved=  20.
 NSaved=20 IEnMin=19 EnMin= -474.052230157816     IErMin=20 ErrMin= 3.32D-08
 ErrMax= 3.32D-08  0.00D+00 EMaxC= 1.00D-01 BMatC= 7.11D-14 BMatP= 3.26D-13
 IDIUse=1 WtCom= 1.00D+00 WtEn= 0.00D+00
 Coeff-Com:  0.408D-06-0.290D-05 0.593D-06 0.312D-04 0.234D-04-0.183D-03
 Coeff-Com: -0.422D-03 0.352D-03 0.252D-02-0.276D-02-0.256D-02 0.697D-02
 Coeff-Com:  0.922D-02-0.302D-01-0.304D-01 0.107D+00 0.291D-01-0.292D+00
 Coeff-Com: -0.720D-01 0.128D+01
 Coeff:      0.408D-06-0.290D-05 0.593D-06 0.312D-04 0.234D-04-0.183D-03
 Coeff:     -0.422D-03 0.352D-03 0.252D-02-0.276D-02-0.256D-02 0.697D-02
 Coeff:      0.922D-02-0.302D-01-0.304D-01 0.107D+00 0.291D-01-0.292D+00
 Coeff:     -0.720D-01 0.128D+01
 RMSDP=8.04D-09 MaxDP=3.60D-07 DE= 2.36D-11 OVMax= 0.00D+00

 SCF Done:  E(RZINDO/S) =  -474.052230158     A.U. after   20 cycles
            NFock= 20  Conv=0.80D-08     -V/T= 0.9502
 KE=-9.525643344901D+03 PE=-4.405919753481D-07 EE= 4.625657225457D+03
 Leave Link  502 at Wed May  4 08:57:12 2022, MaxMem=  6710886400 cpu:              19.8 elap:               0.8
 (Enter /sw/apps/gaussian-16.0/g16/l801.exe)
 Range of M.O.s used for correlation:     1   338
 NBasis=   338 NAE=   176 NBE=   176 NFC=     0 NFV=     0
 NROrb=    338 NOA=   176 NOB=   176 NVA=   162 NVB=   162
 Leave Link  801 at Wed May  4 08:57:13 2022, MaxMem=  6710886400 cpu:               0.5 elap:               0.0
 (Enter /sw/apps/gaussian-16.0/g16/l914.exe)
 RHF ground state
 Two-electron integral symmetry not used.
 MDV=  6710886400 DFT=F DoStab=F Mixed=F DoRPA=F DoScal=F NonHer=F
 Making orbital integer symmetry assigments:
 Orbital symmetries:
       Occupied  (A) (A) (A) (A) (A) (A) (A) (A) (A) (A) (A) (A)
                 (A) (A) (A) (A) (A) (A) (A) (A) (A) (A) (A) (A)
                 (A) (A) (A) (A) (A) (A) (A) (A) (A) (A) (A) (A)
                 (A) (A) (A) (A) (A) (A) (A) (A) (A) (A) (A) (A)
                 (A) (A) (A) (A) (A) (A) (A) (A) (A) (A) (A) (A)
                 (A) (A) (A) (A) (A) (A) (A) (A) (A) (A) (A) (A)
                 (A) (A) (A) (A) (A) (A) (A) (A) (A) (A) (A) (A)
                 (A) (A) (A) (A) (A) (A) (A) (A) (A) (A) (A) (A)
                 (A) (A) (A) (A) (A) (A) (A) (A) (A) (A) (A) (A)
                 (A) (A) (A) (A) (A) (A) (A) (A) (A) (A) (A) (A)
                 (A) (A) (A) (A) (A) (A) (A) (A) (A) (A) (A) (A)
                 (A) (A) (A) (A) (A) (A) (A) (A) (A) (A) (A) (A)
                 (A) (A) (A) (A) (A) (A) (A) (A) (A) (A) (A) (A)
                 (A) (A) (A) (A) (A) (A) (A) (A) (A) (A) (A) (A)
                 (A) (A) (A) (A) (A) (A) (A) (A)
       Virtual   (A) (A) (A) (A) (A) (A) (A) (A) (A) (A) (A) (A)
                 (A) (A) (A) (A) (A) (A) (A) (A) (A) (A) (A) (A)
                 (A) (A) (A) (A) (A) (A) (A) (A) (A) (A) (A) (A)
                 (A) (A) (A) (A) (A) (A) (A) (A) (A) (A) (A) (A)
                 (A) (A) (A) (A) (A) (A) (A) (A) (A) (A) (A) (A)
                 (A) (A) (A) (A) (A) (A) (A) (A) (A) (A) (A) (A)
                 (A) (A) (A) (A) (A) (A) (A) (A) (A) (A) (A) (A)
                 (A) (A) (A) (A) (A) (A) (A) (A) (A) (A) (A) (A)
                 (A) (A) (A) (A) (A) (A) (A) (A) (A) (A) (A) (A)
                 (A) (A) (A) (A) (A) (A) (A) (A) (A) (A) (A) (A)
                 (A) (A) (A) (A) (A) (A) (A) (A) (A) (A) (A) (A)
                 (A) (A) (A) (A) (A) (A) (A) (A) (A) (A) (A) (A)
                 (A) (A) (A) (A) (A) (A) (A) (A) (A) (A) (A) (A)
                 (A) (A) (A) (A) (A) (A)
    20 initial guesses have been made.
 Convergence on wavefunction:    0.001000000000000
 Davidson Disk Diagonalization:  ConvIn= 1.00D-03 SkipCon=T Conv= 1.00D-03.
 Max sub-space:  2000 roots to seek:    20 dimension of matrix:        57024
 Iteration     1 Dimension    20 NMult     0 NNew     20
 CISAX will form    20 AO SS matrices at one time.
 NMat=    20 NSing=    20 JSym2X= 0.
 New state      3 was old state      6
 New state      4 was old state      7
 New state      5 was old state      8
 Excitation Energies [eV] at current iteration:
 Root      1 :     1.596876520714716
 Root      2 :     2.092335972482859
 Root      3 :     2.953950661202053
 Root      4 :     3.206557116518402
 Root      5 :     3.288847006811757
 Root      6 :     3.365555800848674
 Root      7 :     3.459281087879760
 Root      8 :     3.776146716522404
 Root      9 :     3.832836462007100
 Root     10 :     3.862797199202755
 Root     11 :     4.184575596659729
 Root     12 :     4.295452768521655
 Root     13 :     4.335303224997488
 Root     14 :     4.354063409534496
 Root     15 :     4.382565286149983
 Root     16 :     4.453454982104811
 Root     17 :     4.528107147312231
 Root     18 :     4.555275990843531
 Root     19 :     4.733140419576682
 Root     20 :     5.473385617794484
 Iteration     2 Dimension    40 NMult    20 NNew     20
 CISAX will form    20 AO SS matrices at one time.
 NMat=    20 NSing=    20 JSym2X= 0.
 Root      1 not converged, maximum delta is    0.037623121194160
 Root      2 not converged, maximum delta is    0.027360709529677
 Root      3 not converged, maximum delta is    0.061173213722907
 New state      4 was old state      5
 Root      4 not converged, maximum delta is    0.321003138582621
 New state      5 was old state      4
 Root      5 not converged, maximum delta is    0.224613577641250
 Excitation Energies [eV] at current iteration:
 Root      1 :     1.219829796160947   Change is   -0.377046724553769
 Root      2 :     1.893446847101389   Change is   -0.198889125381470
 Root      3 :     2.930908661750579   Change is   -0.023041999451474
 Root      4 :     2.971464283591203   Change is   -0.317382723220555
 Root      5 :     3.004598761865736   Change is   -0.201958354652666
 Root      6 :     3.145289029360161   Change is   -0.220266771488514
 Root      7 :     3.175100371081779   Change is   -0.284180716797981
 Root      8 :     3.449032192748963   Change is   -0.383804269258137
 Root      9 :     3.564109833721498   Change is   -0.212036882800906
 Root     10 :     3.601950120010492   Change is   -0.260847079192263
 Root     11 :     3.648850000927236   Change is   -0.646602767594419
 Root     12 :     3.793060779146767   Change is   -0.391514817512962
 Root     13 :     3.822571208102823   Change is   -0.630883774001988
 Root     14 :     4.062508953087610   Change is   -0.320056333062373
 Root     15 :     4.186243698593712   Change is   -0.149059526403776
 Root     16 :     4.270860289802934   Change is   -0.284415701040597
 Root     17 :     4.350064226285610   Change is   -0.003999183248887
 Root     18 :     4.482094009989189   Change is   -0.046013137323042
 Root     19 :     4.501009478804127   Change is   -0.232130940772555
 Root     20 :     5.466337836244971   Change is   -0.007047781549513
 Iteration     3 Dimension    45 NMult    40 NNew      5
 CISAX will form     5 AO SS matrices at one time.
 NMat=     5 NSing=     5 JSym2X= 0.
 Root      1 not converged, maximum delta is    0.013299003641995
 Root      2 not converged, maximum delta is    0.014999958350078
 Root      3 not converged, maximum delta is    0.058529112037585
 Root      4 not converged, maximum delta is    0.040394952384171
 Root      5 not converged, maximum delta is    0.087588896302792
 Excitation Energies [eV] at current iteration:
 Root      1 :     1.201955069161655   Change is   -0.017874726999292
 Root      2 :     1.867729309239113   Change is   -0.025717537862276
 Root      3 :     2.926435585410778   Change is   -0.004473076339801
 Root      4 :     2.950080319629218   Change is   -0.021383963961985
 Root      5 :     2.967832817004133   Change is   -0.036765944861604
 Iteration     4 Dimension    50 NMult    45 NNew      5
 CISAX will form     5 AO SS matrices at one time.
 NMat=     5 NSing=     5 JSym2X= 0.
 Root      1 not converged, maximum delta is    0.002579750217816
 Root      2 not converged, maximum delta is    0.002801679111520
 Root      3 not converged, maximum delta is    0.033948400513396
 Root      4 not converged, maximum delta is    0.060314323099990
 Root      5 not converged, maximum delta is    0.079140686852389
 Excitation Energies [eV] at current iteration:
 Root      1 :     1.201093603816007   Change is   -0.000861465345648
 Root      2 :     1.867090473672846   Change is   -0.000638835566266
 Root      3 :     2.924791033293691   Change is   -0.001644552117087
 Root      4 :     2.946640307169470   Change is   -0.003440012459748
 Root      5 :     2.958988128905653   Change is   -0.008844688098479
 Iteration     5 Dimension    55 NMult    50 NNew      5
 CISAX will form     5 AO SS matrices at one time.
 NMat=     5 NSing=     5 JSym2X= 0.
 Root      1 has converged.
 Root      2 has converged.
 Root      3 not converged, maximum delta is    0.118271770889122
 New state      4 was old state      5
 Root      4 not converged, maximum delta is    0.264646344184344
 New state      5 was old state      4
 Root      5 not converged, maximum delta is    0.276179124668919
 Excitation Energies [eV] at current iteration:
 Root      1 :     1.201036499200471   Change is   -0.000057104615536
 Root      2 :     1.867053098075012   Change is   -0.000037375597835
 Root      3 :     2.920261565996852   Change is   -0.004529467296839
 Root      4 :     2.941047087036451   Change is   -0.017941041869203
 Root      5 :     2.948156953494716   Change is    0.001516646325246
 Iteration     6 Dimension    58 NMult    55 NNew      3
 CISAX will form     3 AO SS matrices at one time.
 NMat=     3 NSing=     3 JSym2X= 0.
 Root      1 has converged.
 Root      2 has converged.
 Root      3 not converged, maximum delta is    0.293536000410167
 Root      4 not converged, maximum delta is    0.243825549353671
 Root      5 not converged, maximum delta is    0.131464585197873
 Excitation Energies [eV] at current iteration:
 Root      1 :     1.201036410104332   Change is   -0.000000089096140
 Root      2 :     1.867052113706019   Change is   -0.000000984368992
 Root      3 :     2.903642129888348   Change is   -0.016619436108503
 Root      4 :     2.932123874817082   Change is   -0.008923212219369
 Root      5 :     2.945803920874304   Change is   -0.002353032620412
 Iteration     7 Dimension    61 NMult    58 NNew      3
 CISAX will form     3 AO SS matrices at one time.
 NMat=     3 NSing=     3 JSym2X= 0.
 Root      1 has converged.
 Root      2 has converged.
 Root      3 not converged, maximum delta is    0.059154247286049
 Root      4 not converged, maximum delta is    0.040243275818209
 Root      5 not converged, maximum delta is    0.043925881759292
 Excitation Energies [eV] at current iteration:
 Root      1 :     1.201036384120580   Change is   -0.000000025983751
 Root      2 :     1.867051844459239   Change is   -0.000000269246780
 Root      3 :     2.895747207975237   Change is   -0.007894921913111
 Root      4 :     2.930915183223227   Change is   -0.001208691593855
 Root      5 :     2.943578939095624   Change is   -0.002224981778681
 Iteration     8 Dimension    64 NMult    61 NNew      3
 CISAX will form     3 AO SS matrices at one time.
 NMat=     3 NSing=     3 JSym2X= 0.
 Root      1 has converged.
 Root      2 has converged.
 Root      3 not converged, maximum delta is    0.006117028903776
 Root      4 not converged, maximum delta is    0.005435986128914
 Root      5 not converged, maximum delta is    0.026835932793191
 Excitation Energies [eV] at current iteration:
 Root      1 :     1.201036209771012   Change is   -0.000000174349568
 Root      2 :     1.867051804766703   Change is   -0.000000039692536
 Root      3 :     2.894652426347023   Change is   -0.001094781628214
 Root      4 :     2.930792664621880   Change is   -0.000122518601347
 Root      5 :     2.942277738396854   Change is   -0.001301200698769
 Iteration     9 Dimension    67 NMult    64 NNew      3
 CISAX will form     3 AO SS matrices at one time.
 NMat=     3 NSing=     3 JSym2X= 0.
 Root      1 has converged.
 Root      2 has converged.
 Root      3 not converged, maximum delta is    0.001777282983040
 Root      4 has converged.
 Root      5 not converged, maximum delta is    0.009607561171591
 Excitation Energies [eV] at current iteration:
 Root      1 :     1.201036138701268   Change is   -0.000000071069744
 Root      2 :     1.867051718199314   Change is   -0.000000086567389
 Root      3 :     2.894506676592516   Change is   -0.000145749754506
 Root      4 :     2.930777627021107   Change is   -0.000015037600773
 Root      5 :     2.941821789088868   Change is   -0.000455949307986
 Iteration    10 Dimension    69 NMult    67 NNew      2
 CISAX will form     2 AO SS matrices at one time.
 NMat=     2 NSing=     2 JSym2X= 0.
 Root      1 has converged.
 Root      2 has converged.
 Root      3 has converged.
 Root      4 has converged.
 Root      5 not converged, maximum delta is    0.005416378346818
 Excitation Energies [eV] at current iteration:
 Root      1 :     1.201036095630886   Change is   -0.000000043070383
 Root      2 :     1.867051493513308   Change is   -0.000000224686007
 Root      3 :     2.894484938361016   Change is   -0.000021738231501
 Root      4 :     2.930775709816834   Change is   -0.000001917204272
 Root      5 :     2.941578691422086   Change is   -0.000243097666783
 Iteration    11 Dimension    70 NMult    69 NNew      1
 CISAX will form     1 AO SS matrices at one time.
 NMat=     1 NSing=     1 JSym2X= 0.
 Root      1 has converged.
 Root      2 has converged.
 Root      3 has converged.
 Root      4 has converged.
 Root      5 not converged, maximum delta is    0.003546798378278
 Excitation Energies [eV] at current iteration:
 Root      1 :     1.201036056181727   Change is   -0.000000039449158
 Root      2 :     1.867051230431034   Change is   -0.000000263082273
 Root      3 :     2.894481322857061   Change is   -0.000003615503955
 Root      4 :     2.930775520243112   Change is   -0.000000189573722
 Root      5 :     2.941428219869044   Change is   -0.000150471553042
 Iteration    12 Dimension    71 NMult    70 NNew      1
 CISAX will form     1 AO SS matrices at one time.
 NMat=     1 NSing=     1 JSym2X= 0.
 Root      1 has converged.
 Root      2 has converged.
 Root      3 has converged.
 Root      4 has converged.
 Root      5 not converged, maximum delta is    0.001217351855562
 Excitation Energies [eV] at current iteration:
 Root      1 :     1.201036055935722   Change is   -0.000000000246006
 Root      2 :     1.867051165470294   Change is   -0.000000064960740
 Root      3 :     2.894480187668067   Change is   -0.000001135188995
 Root      4 :     2.930775447616206   Change is   -0.000000072626906
 Root      5 :     2.941380592176348   Change is   -0.000047627692696
 Iteration    13 Dimension    72 NMult    71 NNew      1
 CISAX will form     1 AO SS matrices at one time.
 NMat=     1 NSing=     1 JSym2X= 0.
 Root      1 has converged.
 Root      2 has converged.
 Root      3 has converged.
 Root      4 has converged.
 Root      5 has converged.
 Excitation Energies [eV] at current iteration:
 Root      1 :     1.201036050103514   Change is   -0.000000005832207
 Root      2 :     1.867051109597430   Change is   -0.000000055872864
 Root      3 :     2.894480069946594   Change is   -0.000000117721473
 Root      4 :     2.930775441621652   Change is   -0.000000005994553
 Root      5 :     2.941374259502808   Change is   -0.000006332673540
 Convergence achieved on expansion vectors.
 ***********************************************************************
 Excited states from <AA,BB:AA,BB> singles matrix:
 ***********************************************************************
 
 1PDM for each excited state written to RWF  633
 Ground to excited state transition densities written to RWF  633
 Ground to excited state transition electric dipole moments (Au):
       state          X           Y           Z        Dip. S.      Osc.
         1        -2.6730     -1.4312     -3.3935     20.7088      0.6094
         2        -0.0661     -0.9750      0.3733      1.0943      0.0501
         3         0.0685     -0.5719      0.2437      0.3911      0.0277
         4         0.1334     -0.2774      0.0337      0.0959      0.0069
         5         0.0108      2.7142     -0.7647      7.9518      0.5730
 Ground to excited state transition velocity dipole moments (Au):
       state          X           Y           Z        Dip. S.      Osc.
         1        -0.0446      0.0030     -0.0725      0.0072      0.1095
         2         0.0052      0.0179     -0.0051      0.0004      0.0036
         3        -0.0095      0.0139     -0.0102      0.0004      0.0024
         4        -0.0082      0.0110      0.0027      0.0002      0.0012
         5         0.0011     -0.0837      0.0129      0.0072      0.0443
 Ground to excited state transition magnetic dipole moments (Au):
       state          X           Y           Z
         1         0.0381     -0.5342     -0.1380
         2        -0.2369     -0.0069     -0.0094
         3        -0.1186     -0.3068     -0.7819
         4         0.3746      0.0036     -0.1109
         5         0.5394      0.2965      0.7206
 Ground to excited state transition velocity quadrupole moments (Au):
       state          XX          YY          ZZ          XY          XZ          YZ
         1         0.6789     -0.0284     -0.0592     -0.1129      0.5241     -0.0111
         2        -0.1228      0.0938      0.0092     -0.1601      0.0841      0.0136
         3         0.0802     -0.0785      0.0228     -0.3182      0.1092     -0.1102
         4         0.0854      0.0578     -0.0381     -0.0884     -0.0726      0.0037
         5         0.2803     -0.2971      0.0327      0.5542     -0.1839     -0.1020
 <0|del|b> * <b|rxdel|0> + <0|del|b> * <b|delr+rdel|0>
 Rotatory Strengths (R) in cgs (10**-40 erg-esu-cm/Gauss)
       state          XX          YY          ZZ    R(velocity)    E-M Angle
         1       120.0555      4.9247    -17.8127     35.7225       81.83
         2        -3.8940    -10.0115      0.3457     -4.5199      106.70
         3        17.9058     22.9280     -8.8877     10.6487       73.30
         4         0.9799    -10.3822    -12.4711     -7.2911      127.58
         5       -77.6976      8.6513    -28.4561    -32.5008      100.70
 1/2[<0|r|b>*<b|rxdel|0> + (<0|rxdel|b>*<b|r|0>)*]
 Rotatory Strengths (R) in cgs (10**-40 erg-esu-cm/Gauss)
       state          XX          YY          ZZ     R(length)
         1        72.0194   -540.6790   -331.1947   -266.6181
         2       -11.0703     -4.7860      2.4826     -4.4579
         3         5.7434   -124.0641    134.7635      5.4809
         4       -35.3317      0.7100      2.6460    -10.6585
         5        -4.1029   -569.1198    389.6373    -61.1951
  1/2[<0|del|b>*<b|r|0> + (<0|r|b>*<b|del|0>)*] (Au)
       state          X           Y           Z        Dip. S.   Osc.(frdel)
         1         0.1191     -0.0043      0.2459     -0.3607     -0.2405
         2        -0.0003     -0.0174     -0.0019      0.0197      0.0131
         3        -0.0007     -0.0080     -0.0025      0.0111      0.0074
         4        -0.0011     -0.0031      0.0001      0.0041      0.0027
         5         0.0000     -0.2272     -0.0099      0.2371      0.1581

 Excitation energies and oscillator strengths:
 
 Excited State   1:      Singlet-A      1.2010 eV 1032.31 nm  f=0.6094  <S**2>=0.000
     175 ->178        -0.19383
     176 ->177         0.66185
 This state for optimization and/or second-order correction.
 Total Energy, E(CIS/TDA) =  -474.008092895    
 Copying the excited state density for this state as the 1-particle RhoCI density.
 
 Excited State   2:      Singlet-A      1.8671 eV  664.06 nm  f=0.0501  <S**2>=0.000
     175 ->177         0.55450
     176 ->178         0.41255
 
 Excited State   3:      Singlet-A      2.8945 eV  428.35 nm  f=0.0277  <S**2>=0.000
     168 ->177         0.12688
     168 ->179        -0.16599
     168 ->181         0.16783
     168 ->186        -0.13760
     169 ->179        -0.17973
     169 ->181         0.15304
     169 ->186        -0.14088
     171 ->177         0.25203
     172 ->177        -0.22579
     173 ->177         0.27947
     176 ->178        -0.12953
     176 ->180         0.14613
 
 Excited State   4:      Singlet-A      2.9308 eV  423.04 nm  f=0.0069  <S**2>=0.000
     176 ->179         0.11290
     176 ->180         0.66663
 
 Excited State   5:      Singlet-A      2.9414 eV  421.52 nm  f=0.5730  <S**2>=0.000
     170 ->177         0.13646
     170 ->179         0.13344
     171 ->177         0.17895
     172 ->177         0.23656
     173 ->177         0.20211
     175 ->177        -0.27636
     176 ->178         0.40773
 SavETr:  write IOETrn=   770 NScale= 10 NData=  16 NLR=1 NState=    5 LETran=     100.
 Leave Link  914 at Wed May  4 08:57:17 2022, MaxMem=  6710886400 cpu:             106.5 elap:               4.5
 (Enter /sw/apps/gaussian-16.0/g16/l601.exe)
 Copying SCF densities to generalized density rwf, IOpCl= 0 IROHF=0.

 **********************************************************************

            Population analysis using the SCF density.

 **********************************************************************

 Orbital symmetries:
       Occupied  (A) (A) (A) (A) (A) (A) (A) (A) (A) (A) (A) (A)
                 (A) (A) (A) (A) (A) (A) (A) (A) (A) (A) (A) (A)
                 (A) (A) (A) (A) (A) (A) (A) (A) (A) (A) (A) (A)
                 (A) (A) (A) (A) (A) (A) (A) (A) (A) (A) (A) (A)
                 (A) (A) (A) (A) (A) (A) (A) (A) (A) (A) (A) (A)
                 (A) (A) (A) (A) (A) (A) (A) (A) (A) (A) (A) (A)
                 (A) (A) (A) (A) (A) (A) (A) (A) (A) (A) (A) (A)
                 (A) (A) (A) (A) (A) (A) (A) (A) (A) (A) (A) (A)
                 (A) (A) (A) (A) (A) (A) (A) (A) (A) (A) (A) (A)
                 (A) (A) (A) (A) (A) (A) (A) (A) (A) (A) (A) (A)
                 (A) (A) (A) (A) (A) (A) (A) (A) (A) (A) (A) (A)
                 (A) (A) (A) (A) (A) (A) (A) (A) (A) (A) (A) (A)
                 (A) (A) (A) (A) (A) (A) (A) (A) (A) (A) (A) (A)
                 (A) (A) (A) (A) (A) (A) (A) (A) (A) (A) (A) (A)
                 (A) (A) (A) (A) (A) (A) (A) (A)
       Virtual   (A) (A) (A) (A) (A) (A) (A) (A) (A) (A) (A) (A)
                 (A) (A) (A) (A) (A) (A) (A) (A) (A) (A) (A) (A)
                 (A) (A) (A) (A) (A) (A) (A) (A) (A) (A) (A) (A)
                 (A) (A) (A) (A) (A) (A) (A) (A) (A) (A) (A) (A)
                 (A) (A) (A) (A) (A) (A) (A) (A) (A) (A) (A) (A)
                 (A) (A) (A) (A) (A) (A) (A) (A) (A) (A) (A) (A)
                 (A) (A) (A) (A) (A) (A) (A) (A) (A) (A) (A) (A)
                 (A) (A) (A) (A) (A) (A) (A) (A) (A) (A) (A) (A)
                 (A) (A) (A) (A) (A) (A) (A) (A) (A) (A) (A) (A)
                 (A) (A) (A) (A) (A) (A) (A) (A) (A) (A) (A) (A)
                 (A) (A) (A) (A) (A) (A) (A) (A) (A) (A) (A) (A)
                 (A) (A) (A) (A) (A) (A) (A) (A) (A) (A) (A) (A)
                 (A) (A) (A) (A) (A) (A) (A) (A) (A) (A) (A) (A)
                 (A) (A) (A) (A) (A) (A)
 The electronic state is 1-A.
 Alpha  occ. eigenvalues --   -1.84883  -1.81264  -1.77362  -1.71598  -1.70578
 Alpha  occ. eigenvalues --   -1.69451  -1.66004  -1.62675  -1.60347  -1.58041
 Alpha  occ. eigenvalues --   -1.54379  -1.51106  -1.47980  -1.47194  -1.46856
 Alpha  occ. eigenvalues --   -1.45952  -1.41888  -1.41248  -1.38790  -1.36931
 Alpha  occ. eigenvalues --   -1.36003  -1.35216  -1.33723  -1.29610  -1.29018
 Alpha  occ. eigenvalues --   -1.28290  -1.27583  -1.23839  -1.20249  -1.18229
 Alpha  occ. eigenvalues --   -1.17448  -1.16260  -1.15242  -1.13911  -1.13162
 Alpha  occ. eigenvalues --   -1.11812  -1.10794  -1.09346  -1.06371  -1.04630
 Alpha  occ. eigenvalues --   -1.02679  -1.01368  -0.99415  -0.97498  -0.95187
 Alpha  occ. eigenvalues --   -0.94994  -0.93765  -0.92710  -0.92361  -0.92108
 Alpha  occ. eigenvalues --   -0.91589  -0.90532  -0.88679  -0.87997  -0.86891
 Alpha  occ. eigenvalues --   -0.86146  -0.85476  -0.83496  -0.82584  -0.80489
 Alpha  occ. eigenvalues --   -0.79890  -0.77960  -0.77889  -0.77403  -0.76503
 Alpha  occ. eigenvalues --   -0.75538  -0.74398  -0.73996  -0.73328  -0.73012
 Alpha  occ. eigenvalues --   -0.72590  -0.72429  -0.71759  -0.71521  -0.70804
 Alpha  occ. eigenvalues --   -0.70490  -0.69671  -0.69554  -0.68321  -0.67943
 Alpha  occ. eigenvalues --   -0.67343  -0.66937  -0.66162  -0.65898  -0.65546
 Alpha  occ. eigenvalues --   -0.65150  -0.64951  -0.64712  -0.64340  -0.64198
 Alpha  occ. eigenvalues --   -0.63760  -0.63165  -0.62870  -0.62664  -0.62400
 Alpha  occ. eigenvalues --   -0.62038  -0.61906  -0.61165  -0.60816  -0.60619
 Alpha  occ. eigenvalues --   -0.60565  -0.59786  -0.59316  -0.58900  -0.58393
 Alpha  occ. eigenvalues --   -0.57987  -0.57590  -0.56723  -0.56265  -0.56099
 Alpha  occ. eigenvalues --   -0.55856  -0.55692  -0.55477  -0.55023  -0.54732
 Alpha  occ. eigenvalues --   -0.54315  -0.54038  -0.53450  -0.53411  -0.53212
 Alpha  occ. eigenvalues --   -0.52692  -0.52126  -0.51892  -0.51646  -0.51365
 Alpha  occ. eigenvalues --   -0.51121  -0.51017  -0.50827  -0.50681  -0.50511
 Alpha  occ. eigenvalues --   -0.49870  -0.49748  -0.49434  -0.49344  -0.49037
 Alpha  occ. eigenvalues --   -0.48569  -0.48355  -0.48196  -0.47896  -0.47308
 Alpha  occ. eigenvalues --   -0.47188  -0.47061  -0.46960  -0.46744  -0.46295
 Alpha  occ. eigenvalues --   -0.46290  -0.46142  -0.45771  -0.45526  -0.45374
 Alpha  occ. eigenvalues --   -0.45249  -0.45167  -0.44782  -0.44457  -0.44392
 Alpha  occ. eigenvalues --   -0.44223  -0.43783  -0.43619  -0.42540  -0.42301
 Alpha  occ. eigenvalues --   -0.42164  -0.41657  -0.41174  -0.39036  -0.38761
 Alpha  occ. eigenvalues --   -0.38395  -0.37745  -0.35107  -0.35032  -0.34700
 Alpha  occ. eigenvalues --   -0.32701  -0.32399  -0.32040  -0.31301  -0.26972
 Alpha  occ. eigenvalues --   -0.22067
 Alpha virt. eigenvalues --   -0.09205  -0.02544  -0.00508   0.00173   0.01332
 Alpha virt. eigenvalues --    0.01904   0.02188   0.02539   0.04133   0.04617
 Alpha virt. eigenvalues --    0.05620   0.06487   0.07045   0.07774   0.07793
 Alpha virt. eigenvalues --    0.08039   0.08211   0.08825   0.09135   0.09615
 Alpha virt. eigenvalues --    0.09685   0.09898   0.10115   0.10249   0.10702
 Alpha virt. eigenvalues --    0.10997   0.11090   0.11380   0.11529   0.12090
 Alpha virt. eigenvalues --    0.12506   0.12557   0.12975   0.12995   0.13313
 Alpha virt. eigenvalues --    0.13669   0.13675   0.14281   0.14418   0.14506
 Alpha virt. eigenvalues --    0.14630   0.15177   0.15582   0.15679   0.15816
 Alpha virt. eigenvalues --    0.15866   0.15951   0.16142   0.16221   0.16698
 Alpha virt. eigenvalues --    0.16864   0.17192   0.17321   0.17626   0.18107
 Alpha virt. eigenvalues --    0.18294   0.18439   0.18823   0.19185   0.19354
 Alpha virt. eigenvalues --    0.19416   0.19761   0.19945   0.20511   0.20720
 Alpha virt. eigenvalues --    0.21757   0.21826   0.22977   0.23476   0.23548
 Alpha virt. eigenvalues --    0.23592   0.23692   0.23913   0.24218   0.24237
 Alpha virt. eigenvalues --    0.24337   0.24340   0.24481   0.24543   0.24625
 Alpha virt. eigenvalues --    0.24641   0.24737   0.24809   0.24962   0.25021
 Alpha virt. eigenvalues --    0.25185   0.25225   0.25314   0.25367   0.25461
 Alpha virt. eigenvalues --    0.25473   0.25559   0.25606   0.25630   0.25675
 Alpha virt. eigenvalues --    0.25860   0.25888   0.25935   0.25937   0.26034
 Alpha virt. eigenvalues --    0.26043   0.26086   0.26133   0.26240   0.26257
 Alpha virt. eigenvalues --    0.26293   0.26488   0.26543   0.26692   0.26827
 Alpha virt. eigenvalues --    0.27026   0.27100   0.27432   0.27620   0.27668
 Alpha virt. eigenvalues --    0.27747   0.27809   0.27907   0.28438   0.29021
 Alpha virt. eigenvalues --    0.29472   0.30005   0.30326   0.30705   0.31200
 Alpha virt. eigenvalues --    0.31840   0.32604   0.32861   0.33198   0.34528
 Alpha virt. eigenvalues --    0.34814   0.35110   0.35182   0.35550   0.36151
 Alpha virt. eigenvalues --    0.36740   0.36864   0.37301   0.37367   0.37721
 Alpha virt. eigenvalues --    0.39246   0.39590   0.40017   0.40255   0.40514
 Alpha virt. eigenvalues --    0.40759   0.41346   0.41461   0.41606   0.42274
 Alpha virt. eigenvalues --    0.43236   0.44340   0.44534   0.45415   0.46839
 Alpha virt. eigenvalues --    0.47542   0.47948   0.48351   0.50525   0.52446
 Alpha virt. eigenvalues --    0.53807   0.56466
          Condensed to atoms (all electrons):
 Mulliken charges:
               1
     1  Mg   0.431233
     2  C   -0.065332
     3  C   -0.072292
     4  C   -0.080126
     5  C   -0.060309
     6  N   -0.291166
     7  C    0.121382
     8  C    0.011437
     9  C   -0.000006
    10  C    0.138218
    11  C   -0.050558
    12  C   -0.030199
    13  C    0.003091
    14  C    0.472457
    15  O   -0.519308
    16  O   -0.268905
    17  N   -0.331562
    18  C    0.091463
    19  C    0.041923
    20  C   -0.074575
    21  C    0.159682
    22  C   -0.036232
    23  C    0.343755
    24  O   -0.530542
    25  C   -0.019698
    26  N   -0.277059
    27  C    0.137268
    28  C    0.000628
    29  C    0.000181
    30  C    0.135218
    31  C   -0.048359
    32  C   -0.038102
    33  C   -0.061344
    34  N   -0.348215
    35  C    0.069745
    36  C    0.046515
    37  C   -0.059238
    38  C    0.141524
    39  C   -0.037264
    40  C    0.325857
    41  O   -0.522443
    42  C    0.049300
    43  C    0.489310
    44  O   -0.509285
    45  O   -0.283089
    46  C    0.074789
    47  C    0.098710
    48  C   -0.110389
    49  C   -0.010146
    50  C   -0.033874
    51  C   -0.016892
    52  C   -0.050945
    53  C   -0.041254
    54  C   -0.016052
    55  C   -0.060156
    56  C   -0.032642
    57  C   -0.045400
    58  C   -0.035989
    59  C   -0.013366
    60  C   -0.057163
    61  C   -0.035496
    62  C   -0.038450
    63  C   -0.040000
    64  C   -0.016019
    65  C   -0.052012
    66  C   -0.070583
    67  H    0.041791
    68  H    0.006317
    69  H    0.019420
    70  H    0.036233
    71  H    0.029932
    72  H    0.024669
    73  H    0.029679
    74  H    0.027497
    75  H    0.034997
    76  H    0.028193
    77  H    0.035573
    78  H    0.047888
    79  H    0.030164
    80  H    0.028498
    81  H    0.040086
    82  H    0.024765
    83  H    0.048470
    84  H    0.044891
    85  H    0.030492
    86  H    0.032063
    87  H    0.014875
    88  H    0.026248
    89  H    0.032511
    90  H    0.021456
    91  H    0.016840
    92  H    0.020649
    93  H    0.018656
    94  H    0.024573
    95  H    0.041294
    96  H    0.023568
    97  H    0.044587
    98  H    0.056457
    99  H    0.038487
   100  H    0.057925
   101  H    0.040202
   102  H    0.055492
   103  H    0.049787
   104  H    0.038406
   105  H    0.034108
   106  H    0.027156
   107  H    0.025728
   108  H    0.034312
   109  H    0.028898
   110  H    0.019324
   111  H    0.019663
   112  H    0.020567
   113  H    0.025656
   114  H    0.016458
   115  H    0.017403
   116  H    0.019085
   117  H    0.017650
   118  H    0.019622
   119  H    0.008487
   120  H    0.022762
   121  H    0.017110
   122  H    0.017173
   123  H    0.014909
   124  H    0.025293
   125  H    0.026198
   126  H    0.011367
   127  H    0.009727
   128  H    0.021647
   129  H    0.029501
   130  H    0.017117
   131  H    0.016328
   132  H    0.016627
   133  H    0.033654
   134  H    0.023659
   135  H    0.020976
   136  H    0.015857
   137  H    0.018931
   138  H    0.025753
   139  H    0.021899
   140  H    0.004109
 Sum of Mulliken charges =  -0.00000
 Mulliken charges with hydrogens summed into heavy atoms:
               1
     1  Mg   0.431233
     2  C   -0.065332
     3  C   -0.030501
     4  C   -0.073810
     5  C   -0.040889
     6  N   -0.291166
     7  C    0.121382
     8  C    0.047670
     9  C    0.029926
    10  C    0.138218
    11  C    0.031287
    12  C    0.032990
    13  C    0.086552
    14  C    0.472457
    15  O   -0.519308
    16  O   -0.268905
    17  N   -0.331562
    18  C    0.091463
    19  C    0.041923
    20  C   -0.074575
    21  C    0.159682
    22  C    0.062516
    23  C    0.343755
    24  O   -0.530542
    25  C    0.098429
    26  N   -0.277059
    27  C    0.137268
    28  C    0.031120
    29  C    0.032244
    30  C    0.135218
    31  C    0.025275
    32  C    0.000194
    33  C    0.002534
    34  N   -0.348215
    35  C    0.069745
    36  C    0.046515
    37  C   -0.059238
    38  C    0.141524
    39  C    0.072186
    40  C    0.325857
    41  O   -0.522443
    42  C    0.105757
    43  C    0.489310
    44  O   -0.509285
    45  O   -0.283089
    46  C    0.211404
    47  C    0.203989
    48  C   -0.071983
    49  C   -0.010146
    50  C    0.053118
    51  C    0.046319
    52  C   -0.011958
    53  C    0.004970
    54  C    0.000405
    55  C   -0.006019
    56  C   -0.004533
    57  C   -0.005528
    58  C   -0.003907
    59  C    0.011927
    60  C   -0.009870
    61  C    0.015652
    62  C   -0.005005
    63  C    0.010281
    64  C    0.007639
    65  C    0.003752
    66  C   -0.018822
 Charge=             -0.0000 electrons
 Dipole moment (field-independent basis, Debye):
    X=              0.4431    Y=              8.6447    Z=              0.7768  Tot=              8.6909
 N-N= 4.425933889727D+03 E-N= 0.000000000000D+00  KE=-9.525643344901D+03
 Leave Link  601 at Wed May  4 08:57:17 2022, MaxMem=  6710886400 cpu:               0.8 elap:               0.0
 (Enter /sw/apps/gaussian-16.0/g16/l9999.exe)
 1\1\GINC-BP1-COMPUTE050\SP\RZINDO CIS\STO-3G\C55H74Mg1N4O6\OF15641\04-
 May-2022\0\\#p ZINDO=(nstates=5)\\step_1501_chromophore_26 ZINDO\\0,1\
 Mg,0,-8.537,18.271,42.878\C,0,-5.071,17.717,42.747\C,0,-8.077,21.57,41
 .486\C,0,-11.799,18.507,42.238\C,0,-8.965,14.779,43.044\N,0,-6.804,19.
 439,42.208\C,0,-5.428,19.06,42.267\C,0,-4.541,20.196,41.929\C,0,-5.542
 ,21.382,41.577\C,0,-6.918,20.75,41.728\C,0,-5.311,22.711,42.345\C,0,-3
 .399,19.857,40.88\C,0,-3.731,18.902,39.655\C,0,-3.427,19.521,38.311\O,
 0,-2.455,20.241,38.098\O,0,-4.451,19.235,37.431\N,0,-9.863,19.922,42.2
 15\C,0,-9.442,21.17,41.696\C,0,-10.664,21.884,41.361\C,0,-11.809,20.99
 6,41.664\C,0,-11.165,19.747,42.046\C,0,-10.603,23.277,40.767\C,0,-13.2
 84,21.344,41.393\O,0,-13.517,22.406,40.871\C,0,-14.366,20.522,41.747\N
 ,0,-10.154,16.81,42.643\C,0,-11.476,17.24,42.587\C,0,-12.462,16.14,42.
 893\C,0,-11.535,14.91,42.994\C,0,-10.134,15.515,42.98\C,0,-13.509,16.3
 32,44.037\C,0,-11.663,13.818,41.868\C,0,-11.797,12.319,42.281\N,0,-7.2
 19,16.57,43.065\C,0,-7.595,15.187,43.147\C,0,-6.394,14.468,43.422\C,0,
 -5.373,15.407,43.269\C,0,-5.91,16.63,43.034\C,0,-6.18,13.062,43.766\C,
 0,-3.938,15.584,43.329\O,0,-3.042,14.764,43.487\C,0,-3.661,17.092,43.0
 29\C,0,-2.781,17.667,44.111\O,0,-1.57,17.775,43.976\O,0,-3.538,18.183,
 45.143\C,0,-2.884,18.833,46.29\C,0,-4.314,19.905,36.089\C,0,-5.357,19.
 127,35.252\C,0,-6.095,19.649,34.196\C,0,-5.877,21.023,33.66\C,0,-6.995
 ,18.593,33.554\C,0,-7.581,18.995,32.158\C,0,-9.055,18.595,31.914\C,0,-
 10.14,19.65,32.256\C,0,-11.517,19.002,32.658\C,0,-10.343,20.69,31.15\C
 ,0,-10.621,22.102,31.647\C,0,-9.558,23.202,31.321\C,0,-10.032,24.16,30
 .174\C,0,-9.382,25.462,30.455\C,0,-9.763,23.552,28.689\C,0,-11.032,22.
 773,28.236\C,0,-11.676,23.226,26.923\C,0,-10.974,22.427,25.732\C,0,-10
 .261,23.369,24.756\C,0,-12.009,21.477,25.027\H,0,-7.981,22.625,41.222\
 H,0,-12.876,18.502,42.054\H,0,-9.063,13.691,43.033\H,0,-3.979,20.419,4
 2.836\H,0,-5.395,21.625,40.525\H,0,-6.217,22.918,42.913\H,0,-5.117,23.
 493,41.611\H,0,-4.498,22.524,43.046\H,0,-2.509,19.546,41.427\H,0,-3.09
 4,20.783,40.392\H,0,-4.763,18.567,39.759\H,0,-3.155,17.977,39.704\H,0,
 -9.948,23.32,39.897\H,0,-10.231,23.89,41.588\H,0,-11.546,23.731,40.461
 \H,0,-14.016,20.113,42.694\H,0,-14.491,19.639,41.12\H,0,-15.274,21.108
 ,41.889\H,0,-12.941,15.913,41.941\H,0,-11.931,14.416,43.881\H,0,-14.42
 9,16.495,43.476\H,0,-13.266,17.232,44.602\H,0,-13.74,15.511,44.717\H,0
 ,-10.805,13.874,41.198\H,0,-12.531,13.944,41.221\H,0,-12.714,11.903,41
 .862\H,0,-11.841,12.342,43.37\H,0,-10.969,11.693,41.951\H,0,-5.61,12.6
 62,42.927\H,0,-7.13,12.542,43.888\H,0,-5.563,13.112,44.663\H,0,-3.045,
 17.055,42.131\H,0,-3.316,19.834,46.307\H,0,-1.808,18.791,46.125\H,0,-3
 .148,18.271,47.186\H,0,-3.307,19.833,35.68\H,0,-4.493,20.98,36.089\H,0
 ,-5.657,18.157,35.649\H,0,-6.828,21.494,33.908\H,0,-5.712,21.071,32.58
 4\H,0,-5.02,21.573,34.048\H,0,-7.8,18.342,34.246\H,0,-6.424,17.691,33.
 337\H,0,-7.101,18.543,31.29\H,0,-7.503,20.077,32.056\H,0,-9.245,17.79,
 32.624\H,0,-9.068,18.381,30.845\H,0,-9.803,20.225,33.119\H,0,-11.625,1
 8.898,33.738\H,0,-11.609,18.017,32.202\H,0,-12.33,19.636,32.304\H,0,-1
 1.099,20.35,30.442\H,0,-9.397,20.748,30.611\H,0,-10.819,22.044,32.717\
 H,0,-11.51,22.359,31.071\H,0,-8.609,22.719,31.088\H,0,-9.312,23.74,32.
 237\H,0,-11.095,24.347,30.33\H,0,-8.615,25.496,31.229\H,0,-10.191,26.1
 48,30.703\H,0,-8.998,25.854,29.513\H,0,-8.991,22.783,28.699\H,0,-9.423
 ,24.375,28.061\H,0,-11.883,22.747,28.917\H,0,-10.631,21.759,28.244\H,0
 ,-11.275,24.237,26.842\H,0,-12.766,23.235,26.914\H,0,-10.33,21.653,26.
 149\H,0,-9.553,22.936,24.05\H,0,-9.729,24.129,25.329\H,0,-11.075,23.82
 8,24.194\H,0,-12.262,21.767,24.007\H,0,-12.829,21.187,25.684\H,0,-11.5
 94,20.477,24.904\\Version=ES64L-G16RevA.03\State=1-A\HF=-474.0522302\R
 MSD=8.041e-09\PG=C01 [X(C55H74Mg1N4O6)]\\@


 MATERIAL COPIED FROM ONE SCHOLARLY BOOK WITHOUT CREDIT COMPRISES PLAGIARISM.
 MATERIAL COPIED FROM TWO SCHOLARLY BOOKS COMPRISES AN ESSAY.
 MATERIAL COPIED FROM THREE SCHOLARLY BOOKS COMPRISES A DISSERTATION.
 MATERIAL COPIED FROM FOUR SCHOLARLY BOOKS COMPRISES A FIFTH SCHOLARLY BOOK.

                               -- C&EN, 25 FEB 1980
 Job cpu time:       0 days  0 hours  2 minutes 32.5 seconds.
 Elapsed time:       0 days  0 hours  0 minutes  6.7 seconds.
 File lengths (MBytes):  RWF=   1269 Int=      0 D2E=      0 Chk=     38 Scr=      1
 Normal termination of Gaussian 16 at Wed May  4 08:57:17 2022.
