 Entering Gaussian System, Link 0=g16
 Initial command:
 /sw/apps/gaussian-16.0/g16/l1.exe "/tmp/Gau-28664.inp" -scrdir="/tmp/"
 Entering Link 1 = /sw/apps/gaussian-16.0/g16/l1.exe PID=     28665.
  
 Copyright (c) 1988,1990,1992,1993,1995,1998,2003,2009,2016,
            Gaussian, Inc.  All Rights Reserved.
  
 This is part of the Gaussian(R) 16 program.  It is based on
 the Gaussian(R) 09 system (copyright 2009, Gaussian, Inc.),
 the Gaussian(R) 03 system (copyright 2003, Gaussian, Inc.),
 the Gaussian(R) 98 system (copyright 1998, Gaussian, Inc.),
 the Gaussian(R) 94 system (copyright 1995, Gaussian, Inc.),
 the Gaussian 92(TM) system (copyright 1992, Gaussian, Inc.),
 the Gaussian 90(TM) system (copyright 1990, Gaussian, Inc.),
 the Gaussian 88(TM) system (copyright 1988, Gaussian, Inc.),
 the Gaussian 86(TM) system (copyright 1986, Carnegie Mellon
 University), and the Gaussian 82(TM) system (copyright 1983,
 Carnegie Mellon University). Gaussian is a federally registered
 trademark of Gaussian, Inc.
  
 This software contains proprietary and confidential information,
 including trade secrets, belonging to Gaussian, Inc.
  
 This software is provided under written license and may be
 used, copied, transmitted, or stored only in accord with that
 written license.
  
 The following legend is applicable only to US Government
 contracts under FAR:
  
                    RESTRICTED RIGHTS LEGEND
  
 Use, reproduction and disclosure by the US Government is
 subject to restrictions as set forth in subparagraphs (a)
 and (c) of the Commercial Computer Software - Restricted
 Rights clause in FAR 52.227-19.
  
 Gaussian, Inc.
 340 Quinnipiac St., Bldg. 40, Wallingford CT 06492
  
  
 ---------------------------------------------------------------
 Warning -- This program may not be used in any manner that
 competes with the business of Gaussian, Inc. or will provide
 assistance to any competitor of Gaussian, Inc.  The licensee
 of this program is prohibited from giving any competitor of
 Gaussian, Inc. access to this program.  By using this program,
 the user acknowledges that Gaussian, Inc. is engaged in the
 business of creating and licensing software in the field of
 computational chemistry and represents and warrants to the
 licensee that it is not a competitor of Gaussian, Inc. and that
 it will not use this program in any manner prohibited above.
 ---------------------------------------------------------------
  

 Cite this work as:
 Gaussian 16, Revision A.03,
 M. J. Frisch, G. W. Trucks, H. B. Schlegel, G. E. Scuseria, 
 M. A. Robb, J. R. Cheeseman, G. Scalmani, V. Barone, 
 G. A. Petersson, H. Nakatsuji, X. Li, M. Caricato, A. V. Marenich, 
 J. Bloino, B. G. Janesko, R. Gomperts, B. Mennucci, H. P. Hratchian, 
 J. V. Ortiz, A. F. Izmaylov, J. L. Sonnenberg, D. Williams-Young, 
 F. Ding, F. Lipparini, F. Egidi, J. Goings, B. Peng, A. Petrone, 
 T. Henderson, D. Ranasinghe, V. G. Zakrzewski, J. Gao, N. Rega, 
 G. Zheng, W. Liang, M. Hada, M. Ehara, K. Toyota, R. Fukuda, 
 J. Hasegawa, M. Ishida, T. Nakajima, Y. Honda, O. Kitao, H. Nakai, 
 T. Vreven, K. Throssell, J. A. Montgomery, Jr., J. E. Peralta, 
 F. Ogliaro, M. J. Bearpark, J. J. Heyd, E. N. Brothers, K. N. Kudin, 
 V. N. Staroverov, T. A. Keith, R. Kobayashi, J. Normand, 
 K. Raghavachari, A. P. Rendell, J. C. Burant, S. S. Iyengar, 
 J. Tomasi, M. Cossi, J. M. Millam, M. Klene, C. Adamo, R. Cammi, 
 J. W. Ochterski, R. L. Martin, K. Morokuma, O. Farkas, 
 J. B. Foresman, and D. J. Fox, Gaussian, Inc., Wallingford CT, 2016.
 
 ******************************************
 Gaussian 16:  ES64L-G16RevA.03 25-Dec-2016
                 1-May-2022 
 ******************************************
 %nproc=24
 Will use up to   24 processors via shared memory.
 %mem=50gb
 --------------------
 #p ZINDO=(nstates=5)
 --------------------
 1/38=1,172=1/1;
 2/12=2,17=6,18=5,40=1/2;
 3/5=2,25=1,41=400000/1,2,3,8;
 4/5=3,35=1/1;
 5/5=2,35=1,38=5/2;
 8/6=1,108=5/1;
 9/41=5,42=1,49=10/14;
 6/7=2,8=2,9=2,10=2/1;
 99/5=1,9=1/99;
 Leave Link    1 at Sun May  1 00:48:30 2022, MaxMem=  6710886400 cpu:               0.4 elap:               0.0
 (Enter /sw/apps/gaussian-16.0/g16/l101.exe)
 -----------------------------
 step_951_chromophore_23 ZINDO
 -----------------------------
 Symbolic Z-matrix:
 Charge =  0 Multiplicity = 1
 Mg                   -10.73     39.961    42.978 
 C                    -9.179     36.947    41.675 
 C                    -8.622     41.743    40.966 
 C                    -12.664    42.622    43.632 
 C                    -13.177    37.81     44.428 
 N                    -9.132     39.389    41.43 
 C                    -8.552     38.089    41.208 
 C                    -7.168     38.257    40.49 
 C                    -7.104     39.831    40.242 
 C                    -8.357     40.415    40.985 
 C                    -5.775     40.387    40.642 
 C                    -6.964     37.293    39.237 
 C                    -5.638     36.629    39.221 
 C                    -4.816     36.747    37.969 
 O                    -4.161     37.806    37.776 
 O                    -4.825     35.764    37.076 
 N                    -10.724    41.925    42.212 
 C                    -9.646     42.446    41.585 
 C                    -9.876     43.875    41.554 
 C                    -11.135    44.191    42.103 
 C                    -11.595    42.921    42.656 
 C                    -9.005     44.88     40.736 
 C                    -11.828    45.533    42.089 
 O                    -11.231    46.518    41.685 
 C                    -13.286    45.729    42.496 
 N                    -12.59     40.202    43.829 
 C                    -13.114    41.397    44.15 
 C                    -14.344    41.312    45.186 
 C                    -14.671    39.792    45.096 
 C                    -13.405    39.241    44.389 
 C                    -14.14     41.949    46.581 
 C                    -15.991    39.33     44.499 
 C                    -17.031    38.796    45.566 
 N                    -11.003    37.77     43.225 
 C                    -12.085    37.1      43.811 
 C                    -11.783    35.688    43.738 
 C                    -10.631    35.538    42.959 
 C                    -10.265    36.843    42.58 
 C                    -12.597    34.573    44.327 
 C                    -9.699     34.607    42.333 
 O                    -9.813     33.426    42.332 
 C                    -8.638     35.545    41.627 
 C                    -7.38      35.344    42.511 
 O                    -7.249     35.807    43.602 
 O                    -6.428     34.632    41.819 
 C                    -5.172     34.507    42.559 
 C                    -4.171     35.823    35.774 
 C                    -5.084     35.906    34.561 
 C                    -5.46      36.894    33.744 
 C                    -5.414     38.324    34.134 
 C                    -6.492     36.546    32.596 
 C                    -6.008     37.125    31.339 
 C                    -5.911     36.012    30.188 
 C                    -6.23      36.599    28.803 
 C                    -5.398     35.896    27.752 
 C                    -7.756     36.437    28.474 
 C                    -8.534     37.755    28.419 
 C                    -9.841     37.681    29.334 
 C                    -9.85      38.788    30.425 
 C                    -10.927    38.406    31.493 
 C                    -9.983     40.219    29.881 
 C                    -9.618     41.261    30.94 
 C                    -8.511     42.259    30.466 
 C                    -7.308     42.294    31.407 
 C                    -6.625     43.659    31.623 
 C                    -6.217     41.271    31.004 
 H                    -7.916     42.432    40.497 
 H                    -13.08     43.561    44.002 
 H                    -14.059    37.246    44.738 
 H                    -6.428     38.083    41.271 
 H                    -7.166     40.129    39.196 
 H                    -5.584     41.266    40.027 
 H                    -4.965     39.687    40.438 
 H                    -5.826     40.5      41.725 
 H                    -6.952     37.992    38.401 
 H                    -7.753     36.578    39.002 
 H                    -5.862     35.581    39.417 
 H                    -5.003     37.094    39.976 
 H                    -8.019     44.482    40.498 
 H                    -8.959     45.865    41.2 
 H                    -9.622     44.982    39.843 
 H                    -13.376    45.779    43.581 
 H                    -13.86     44.889    42.106 
 H                    -13.644    46.596    41.94 
 H                    -15.128    41.878    44.682 
 H                    -14.645    39.308    46.072 
 H                    -13.865    41.185    47.308 
 H                    -15.136    42.351    46.767 
 H                    -13.397    42.719    46.375 
 H                    -15.801    38.553    43.757 
 H                    -16.499    40.172    44.029 
 H                    -16.779    38.854    46.625 
 H                    -17.078    37.724    45.375 
 H                    -17.945    39.316    45.28 
 H                    -12.059    33.672    44.032 
 H                    -13.616    34.659    43.949 
 H                    -12.622    34.639    45.414 
 H                    -8.518     35.161    40.614 
 H                    -5.282     33.589    43.136 
 H                    -4.933     35.336    43.225 
 H                    -4.339     34.405    41.863 
 H                    -3.642     34.883    35.615 
 H                    -3.383     36.572    35.695 
 H                    -5.231     34.919    34.122 
 H                    -4.62      38.65     34.806 
 H                    -6.415     38.675    34.383 
 H                    -5.062     38.87     33.259 
 H                    -7.443     36.985    32.897 
 H                    -6.522     35.457    32.549 
 H                    -4.979     37.464    31.466 
 H                    -6.664     37.939    31.031 
 H                    -6.546     35.139    30.339 
 H                    -4.86      35.73     30.263 
 H                    -5.819     37.605    28.714 
 H                    -4.361     35.763    28.057 
 H                    -5.397     36.341    26.757 
 H                    -5.811     34.889    27.693 
 H                    -8.236     35.749    29.17 
 H                    -7.899     35.955    27.507 
 H                    -8.846     37.99     27.402 
 H                    -7.909     38.528    28.867 
 H                    -10.136    36.76     29.835 
 H                    -10.641    37.921    28.634 
 H                    -8.902     38.597    30.929 
 H                    -11.646    39.185    31.747 
 H                    -10.344    38.116    32.367 
 H                    -11.487    37.537    31.151 
 H                    -11.009    40.407    29.564 
 H                    -9.351     40.193    28.993 
 H                    -9.154     40.737    31.776 
 H                    -10.462    41.792    31.38 
 H                    -8.988     43.239    30.466 
 H                    -8.249     42.094    29.42 
 H                    -7.567     41.953    32.409 
 H                    -6.639     43.924    32.68 
 H                    -7.248     44.477    31.263 
 H                    -5.596     43.68     31.263 
 H                    -6.418     40.398    31.625 
 H                    -5.225     41.702    31.14 
 H                    -6.26      40.865    29.994 
 
 ITRead=  0  0  0  0  0  0  0  0  0  0  0  0  0  0  0  0  0  0  0  0
 ITRead=  0  0  0  0  0  0  0  0  0  0  0  0  0  0  0  0  0  0  0  0
 ITRead=  0  0  0  0  0  0  0  0  0  0  0  0  0  0  0  0  0  0  0  0
 ITRead=  0  0  0  0  0  0  0  0  0  0  0  0  0  0  0  0  0  0  0  0
 ITRead=  0  0  0  0  0  0  0  0  0  0  0  0  0  0  0  0  0  0  0  0
 ITRead=  0  0  0  0  0  0  0  0  0  0  0  0  0  0  0  0  0  0  0  0
 ITRead=  0  0  0  0  0  0  0  0  0  0  0  0  0  0  0  0  0  0  0  0
 MicOpt= -1 -1 -1 -1 -1 -1 -1 -1 -1 -1 -1 -1 -1 -1 -1 -1 -1 -1 -1 -1
 MicOpt= -1 -1 -1 -1 -1 -1 -1 -1 -1 -1 -1 -1 -1 -1 -1 -1 -1 -1 -1 -1
 MicOpt= -1 -1 -1 -1 -1 -1 -1 -1 -1 -1 -1 -1 -1 -1 -1 -1 -1 -1 -1 -1
 MicOpt= -1 -1 -1 -1 -1 -1 -1 -1 -1 -1 -1 -1 -1 -1 -1 -1 -1 -1 -1 -1
 MicOpt= -1 -1 -1 -1 -1 -1 -1 -1 -1 -1 -1 -1 -1 -1 -1 -1 -1 -1 -1 -1
 MicOpt= -1 -1 -1 -1 -1 -1 -1 -1 -1 -1 -1 -1 -1 -1 -1 -1 -1 -1 -1 -1
 MicOpt= -1 -1 -1 -1 -1 -1 -1 -1 -1 -1 -1 -1 -1 -1 -1 -1 -1 -1 -1 -1
 NAtoms=    140 NQM=      140 NQMF=       0 NMMI=      0 NMMIF=      0
                NMic=       0 NMicF=      0.
                    Isotopes and Nuclear Properties:
 (Nuclear quadrupole moments (NQMom) in fm**2, nuclear magnetic moments (NMagM)
  in nuclear magnetons)

  Atom         1           2           3           4           5           6           7           8           9          10
 IAtWgt=          24          12          12          12          12          14          12          12          12          12
 AtmWgt=  23.9850450  12.0000000  12.0000000  12.0000000  12.0000000  14.0030740  12.0000000  12.0000000  12.0000000  12.0000000
 NucSpn=           0           0           0           0           0           2           0           0           0           0
 AtZEff=  -0.0000000  -0.0000000  -0.0000000  -0.0000000  -0.0000000  -0.0000000  -0.0000000  -0.0000000  -0.0000000  -0.0000000
 NQMom=    0.0000000   0.0000000   0.0000000   0.0000000   0.0000000   2.0440000   0.0000000   0.0000000   0.0000000   0.0000000
 NMagM=    0.0000000   0.0000000   0.0000000   0.0000000   0.0000000   0.4037610   0.0000000   0.0000000   0.0000000   0.0000000
 AtZNuc=  12.0000000   6.0000000   6.0000000   6.0000000   6.0000000   7.0000000   6.0000000   6.0000000   6.0000000   6.0000000

  Atom        11          12          13          14          15          16          17          18          19          20
 IAtWgt=          12          12          12          12          16          16          14          12          12          12
 AtmWgt=  12.0000000  12.0000000  12.0000000  12.0000000  15.9949146  15.9949146  14.0030740  12.0000000  12.0000000  12.0000000
 NucSpn=           0           0           0           0           0           0           2           0           0           0
 AtZEff=  -0.0000000  -0.0000000  -0.0000000  -0.0000000  -0.0000000  -0.0000000  -0.0000000  -0.0000000  -0.0000000  -0.0000000
 NQMom=    0.0000000   0.0000000   0.0000000   0.0000000   0.0000000   0.0000000   2.0440000   0.0000000   0.0000000   0.0000000
 NMagM=    0.0000000   0.0000000   0.0000000   0.0000000   0.0000000   0.0000000   0.4037610   0.0000000   0.0000000   0.0000000
 AtZNuc=   6.0000000   6.0000000   6.0000000   6.0000000   8.0000000   8.0000000   7.0000000   6.0000000   6.0000000   6.0000000

  Atom        21          22          23          24          25          26          27          28          29          30
 IAtWgt=          12          12          12          16          12          14          12          12          12          12
 AtmWgt=  12.0000000  12.0000000  12.0000000  15.9949146  12.0000000  14.0030740  12.0000000  12.0000000  12.0000000  12.0000000
 NucSpn=           0           0           0           0           0           2           0           0           0           0
 AtZEff=  -0.0000000  -0.0000000  -0.0000000  -0.0000000  -0.0000000  -0.0000000  -0.0000000  -0.0000000  -0.0000000  -0.0000000
 NQMom=    0.0000000   0.0000000   0.0000000   0.0000000   0.0000000   2.0440000   0.0000000   0.0000000   0.0000000   0.0000000
 NMagM=    0.0000000   0.0000000   0.0000000   0.0000000   0.0000000   0.4037610   0.0000000   0.0000000   0.0000000   0.0000000
 AtZNuc=   6.0000000   6.0000000   6.0000000   8.0000000   6.0000000   7.0000000   6.0000000   6.0000000   6.0000000   6.0000000

  Atom        31          32          33          34          35          36          37          38          39          40
 IAtWgt=          12          12          12          14          12          12          12          12          12          12
 AtmWgt=  12.0000000  12.0000000  12.0000000  14.0030740  12.0000000  12.0000000  12.0000000  12.0000000  12.0000000  12.0000000
 NucSpn=           0           0           0           2           0           0           0           0           0           0
 AtZEff=  -0.0000000  -0.0000000  -0.0000000  -0.0000000  -0.0000000  -0.0000000  -0.0000000  -0.0000000  -0.0000000  -0.0000000
 NQMom=    0.0000000   0.0000000   0.0000000   2.0440000   0.0000000   0.0000000   0.0000000   0.0000000   0.0000000   0.0000000
 NMagM=    0.0000000   0.0000000   0.0000000   0.4037610   0.0000000   0.0000000   0.0000000   0.0000000   0.0000000   0.0000000
 AtZNuc=   6.0000000   6.0000000   6.0000000   7.0000000   6.0000000   6.0000000   6.0000000   6.0000000   6.0000000   6.0000000

  Atom        41          42          43          44          45          46          47          48          49          50
 IAtWgt=          16          12          12          16          16          12          12          12          12          12
 AtmWgt=  15.9949146  12.0000000  12.0000000  15.9949146  15.9949146  12.0000000  12.0000000  12.0000000  12.0000000  12.0000000
 NucSpn=           0           0           0           0           0           0           0           0           0           0
 AtZEff=  -0.0000000  -0.0000000  -0.0000000  -0.0000000  -0.0000000  -0.0000000  -0.0000000  -0.0000000  -0.0000000  -0.0000000
 NQMom=    0.0000000   0.0000000   0.0000000   0.0000000   0.0000000   0.0000000   0.0000000   0.0000000   0.0000000   0.0000000
 NMagM=    0.0000000   0.0000000   0.0000000   0.0000000   0.0000000   0.0000000   0.0000000   0.0000000   0.0000000   0.0000000
 AtZNuc=   8.0000000   6.0000000   6.0000000   8.0000000   8.0000000   6.0000000   6.0000000   6.0000000   6.0000000   6.0000000

  Atom        51          52          53          54          55          56          57          58          59          60
 IAtWgt=          12          12          12          12          12          12          12          12          12          12
 AtmWgt=  12.0000000  12.0000000  12.0000000  12.0000000  12.0000000  12.0000000  12.0000000  12.0000000  12.0000000  12.0000000
 NucSpn=           0           0           0           0           0           0           0           0           0           0
 AtZEff=  -0.0000000  -0.0000000  -0.0000000  -0.0000000  -0.0000000  -0.0000000  -0.0000000  -0.0000000  -0.0000000  -0.0000000
 NQMom=    0.0000000   0.0000000   0.0000000   0.0000000   0.0000000   0.0000000   0.0000000   0.0000000   0.0000000   0.0000000
 NMagM=    0.0000000   0.0000000   0.0000000   0.0000000   0.0000000   0.0000000   0.0000000   0.0000000   0.0000000   0.0000000
 AtZNuc=   6.0000000   6.0000000   6.0000000   6.0000000   6.0000000   6.0000000   6.0000000   6.0000000   6.0000000   6.0000000

  Atom        61          62          63          64          65          66          67          68          69          70
 IAtWgt=          12          12          12          12          12          12           1           1           1           1
 AtmWgt=  12.0000000  12.0000000  12.0000000  12.0000000  12.0000000  12.0000000   1.0078250   1.0078250   1.0078250   1.0078250
 NucSpn=           0           0           0           0           0           0           1           1           1           1
 AtZEff=  -0.0000000  -0.0000000  -0.0000000  -0.0000000  -0.0000000  -0.0000000  -0.0000000  -0.0000000  -0.0000000  -0.0000000
 NQMom=    0.0000000   0.0000000   0.0000000   0.0000000   0.0000000   0.0000000   0.0000000   0.0000000   0.0000000   0.0000000
 NMagM=    0.0000000   0.0000000   0.0000000   0.0000000   0.0000000   0.0000000   2.7928460   2.7928460   2.7928460   2.7928460
 AtZNuc=   6.0000000   6.0000000   6.0000000   6.0000000   6.0000000   6.0000000   1.0000000   1.0000000   1.0000000   1.0000000

  Atom        71          72          73          74          75          76          77          78          79          80
 IAtWgt=           1           1           1           1           1           1           1           1           1           1
 AtmWgt=   1.0078250   1.0078250   1.0078250   1.0078250   1.0078250   1.0078250   1.0078250   1.0078250   1.0078250   1.0078250
 NucSpn=           1           1           1           1           1           1           1           1           1           1
 AtZEff=  -0.0000000  -0.0000000  -0.0000000  -0.0000000  -0.0000000  -0.0000000  -0.0000000  -0.0000000  -0.0000000  -0.0000000
 NQMom=    0.0000000   0.0000000   0.0000000   0.0000000   0.0000000   0.0000000   0.0000000   0.0000000   0.0000000   0.0000000
 NMagM=    2.7928460   2.7928460   2.7928460   2.7928460   2.7928460   2.7928460   2.7928460   2.7928460   2.7928460   2.7928460
 AtZNuc=   1.0000000   1.0000000   1.0000000   1.0000000   1.0000000   1.0000000   1.0000000   1.0000000   1.0000000   1.0000000

  Atom        81          82          83          84          85          86          87          88          89          90
 IAtWgt=           1           1           1           1           1           1           1           1           1           1
 AtmWgt=   1.0078250   1.0078250   1.0078250   1.0078250   1.0078250   1.0078250   1.0078250   1.0078250   1.0078250   1.0078250
 NucSpn=           1           1           1           1           1           1           1           1           1           1
 AtZEff=  -0.0000000  -0.0000000  -0.0000000  -0.0000000  -0.0000000  -0.0000000  -0.0000000  -0.0000000  -0.0000000  -0.0000000
 NQMom=    0.0000000   0.0000000   0.0000000   0.0000000   0.0000000   0.0000000   0.0000000   0.0000000   0.0000000   0.0000000
 NMagM=    2.7928460   2.7928460   2.7928460   2.7928460   2.7928460   2.7928460   2.7928460   2.7928460   2.7928460   2.7928460
 AtZNuc=   1.0000000   1.0000000   1.0000000   1.0000000   1.0000000   1.0000000   1.0000000   1.0000000   1.0000000   1.0000000

  Atom        91          92          93          94          95          96          97          98          99         100
 IAtWgt=           1           1           1           1           1           1           1           1           1           1
 AtmWgt=   1.0078250   1.0078250   1.0078250   1.0078250   1.0078250   1.0078250   1.0078250   1.0078250   1.0078250   1.0078250
 NucSpn=           1           1           1           1           1           1           1           1           1           1
 AtZEff=  -0.0000000  -0.0000000  -0.0000000  -0.0000000  -0.0000000  -0.0000000  -0.0000000  -0.0000000  -0.0000000  -0.0000000
 NQMom=    0.0000000   0.0000000   0.0000000   0.0000000   0.0000000   0.0000000   0.0000000   0.0000000   0.0000000   0.0000000
 NMagM=    2.7928460   2.7928460   2.7928460   2.7928460   2.7928460   2.7928460   2.7928460   2.7928460   2.7928460   2.7928460
 AtZNuc=   1.0000000   1.0000000   1.0000000   1.0000000   1.0000000   1.0000000   1.0000000   1.0000000   1.0000000   1.0000000

  Atom       101         102         103         104         105         106         107         108         109         110
 IAtWgt=           1           1           1           1           1           1           1           1           1           1
 AtmWgt=   1.0078250   1.0078250   1.0078250   1.0078250   1.0078250   1.0078250   1.0078250   1.0078250   1.0078250   1.0078250
 NucSpn=           1           1           1           1           1           1           1           1           1           1
 AtZEff=  -0.0000000  -0.0000000  -0.0000000  -0.0000000  -0.0000000  -0.0000000  -0.0000000  -0.0000000  -0.0000000  -0.0000000
 NQMom=    0.0000000   0.0000000   0.0000000   0.0000000   0.0000000   0.0000000   0.0000000   0.0000000   0.0000000   0.0000000
 NMagM=    2.7928460   2.7928460   2.7928460   2.7928460   2.7928460   2.7928460   2.7928460   2.7928460   2.7928460   2.7928460
 AtZNuc=   1.0000000   1.0000000   1.0000000   1.0000000   1.0000000   1.0000000   1.0000000   1.0000000   1.0000000   1.0000000

  Atom       111         112         113         114         115         116         117         118         119         120
 IAtWgt=           1           1           1           1           1           1           1           1           1           1
 AtmWgt=   1.0078250   1.0078250   1.0078250   1.0078250   1.0078250   1.0078250   1.0078250   1.0078250   1.0078250   1.0078250
 NucSpn=           1           1           1           1           1           1           1           1           1           1
 AtZEff=  -0.0000000  -0.0000000  -0.0000000  -0.0000000  -0.0000000  -0.0000000  -0.0000000  -0.0000000  -0.0000000  -0.0000000
 NQMom=    0.0000000   0.0000000   0.0000000   0.0000000   0.0000000   0.0000000   0.0000000   0.0000000   0.0000000   0.0000000
 NMagM=    2.7928460   2.7928460   2.7928460   2.7928460   2.7928460   2.7928460   2.7928460   2.7928460   2.7928460   2.7928460
 AtZNuc=   1.0000000   1.0000000   1.0000000   1.0000000   1.0000000   1.0000000   1.0000000   1.0000000   1.0000000   1.0000000

  Atom       121         122         123         124         125         126         127         128         129         130
 IAtWgt=           1           1           1           1           1           1           1           1           1           1
 AtmWgt=   1.0078250   1.0078250   1.0078250   1.0078250   1.0078250   1.0078250   1.0078250   1.0078250   1.0078250   1.0078250
 NucSpn=           1           1           1           1           1           1           1           1           1           1
 AtZEff=  -0.0000000  -0.0000000  -0.0000000  -0.0000000  -0.0000000  -0.0000000  -0.0000000  -0.0000000  -0.0000000  -0.0000000
 NQMom=    0.0000000   0.0000000   0.0000000   0.0000000   0.0000000   0.0000000   0.0000000   0.0000000   0.0000000   0.0000000
 NMagM=    2.7928460   2.7928460   2.7928460   2.7928460   2.7928460   2.7928460   2.7928460   2.7928460   2.7928460   2.7928460
 AtZNuc=   1.0000000   1.0000000   1.0000000   1.0000000   1.0000000   1.0000000   1.0000000   1.0000000   1.0000000   1.0000000

  Atom       131         132         133         134         135         136         137         138         139         140
 IAtWgt=           1           1           1           1           1           1           1           1           1           1
 AtmWgt=   1.0078250   1.0078250   1.0078250   1.0078250   1.0078250   1.0078250   1.0078250   1.0078250   1.0078250   1.0078250
 NucSpn=           1           1           1           1           1           1           1           1           1           1
 AtZEff=  -0.0000000  -0.0000000  -0.0000000  -0.0000000  -0.0000000  -0.0000000  -0.0000000  -0.0000000  -0.0000000  -0.0000000
 NQMom=    0.0000000   0.0000000   0.0000000   0.0000000   0.0000000   0.0000000   0.0000000   0.0000000   0.0000000   0.0000000
 NMagM=    2.7928460   2.7928460   2.7928460   2.7928460   2.7928460   2.7928460   2.7928460   2.7928460   2.7928460   2.7928460
 AtZNuc=   1.0000000   1.0000000   1.0000000   1.0000000   1.0000000   1.0000000   1.0000000   1.0000000   1.0000000   1.0000000
 Leave Link  101 at Sun May  1 00:48:30 2022, MaxMem=  6710886400 cpu:               3.1 elap:               0.2
 (Enter /sw/apps/gaussian-16.0/g16/l202.exe)
 Stoichiometry    C55H74MgN4O6
 Framework group  C1[X(C55H74MgN4O6)]
 Deg. of freedom   414
 Full point group                 C1      NOp   1
 Largest Abelian subgroup         C1      NOp   1
 Largest concise Abelian subgroup C1      NOp   1
                         Standard orientation:                         
 ---------------------------------------------------------------------
 Center     Atomic      Atomic             Coordinates (Angstroms)
 Number     Number       Type             X           Y           Z
 ---------------------------------------------------------------------
      1         12           0        4.686205    0.322329   -0.350135
      2          6           0        2.547236   -2.575124    0.115899
      3          6           0        2.268255    1.598453   -2.397660
      4          6           0        6.326513    3.240966   -0.150294
      5          6           0        6.667398   -0.987987    2.309763
      6          7           0        2.599628   -0.387956   -0.997272
      7          6           0        2.023149   -1.695738   -0.815442
      8          6           0        0.869785   -1.900960   -1.857958
      9          6           0        0.808105   -0.479856   -2.578883
     10          6           0        2.026977    0.325037   -2.004763
     11          6           0        0.751758   -0.630505   -4.065324
     12          6           0       -0.476422   -2.482042   -1.232663
     13          6           0       -1.062409   -3.585645   -2.031480
     14          6           0       -2.505587   -3.464844   -2.431176
     15          8           0       -2.797719   -2.744514   -3.422911
     16          8           0       -3.443663   -4.076861   -1.717546
     17          7           0        4.216089    2.250264   -1.061573
     18          6           0        3.302535    2.450685   -2.037228
     19          6           0        3.532022    3.801948   -2.503410
     20          6           0        4.542011    4.427808   -1.745412
     21          6           0        5.067993    3.346398   -0.918245
     22          6           0        2.577744    4.560874   -3.478692
     23          6           0        4.948044    5.882054   -1.786797
     24          8           0        4.474094    6.618560   -2.636963
     25          6           0        5.886403    6.520841   -0.766374
     26          7           0        6.187775    1.038202    0.864234
     27          6           0        6.822001    2.204607    0.657109
     28          6           0        8.221280    2.334031    1.443676
     29          6           0        8.075553    1.157473    2.453580
     30          6           0        6.889018    0.366431    1.843176
     31          6           0        9.507659    2.427745    0.589360
     32          6           0        7.958499    1.440973    3.942935
     33          6           0        9.261665    1.093235    4.771236
     34          7           0        4.749692   -1.555843    0.834965
     35          6           0        5.608938   -1.873900    1.894944
     36          6           0        5.259064   -3.210301    2.321437
     37          6           0        4.096936   -3.585135    1.639233
     38          6           0        3.770249   -2.483538    0.826594
     39          6           0        5.968015   -4.025297    3.363508
     40          6           0        3.062685   -4.598582    1.464562
     41          8           0        2.961086   -5.587284    2.112562
     42          6           0        2.133114   -4.004533    0.330100
     43          6           0        2.457245   -4.922848   -0.876572
     44          8           0        3.469606   -4.869034   -1.504299
     45          8           0        1.381297   -5.734325   -1.152170
     46          6           0        1.582735   -6.545742   -2.352914
     47          6           0       -4.877833   -3.927289   -1.934770
     48          6           0       -5.646987   -3.158941   -0.871817
     49          6           0       -6.140731   -1.920036   -0.792192
     50          6           0       -5.625551   -0.793112   -1.606899
     51          6           0       -6.858105   -1.499730    0.554191
     52          6           0       -8.124978   -0.839634    0.224264
     53          6           0       -9.355652   -1.536728    0.980889
     54          6           0      -10.442160   -0.515628    1.356937
     55          6           0      -11.803241   -1.172978    1.277057
     56          6           0      -10.199816    0.038783    2.805059
     57          6           0       -9.802980    1.517023    2.857599
     58          6           0       -8.485308    1.719886    3.737108
     59          6           0       -7.343201    2.393262    2.925955
     60          6           0       -6.007026    2.193054    3.714009
     61          6           0       -7.621872    3.848653    2.519057
     62          6           0       -6.655566    4.325393    1.433036
     63          6           0       -7.381230    4.890004    0.167826
     64          6           0       -6.955685    4.184546   -1.118703
     65          6           0       -6.844461    5.049404   -2.389930
     66          6           0       -7.854542    2.966152   -1.445491
     67          1           0        1.658272    2.050312   -3.183065
     68          1           0        6.934912    4.126842   -0.342000
     69          1           0        7.211219   -1.216828    3.228463
     70          1           0        1.294092   -2.561663   -2.613783
     71          1           0       -0.096285    0.093007   -2.377214
     72          1           0        0.220957    0.232331   -4.466712
     73          1           0        0.179296   -1.509115   -4.362053
     74          1           0        1.781786   -0.808735   -4.374410
     75          1           0       -1.166277   -1.645068   -1.338560
     76          1           0       -0.487261   -2.730366   -0.170971
     77          1           0       -0.925750   -4.468301   -1.407671
     78          1           0       -0.545866   -3.637920   -2.990607
     79          1           0        1.945346    3.886190   -4.054989
     80          1           0        3.107242    5.277773   -4.105848
     81          1           0        1.996033    5.140445   -2.761579
     82          1           0        6.925090    6.302376   -1.013815
     83          1           0        5.638082    6.120250    0.215991
     84          1           0        5.611744    7.574953   -0.717394
     85          1           0        8.115814    3.279416    1.976736
     86          1           0        8.906296    0.455243    2.388411
     87          1           0        9.983004    1.449826    0.514717
     88          1           0       10.096350    3.124185    1.186546
     89          1           0        9.136009    2.863617   -0.337612
     90          1           0        7.110746    0.888869    4.351458
     91          1           0        7.815558    2.509132    4.105819
     92          1           0       10.150757    0.753121    4.240023
     93          1           0        8.973453    0.225567    5.364498
     94          1           0        9.399547    1.990083    5.374763
     95          1           0        5.388123   -4.946936    3.414283
     96          1           0        6.007528   -3.441559    4.283470
     97          1           0        6.986415   -4.256109    3.053450
     98          1           0        1.109225   -4.110250    0.688570
     99          1           0        2.043830   -7.464457   -1.990828
    100          1           0        2.207954   -6.097569   -3.125028
    101          1           0        0.620961   -6.774672   -2.812578
    102          1           0       -5.333852   -4.916859   -1.895769
    103          1           0       -5.151713   -3.562555   -2.924793
    104          1           0       -6.116308   -3.844353   -0.165810
    105          1           0       -5.261135   -1.007452   -2.611665
    106          1           0       -4.983154   -0.156652   -0.999076
    107          1           0       -6.495713   -0.214416   -1.916049
    108          1           0       -6.175680   -0.820340    1.064533
    109          1           0       -7.022040   -2.428584    1.101353
    110          1           0       -8.347954   -0.986220   -0.833415
    111          1           0       -8.067307    0.218279    0.479785
    112          1           0       -9.087105   -2.090578    1.880493
    113          1           0       -9.709798   -2.221599    0.209344
    114          1           0      -10.554582    0.226610    0.566163
    115          1           0      -11.922341   -1.784974    0.384107
    116          1           0      -12.666198   -0.510404    1.343027
    117          1           0      -11.826512   -1.874650    2.110852
    118          1           0       -9.464310   -0.564281    3.337509
    119          1           0      -11.095825   -0.060961    3.417498
    120          1           0      -10.595727    2.126017    3.290656
    121          1           0       -9.528227    1.822760    1.847701
    122          1           0       -8.026083    0.892874    4.276950
    123          1           0       -8.804813    2.439965    4.490104
    124          1           0       -7.253082    1.711159    2.079897
    125          1           0       -5.412646    3.090982    3.883584
    126          1           0       -5.452972    1.467564    3.118566
    127          1           0       -6.219829    1.748325    4.684914
    128          1           0       -7.511244    4.507742    3.380377
    129          1           0       -8.676874    3.818821    2.245699
    130          1           0       -6.120765    3.452668    1.057392
    131          1           0       -5.873601    5.004688    1.772129
    132          1           0       -7.086067    5.937624    0.110372
    133          1           0       -8.461588    4.928753    0.313799
    134          1           0       -5.978181    3.713569   -1.018545
    135          1           0       -5.833688    4.996735   -2.793952
    136          1           0       -6.846416    6.111998   -2.149631
    137          1           0       -7.554452    4.758085   -3.164481
    138          1           0       -7.313788    2.110893   -1.040167
    139          1           0       -8.044400    2.912352   -2.517583
    140          1           0       -8.817983    2.905067   -0.940679
 ---------------------------------------------------------------------
 Rotational constants (GHZ):           0.0358105           0.0140841           0.0120744
 Leave Link  202 at Sun May  1 00:48:30 2022, MaxMem=  6710886400 cpu:               0.3 elap:               0.0
 (Enter /sw/apps/gaussian-16.0/g16/l301.exe)
 Standard basis: VSTO-6G (5D, 7F)
 Ernie: Thresh=  0.10000D-02 Tol=  0.10000D-05 Strict=F.
 There are   338 symmetry adapted cartesian basis functions of A   symmetry.
 There are   338 symmetry adapted basis functions of A   symmetry.
   338 basis functions,  2028 primitive gaussians,   338 cartesian basis functions
   176 alpha electrons      176 beta electrons
       nuclear repulsion energy      4955.8868532153 Hartrees.
 IExCor=    0 DFT=F Ex=HF Corr=None ExCW=0 ScaHFX=  1.000000
 ScaDFX=  1.000000  1.000000  1.000000  1.000000 ScalE2=  1.000000  1.000000
 IRadAn=      5 IRanWt=     -1 IRanGd=            0 ICorTp=0 IEmpDi=  4
 Integral buffers will be    131072 words long.
 Regular integral format.
 Two-electron integral symmetry is turned off.
 Leave Link  301 at Sun May  1 00:48:30 2022, MaxMem=  6710886400 cpu:               1.2 elap:               0.1
 (Enter /sw/apps/gaussian-16.0/g16/l302.exe)
 Do NDO integrals.
 NPDir=0 NMtPBC=     1 NCelOv=     1 NCel=       1 NClECP=     1 NCelD=      1
         NCelK=      1 NCelE2=     1 NClLst=     1 CellRange=     0.0.
 One-electron integrals computed using PRISM.
 Generate ZINDO/S integrals.
 NDO Nuclear repulsion=  4467.319114040913 Hartrees.
 NBasis=   338 RedAO= F EigKep=  0.00D+00  NBF=   338
 NBsUse=   338 1.00D-04 EigRej=  0.00D+00 NBFU=   338
 Leave Link  302 at Sun May  1 00:48:31 2022, MaxMem=  6710886400 cpu:               8.5 elap:               0.4
 (Enter /sw/apps/gaussian-16.0/g16/l303.exe)
 DipDrv:  MaxL=1.
 DipDrv:  will hold  3 matrices at once.
 Leave Link  303 at Sun May  1 00:48:31 2022, MaxMem=  6710886400 cpu:               0.5 elap:               0.0
 (Enter /sw/apps/gaussian-16.0/g16/l308.exe)
 Leave Link  308 at Sun May  1 00:48:31 2022, MaxMem=  6710886400 cpu:               4.5 elap:               0.2
 (Enter /sw/apps/gaussian-16.0/g16/l401.exe)
 Simple Huckel Guess.
 JPrj=0 DoOrth=F DoCkMO=F.
 Leave Link  401 at Sun May  1 00:48:31 2022, MaxMem=  6710886400 cpu:               3.5 elap:               0.2
 (Enter /sw/apps/gaussian-16.0/g16/l502.exe)
 Two-electron integral symmetry not used.
 Closed shell SCF:
 Using DIIS extrapolation, IDIIS=  1040.
 Overlap will be assumed to be unity.
 NGot=  6710886400 LenX=  6710643598 LenY=  6710528913
 Requested convergence on RMS density matrix=1.00D-08 within 128 cycles.
 Requested convergence on MAX density matrix=1.00D-06.
 Requested convergence on             energy=1.00D-06.
 No special actions if energy rises.
 Fock matrices will be formed incrementally for  20 cycles.

 Cycle   1  Pass 1  IDiag  1:
 E= -472.303062488393    
 DIIS: error= 5.12D-02 at cycle   1 NSaved=   1.
 NSaved= 1 IEnMin= 1 EnMin= -472.303062488393     IErMin= 1 ErrMin= 5.12D-02
 ErrMax= 5.12D-02  0.00D+00 EMaxC= 1.00D-01 BMatC= 8.30D-01 BMatP= 8.30D-01
 IDIUse=3 WtCom= 4.88D-01 WtEn= 5.12D-01
 Coeff-Com:  0.100D+01
 Coeff-En:   0.100D+01
 Coeff:      0.100D+01
 GapD=    2.000 DampG=2.000 DampE=0.500 DampFc=1.0000 IDamp=-1.
 RMSDP=3.99D-03 MaxDP=1.71D-01              OVMax= 0.00D+00

 Cycle   2  Pass 1  IDiag  1:
 RMSU=  3.99D-03    CP:  9.95D-01
 E= -474.131893329854     Delta-E=       -1.828830841461 Rises=F Damp=F
 DIIS: error= 1.80D-02 at cycle   2 NSaved=   2.
 NSaved= 2 IEnMin= 2 EnMin= -474.131893329854     IErMin= 2 ErrMin= 1.80D-02
 ErrMax= 1.80D-02  0.00D+00 EMaxC= 1.00D-01 BMatC= 5.19D-02 BMatP= 8.30D-01
 IDIUse=3 WtCom= 8.20D-01 WtEn= 1.80D-01
 Coeff-Com: -0.736D-01 0.107D+01
 Coeff-En:   0.000D+00 0.100D+01
 Coeff:     -0.604D-01 0.106D+01
 RMSDP=1.13D-03 MaxDP=5.05D-02 DE=-1.83D+00 OVMax= 0.00D+00

 Cycle   3  Pass 1  IDiag  1:
 RMSU=  1.06D-03    CP:  9.93D-01  1.10D+00
 E= -474.235056592297     Delta-E=       -0.103163262443 Rises=F Damp=F
 DIIS: error= 7.15D-03 at cycle   3 NSaved=   3.
 NSaved= 3 IEnMin= 3 EnMin= -474.235056592297     IErMin= 3 ErrMin= 7.15D-03
 ErrMax= 7.15D-03  0.00D+00 EMaxC= 1.00D-01 BMatC= 7.42D-03 BMatP= 5.19D-02
 IDIUse=3 WtCom= 9.28D-01 WtEn= 7.15D-02
 Coeff-Com: -0.686D-01 0.245D+00 0.823D+00
 Coeff-En:   0.000D+00 0.000D+00 0.100D+01
 Coeff:     -0.637D-01 0.228D+00 0.836D+00
 RMSDP=3.80D-04 MaxDP=1.67D-02 DE=-1.03D-01 OVMax= 0.00D+00

 Cycle   4  Pass 1  IDiag  1:
 RMSU=  2.47D-04    CP:  9.93D-01  1.17D+00  9.15D-01
 E= -474.248394441013     Delta-E=       -0.013337848716 Rises=F Damp=F
 DIIS: error= 1.53D-03 at cycle   4 NSaved=   4.
 NSaved= 4 IEnMin= 4 EnMin= -474.248394441013     IErMin= 4 ErrMin= 1.53D-03
 ErrMax= 1.53D-03  0.00D+00 EMaxC= 1.00D-01 BMatC= 3.12D-04 BMatP= 7.42D-03
 IDIUse=3 WtCom= 9.85D-01 WtEn= 1.53D-02
 Coeff-Com: -0.747D-03-0.315D-01 0.328D-01 0.999D+00
 Coeff-En:   0.000D+00 0.000D+00 0.000D+00 0.100D+01
 Coeff:     -0.735D-03-0.310D-01 0.323D-01 0.999D+00
 RMSDP=1.37D-04 MaxDP=6.25D-03 DE=-1.33D-02 OVMax= 0.00D+00

 Cycle   5  Pass 1  IDiag  1:
 RMSU=  8.92D-05    CP:  9.92D-01  1.17D+00  1.01D+00  1.06D+00
 E= -474.249462154467     Delta-E=       -0.001067713453 Rises=F Damp=F
 DIIS: error= 8.60D-04 at cycle   5 NSaved=   5.
 NSaved= 5 IEnMin= 5 EnMin= -474.249462154467     IErMin= 5 ErrMin= 8.60D-04
 ErrMax= 8.60D-04  0.00D+00 EMaxC= 1.00D-01 BMatC= 6.40D-05 BMatP= 3.12D-04
 IDIUse=3 WtCom= 9.91D-01 WtEn= 8.60D-03
 Coeff-Com:  0.650D-02-0.271D-01-0.985D-01 0.197D+00 0.922D+00
 Coeff-En:   0.000D+00 0.000D+00 0.000D+00 0.000D+00 0.100D+01
 Coeff:      0.644D-02-0.268D-01-0.977D-01 0.195D+00 0.923D+00
 RMSDP=5.82D-05 MaxDP=1.92D-03 DE=-1.07D-03 OVMax= 0.00D+00

 Cycle   6  Pass 1  IDiag  1:
 RMSU=  3.12D-05    CP:  9.92D-01  1.17D+00  1.03D+00  1.24D+00  1.10D+00
 E= -474.249671495003     Delta-E=       -0.000209340536 Rises=F Damp=F
 DIIS: error= 1.88D-04 at cycle   6 NSaved=   6.
 NSaved= 6 IEnMin= 6 EnMin= -474.249671495003     IErMin= 6 ErrMin= 1.88D-04
 ErrMax= 1.88D-04  0.00D+00 EMaxC= 1.00D-01 BMatC= 6.72D-06 BMatP= 6.40D-05
 IDIUse=3 WtCom= 9.98D-01 WtEn= 1.88D-03
 Coeff-Com: -0.158D-03 0.579D-02-0.141D-01-0.103D+00 0.234D-01 0.109D+01
 Coeff-En:   0.000D+00 0.000D+00 0.000D+00 0.000D+00 0.000D+00 0.100D+01
 Coeff:     -0.157D-03 0.578D-02-0.141D-01-0.103D+00 0.234D-01 0.109D+01
 RMSDP=3.06D-05 MaxDP=1.09D-03 DE=-2.09D-04 OVMax= 0.00D+00

 Cycle   7  Pass 1  IDiag  1:
 RMSU=  1.45D-05    CP:  9.92D-01  1.17D+00  1.03D+00  1.27D+00  1.33D+00
                    CP:  1.35D+00
 E= -474.249708090312     Delta-E=       -0.000036595309 Rises=F Damp=F
 DIIS: error= 7.06D-05 at cycle   7 NSaved=   7.
 NSaved= 7 IEnMin= 7 EnMin= -474.249708090312     IErMin= 7 ErrMin= 7.06D-05
 ErrMax= 7.06D-05  0.00D+00 EMaxC= 1.00D-01 BMatC= 1.07D-06 BMatP= 6.72D-06
 IDIUse=1 WtCom= 1.00D+00 WtEn= 0.00D+00
 Coeff-Com: -0.647D-03 0.301D-02 0.760D-02-0.168D-01-0.103D+00 0.334D-01
 Coeff-Com:  0.108D+01
 Coeff:     -0.647D-03 0.301D-02 0.760D-02-0.168D-01-0.103D+00 0.334D-01
 Coeff:      0.108D+01
 RMSDP=1.66D-05 MaxDP=5.34D-04 DE=-3.66D-05 OVMax= 0.00D+00

 Cycle   8  Pass 1  IDiag  1:
 RMSU=  6.05D-06    CP:  9.92D-01  1.17D+00  1.04D+00  1.29D+00  1.41D+00
                    CP:  1.68D+00  1.59D+00
 E= -474.249718377152     Delta-E=       -0.000010286840 Rises=F Damp=F
 DIIS: error= 4.64D-05 at cycle   8 NSaved=   8.
 NSaved= 8 IEnMin= 8 EnMin= -474.249718377152     IErMin= 8 ErrMin= 4.64D-05
 ErrMax= 4.64D-05  0.00D+00 EMaxC= 1.00D-01 BMatC= 3.50D-07 BMatP= 1.07D-06
 IDIUse=1 WtCom= 1.00D+00 WtEn= 0.00D+00
 Coeff-Com:  0.104D-03-0.144D-02 0.186D-02 0.240D-01-0.392D-02-0.200D+00
 Coeff-Com: -0.934D-01 0.127D+01
 Coeff:      0.104D-03-0.144D-02 0.186D-02 0.240D-01-0.392D-02-0.200D+00
 Coeff:     -0.934D-01 0.127D+01
 RMSDP=1.60D-05 MaxDP=4.39D-04 DE=-1.03D-05 OVMax= 0.00D+00

 Cycle   9  Pass 1  IDiag  1:
 RMSU=  4.40D-06    CP:  9.92D-01  1.17D+00  1.04D+00  1.29D+00  1.47D+00
                    CP:  1.89D+00  2.40D+00  1.70D+00
 E= -474.249724428743     Delta-E=       -0.000006051591 Rises=F Damp=F
 DIIS: error= 2.09D-05 at cycle   9 NSaved=   9.
 NSaved= 9 IEnMin= 9 EnMin= -474.249724428743     IErMin= 9 ErrMin= 2.09D-05
 ErrMax= 2.09D-05  0.00D+00 EMaxC= 1.00D-01 BMatC= 2.21D-07 BMatP= 3.50D-07
 IDIUse=1 WtCom= 1.00D+00 WtEn= 0.00D+00
 Coeff-Com:  0.268D-03-0.131D-02-0.285D-02 0.807D-02 0.408D-01-0.226D-01
 Coeff-Com: -0.520D+00 0.340D+00 0.116D+01
 Coeff:      0.268D-03-0.131D-02-0.285D-02 0.807D-02 0.408D-01-0.226D-01
 Coeff:     -0.520D+00 0.340D+00 0.116D+01
 RMSDP=1.38D-05 MaxDP=4.22D-04 DE=-6.05D-06 OVMax= 0.00D+00

 Cycle  10  Pass 1  IDiag  1:
 RMSU=  1.98D-06    CP:  9.92D-01  1.17D+00  1.04D+00  1.30D+00  1.51D+00
                    CP:  2.07D+00  3.00D+00  2.66D+00  1.88D+00
 E= -474.249728208301     Delta-E=       -0.000003779558 Rises=F Damp=F
 DIIS: error= 1.83D-05 at cycle  10 NSaved=  10.
 NSaved=10 IEnMin=10 EnMin= -474.249728208301     IErMin=10 ErrMin= 1.83D-05
 ErrMax= 1.83D-05  0.00D+00 EMaxC= 1.00D-01 BMatC= 8.25D-08 BMatP= 2.21D-07
 IDIUse=1 WtCom= 1.00D+00 WtEn= 0.00D+00
 Coeff-Com: -0.570D-04 0.662D-03-0.637D-03-0.118D-01 0.579D-02 0.902D-01
 Coeff-Com: -0.543D-02-0.201D+00-0.665D+00 0.179D+01
 Coeff:     -0.570D-04 0.662D-03-0.637D-03-0.118D-01 0.579D-02 0.902D-01
 Coeff:     -0.543D-02-0.201D+00-0.665D+00 0.179D+01
 RMSDP=1.38D-05 MaxDP=4.35D-04 DE=-3.78D-06 OVMax= 0.00D+00

 Cycle  11  Pass 1  IDiag  1:
 RMSU=  8.76D-06    CP:  9.92D-01  1.17D+00  1.04D+00  1.30D+00  1.54D+00
                    CP:  2.21D+00  3.00D+00  3.00D+00  3.00D+00  3.00D+00
 E= -474.249730544590     Delta-E=       -0.000002336288 Rises=F Damp=F
 DIIS: error= 1.24D-05 at cycle  11 NSaved=  11.
 NSaved=11 IEnMin=11 EnMin= -474.249730544590     IErMin=11 ErrMin= 1.24D-05
 ErrMax= 1.24D-05  0.00D+00 EMaxC= 1.00D-01 BMatC= 4.62D-08 BMatP= 8.25D-08
 IDIUse=1 WtCom= 1.00D+00 WtEn= 0.00D+00
 Coeff-Com: -0.959D-04 0.447D-03 0.125D-02-0.360D-02-0.124D-01 0.604D-02
 Coeff-Com:  0.146D+00 0.107D+00-0.987D+00 0.351D+00 0.139D+01
 Coeff:     -0.959D-04 0.447D-03 0.125D-02-0.360D-02-0.124D-01 0.604D-02
 Coeff:      0.146D+00 0.107D+00-0.987D+00 0.351D+00 0.139D+01
 RMSDP=1.17D-05 MaxDP=3.79D-04 DE=-2.34D-06 OVMax= 0.00D+00

 Cycle  12  Pass 1  IDiag  1:
 RMSU=  6.13D-06    CP:  9.92D-01  1.17D+00  1.04D+00  1.30D+00  1.57D+00
                    CP:  2.31D+00  3.00D+00  3.00D+00  3.00D+00  3.00D+00
                    CP:  2.03D+00
 E= -474.249731608748     Delta-E=       -0.000001064159 Rises=F Damp=F
 DIIS: error= 8.25D-06 at cycle  12 NSaved=  12.
 NSaved=12 IEnMin=12 EnMin= -474.249731608748     IErMin=12 ErrMin= 8.25D-06
 ErrMax= 8.25D-06  0.00D+00 EMaxC= 1.00D-01 BMatC= 1.12D-08 BMatP= 4.62D-08
 IDIUse=1 WtCom= 1.00D+00 WtEn= 0.00D+00
 Coeff-Com:  0.328D-04-0.275D-03 0.134D-03 0.382D-02 0.439D-04-0.239D-01
 Coeff-Com: -0.576D-01 0.217D+00 0.990D-01-0.385D+00-0.359D+00 0.151D+01
 Coeff:      0.328D-04-0.275D-03 0.134D-03 0.382D-02 0.439D-04-0.239D-01
 Coeff:     -0.576D-01 0.217D+00 0.990D-01-0.385D+00-0.359D+00 0.151D+01
 RMSDP=4.90D-06 MaxDP=1.47D-04 DE=-1.06D-06 OVMax= 0.00D+00

 Cycle  13  Pass 1  IDiag  1:
 RMSU=  1.41D-06    CP:  9.92D-01  1.17D+00  1.04D+00  1.30D+00  1.58D+00
                    CP:  2.34D+00  3.00D+00  3.00D+00  3.00D+00  3.00D+00
                    CP:  2.41D+00  1.50D+00
 E= -474.249731844818     Delta-E=       -0.000000236069 Rises=F Damp=F
 DIIS: error= 4.93D-06 at cycle  13 NSaved=  13.
 NSaved=13 IEnMin=13 EnMin= -474.249731844818     IErMin=13 ErrMin= 4.93D-06
 ErrMax= 4.93D-06  0.00D+00 EMaxC= 1.00D-01 BMatC= 4.75D-09 BMatP= 1.12D-08
 IDIUse=1 WtCom= 1.00D+00 WtEn= 0.00D+00
 Coeff-Com:  0.172D-04-0.710D-04-0.296D-03 0.617D-03 0.204D-02 0.628D-02
 Coeff-Com: -0.557D-01 0.393D-01 0.850D-01 0.881D-01-0.407D+00 0.335D-02
 Coeff-Com:  0.124D+01
 Coeff:      0.172D-04-0.710D-04-0.296D-03 0.617D-03 0.204D-02 0.628D-02
 Coeff:     -0.557D-01 0.393D-01 0.850D-01 0.881D-01-0.407D+00 0.335D-02
 Coeff:      0.124D+01
 RMSDP=2.08D-06 MaxDP=4.73D-05 DE=-2.36D-07 OVMax= 0.00D+00

 Cycle  14  Pass 1  IDiag  1:
 RMSU=  3.56D-07    CP:  9.92D-01  1.17D+00  1.04D+00  1.30D+00  1.59D+00
                    CP:  2.34D+00  3.00D+00  3.00D+00  3.00D+00  3.00D+00
                    CP:  2.53D+00  1.70D+00  1.84D+00
 E= -474.249731919155     Delta-E=       -0.000000074338 Rises=F Damp=F
 DIIS: error= 3.53D-06 at cycle  14 NSaved=  14.
 NSaved=14 IEnMin=14 EnMin= -474.249731919155     IErMin=14 ErrMin= 3.53D-06
 ErrMax= 3.53D-06  0.00D+00 EMaxC= 1.00D-01 BMatC= 2.49D-09 BMatP= 4.75D-09
 IDIUse=1 WtCom= 1.00D+00 WtEn= 0.00D+00
 Coeff-Com: -0.285D-04 0.205D-03 0.131D-04-0.236D-02-0.279D-02 0.197D-01
 Coeff-Com:  0.286D-01-0.704D-01-0.214D+00 0.339D+00 0.200D+00-0.716D+00
 Coeff-Com: -0.761D+00 0.218D+01
 Coeff:     -0.285D-04 0.205D-03 0.131D-04-0.236D-02-0.279D-02 0.197D-01
 Coeff:      0.286D-01-0.704D-01-0.214D+00 0.339D+00 0.200D+00-0.716D+00
 Coeff:     -0.761D+00 0.218D+01
 RMSDP=2.98D-06 MaxDP=7.09D-05 DE=-7.43D-08 OVMax= 0.00D+00

 Cycle  15  Pass 1  IDiag  1:
 RMSU=  4.29D-07    CP:  9.92D-01  1.17D+00  1.04D+00  1.30D+00  1.59D+00
                    CP:  2.34D+00  3.00D+00  3.00D+00  3.00D+00  3.00D+00
                    CP:  2.70D+00  1.95D+00  3.00D+00  2.81D+00
 E= -474.249731985825     Delta-E=       -0.000000066670 Rises=F Damp=F
 DIIS: error= 1.74D-06 at cycle  15 NSaved=  15.
 NSaved=15 IEnMin=15 EnMin= -474.249731985825     IErMin=15 ErrMin= 1.74D-06
 ErrMax= 1.74D-06  0.00D+00 EMaxC= 1.00D-01 BMatC= 6.59D-10 BMatP= 2.49D-09
 IDIUse=1 WtCom= 1.00D+00 WtEn= 0.00D+00
 Coeff-Com: -0.862D-05 0.374D-04 0.158D-03-0.157D-03-0.218D-02 0.512D-03
 Coeff-Com:  0.204D-01 0.397D-02-0.806D-01 0.134D-01 0.119D+00 0.111D+00
 Coeff-Com: -0.758D+00 0.168D+00 0.141D+01
 Coeff:     -0.862D-05 0.374D-04 0.158D-03-0.157D-03-0.218D-02 0.512D-03
 Coeff:      0.204D-01 0.397D-02-0.806D-01 0.134D-01 0.119D+00 0.111D+00
 Coeff:     -0.758D+00 0.168D+00 0.141D+01
 RMSDP=1.66D-06 MaxDP=4.56D-05 DE=-6.67D-08 OVMax= 0.00D+00

 Cycle  16  Pass 1  IDiag  1:
 RMSU=  8.10D-07    CP:  9.92D-01  1.17D+00  1.04D+00  1.30D+00  1.59D+00
                    CP:  2.34D+00  3.00D+00  3.00D+00  3.00D+00  3.00D+00
                    CP:  2.77D+00  2.07D+00  3.00D+00  3.00D+00  3.00D+00
 E= -474.249732001559     Delta-E=       -0.000000015734 Rises=F Damp=F
 DIIS: error= 5.99D-07 at cycle  16 NSaved=  16.
 NSaved=16 IEnMin=16 EnMin= -474.249732001559     IErMin=16 ErrMin= 5.99D-07
 ErrMax= 5.99D-07  0.00D+00 EMaxC= 1.00D-01 BMatC= 7.03D-11 BMatP= 6.59D-10
 IDIUse=1 WtCom= 1.00D+00 WtEn= 0.00D+00
 Coeff-Com:  0.753D-05-0.508D-04-0.118D-04 0.606D-03 0.428D-03-0.368D-02
 Coeff-Com: -0.961D-02 0.180D-01 0.505D-01-0.643D-01-0.838D-01 0.188D+00
 Coeff-Com:  0.180D+00-0.449D+00-0.162D+00 0.133D+01
 Coeff:      0.753D-05-0.508D-04-0.118D-04 0.606D-03 0.428D-03-0.368D-02
 Coeff:     -0.961D-02 0.180D-01 0.505D-01-0.643D-01-0.838D-01 0.188D+00
 Coeff:      0.180D+00-0.449D+00-0.162D+00 0.133D+01
 RMSDP=5.38D-07 MaxDP=1.46D-05 DE=-1.57D-08 OVMax= 0.00D+00

 Cycle  17  Pass 1  IDiag  1:
 RMSU=  3.01D-07    CP:  9.92D-01  1.17D+00  1.04D+00  1.30D+00  1.59D+00
                    CP:  2.34D+00  3.00D+00  3.00D+00  3.00D+00  3.00D+00
                    CP:  2.79D+00  2.11D+00  3.00D+00  3.00D+00  3.00D+00
                    CP:  1.38D+00
 E= -474.249732002965     Delta-E=       -0.000000001406 Rises=F Damp=F
 DIIS: error= 2.24D-07 at cycle  17 NSaved=  17.
 NSaved=17 IEnMin=17 EnMin= -474.249732002965     IErMin=17 ErrMin= 2.24D-07
 ErrMax= 2.24D-07  0.00D+00 EMaxC= 1.00D-01 BMatC= 5.98D-12 BMatP= 7.03D-11
 IDIUse=1 WtCom= 1.00D+00 WtEn= 0.00D+00
 Coeff-Com:  0.900D-06-0.389D-05-0.223D-04 0.287D-04 0.212D-03 0.505D-04
 Coeff-Com: -0.243D-02-0.991D-04 0.779D-02 0.754D-03-0.166D-01-0.575D-02
 Coeff-Com:  0.651D-01 0.209D-02-0.145D+00-0.292D-01 0.112D+01
 Coeff:      0.900D-06-0.389D-05-0.223D-04 0.287D-04 0.212D-03 0.505D-04
 Coeff:     -0.243D-02-0.991D-04 0.779D-02 0.754D-03-0.166D-01-0.575D-02
 Coeff:      0.651D-01 0.209D-02-0.145D+00-0.292D-01 0.112D+01
 RMSDP=6.37D-08 MaxDP=1.98D-06 DE=-1.41D-09 OVMax= 0.00D+00

 Cycle  18  Pass 1  IDiag  1:
 RMSU=  2.55D-08    CP:  9.92D-01  1.17D+00  1.04D+00  1.30D+00  1.59D+00
                    CP:  2.34D+00  3.00D+00  3.00D+00  3.00D+00  3.00D+00
                    CP:  2.79D+00  2.12D+00  3.00D+00  3.00D+00  3.00D+00
                    CP:  1.41D+00  1.13D+00
 E= -474.249732003007     Delta-E=       -0.000000000042 Rises=F Damp=F
 DIIS: error= 1.25D-07 at cycle  18 NSaved=  18.
 NSaved=18 IEnMin=18 EnMin= -474.249732003007     IErMin=18 ErrMin= 1.25D-07
 ErrMax= 1.25D-07  0.00D+00 EMaxC= 1.00D-01 BMatC= 1.06D-12 BMatP= 5.98D-12
 IDIUse=1 WtCom= 1.00D+00 WtEn= 0.00D+00
 Coeff-Com: -0.164D-05 0.109D-04 0.233D-05-0.122D-03-0.101D-03 0.740D-03
 Coeff-Com:  0.202D-02-0.342D-02-0.104D-01 0.127D-01 0.163D-01-0.345D-01
 Coeff-Com: -0.409D-01 0.861D-01 0.388D-01-0.255D+00-0.552D-01 0.124D+01
 Coeff:     -0.164D-05 0.109D-04 0.233D-05-0.122D-03-0.101D-03 0.740D-03
 Coeff:      0.202D-02-0.342D-02-0.104D-01 0.127D-01 0.163D-01-0.345D-01
 Coeff:     -0.409D-01 0.861D-01 0.388D-01-0.255D+00-0.552D-01 0.124D+01
 RMSDP=3.04D-08 MaxDP=1.03D-06 DE=-4.18D-11 OVMax= 0.00D+00

 Cycle  19  Pass 1  IDiag  1:
 RMSU=  6.72D-09    CP:  9.92D-01  1.17D+00  1.04D+00  1.30D+00  1.59D+00
                    CP:  2.34D+00  3.00D+00  3.00D+00  3.00D+00  3.00D+00
                    CP:  2.79D+00  2.12D+00  3.00D+00  3.00D+00  3.00D+00
                    CP:  1.43D+00  1.19D+00  1.55D+00
 E= -474.249732003047     Delta-E=       -0.000000000040 Rises=F Damp=F
 DIIS: error= 5.00D-08 at cycle  19 NSaved=  19.
 NSaved=19 IEnMin=19 EnMin= -474.249732003047     IErMin=19 ErrMin= 5.00D-08
 ErrMax= 5.00D-08  0.00D+00 EMaxC= 1.00D-01 BMatC= 1.39D-13 BMatP= 1.06D-12
 IDIUse=1 WtCom= 1.00D+00 WtEn= 0.00D+00
 Coeff-Com:  0.343D-07-0.408D-06 0.299D-05 0.609D-05-0.176D-04-0.666D-04
 Coeff-Com:  0.914D-04 0.323D-03-0.216D-04-0.116D-02 0.529D-03 0.364D-02
 Coeff-Com: -0.283D-02-0.105D-01 0.157D-01 0.314D-01-0.149D+00-0.119D+00
 Coeff-Com:  0.123D+01
 Coeff:      0.343D-07-0.408D-06 0.299D-05 0.609D-05-0.176D-04-0.666D-04
 Coeff:      0.914D-04 0.323D-03-0.216D-04-0.116D-02 0.529D-03 0.364D-02
 Coeff:     -0.283D-02-0.105D-01 0.157D-01 0.314D-01-0.149D+00-0.119D+00
 Coeff:      0.123D+01
 RMSDP=7.34D-09 MaxDP=4.71D-07 DE=-4.00D-11 OVMax= 0.00D+00

 SCF Done:  E(RZINDO/S) =  -474.249732003     A.U. after   19 cycles
            NFock= 19  Conv=0.73D-08     -V/T= 0.9506
 KE=-9.608916511527D+03 PE=-6.825757736806D-07 EE= 4.667347666166D+03
 Leave Link  502 at Sun May  1 00:48:32 2022, MaxMem=  6710886400 cpu:              19.6 elap:               0.8
 (Enter /sw/apps/gaussian-16.0/g16/l801.exe)
 Range of M.O.s used for correlation:     1   338
 NBasis=   338 NAE=   176 NBE=   176 NFC=     0 NFV=     0
 NROrb=    338 NOA=   176 NOB=   176 NVA=   162 NVB=   162
 Leave Link  801 at Sun May  1 00:48:32 2022, MaxMem=  6710886400 cpu:               0.5 elap:               0.0
 (Enter /sw/apps/gaussian-16.0/g16/l914.exe)
 RHF ground state
 Two-electron integral symmetry not used.
 MDV=  6710886400 DFT=F DoStab=F Mixed=F DoRPA=F DoScal=F NonHer=F
 Making orbital integer symmetry assigments:
 Orbital symmetries:
       Occupied  (A) (A) (A) (A) (A) (A) (A) (A) (A) (A) (A) (A)
                 (A) (A) (A) (A) (A) (A) (A) (A) (A) (A) (A) (A)
                 (A) (A) (A) (A) (A) (A) (A) (A) (A) (A) (A) (A)
                 (A) (A) (A) (A) (A) (A) (A) (A) (A) (A) (A) (A)
                 (A) (A) (A) (A) (A) (A) (A) (A) (A) (A) (A) (A)
                 (A) (A) (A) (A) (A) (A) (A) (A) (A) (A) (A) (A)
                 (A) (A) (A) (A) (A) (A) (A) (A) (A) (A) (A) (A)
                 (A) (A) (A) (A) (A) (A) (A) (A) (A) (A) (A) (A)
                 (A) (A) (A) (A) (A) (A) (A) (A) (A) (A) (A) (A)
                 (A) (A) (A) (A) (A) (A) (A) (A) (A) (A) (A) (A)
                 (A) (A) (A) (A) (A) (A) (A) (A) (A) (A) (A) (A)
                 (A) (A) (A) (A) (A) (A) (A) (A) (A) (A) (A) (A)
                 (A) (A) (A) (A) (A) (A) (A) (A) (A) (A) (A) (A)
                 (A) (A) (A) (A) (A) (A) (A) (A) (A) (A) (A) (A)
                 (A) (A) (A) (A) (A) (A) (A) (A)
       Virtual   (A) (A) (A) (A) (A) (A) (A) (A) (A) (A) (A) (A)
                 (A) (A) (A) (A) (A) (A) (A) (A) (A) (A) (A) (A)
                 (A) (A) (A) (A) (A) (A) (A) (A) (A) (A) (A) (A)
                 (A) (A) (A) (A) (A) (A) (A) (A) (A) (A) (A) (A)
                 (A) (A) (A) (A) (A) (A) (A) (A) (A) (A) (A) (A)
                 (A) (A) (A) (A) (A) (A) (A) (A) (A) (A) (A) (A)
                 (A) (A) (A) (A) (A) (A) (A) (A) (A) (A) (A) (A)
                 (A) (A) (A) (A) (A) (A) (A) (A) (A) (A) (A) (A)
                 (A) (A) (A) (A) (A) (A) (A) (A) (A) (A) (A) (A)
                 (A) (A) (A) (A) (A) (A) (A) (A) (A) (A) (A) (A)
                 (A) (A) (A) (A) (A) (A) (A) (A) (A) (A) (A) (A)
                 (A) (A) (A) (A) (A) (A) (A) (A) (A) (A) (A) (A)
                 (A) (A) (A) (A) (A) (A) (A) (A) (A) (A) (A) (A)
                 (A) (A) (A) (A) (A) (A)
    20 initial guesses have been made.
 Convergence on wavefunction:    0.001000000000000
 Davidson Disk Diagonalization:  ConvIn= 1.00D-03 SkipCon=T Conv= 1.00D-03.
 Max sub-space:  2000 roots to seek:    20 dimension of matrix:        57024
 Iteration     1 Dimension    20 NMult     0 NNew     20
 CISAX will form    20 AO SS matrices at one time.
 NMat=    20 NSing=    20 JSym2X= 0.
 New state      3 was old state      5
 New state      5 was old state      7
 Excitation Energies [eV] at current iteration:
 Root      1 :     1.615926680632439
 Root      2 :     2.138870023493594
 Root      3 :     2.981508155442136
 Root      4 :     3.259368056046999
 Root      5 :     3.310058566057500
 Root      6 :     3.405319289746361
 Root      7 :     3.611824212188429
 Root      8 :     3.705470616189781
 Root      9 :     3.884614034710839
 Root     10 :     3.992338843206982
 Root     11 :     4.195330722248776
 Root     12 :     4.250469873351797
 Root     13 :     4.344434027423353
 Root     14 :     4.497879877503367
 Root     15 :     4.553624474352511
 Root     16 :     4.596027783520843
 Root     17 :     4.645357481944739
 Root     18 :     4.679306687045270
 Root     19 :     5.347404592593527
 Root     20 :     5.645709558846534
 Iteration     2 Dimension    40 NMult    20 NNew     20
 CISAX will form    20 AO SS matrices at one time.
 NMat=    20 NSing=    20 JSym2X= 0.
 Root      1 not converged, maximum delta is    0.043227436807233
 Root      2 not converged, maximum delta is    0.030630077751343
 Root      3 not converged, maximum delta is    0.132353669047257
 Root      4 not converged, maximum delta is    0.278502534368724
 New state      5 was old state      6
 Root      5 not converged, maximum delta is    0.491881927633483
 Excitation Energies [eV] at current iteration:
 Root      1 :     1.234629726344477   Change is   -0.381296954287962
 Root      2 :     1.944826759264424   Change is   -0.194043264229171
 Root      3 :     2.955299472950416   Change is   -0.026208682491720
 Root      4 :     3.009920915443164   Change is   -0.249447140603835
 Root      5 :     3.076999409908665   Change is   -0.328319879837695
 Root      6 :     3.124190099890568   Change is   -0.185868466166932
 Root      7 :     3.368930490849106   Change is   -0.242893721339324
 Root      8 :     3.442526401671890   Change is   -0.262944214517890
 Root      9 :     3.631226828077752   Change is   -0.253387206633086
 Root     10 :     3.710355143601590   Change is   -0.281983699605392
 Root     11 :     3.801404621945766   Change is   -0.696475255557601
 Root     12 :     3.873269444152664   Change is   -0.377200429199133
 Root     13 :     3.911255495151055   Change is   -0.734101986793683
 Root     14 :     4.043773348765469   Change is   -0.151557373483307
 Root     15 :     4.080987163317064   Change is   -0.263446864106289
 Root     16 :     4.297234408704279   Change is   -0.256390065648232
 Root     17 :     4.381463568968621   Change is   -0.297843118076649
 Root     18 :     4.546094664160762   Change is   -0.049933119360082
 Root     19 :     5.340557293555936   Change is   -0.006847299037591
 Root     20 :     5.633504371556659   Change is   -0.012205187289876
 Iteration     3 Dimension    45 NMult    40 NNew      5
 CISAX will form     5 AO SS matrices at one time.
 NMat=     5 NSing=     5 JSym2X= 0.
 Root      1 not converged, maximum delta is    0.009673254757633
 Root      2 not converged, maximum delta is    0.017465383497495
 Root      3 not converged, maximum delta is    0.037299325359382
 Root      4 not converged, maximum delta is    0.055962185284903
 Root      5 not converged, maximum delta is    0.043016594719294
 Excitation Energies [eV] at current iteration:
 Root      1 :     1.217222080140723   Change is   -0.017407646203754
 Root      2 :     1.918217636020005   Change is   -0.026609123244418
 Root      3 :     2.951565022760726   Change is   -0.003734450189690
 Root      4 :     2.986152371183673   Change is   -0.023768544259491
 Root      5 :     3.047988677027183   Change is   -0.029010732881483
 Iteration     4 Dimension    50 NMult    45 NNew      5
 CISAX will form     5 AO SS matrices at one time.
 NMat=     5 NSing=     5 JSym2X= 0.
 Root      1 not converged, maximum delta is    0.002675712921165
 Root      2 not converged, maximum delta is    0.002572018804245
 Root      3 not converged, maximum delta is    0.009260362691748
 Root      4 not converged, maximum delta is    0.015496475045416
 Root      5 not converged, maximum delta is    0.017427214490313
 Excitation Energies [eV] at current iteration:
 Root      1 :     1.216333680184342   Change is   -0.000888399956381
 Root      2 :     1.917538325458416   Change is   -0.000679310561590
 Root      3 :     2.950972356454372   Change is   -0.000592666306354
 Root      4 :     2.982769345903298   Change is   -0.003383025280375
 Root      5 :     3.044269581685327   Change is   -0.003719095341856
 Iteration     5 Dimension    55 NMult    50 NNew      5
 CISAX will form     5 AO SS matrices at one time.
 NMat=     5 NSing=     5 JSym2X= 0.
 Root      1 has converged.
 Root      2 has converged.
 Root      3 not converged, maximum delta is    0.003805095565474
 Root      4 not converged, maximum delta is    0.014890676513961
 Root      5 not converged, maximum delta is    0.020220435930191
 Excitation Energies [eV] at current iteration:
 Root      1 :     1.216281661577230   Change is   -0.000052018607112
 Root      2 :     1.917501815611773   Change is   -0.000036509846643
 Root      3 :     2.950817111727808   Change is   -0.000155244726563
 Root      4 :     2.981421785761049   Change is   -0.001347560142249
 Root      5 :     3.042066436631568   Change is   -0.002203145053758
 Iteration     6 Dimension    58 NMult    55 NNew      3
 CISAX will form     3 AO SS matrices at one time.
 NMat=     3 NSing=     3 JSym2X= 0.
 Root      1 has converged.
 Root      2 has converged.
 Root      3 not converged, maximum delta is    0.008114803870762
 Root      4 not converged, maximum delta is    0.034956815175747
 Root      5 not converged, maximum delta is    0.070458659202482
 Excitation Energies [eV] at current iteration:
 Root      1 :     1.216281597735476   Change is   -0.000000063841754
 Root      2 :     1.917501307504172   Change is   -0.000000508107602
 Root      3 :     2.950651403793848   Change is   -0.000165707933960
 Root      4 :     2.979382612259776   Change is   -0.002039173501273
 Root      5 :     3.035934352038638   Change is   -0.006132084592931
 Iteration     7 Dimension    61 NMult    58 NNew      3
 CISAX will form     3 AO SS matrices at one time.
 NMat=     3 NSing=     3 JSym2X= 0.
 Root      1 has converged.
 Root      2 has converged.
 Root      3 not converged, maximum delta is    0.024916962964700
 Root      4 not converged, maximum delta is    0.120700571110213
 Root      5 not converged, maximum delta is    0.508248011810066
 Excitation Energies [eV] at current iteration:
 Root      1 :     1.216281449264247   Change is   -0.000000148471229
 Root      2 :     1.917501186070274   Change is   -0.000000121433897
 Root      3 :     2.950379547049926   Change is   -0.000271856743923
 Root      4 :     2.975329503203925   Change is   -0.004053109055851
 Root      5 :     2.994562454765097   Change is   -0.041371897273541
 Iteration     8 Dimension    64 NMult    61 NNew      3
 CISAX will form     3 AO SS matrices at one time.
 NMat=     3 NSing=     3 JSym2X= 0.
 Root      1 has converged.
 Root      2 has converged.
 Root      3 not converged, maximum delta is    0.052249649087738
 Root      4 not converged, maximum delta is    0.242638111613200
 Root      5 not converged, maximum delta is    0.278831765408442
 Excitation Energies [eV] at current iteration:
 Root      1 :     1.216281355591766   Change is   -0.000000093672482
 Root      2 :     1.917501112105390   Change is   -0.000000073964884
 Root      3 :     2.949946098847831   Change is   -0.000433448202095
 Root      4 :     2.962742337968231   Change is   -0.012587165235695
 Root      5 :     2.980794953883217   Change is   -0.013767500881880
 Iteration     9 Dimension    67 NMult    64 NNew      3
 CISAX will form     3 AO SS matrices at one time.
 NMat=     3 NSing=     3 JSym2X= 0.
 Root      1 has converged.
 Root      2 has converged.
 Root      3 not converged, maximum delta is    0.027040741443473
 Root      4 not converged, maximum delta is    0.062470690850198
 Root      5 not converged, maximum delta is    0.024098416173041
 Excitation Energies [eV] at current iteration:
 Root      1 :     1.216281345208032   Change is   -0.000000010383734
 Root      2 :     1.917501091590387   Change is   -0.000000020515003
 Root      3 :     2.949708300082559   Change is   -0.000237798765271
 Root      4 :     2.959640650644586   Change is   -0.003101687323644
 Root      5 :     2.980117129100031   Change is   -0.000677824783186
 Iteration    10 Dimension    70 NMult    67 NNew      3
 CISAX will form     3 AO SS matrices at one time.
 NMat=     3 NSing=     3 JSym2X= 0.
 Root      1 has converged.
 Root      2 has converged.
 Root      3 not converged, maximum delta is    0.005993663903043
 Root      4 not converged, maximum delta is    0.012705947991608
 Root      5 not converged, maximum delta is    0.003769433649447
 Excitation Energies [eV] at current iteration:
 Root      1 :     1.216281340154693   Change is   -0.000000005053339
 Root      2 :     1.917500997189163   Change is   -0.000000094401224
 Root      3 :     2.949652363390563   Change is   -0.000055936691996
 Root      4 :     2.959145244735271   Change is   -0.000495405909315
 Root      5 :     2.980009526640467   Change is   -0.000107602459564
 Iteration    11 Dimension    73 NMult    70 NNew      3
 CISAX will form     3 AO SS matrices at one time.
 NMat=     3 NSing=     3 JSym2X= 0.
 Root      1 has converged.
 Root      2 has converged.
 Root      3 not converged, maximum delta is    0.002108435197117
 Root      4 not converged, maximum delta is    0.004345269144495
 Root      5 not converged, maximum delta is    0.001621262940191
 Excitation Energies [eV] at current iteration:
 Root      1 :     1.216281321465117   Change is   -0.000000018689575
 Root      2 :     1.917500871233520   Change is   -0.000000125955642
 Root      3 :     2.949631815111005   Change is   -0.000020548279559
 Root      4 :     2.958995344003161   Change is   -0.000149900732111
 Root      5 :     2.979966169824309   Change is   -0.000043356816158
 Iteration    12 Dimension    76 NMult    73 NNew      3
 CISAX will form     3 AO SS matrices at one time.
 NMat=     3 NSing=     3 JSym2X= 0.
 Root      1 has converged.
 Root      2 has converged.
 Root      3 has converged.
 Root      4 not converged, maximum delta is    0.001787597295272
 Root      5 not converged, maximum delta is    0.001093084989194
 Excitation Energies [eV] at current iteration:
 Root      1 :     1.216281302884820   Change is   -0.000000018580297
 Root      2 :     1.917500727839110   Change is   -0.000000143394410
 Root      3 :     2.949623467643059   Change is   -0.000008347467946
 Root      4 :     2.958941575743881   Change is   -0.000053768259280
 Root      5 :     2.979947873872000   Change is   -0.000018295952309
 Iteration    13 Dimension    78 NMult    76 NNew      2
 CISAX will form     2 AO SS matrices at one time.
 NMat=     2 NSing=     2 JSym2X= 0.
 Root      1 has converged.
 Root      2 has converged.
 Root      3 has converged.
 Root      4 has converged.
 Root      5 has converged.
 Excitation Energies [eV] at current iteration:
 Root      1 :     1.216281302287603   Change is   -0.000000000597217
 Root      2 :     1.917500607606173   Change is   -0.000000120232937
 Root      3 :     2.949621703001553   Change is   -0.000001764641505
 Root      4 :     2.958931011004041   Change is   -0.000010564739840
 Root      5 :     2.979943995721398   Change is   -0.000003878150602
 Convergence achieved on expansion vectors.
 ***********************************************************************
 Excited states from <AA,BB:AA,BB> singles matrix:
 ***********************************************************************
 
 1PDM for each excited state written to RWF  633
 Ground to excited state transition densities written to RWF  633
 Ground to excited state transition electric dipole moments (Au):
       state          X           Y           Z        Dip. S.      Osc.
         1        -0.7956      3.7040     -2.5151     20.6780      0.6162
         2        -0.6527     -0.2914     -0.2042      0.5527      0.0260
         3         1.2021      0.7592      0.4591      2.2321      0.1613
         4        -0.7323     -0.4643     -0.3305      0.8611      0.0624
         5         1.8211      0.9762      0.8633      5.0144      0.3661
 Ground to excited state transition velocity dipole moments (Au):
       state          X           Y           Z        Dip. S.      Osc.
         1        -0.0368      0.0516     -0.0529      0.0068      0.1016
         2         0.0149      0.0113     -0.0001      0.0004      0.0033
         3        -0.0373     -0.0290     -0.0134      0.0024      0.0148
         4         0.0240      0.0199      0.0059      0.0010      0.0062
         5        -0.0492     -0.0337     -0.0352      0.0048      0.0292
 Ground to excited state transition magnetic dipole moments (Au):
       state          X           Y           Z
         1         0.1843      0.2266      0.1428
         2         0.2049     -0.1605     -0.2235
         3         0.2697     -0.1145     -0.2947
         4         0.2832     -0.6893      0.4343
         5        -0.2138      0.5993      0.1848
 Ground to excited state transition velocity quadrupole moments (Au):
       state          XX          YY          ZZ          XY          XZ          YZ
         1        -0.6139     -0.0450      0.0542      0.4634     -0.3387      0.1301
         2         0.2318      0.0109     -0.0260      0.0901     -0.0193     -0.0510
         3        -0.5820      0.1196      0.0061     -0.1951     -0.1303      0.0010
         4         0.2805      0.0889     -0.0556      0.2368     -0.0712     -0.1335
         5        -0.5155     -0.0162      0.1042     -0.2643     -0.1794      0.0932
 <0|del|b> * <b|rxdel|0> + <0|del|b> * <b|delr+rdel|0>
 Rotatory Strengths (R) in cgs (10**-40 erg-esu-cm/Gauss)
       state          XX          YY          ZZ    R(velocity)    E-M Angle
         1       -22.7719     42.5963    -61.5306    -13.9021       95.64
         2        -7.9588     11.7058      8.9475      4.2315       78.66
         3        19.8542    -28.6253     -9.6008     -6.1240       97.93
         4       -27.0761     15.4870    -16.5638     -9.3843       99.10
         5       -75.7404    -31.9768      3.0180    -34.8997      110.69
 1/2[<0|r|b>*<b|rxdel|0> + (<0|rxdel|b>*<b|r|0>)*]
 Rotatory Strengths (R) in cgs (10**-40 erg-esu-cm/Gauss)
       state          XX          YY          ZZ     R(length)
         1       103.6709   -593.5656    253.9733    -78.6405
         2        94.5754    -33.0819    -32.2674      9.7420
         3      -229.2739     61.4931     95.6795    -24.0338
         4       146.6827   -226.3250    101.5057      7.2878
         5       275.2720   -413.7120   -112.8376    -83.7592
  1/2[<0|del|b>*<b|r|0> + (<0|r|b>*<b|del|0>)*] (Au)
       state          X           Y           Z        Dip. S.   Osc.(frdel)
         1         0.0293      0.1912      0.1330     -0.3534     -0.2356
         2        -0.0097     -0.0033      0.0000      0.0130      0.0087
         3        -0.0449     -0.0220     -0.0061      0.0730      0.0487
         4        -0.0176     -0.0092     -0.0019      0.0288      0.0192
         5        -0.0895     -0.0329     -0.0304      0.1529      0.1019

 Excitation energies and oscillator strengths:
 
 Excited State   1:      Singlet-A      1.2163 eV 1019.37 nm  f=0.6162  <S**2>=0.000
     175 ->178        -0.18553
     176 ->177         0.66456
 This state for optimization and/or second-order correction.
 Total Energy, E(CIS/TDA) =  -474.205034488    
 Copying the excited state density for this state as the 1-particle RhoCI density.
 
 Excited State   2:      Singlet-A      1.9175 eV  646.59 nm  f=0.0260  <S**2>=0.000
     175 ->177         0.53380
     176 ->178         0.43965
 
 Excited State   3:      Singlet-A      2.9496 eV  420.34 nm  f=0.1613  <S**2>=0.000
     168 ->181         0.12187
     172 ->177        -0.10786
     175 ->177        -0.15225
     176 ->178         0.20153
     176 ->180         0.60536
 
 Excited State   4:      Singlet-A      2.9589 eV  419.02 nm  f=0.0624  <S**2>=0.000
     168 ->177         0.21821
     168 ->178        -0.14708
     168 ->179        -0.26921
     168 ->181         0.33178
     168 ->184        -0.12185
     168 ->186        -0.16133
     168 ->187         0.11328
     174 ->177         0.17520
     176 ->178        -0.12910
     176 ->179         0.16373
     176 ->180        -0.16792
 
 Excited State   5:      Singlet-A      2.9799 eV  416.06 nm  f=0.3661  <S**2>=0.000
     168 ->181         0.14180
     169 ->179         0.10726
     173 ->177         0.10473
     174 ->177        -0.26141
     175 ->177        -0.24282
     176 ->178         0.32009
     176 ->179        -0.26469
     176 ->180        -0.25141
 SavETr:  write IOETrn=   770 NScale= 10 NData=  16 NLR=1 NState=    5 LETran=     100.
 Leave Link  914 at Sun May  1 00:48:38 2022, MaxMem=  6710886400 cpu:             141.3 elap:               5.9
 (Enter /sw/apps/gaussian-16.0/g16/l601.exe)
 Copying SCF densities to generalized density rwf, IOpCl= 0 IROHF=0.

 **********************************************************************

            Population analysis using the SCF density.

 **********************************************************************

 Orbital symmetries:
       Occupied  (A) (A) (A) (A) (A) (A) (A) (A) (A) (A) (A) (A)
                 (A) (A) (A) (A) (A) (A) (A) (A) (A) (A) (A) (A)
                 (A) (A) (A) (A) (A) (A) (A) (A) (A) (A) (A) (A)
                 (A) (A) (A) (A) (A) (A) (A) (A) (A) (A) (A) (A)
                 (A) (A) (A) (A) (A) (A) (A) (A) (A) (A) (A) (A)
                 (A) (A) (A) (A) (A) (A) (A) (A) (A) (A) (A) (A)
                 (A) (A) (A) (A) (A) (A) (A) (A) (A) (A) (A) (A)
                 (A) (A) (A) (A) (A) (A) (A) (A) (A) (A) (A) (A)
                 (A) (A) (A) (A) (A) (A) (A) (A) (A) (A) (A) (A)
                 (A) (A) (A) (A) (A) (A) (A) (A) (A) (A) (A) (A)
                 (A) (A) (A) (A) (A) (A) (A) (A) (A) (A) (A) (A)
                 (A) (A) (A) (A) (A) (A) (A) (A) (A) (A) (A) (A)
                 (A) (A) (A) (A) (A) (A) (A) (A) (A) (A) (A) (A)
                 (A) (A) (A) (A) (A) (A) (A) (A) (A) (A) (A) (A)
                 (A) (A) (A) (A) (A) (A) (A) (A)
       Virtual   (A) (A) (A) (A) (A) (A) (A) (A) (A) (A) (A) (A)
                 (A) (A) (A) (A) (A) (A) (A) (A) (A) (A) (A) (A)
                 (A) (A) (A) (A) (A) (A) (A) (A) (A) (A) (A) (A)
                 (A) (A) (A) (A) (A) (A) (A) (A) (A) (A) (A) (A)
                 (A) (A) (A) (A) (A) (A) (A) (A) (A) (A) (A) (A)
                 (A) (A) (A) (A) (A) (A) (A) (A) (A) (A) (A) (A)
                 (A) (A) (A) (A) (A) (A) (A) (A) (A) (A) (A) (A)
                 (A) (A) (A) (A) (A) (A) (A) (A) (A) (A) (A) (A)
                 (A) (A) (A) (A) (A) (A) (A) (A) (A) (A) (A) (A)
                 (A) (A) (A) (A) (A) (A) (A) (A) (A) (A) (A) (A)
                 (A) (A) (A) (A) (A) (A) (A) (A) (A) (A) (A) (A)
                 (A) (A) (A) (A) (A) (A) (A) (A) (A) (A) (A) (A)
                 (A) (A) (A) (A) (A) (A) (A) (A) (A) (A) (A) (A)
                 (A) (A) (A) (A) (A) (A)
 The electronic state is 1-A.
 Alpha  occ. eigenvalues --   -1.82300  -1.80436  -1.77810  -1.72929  -1.72737
 Alpha  occ. eigenvalues --   -1.69106  -1.66467  -1.61322  -1.60068  -1.59672
 Alpha  occ. eigenvalues --   -1.55916  -1.52696  -1.50989  -1.50692  -1.47942
 Alpha  occ. eigenvalues --   -1.44330  -1.42209  -1.39051  -1.38075  -1.37827
 Alpha  occ. eigenvalues --   -1.35748  -1.33659  -1.33337  -1.31754  -1.28985
 Alpha  occ. eigenvalues --   -1.27831  -1.25870  -1.22299  -1.21863  -1.18202
 Alpha  occ. eigenvalues --   -1.16598  -1.15282  -1.14326  -1.13973  -1.13442
 Alpha  occ. eigenvalues --   -1.12603  -1.10801  -1.09202  -1.04531  -1.03612
 Alpha  occ. eigenvalues --   -1.02500  -0.99945  -0.98338  -0.97324  -0.95571
 Alpha  occ. eigenvalues --   -0.95394  -0.94975  -0.94400  -0.92645  -0.92641
 Alpha  occ. eigenvalues --   -0.90713  -0.90056  -0.89532  -0.87616  -0.86766
 Alpha  occ. eigenvalues --   -0.86169  -0.84532  -0.83370  -0.81757  -0.79477
 Alpha  occ. eigenvalues --   -0.79062  -0.78709  -0.77867  -0.77311  -0.76433
 Alpha  occ. eigenvalues --   -0.76309  -0.75503  -0.74961  -0.74584  -0.74121
 Alpha  occ. eigenvalues --   -0.73890  -0.73360  -0.72783  -0.71719  -0.71137
 Alpha  occ. eigenvalues --   -0.70696  -0.70226  -0.69374  -0.67900  -0.67710
 Alpha  occ. eigenvalues --   -0.67123  -0.66820  -0.66698  -0.66030  -0.65776
 Alpha  occ. eigenvalues --   -0.65442  -0.65137  -0.64411  -0.64290  -0.64068
 Alpha  occ. eigenvalues --   -0.63562  -0.63362  -0.62520  -0.62231  -0.62091
 Alpha  occ. eigenvalues --   -0.61716  -0.61567  -0.61073  -0.60741  -0.60203
 Alpha  occ. eigenvalues --   -0.59444  -0.59047  -0.58750  -0.58305  -0.57776
 Alpha  occ. eigenvalues --   -0.57674  -0.57106  -0.56833  -0.56451  -0.56291
 Alpha  occ. eigenvalues --   -0.56107  -0.56092  -0.55300  -0.55086  -0.54438
 Alpha  occ. eigenvalues --   -0.54346  -0.53485  -0.53048  -0.52499  -0.52381
 Alpha  occ. eigenvalues --   -0.52296  -0.51996  -0.51772  -0.51600  -0.51103
 Alpha  occ. eigenvalues --   -0.51057  -0.51000  -0.50920  -0.50795  -0.50341
 Alpha  occ. eigenvalues --   -0.49995  -0.49845  -0.49688  -0.49555  -0.49239
 Alpha  occ. eigenvalues --   -0.49066  -0.48687  -0.48057  -0.47740  -0.47604
 Alpha  occ. eigenvalues --   -0.47374  -0.46885  -0.46866  -0.46432  -0.45991
 Alpha  occ. eigenvalues --   -0.45860  -0.45675  -0.45317  -0.45230  -0.45156
 Alpha  occ. eigenvalues --   -0.44931  -0.44823  -0.44705  -0.44362  -0.43946
 Alpha  occ. eigenvalues --   -0.43211  -0.43005  -0.42772  -0.42564  -0.42462
 Alpha  occ. eigenvalues --   -0.42019  -0.41861  -0.40621  -0.39169  -0.38577
 Alpha  occ. eigenvalues --   -0.38123  -0.37182  -0.35390  -0.34790  -0.34509
 Alpha  occ. eigenvalues --   -0.33379  -0.33015  -0.32803  -0.31915  -0.27004
 Alpha  occ. eigenvalues --   -0.21589
 Alpha virt. eigenvalues --   -0.08660  -0.02093  -0.00368   0.00855   0.01242
 Alpha virt. eigenvalues --    0.01712   0.02768   0.03147   0.04251   0.04960
 Alpha virt. eigenvalues --    0.06026   0.07062   0.07436   0.07819   0.08079
 Alpha virt. eigenvalues --    0.08236   0.08529   0.09336   0.09401   0.09674
 Alpha virt. eigenvalues --    0.09917   0.10343   0.10360   0.10662   0.10877
 Alpha virt. eigenvalues --    0.11033   0.11279   0.11801   0.11918   0.12412
 Alpha virt. eigenvalues --    0.12587   0.12757   0.13065   0.13366   0.13584
 Alpha virt. eigenvalues --    0.13825   0.13920   0.14032   0.14412   0.14437
 Alpha virt. eigenvalues --    0.14723   0.15508   0.15675   0.15708   0.15832
 Alpha virt. eigenvalues --    0.15903   0.16040   0.16149   0.16426   0.16894
 Alpha virt. eigenvalues --    0.17131   0.17236   0.17371   0.17638   0.18119
 Alpha virt. eigenvalues --    0.18229   0.18626   0.18848   0.19231   0.19384
 Alpha virt. eigenvalues --    0.19641   0.19803   0.19894   0.20412   0.20945
 Alpha virt. eigenvalues --    0.21586   0.21674   0.22861   0.23319   0.23822
 Alpha virt. eigenvalues --    0.24152   0.24207   0.24255   0.24321   0.24337
 Alpha virt. eigenvalues --    0.24380   0.24466   0.24553   0.24626   0.24799
 Alpha virt. eigenvalues --    0.24983   0.25010   0.25021   0.25047   0.25156
 Alpha virt. eigenvalues --    0.25385   0.25389   0.25424   0.25511   0.25525
 Alpha virt. eigenvalues --    0.25702   0.25845   0.25853   0.25950   0.25963
 Alpha virt. eigenvalues --    0.26076   0.26108   0.26150   0.26156   0.26258
 Alpha virt. eigenvalues --    0.26411   0.26559   0.26581   0.26587   0.26673
 Alpha virt. eigenvalues --    0.26740   0.26920   0.27073   0.27166   0.27330
 Alpha virt. eigenvalues --    0.27369   0.27567   0.27734   0.27760   0.27898
 Alpha virt. eigenvalues --    0.27925   0.28085   0.28447   0.28470   0.29531
 Alpha virt. eigenvalues --    0.29599   0.29797   0.30331   0.30584   0.31050
 Alpha virt. eigenvalues --    0.31281   0.32457   0.32852   0.33369   0.34386
 Alpha virt. eigenvalues --    0.34876   0.35695   0.35784   0.35895   0.35910
 Alpha virt. eigenvalues --    0.36369   0.36954   0.37016   0.37730   0.37989
 Alpha virt. eigenvalues --    0.39560   0.39695   0.39918   0.40154   0.40494
 Alpha virt. eigenvalues --    0.41307   0.41393   0.41648   0.41867   0.42441
 Alpha virt. eigenvalues --    0.43666   0.44149   0.44951   0.45467   0.47367
 Alpha virt. eigenvalues --    0.47393   0.47998   0.48548   0.51099   0.52639
 Alpha virt. eigenvalues --    0.54533   0.55983
          Condensed to atoms (all electrons):
 Mulliken charges:
               1
     1  Mg   0.437034
     2  C   -0.035340
     3  C   -0.066641
     4  C   -0.092595
     5  C   -0.074674
     6  N   -0.310135
     7  C    0.101729
     8  C    0.001825
     9  C   -0.000637
    10  C    0.152170
    11  C   -0.049757
    12  C   -0.016766
    13  C    0.015405
    14  C    0.474850
    15  O   -0.563840
    16  O   -0.249862
    17  N   -0.326121
    18  C    0.128805
    19  C    0.035968
    20  C   -0.041331
    21  C    0.111518
    22  C   -0.048085
    23  C    0.327255
    24  O   -0.520910
    25  C   -0.028370
    26  N   -0.248755
    27  C    0.133769
    28  C   -0.002473
    29  C    0.003386
    30  C    0.102158
    31  C   -0.050561
    32  C   -0.027634
    33  C   -0.067531
    34  N   -0.334456
    35  C    0.080819
    36  C    0.035074
    37  C   -0.060806
    38  C    0.125496
    39  C   -0.043254
    40  C    0.338900
    41  O   -0.505583
    42  C    0.053743
    43  C    0.488157
    44  O   -0.503884
    45  O   -0.271449
    46  C    0.074600
    47  C    0.113993
    48  C   -0.086240
    49  C   -0.000958
    50  C   -0.045000
    51  C   -0.019316
    52  C   -0.034056
    53  C   -0.042054
    54  C   -0.010312
    55  C   -0.058731
    56  C   -0.032818
    57  C   -0.040770
    58  C   -0.051241
    59  C   -0.019480
    60  C   -0.064875
    61  C   -0.024747
    62  C   -0.038187
    63  C   -0.029045
    64  C   -0.007690
    65  C   -0.062607
    66  C   -0.063770
    67  H    0.027892
    68  H    0.023188
    69  H    0.030906
    70  H    0.040938
    71  H    0.031163
    72  H    0.024629
    73  H    0.020438
    74  H    0.024498
    75  H    0.023146
    76  H    0.034827
    77  H    0.032001
    78  H    0.048054
    79  H    0.024299
    80  H    0.045883
    81  H    0.036203
    82  H    0.048099
    83  H    0.024557
    84  H    0.041748
    85  H    0.022760
    86  H    0.025814
    87  H    0.034662
    88  H    0.024738
    89  H    0.033536
    90  H    0.029025
    91  H    0.017778
    92  H    0.030159
    93  H    0.016767
    94  H    0.024702
    95  H    0.036809
    96  H    0.031420
    97  H    0.029455
    98  H    0.046520
    99  H    0.042629
   100  H    0.050397
   101  H    0.028898
   102  H    0.029562
   103  H    0.053282
   104  H    0.013819
   105  H    0.033552
   106  H    0.035629
   107  H    0.013688
   108  H    0.028981
   109  H    0.026079
   110  H    0.024509
   111  H    0.023999
   112  H    0.027887
   113  H    0.015685
   114  H    0.023561
   115  H    0.011422
   116  H    0.017284
   117  H    0.009577
   118  H    0.021791
   119  H    0.014214
   120  H    0.026238
   121  H    0.024626
   122  H    0.030928
   123  H    0.006521
   124  H    0.017645
   125  H    0.021465
   126  H    0.014771
   127  H    0.018273
   128  H    0.019479
   129  H    0.022718
   130  H    0.015099
   131  H    0.025110
   132  H    0.008124
   133  H    0.024360
   134  H    0.020321
   135  H    0.011993
   136  H    0.014962
   137  H    0.028545
   138  H    0.012873
   139  H    0.023658
   140  H    0.015929
 Sum of Mulliken charges =  -0.00000
 Mulliken charges with hydrogens summed into heavy atoms:
               1
     1  Mg   0.437034
     2  C   -0.035340
     3  C   -0.038749
     4  C   -0.069407
     5  C   -0.043767
     6  N   -0.310135
     7  C    0.101729
     8  C    0.042763
     9  C    0.030526
    10  C    0.152170
    11  C    0.019808
    12  C    0.041206
    13  C    0.095461
    14  C    0.474850
    15  O   -0.563840
    16  O   -0.249862
    17  N   -0.326121
    18  C    0.128805
    19  C    0.035968
    20  C   -0.041331
    21  C    0.111518
    22  C    0.058300
    23  C    0.327255
    24  O   -0.520910
    25  C    0.086034
    26  N   -0.248755
    27  C    0.133769
    28  C    0.020287
    29  C    0.029200
    30  C    0.102158
    31  C    0.042374
    32  C    0.019169
    33  C    0.004098
    34  N   -0.334456
    35  C    0.080819
    36  C    0.035074
    37  C   -0.060806
    38  C    0.125496
    39  C    0.054430
    40  C    0.338900
    41  O   -0.505583
    42  C    0.100263
    43  C    0.488157
    44  O   -0.503884
    45  O   -0.271449
    46  C    0.196524
    47  C    0.196837
    48  C   -0.072421
    49  C   -0.000958
    50  C    0.037868
    51  C    0.035744
    52  C    0.014453
    53  C    0.001519
    54  C    0.013248
    55  C   -0.020448
    56  C    0.003187
    57  C    0.010094
    58  C   -0.013792
    59  C   -0.001835
    60  C   -0.010365
    61  C    0.017450
    62  C    0.002021
    63  C    0.003438
    64  C    0.012632
    65  C   -0.007107
    66  C   -0.011311
 Charge=              0.0000 electrons
 Dipole moment (field-independent basis, Debye):
    X=              1.3456    Y=              1.3135    Z=              1.8815  Tot=              2.6601
 N-N= 4.467319114041D+03 E-N= 0.000000000000D+00  KE=-9.608916511527D+03
 Leave Link  601 at Sun May  1 00:48:38 2022, MaxMem=  6710886400 cpu:               0.8 elap:               0.1
 (Enter /sw/apps/gaussian-16.0/g16/l9999.exe)
 1\1\GINC-BP1-COMPUTE190\SP\RZINDO CIS\STO-3G\C55H74Mg1N4O6\OF15641\01-
 May-2022\0\\#p ZINDO=(nstates=5)\\step_951_chromophore_23 ZINDO\\0,1\M
 g,0,-10.73,39.961,42.978\C,0,-9.179,36.947,41.675\C,0,-8.622,41.743,40
 .966\C,0,-12.664,42.622,43.632\C,0,-13.177,37.81,44.428\N,0,-9.132,39.
 389,41.43\C,0,-8.552,38.089,41.208\C,0,-7.168,38.257,40.49\C,0,-7.104,
 39.831,40.242\C,0,-8.357,40.415,40.985\C,0,-5.775,40.387,40.642\C,0,-6
 .964,37.293,39.237\C,0,-5.638,36.629,39.221\C,0,-4.816,36.747,37.969\O
 ,0,-4.161,37.806,37.776\O,0,-4.825,35.764,37.076\N,0,-10.724,41.925,42
 .212\C,0,-9.646,42.446,41.585\C,0,-9.876,43.875,41.554\C,0,-11.135,44.
 191,42.103\C,0,-11.595,42.921,42.656\C,0,-9.005,44.88,40.736\C,0,-11.8
 28,45.533,42.089\O,0,-11.231,46.518,41.685\C,0,-13.286,45.729,42.496\N
 ,0,-12.59,40.202,43.829\C,0,-13.114,41.397,44.15\C,0,-14.344,41.312,45
 .186\C,0,-14.671,39.792,45.096\C,0,-13.405,39.241,44.389\C,0,-14.14,41
 .949,46.581\C,0,-15.991,39.33,44.499\C,0,-17.031,38.796,45.566\N,0,-11
 .003,37.77,43.225\C,0,-12.085,37.1,43.811\C,0,-11.783,35.688,43.738\C,
 0,-10.631,35.538,42.959\C,0,-10.265,36.843,42.58\C,0,-12.597,34.573,44
 .327\C,0,-9.699,34.607,42.333\O,0,-9.813,33.426,42.332\C,0,-8.638,35.5
 45,41.627\C,0,-7.38,35.344,42.511\O,0,-7.249,35.807,43.602\O,0,-6.428,
 34.632,41.819\C,0,-5.172,34.507,42.559\C,0,-4.171,35.823,35.774\C,0,-5
 .084,35.906,34.561\C,0,-5.46,36.894,33.744\C,0,-5.414,38.324,34.134\C,
 0,-6.492,36.546,32.596\C,0,-6.008,37.125,31.339\C,0,-5.911,36.012,30.1
 88\C,0,-6.23,36.599,28.803\C,0,-5.398,35.896,27.752\C,0,-7.756,36.437,
 28.474\C,0,-8.534,37.755,28.419\C,0,-9.841,37.681,29.334\C,0,-9.85,38.
 788,30.425\C,0,-10.927,38.406,31.493\C,0,-9.983,40.219,29.881\C,0,-9.6
 18,41.261,30.94\C,0,-8.511,42.259,30.466\C,0,-7.308,42.294,31.407\C,0,
 -6.625,43.659,31.623\C,0,-6.217,41.271,31.004\H,0,-7.916,42.432,40.497
 \H,0,-13.08,43.561,44.002\H,0,-14.059,37.246,44.738\H,0,-6.428,38.083,
 41.271\H,0,-7.166,40.129,39.196\H,0,-5.584,41.266,40.027\H,0,-4.965,39
 .687,40.438\H,0,-5.826,40.5,41.725\H,0,-6.952,37.992,38.401\H,0,-7.753
 ,36.578,39.002\H,0,-5.862,35.581,39.417\H,0,-5.003,37.094,39.976\H,0,-
 8.019,44.482,40.498\H,0,-8.959,45.865,41.2\H,0,-9.622,44.982,39.843\H,
 0,-13.376,45.779,43.581\H,0,-13.86,44.889,42.106\H,0,-13.644,46.596,41
 .94\H,0,-15.128,41.878,44.682\H,0,-14.645,39.308,46.072\H,0,-13.865,41
 .185,47.308\H,0,-15.136,42.351,46.767\H,0,-13.397,42.719,46.375\H,0,-1
 5.801,38.553,43.757\H,0,-16.499,40.172,44.029\H,0,-16.779,38.854,46.62
 5\H,0,-17.078,37.724,45.375\H,0,-17.945,39.316,45.28\H,0,-12.059,33.67
 2,44.032\H,0,-13.616,34.659,43.949\H,0,-12.622,34.639,45.414\H,0,-8.51
 8,35.161,40.614\H,0,-5.282,33.589,43.136\H,0,-4.933,35.336,43.225\H,0,
 -4.339,34.405,41.863\H,0,-3.642,34.883,35.615\H,0,-3.383,36.572,35.695
 \H,0,-5.231,34.919,34.122\H,0,-4.62,38.65,34.806\H,0,-6.415,38.675,34.
 383\H,0,-5.062,38.87,33.259\H,0,-7.443,36.985,32.897\H,0,-6.522,35.457
 ,32.549\H,0,-4.979,37.464,31.466\H,0,-6.664,37.939,31.031\H,0,-6.546,3
 5.139,30.339\H,0,-4.86,35.73,30.263\H,0,-5.819,37.605,28.714\H,0,-4.36
 1,35.763,28.057\H,0,-5.397,36.341,26.757\H,0,-5.811,34.889,27.693\H,0,
 -8.236,35.749,29.17\H,0,-7.899,35.955,27.507\H,0,-8.846,37.99,27.402\H
 ,0,-7.909,38.528,28.867\H,0,-10.136,36.76,29.835\H,0,-10.641,37.921,28
 .634\H,0,-8.902,38.597,30.929\H,0,-11.646,39.185,31.747\H,0,-10.344,38
 .116,32.367\H,0,-11.487,37.537,31.151\H,0,-11.009,40.407,29.564\H,0,-9
 .351,40.193,28.993\H,0,-9.154,40.737,31.776\H,0,-10.462,41.792,31.38\H
 ,0,-8.988,43.239,30.466\H,0,-8.249,42.094,29.42\H,0,-7.567,41.953,32.4
 09\H,0,-6.639,43.924,32.68\H,0,-7.248,44.477,31.263\H,0,-5.596,43.68,3
 1.263\H,0,-6.418,40.398,31.625\H,0,-5.225,41.702,31.14\H,0,-6.26,40.86
 5,29.994\\Version=ES64L-G16RevA.03\State=1-A\HF=-474.249732\RMSD=7.344
 e-09\PG=C01 [X(C55H74Mg1N4O6)]\\@


 IF YOU PERCEIVE THAT THERE ARE FOUR POSSIBLE WAYS IN
 WHICH A PROCEDURE CAN GO WRONG AND CIRCUMVENT THESE, 
 THEN A FIFTH WAY WILL DEVELOP.

                              -- MURPHY'S TWELFTH LAW
 Job cpu time:       0 days  0 hours  3 minutes  5.7 seconds.
 Elapsed time:       0 days  0 hours  0 minutes  8.0 seconds.
 File lengths (MBytes):  RWF=   1275 Int=      0 D2E=      0 Chk=     38 Scr=      1
 Normal termination of Gaussian 16 at Sun May  1 00:48:38 2022.
