 Entering Gaussian System, Link 0=g16
 Initial command:
 /sw/apps/gaussian-16.0/g16/l1.exe "/tmp/Gau-193592.inp" -scrdir="/tmp/"
 Entering Link 1 = /sw/apps/gaussian-16.0/g16/l1.exe PID=    193593.
  
 Copyright (c) 1988,1990,1992,1993,1995,1998,2003,2009,2016,
            Gaussian, Inc.  All Rights Reserved.
  
 This is part of the Gaussian(R) 16 program.  It is based on
 the Gaussian(R) 09 system (copyright 2009, Gaussian, Inc.),
 the Gaussian(R) 03 system (copyright 2003, Gaussian, Inc.),
 the Gaussian(R) 98 system (copyright 1998, Gaussian, Inc.),
 the Gaussian(R) 94 system (copyright 1995, Gaussian, Inc.),
 the Gaussian 92(TM) system (copyright 1992, Gaussian, Inc.),
 the Gaussian 90(TM) system (copyright 1990, Gaussian, Inc.),
 the Gaussian 88(TM) system (copyright 1988, Gaussian, Inc.),
 the Gaussian 86(TM) system (copyright 1986, Carnegie Mellon
 University), and the Gaussian 82(TM) system (copyright 1983,
 Carnegie Mellon University). Gaussian is a federally registered
 trademark of Gaussian, Inc.
  
 This software contains proprietary and confidential information,
 including trade secrets, belonging to Gaussian, Inc.
  
 This software is provided under written license and may be
 used, copied, transmitted, or stored only in accord with that
 written license.
  
 The following legend is applicable only to US Government
 contracts under FAR:
  
                    RESTRICTED RIGHTS LEGEND
  
 Use, reproduction and disclosure by the US Government is
 subject to restrictions as set forth in subparagraphs (a)
 and (c) of the Commercial Computer Software - Restricted
 Rights clause in FAR 52.227-19.
  
 Gaussian, Inc.
 340 Quinnipiac St., Bldg. 40, Wallingford CT 06492
  
  
 ---------------------------------------------------------------
 Warning -- This program may not be used in any manner that
 competes with the business of Gaussian, Inc. or will provide
 assistance to any competitor of Gaussian, Inc.  The licensee
 of this program is prohibited from giving any competitor of
 Gaussian, Inc. access to this program.  By using this program,
 the user acknowledges that Gaussian, Inc. is engaged in the
 business of creating and licensing software in the field of
 computational chemistry and represents and warrants to the
 licensee that it is not a competitor of Gaussian, Inc. and that
 it will not use this program in any manner prohibited above.
 ---------------------------------------------------------------
  

 Cite this work as:
 Gaussian 16, Revision A.03,
 M. J. Frisch, G. W. Trucks, H. B. Schlegel, G. E. Scuseria, 
 M. A. Robb, J. R. Cheeseman, G. Scalmani, V. Barone, 
 G. A. Petersson, H. Nakatsuji, X. Li, M. Caricato, A. V. Marenich, 
 J. Bloino, B. G. Janesko, R. Gomperts, B. Mennucci, H. P. Hratchian, 
 J. V. Ortiz, A. F. Izmaylov, J. L. Sonnenberg, D. Williams-Young, 
 F. Ding, F. Lipparini, F. Egidi, J. Goings, B. Peng, A. Petrone, 
 T. Henderson, D. Ranasinghe, V. G. Zakrzewski, J. Gao, N. Rega, 
 G. Zheng, W. Liang, M. Hada, M. Ehara, K. Toyota, R. Fukuda, 
 J. Hasegawa, M. Ishida, T. Nakajima, Y. Honda, O. Kitao, H. Nakai, 
 T. Vreven, K. Throssell, J. A. Montgomery, Jr., J. E. Peralta, 
 F. Ogliaro, M. J. Bearpark, J. J. Heyd, E. N. Brothers, K. N. Kudin, 
 V. N. Staroverov, T. A. Keith, R. Kobayashi, J. Normand, 
 K. Raghavachari, A. P. Rendell, J. C. Burant, S. S. Iyengar, 
 J. Tomasi, M. Cossi, J. M. Millam, M. Klene, C. Adamo, R. Cammi, 
 J. W. Ochterski, R. L. Martin, K. Morokuma, O. Farkas, 
 J. B. Foresman, and D. J. Fox, Gaussian, Inc., Wallingford CT, 2016.
 
 ******************************************
 Gaussian 16:  ES64L-G16RevA.03 25-Dec-2016
                 5-May-2022 
 ******************************************
 %nproc=24
 Will use up to   24 processors via shared memory.
 %mem=75GB
 -----------------------------------
 #p cam-b3lyp/Def2SVP td=(nstates=5)
 -----------------------------------
 1/38=1,172=1/1;
 2/12=2,17=6,18=5,40=1/2;
 3/5=43,7=101,11=9,25=1,30=1,74=-40/1,2,3,8;
 4//1;
 5/5=2,38=5/2;
 8/6=1,10=1,108=5/1;
 9/41=5,42=1,70=2/14;
 6/7=2,8=2,9=2,10=2/1;
 99/5=1,9=1/99;
 Leave Link    1 at Thu May  5 13:07:38 2022, MaxMem= 10066329600 cpu:               2.5 elap:               0.1
 (Enter /sw/apps/gaussian-16.0/g16/l101.exe)
 ------------------------------------------------------
 step_901_chromophore_6 TDDFT with cam-b3lyp functional
 ------------------------------------------------------
 Symbolic Z-matrix:
 Charge =  0 Multiplicity = 1
 Mg                    16.675   -2.489     28.224 
 C                     16.084   -0.327     31.059 
 C                     18.229   -4.562     30.253 
 C                     17.595   -4.022     25.528 
 C                     14.988   -0.006     26.246 
 N                     17.197   -2.343     30.361 
 C                     16.818   -1.508     31.37 
 C                     17.104   -2.029     32.693 
 C                     18.166   -3.173     32.446 
 C                     17.9     -3.404     30.945 
 C                     19.701   -2.758     32.82 
 C                     15.913   -2.474     33.457 
 C                     15.783   -1.963     34.87 
 C                     16.997   -1.509     35.696 
 O                     17.269   -0.334     36.007 
 O                     17.739   -2.61      35.998 
 N                     17.621   -4.127     27.976 
 C                     18.192   -4.939     28.953 
 C                     18.786   -6.113     28.301 
 C                     18.544   -5.97      26.877 
 C                     17.913   -4.69      26.73 
 C                     19.605   -7.14      29.041 
 C                     18.87    -6.909     25.748 
 O                     18.639   -6.622     24.566 
 C                     19.633   -8.18      26.069 
 N                     16.369   -1.999     26.137 
 C                     16.926   -2.858     25.223 
 C                     16.847   -2.282     23.807 
 C                     15.744   -1.151     23.981 
 C                     15.586   -1.061     25.536 
 C                     18.219   -1.866     23.168 
 C                     14.428   -1.345     23.186 
 C                     13.914   -0.169     22.315 
 N                     15.753   -0.556     28.549 
 C                     15.109    0.264     27.597 
 C                     14.677    1.439     28.324 
 C                     14.964    1.272     29.646 
 C                     15.681    0.073     29.719 
 C                     13.902    2.618     27.903 
 C                     14.839    1.738     31.022 
 O                     14.245    2.68      31.532 
 C                     15.585    0.737     31.967 
 C                     16.62     1.554     32.678 
 O                     17.713    1.808     32.288 
 O                     16.071    1.879     33.893 
 C                     16.938    2.666     34.813 
 C                     18.871   -2.4       36.922 
 C                     18.816   -3.547     37.919 
 C                     19.412   -3.558     39.12 
 C                     20.402   -2.507     39.661 
 C                     19.357   -4.849     39.985 
 C                     20.052   -5.979     39.294 
 C                     21.171   -6.665     40.115 
 C                     21.646   -7.986     39.58 
 C                     20.919   -9.199     40.155 
 C                     23.22    -8.168     39.534 
 C                     23.909   -7.722     40.875 
 C                     25.191   -8.544     41.081 
 C                     25.538   -8.883     42.53 
 C                     26.849   -8.241     42.968 
 C                     25.461   -10.349    43.006 
 C                     24.06    -10.951    42.985 
 C                     23.444   -11.411    44.355 
 C                     23.311   -12.956    44.514 
 C                     23.569   -13.51     45.94 
 C                     21.915   -13.379    43.983 
 H                     18.577   -5.328     30.95 
 H                     17.989   -4.529     24.645 
 H                     14.603    0.828     25.655 
 H                     17.419   -1.138     33.237 
 H                     18.039   -4.099     33.007 
 H                     19.783   -1.745     33.215 
 H                     20.333   -3.103     32.002 
 H                     20.052   -3.443     33.59 
 H                     15.921   -3.548     33.638 
 H                     15.024   -2.189     32.893 
 H                     15.142   -2.598     35.481 
 H                     15.106   -1.115     34.769 
 H                     19.467   -6.951     30.105 
 H                     20.662   -7.037     28.793 
 H                     19.344   -8.166     28.783 
 H                     20.501   -8.048     26.715 
 H                     19.973   -8.556     25.104 
 H                     18.938   -8.823     26.61 
 H                     16.34    -3.047     23.219 
 H                     16.163   -0.2       23.65 
 H                     18.137   -0.866     22.741 
 H                     18.509   -2.581     22.398 
 H                     19.016   -1.938     23.908 
 H                     13.692   -1.585     23.953 
 H                     14.437   -2.281     22.626 
 H                     13.432   -0.552     21.416 
 H                     14.75     0.488     22.077 
 H                     13.114    0.366     22.827 
 H                     14.212    2.644     26.858 
 H                     14.213    3.544     28.387 
 H                     12.833    2.522     28.093 
 H                     14.805    0.317     32.601 
 H                     16.559    2.607     35.833 
 H                     16.985    3.737     34.615 
 H                     17.971    2.32      34.771 
 H                     18.806   -1.402     37.355 
 H                     19.745   -2.667     36.329 
 H                     18.104   -4.339     37.689 
 H                     20.695   -1.74      38.944 
 H                     21.311   -3.055     39.908 
 H                     19.874   -2.076     40.512 
 H                     18.294   -5.085     40.035 
 H                     19.755   -4.707     40.989 
 H                     20.56    -5.585     38.414 
 H                     19.449   -6.768     38.844 
 H                     20.937   -6.697     41.179 
 H                     22.001   -5.996     39.887 
 H                     21.465   -7.97      38.506 
 H                     20.115   -9.462     39.468 
 H                     20.544   -8.983     41.156 
 H                     21.683   -9.962     40.302 
 H                     23.657   -7.542     38.756 
 H                     23.426   -9.154     39.119 
 H                     23.231   -7.573     41.715 
 H                     24.358   -6.763     40.615 
 H                     26.003   -7.924     40.701 
 H                     25.166   -9.328     40.324 
 H                     24.782   -8.402     43.151 
 H                     27.126   -8.462     43.999 
 H                     26.772   -7.16      42.854 
 H                     27.612   -8.667     42.316 
 H                     25.884   -10.268    44.007 
 H                     26.173   -10.871    42.366 
 H                     24.238   -11.773    42.292 
 H                     23.372   -10.25     42.512 
 H                     22.5     -10.87     44.289 
 H                     24.064   -11.009    45.157 
 H                     24.098   -13.318    43.853 
 H                     22.775   -14.14     46.34 
 H                     23.851   -12.779    46.698 
 H                     24.539   -14.002    45.871 
 H                     21.076   -12.982    44.555 
 H                     21.821   -14.427    43.699 
 H                     21.954   -12.841    43.036 
 
 ITRead=  0  0  0  0  0  0  0  0  0  0  0  0  0  0  0  0  0  0  0  0
 ITRead=  0  0  0  0  0  0  0  0  0  0  0  0  0  0  0  0  0  0  0  0
 ITRead=  0  0  0  0  0  0  0  0  0  0  0  0  0  0  0  0  0  0  0  0
 ITRead=  0  0  0  0  0  0  0  0  0  0  0  0  0  0  0  0  0  0  0  0
 ITRead=  0  0  0  0  0  0  0  0  0  0  0  0  0  0  0  0  0  0  0  0
 ITRead=  0  0  0  0  0  0  0  0  0  0  0  0  0  0  0  0  0  0  0  0
 ITRead=  0  0  0  0  0  0  0  0  0  0  0  0  0  0  0  0  0  0  0  0
 MicOpt= -1 -1 -1 -1 -1 -1 -1 -1 -1 -1 -1 -1 -1 -1 -1 -1 -1 -1 -1 -1
 MicOpt= -1 -1 -1 -1 -1 -1 -1 -1 -1 -1 -1 -1 -1 -1 -1 -1 -1 -1 -1 -1
 MicOpt= -1 -1 -1 -1 -1 -1 -1 -1 -1 -1 -1 -1 -1 -1 -1 -1 -1 -1 -1 -1
 MicOpt= -1 -1 -1 -1 -1 -1 -1 -1 -1 -1 -1 -1 -1 -1 -1 -1 -1 -1 -1 -1
 MicOpt= -1 -1 -1 -1 -1 -1 -1 -1 -1 -1 -1 -1 -1 -1 -1 -1 -1 -1 -1 -1
 MicOpt= -1 -1 -1 -1 -1 -1 -1 -1 -1 -1 -1 -1 -1 -1 -1 -1 -1 -1 -1 -1
 MicOpt= -1 -1 -1 -1 -1 -1 -1 -1 -1 -1 -1 -1 -1 -1 -1 -1 -1 -1 -1 -1
 NAtoms=    140 NQM=      140 NQMF=       0 NMMI=      0 NMMIF=      0
                NMic=       0 NMicF=      0.
                    Isotopes and Nuclear Properties:
 (Nuclear quadrupole moments (NQMom) in fm**2, nuclear magnetic moments (NMagM)
  in nuclear magnetons)

  Atom         1           2           3           4           5           6           7           8           9          10
 IAtWgt=          24          12          12          12          12          14          12          12          12          12
 AtmWgt=  23.9850450  12.0000000  12.0000000  12.0000000  12.0000000  14.0030740  12.0000000  12.0000000  12.0000000  12.0000000
 NucSpn=           0           0           0           0           0           2           0           0           0           0
 AtZEff=  -0.0000000  -0.0000000  -0.0000000  -0.0000000  -0.0000000  -0.0000000  -0.0000000  -0.0000000  -0.0000000  -0.0000000
 NQMom=    0.0000000   0.0000000   0.0000000   0.0000000   0.0000000   2.0440000   0.0000000   0.0000000   0.0000000   0.0000000
 NMagM=    0.0000000   0.0000000   0.0000000   0.0000000   0.0000000   0.4037610   0.0000000   0.0000000   0.0000000   0.0000000
 AtZNuc=  12.0000000   6.0000000   6.0000000   6.0000000   6.0000000   7.0000000   6.0000000   6.0000000   6.0000000   6.0000000

  Atom        11          12          13          14          15          16          17          18          19          20
 IAtWgt=          12          12          12          12          16          16          14          12          12          12
 AtmWgt=  12.0000000  12.0000000  12.0000000  12.0000000  15.9949146  15.9949146  14.0030740  12.0000000  12.0000000  12.0000000
 NucSpn=           0           0           0           0           0           0           2           0           0           0
 AtZEff=  -0.0000000  -0.0000000  -0.0000000  -0.0000000  -0.0000000  -0.0000000  -0.0000000  -0.0000000  -0.0000000  -0.0000000
 NQMom=    0.0000000   0.0000000   0.0000000   0.0000000   0.0000000   0.0000000   2.0440000   0.0000000   0.0000000   0.0000000
 NMagM=    0.0000000   0.0000000   0.0000000   0.0000000   0.0000000   0.0000000   0.4037610   0.0000000   0.0000000   0.0000000
 AtZNuc=   6.0000000   6.0000000   6.0000000   6.0000000   8.0000000   8.0000000   7.0000000   6.0000000   6.0000000   6.0000000

  Atom        21          22          23          24          25          26          27          28          29          30
 IAtWgt=          12          12          12          16          12          14          12          12          12          12
 AtmWgt=  12.0000000  12.0000000  12.0000000  15.9949146  12.0000000  14.0030740  12.0000000  12.0000000  12.0000000  12.0000000
 NucSpn=           0           0           0           0           0           2           0           0           0           0
 AtZEff=  -0.0000000  -0.0000000  -0.0000000  -0.0000000  -0.0000000  -0.0000000  -0.0000000  -0.0000000  -0.0000000  -0.0000000
 NQMom=    0.0000000   0.0000000   0.0000000   0.0000000   0.0000000   2.0440000   0.0000000   0.0000000   0.0000000   0.0000000
 NMagM=    0.0000000   0.0000000   0.0000000   0.0000000   0.0000000   0.4037610   0.0000000   0.0000000   0.0000000   0.0000000
 AtZNuc=   6.0000000   6.0000000   6.0000000   8.0000000   6.0000000   7.0000000   6.0000000   6.0000000   6.0000000   6.0000000

  Atom        31          32          33          34          35          36          37          38          39          40
 IAtWgt=          12          12          12          14          12          12          12          12          12          12
 AtmWgt=  12.0000000  12.0000000  12.0000000  14.0030740  12.0000000  12.0000000  12.0000000  12.0000000  12.0000000  12.0000000
 NucSpn=           0           0           0           2           0           0           0           0           0           0
 AtZEff=  -0.0000000  -0.0000000  -0.0000000  -0.0000000  -0.0000000  -0.0000000  -0.0000000  -0.0000000  -0.0000000  -0.0000000
 NQMom=    0.0000000   0.0000000   0.0000000   2.0440000   0.0000000   0.0000000   0.0000000   0.0000000   0.0000000   0.0000000
 NMagM=    0.0000000   0.0000000   0.0000000   0.4037610   0.0000000   0.0000000   0.0000000   0.0000000   0.0000000   0.0000000
 AtZNuc=   6.0000000   6.0000000   6.0000000   7.0000000   6.0000000   6.0000000   6.0000000   6.0000000   6.0000000   6.0000000

  Atom        41          42          43          44          45          46          47          48          49          50
 IAtWgt=          16          12          12          16          16          12          12          12          12          12
 AtmWgt=  15.9949146  12.0000000  12.0000000  15.9949146  15.9949146  12.0000000  12.0000000  12.0000000  12.0000000  12.0000000
 NucSpn=           0           0           0           0           0           0           0           0           0           0
 AtZEff=  -0.0000000  -0.0000000  -0.0000000  -0.0000000  -0.0000000  -0.0000000  -0.0000000  -0.0000000  -0.0000000  -0.0000000
 NQMom=    0.0000000   0.0000000   0.0000000   0.0000000   0.0000000   0.0000000   0.0000000   0.0000000   0.0000000   0.0000000
 NMagM=    0.0000000   0.0000000   0.0000000   0.0000000   0.0000000   0.0000000   0.0000000   0.0000000   0.0000000   0.0000000
 AtZNuc=   8.0000000   6.0000000   6.0000000   8.0000000   8.0000000   6.0000000   6.0000000   6.0000000   6.0000000   6.0000000

  Atom        51          52          53          54          55          56          57          58          59          60
 IAtWgt=          12          12          12          12          12          12          12          12          12          12
 AtmWgt=  12.0000000  12.0000000  12.0000000  12.0000000  12.0000000  12.0000000  12.0000000  12.0000000  12.0000000  12.0000000
 NucSpn=           0           0           0           0           0           0           0           0           0           0
 AtZEff=  -0.0000000  -0.0000000  -0.0000000  -0.0000000  -0.0000000  -0.0000000  -0.0000000  -0.0000000  -0.0000000  -0.0000000
 NQMom=    0.0000000   0.0000000   0.0000000   0.0000000   0.0000000   0.0000000   0.0000000   0.0000000   0.0000000   0.0000000
 NMagM=    0.0000000   0.0000000   0.0000000   0.0000000   0.0000000   0.0000000   0.0000000   0.0000000   0.0000000   0.0000000
 AtZNuc=   6.0000000   6.0000000   6.0000000   6.0000000   6.0000000   6.0000000   6.0000000   6.0000000   6.0000000   6.0000000

  Atom        61          62          63          64          65          66          67          68          69          70
 IAtWgt=          12          12          12          12          12          12           1           1           1           1
 AtmWgt=  12.0000000  12.0000000  12.0000000  12.0000000  12.0000000  12.0000000   1.0078250   1.0078250   1.0078250   1.0078250
 NucSpn=           0           0           0           0           0           0           1           1           1           1
 AtZEff=  -0.0000000  -0.0000000  -0.0000000  -0.0000000  -0.0000000  -0.0000000  -0.0000000  -0.0000000  -0.0000000  -0.0000000
 NQMom=    0.0000000   0.0000000   0.0000000   0.0000000   0.0000000   0.0000000   0.0000000   0.0000000   0.0000000   0.0000000
 NMagM=    0.0000000   0.0000000   0.0000000   0.0000000   0.0000000   0.0000000   2.7928460   2.7928460   2.7928460   2.7928460
 AtZNuc=   6.0000000   6.0000000   6.0000000   6.0000000   6.0000000   6.0000000   1.0000000   1.0000000   1.0000000   1.0000000

  Atom        71          72          73          74          75          76          77          78          79          80
 IAtWgt=           1           1           1           1           1           1           1           1           1           1
 AtmWgt=   1.0078250   1.0078250   1.0078250   1.0078250   1.0078250   1.0078250   1.0078250   1.0078250   1.0078250   1.0078250
 NucSpn=           1           1           1           1           1           1           1           1           1           1
 AtZEff=  -0.0000000  -0.0000000  -0.0000000  -0.0000000  -0.0000000  -0.0000000  -0.0000000  -0.0000000  -0.0000000  -0.0000000
 NQMom=    0.0000000   0.0000000   0.0000000   0.0000000   0.0000000   0.0000000   0.0000000   0.0000000   0.0000000   0.0000000
 NMagM=    2.7928460   2.7928460   2.7928460   2.7928460   2.7928460   2.7928460   2.7928460   2.7928460   2.7928460   2.7928460
 AtZNuc=   1.0000000   1.0000000   1.0000000   1.0000000   1.0000000   1.0000000   1.0000000   1.0000000   1.0000000   1.0000000

  Atom        81          82          83          84          85          86          87          88          89          90
 IAtWgt=           1           1           1           1           1           1           1           1           1           1
 AtmWgt=   1.0078250   1.0078250   1.0078250   1.0078250   1.0078250   1.0078250   1.0078250   1.0078250   1.0078250   1.0078250
 NucSpn=           1           1           1           1           1           1           1           1           1           1
 AtZEff=  -0.0000000  -0.0000000  -0.0000000  -0.0000000  -0.0000000  -0.0000000  -0.0000000  -0.0000000  -0.0000000  -0.0000000
 NQMom=    0.0000000   0.0000000   0.0000000   0.0000000   0.0000000   0.0000000   0.0000000   0.0000000   0.0000000   0.0000000
 NMagM=    2.7928460   2.7928460   2.7928460   2.7928460   2.7928460   2.7928460   2.7928460   2.7928460   2.7928460   2.7928460
 AtZNuc=   1.0000000   1.0000000   1.0000000   1.0000000   1.0000000   1.0000000   1.0000000   1.0000000   1.0000000   1.0000000

  Atom        91          92          93          94          95          96          97          98          99         100
 IAtWgt=           1           1           1           1           1           1           1           1           1           1
 AtmWgt=   1.0078250   1.0078250   1.0078250   1.0078250   1.0078250   1.0078250   1.0078250   1.0078250   1.0078250   1.0078250
 NucSpn=           1           1           1           1           1           1           1           1           1           1
 AtZEff=  -0.0000000  -0.0000000  -0.0000000  -0.0000000  -0.0000000  -0.0000000  -0.0000000  -0.0000000  -0.0000000  -0.0000000
 NQMom=    0.0000000   0.0000000   0.0000000   0.0000000   0.0000000   0.0000000   0.0000000   0.0000000   0.0000000   0.0000000
 NMagM=    2.7928460   2.7928460   2.7928460   2.7928460   2.7928460   2.7928460   2.7928460   2.7928460   2.7928460   2.7928460
 AtZNuc=   1.0000000   1.0000000   1.0000000   1.0000000   1.0000000   1.0000000   1.0000000   1.0000000   1.0000000   1.0000000

  Atom       101         102         103         104         105         106         107         108         109         110
 IAtWgt=           1           1           1           1           1           1           1           1           1           1
 AtmWgt=   1.0078250   1.0078250   1.0078250   1.0078250   1.0078250   1.0078250   1.0078250   1.0078250   1.0078250   1.0078250
 NucSpn=           1           1           1           1           1           1           1           1           1           1
 AtZEff=  -0.0000000  -0.0000000  -0.0000000  -0.0000000  -0.0000000  -0.0000000  -0.0000000  -0.0000000  -0.0000000  -0.0000000
 NQMom=    0.0000000   0.0000000   0.0000000   0.0000000   0.0000000   0.0000000   0.0000000   0.0000000   0.0000000   0.0000000
 NMagM=    2.7928460   2.7928460   2.7928460   2.7928460   2.7928460   2.7928460   2.7928460   2.7928460   2.7928460   2.7928460
 AtZNuc=   1.0000000   1.0000000   1.0000000   1.0000000   1.0000000   1.0000000   1.0000000   1.0000000   1.0000000   1.0000000

  Atom       111         112         113         114         115         116         117         118         119         120
 IAtWgt=           1           1           1           1           1           1           1           1           1           1
 AtmWgt=   1.0078250   1.0078250   1.0078250   1.0078250   1.0078250   1.0078250   1.0078250   1.0078250   1.0078250   1.0078250
 NucSpn=           1           1           1           1           1           1           1           1           1           1
 AtZEff=  -0.0000000  -0.0000000  -0.0000000  -0.0000000  -0.0000000  -0.0000000  -0.0000000  -0.0000000  -0.0000000  -0.0000000
 NQMom=    0.0000000   0.0000000   0.0000000   0.0000000   0.0000000   0.0000000   0.0000000   0.0000000   0.0000000   0.0000000
 NMagM=    2.7928460   2.7928460   2.7928460   2.7928460   2.7928460   2.7928460   2.7928460   2.7928460   2.7928460   2.7928460
 AtZNuc=   1.0000000   1.0000000   1.0000000   1.0000000   1.0000000   1.0000000   1.0000000   1.0000000   1.0000000   1.0000000

  Atom       121         122         123         124         125         126         127         128         129         130
 IAtWgt=           1           1           1           1           1           1           1           1           1           1
 AtmWgt=   1.0078250   1.0078250   1.0078250   1.0078250   1.0078250   1.0078250   1.0078250   1.0078250   1.0078250   1.0078250
 NucSpn=           1           1           1           1           1           1           1           1           1           1
 AtZEff=  -0.0000000  -0.0000000  -0.0000000  -0.0000000  -0.0000000  -0.0000000  -0.0000000  -0.0000000  -0.0000000  -0.0000000
 NQMom=    0.0000000   0.0000000   0.0000000   0.0000000   0.0000000   0.0000000   0.0000000   0.0000000   0.0000000   0.0000000
 NMagM=    2.7928460   2.7928460   2.7928460   2.7928460   2.7928460   2.7928460   2.7928460   2.7928460   2.7928460   2.7928460
 AtZNuc=   1.0000000   1.0000000   1.0000000   1.0000000   1.0000000   1.0000000   1.0000000   1.0000000   1.0000000   1.0000000

  Atom       131         132         133         134         135         136         137         138         139         140
 IAtWgt=           1           1           1           1           1           1           1           1           1           1
 AtmWgt=   1.0078250   1.0078250   1.0078250   1.0078250   1.0078250   1.0078250   1.0078250   1.0078250   1.0078250   1.0078250
 NucSpn=           1           1           1           1           1           1           1           1           1           1
 AtZEff=  -0.0000000  -0.0000000  -0.0000000  -0.0000000  -0.0000000  -0.0000000  -0.0000000  -0.0000000  -0.0000000  -0.0000000
 NQMom=    0.0000000   0.0000000   0.0000000   0.0000000   0.0000000   0.0000000   0.0000000   0.0000000   0.0000000   0.0000000
 NMagM=    2.7928460   2.7928460   2.7928460   2.7928460   2.7928460   2.7928460   2.7928460   2.7928460   2.7928460   2.7928460
 AtZNuc=   1.0000000   1.0000000   1.0000000   1.0000000   1.0000000   1.0000000   1.0000000   1.0000000   1.0000000   1.0000000
 Leave Link  101 at Thu May  5 13:07:38 2022, MaxMem= 10066329600 cpu:               5.5 elap:               0.2
 (Enter /sw/apps/gaussian-16.0/g16/l202.exe)
 Stoichiometry    C55H74MgN4O6
 Framework group  C1[X(C55H74MgN4O6)]
 Deg. of freedom   414
 Full point group                 C1      NOp   1
 Largest Abelian subgroup         C1      NOp   1
 Largest concise Abelian subgroup C1      NOp   1
                         Standard orientation:                         
 ---------------------------------------------------------------------
 Center     Atomic      Atomic             Coordinates (Angstroms)
 Number     Number       Type             X           Y           Z
 ---------------------------------------------------------------------
      1         12           0       -5.362174    1.039282   -0.282732
      2          6           0       -4.195415   -2.381058   -0.256236
      3          6           0       -2.218797    2.009317   -0.197310
      4          6           0       -6.563426    3.996193    0.245071
      5          6           0       -8.691021   -0.317942   -0.304306
      6          7           0       -3.477589   -0.089786   -0.098032
      7          6           0       -3.154025   -1.409863   -0.205962
      8          6           0       -1.736853   -1.645818   -0.404741
      9          6           0       -1.045623   -0.295240    0.037672
     10          6           0       -2.275971    0.628459   -0.063037
     11          6           0       -0.341902   -0.350858    1.510767
     12          6           0       -1.365590   -2.087518   -1.771220
     13          6           0       -0.477224   -3.301926   -1.874219
     14          6           0        0.459534   -3.735404   -0.735461
     15          8           0        0.308486   -4.734788   -0.007626
     16          8           0        1.461955   -2.818879   -0.640047
     17          7           0       -4.501703    2.738094   -0.168319
     18          6           0       -3.135226    3.006140   -0.196699
     19          6           0       -2.938796    4.458939   -0.112996
     20          6           0       -4.258755    5.057386   -0.033256
     21          6           0       -5.169840    3.950775    0.025966
     22          6           0       -1.580437    5.100616    0.014289
     23          6           0       -4.655612    6.507924   -0.000379
     24          8           0       -5.835354    6.864785    0.116727
     25          6           0       -3.556210    7.552383    0.032350
     26          7           0       -7.399680    1.713711    0.005401
     27          6           0       -7.568128    3.054890    0.242865
     28          6           0       -9.007554    3.363052    0.662582
     29          6           0       -9.768400    2.050132    0.189929
     30          6           0       -8.592092    1.075664   -0.153293
     31          6           0       -9.195822    3.814142    2.154170
     32          6           0      -10.830506    2.233380   -0.923564
     33          6           0      -12.246102    1.642034   -0.695072
     34          7           0       -6.278091   -0.923473   -0.252957
     35          6           0       -7.654959   -1.233952   -0.288682
     36          6           0       -7.729490   -2.678965   -0.242193
     37          6           0       -6.465853   -3.188790   -0.277448
     38          6           0       -5.618146   -2.077842   -0.212583
     39          6           0       -8.875580   -3.600670   -0.311795
     40          6           0       -5.586475   -4.346368   -0.390868
     41          8           0       -5.798966   -5.540950   -0.558560
     42          6           0       -4.098751   -3.860181   -0.347949
     43          6           0       -3.480483   -4.567146    0.819175
     44          8           0       -3.499404   -4.213253    1.953048
     45          8           0       -2.831374   -5.657138    0.295893
     46          6           0       -2.091931   -6.507567    1.269266
     47          6           0        2.553757   -3.142176    0.299499
     48          6           0        3.846340   -2.817782   -0.433058
     49          6           0        5.059412   -3.286983   -0.107410
     50          6           0        5.420236   -4.095812    1.154724
     51          6           0        6.306073   -2.778171   -0.885148
     52          6           0        6.489449   -1.306972   -0.686777
     53          6           0        7.879429   -0.882211   -0.153548
     54          6           0        8.190629    0.583646   -0.259889
     55          6           0        8.913412    0.984785   -1.543320
     56          6           0        8.822920    1.234545    1.039824
     57          6           0        9.988045    0.362230    1.634355
     58          6           0       10.993977    1.281240    2.345105
     59          6           0       12.458634    0.853450    2.263226
     60          6           0       13.032497    0.517507    3.634558
     61          6           0       13.453862    1.705443    1.447571
     62          6           0       13.170693    1.753097   -0.050157
     63          6           0       14.261166    1.166377   -1.016897
     64          6           0       15.009686    2.236951   -1.867534
     65          6           0       16.515037    1.961291   -2.122259
     66          6           0       14.232954    2.427975   -3.197911
     67          1           0       -1.185492    2.327181   -0.355149
     68          1           0       -6.919925    4.996974    0.496704
     69          1           0       -9.680748   -0.758314   -0.164397
     70          1           0       -1.557945   -2.539831    0.193403
     71          1           0       -0.233037    0.075499   -0.587294
     72          1           0       -0.425415   -1.329225    1.984837
     73          1           0       -0.625774    0.561654    2.034516
     74          1           0        0.717336   -0.135118    1.381164
     75          1           0       -0.749759   -1.351196   -2.285889
     76          1           0       -2.285096   -2.271777   -2.328176
     77          1           0        0.057410   -3.342709   -2.822866
     78          1           0       -1.181060   -4.112751   -2.060793
     79          1           0       -0.841887    4.325760   -0.188201
     80          1           0       -1.431187    5.482449    1.024878
     81          1           0       -1.446251    5.958576   -0.643936
     82          1           0       -2.757718    7.361420    0.749363
     83          1           0       -4.056860    8.480023    0.309902
     84          1           0       -3.095779    7.539726   -0.956082
     85          1           0       -9.349144    4.124421   -0.038596
     86          1           0      -10.293582    1.623230    1.045185
     87          1           0      -10.009088    3.247898    2.609164
     88          1           0       -9.408814    4.882140    2.201507
     89          1           0       -8.258730    3.707904    2.700581
     90          1           0      -10.374514    1.770942   -1.798669
     91          1           0      -10.881353    3.270821   -1.256593
     92          1           0      -12.998418    2.285838   -1.149771
     93          1           0      -12.411260    1.520416    0.375031
     94          1           0      -12.358327    0.698822   -1.229981
     95          1           0       -9.626923   -2.950202    0.136732
     96          1           0       -8.762492   -4.490047    0.308425
     97          1           0       -9.079906   -3.959699   -1.320470
     98          1           0       -3.690461   -4.123252   -1.323064
     99          1           0       -1.372729   -7.139895    0.749234
    100          1           0       -2.699738   -7.215279    1.833331
    101          1           0       -1.588669   -5.898065    2.020134
    102          1           0        2.452657   -4.175053    0.632157
    103          1           0        2.511488   -2.339591    1.034948
    104          1           0        3.732858   -2.295612   -1.382568
    105          1           0        4.610902   -4.206201    1.876542
    106          1           0        6.201158   -3.526790    1.658676
    107          1           0        5.733033   -5.061230    0.756136
    108          1           0        6.049792   -2.949637   -1.930655
    109          1           0        7.217123   -3.318592   -0.631142
    110          1           0        5.788586   -0.972001    0.077609
    111          1           0        6.235290   -0.632484   -1.504761
    112          1           0        8.677491   -1.515096   -0.541402
    113          1           0        7.715024   -1.020493    0.915233
    114          1           0        7.235392    1.106754   -0.240581
    115          1           0        8.162008    1.319677   -2.258018
    116          1           0        9.499615    0.150729   -1.930615
    117          1           0        9.650876    1.731093   -1.248965
    118          1           0        8.078659    1.311472    1.832470
    119          1           0        8.986552    2.291588    0.833082
    120          1           0       10.357432   -0.424437    0.976941
    121          1           0        9.528870   -0.100733    2.508257
    122          1           0       10.719411    1.259121    3.399746
    123          1           0       10.703148    2.298702    2.083342
    124          1           0       12.475635   -0.094317    1.724722
    125          1           0       14.077206    0.206704    3.611888
    126          1           0       12.442636   -0.282361    4.081504
    127          1           0       12.968930    1.441810    4.209340
    128          1           0       14.398224    1.221707    1.695907
    129          1           0       13.422489    2.681949    1.931802
    130          1           0       13.025016    2.827283   -0.162045
    131          1           0       12.221380    1.257749   -0.254873
    132          1           0       13.618483    0.492379   -1.583341
    133          1           0       14.977598    0.603688   -0.417469
    134          1           0       14.920081    3.123924   -1.240970
    135          1           0       16.817083    1.985700   -3.168924
    136          1           0       16.926151    1.063491   -1.660317
    137          1           0       17.035642    2.679577   -1.489202
    138          1           0       14.214938    1.546831   -3.839765
    139          1           0       14.418078    3.368708   -3.716126
    140          1           0       13.238714    2.543759   -2.766803
 ---------------------------------------------------------------------
 Rotational constants (GHZ):           0.0459760           0.0094363           0.0081339
 Leave Link  202 at Thu May  5 13:07:38 2022, MaxMem= 10066329600 cpu:               1.2 elap:               0.1
 (Enter /sw/apps/gaussian-16.0/g16/l301.exe)
 Standard basis: def2SVP (5D, 7F)
 Ernie: Thresh=  0.10000D-02 Tol=  0.10000D-05 Strict=F.
 There are  1364 symmetry adapted cartesian basis functions of A   symmetry.
 There are  1298 symmetry adapted basis functions of A   symmetry.
  1298 basis functions,  2180 primitive gaussians,  1364 cartesian basis functions
   246 alpha electrons      246 beta electrons
       nuclear repulsion energy      9523.3946532672 Hartrees.
 IExCor=20419 DFT=T Ex+Corr=CAM-B3LYP ExCW=0 ScaHFX=  1.000000
 ScaDFX=  1.000000  1.000000  1.000000  0.810000 ScalE2=  1.000000  1.000000
 IRadAn=      5 IRanWt=     -1 IRanGd=            0 ICorTp=0 IEmpDi=  4
 HFx  wShort=  0.000000 wLong=  0.330000 cFull=  0.190000 cShort=  0.000000 cLong=  0.460000
 DFx  wShort=  0.000000 wLong=  0.330000 cFull=  0.190000 cShort=  0.000000 cLong=  0.460000
 NAtoms=  140 NActive=  140 NUniq=  140 SFac= 1.00D+00 NAtFMM=   60 NAOKFM=T Big=T
 Integral buffers will be    131072 words long.
 Raffenetti 1 integral format.
 Two-electron integral symmetry is turned on.
 Leave Link  301 at Thu May  5 13:07:38 2022, MaxMem= 10066329600 cpu:               1.4 elap:               0.1
 (Enter /sw/apps/gaussian-16.0/g16/l302.exe)
 NPDir=0 NMtPBC=     1 NCelOv=     1 NCel=       1 NClECP=     1 NCelD=      1
         NCelK=      1 NCelE2=     1 NClLst=     1 CellRange=     0.0.
 One-electron integrals computed using PRISM.
 One-electron integral symmetry used in STVInt
   1 Symmetry operations used in ECPInt.
 ECPInt:  NShTT=  192510 NPrTT=  683786 LenC2=   93022 LenP2D=  204880.
 LDataN:  DoStor=T MaxTD1= 4 Len=   56
 NBasis=  1298 RedAO= T EigKep=  2.77D-04  NBF=  1298
 NBsUse=  1298 1.00D-06 EigRej= -1.00D+00 NBFU=  1298
 Precomputing XC quadrature grid using
 IXCGrd= 4 IRadAn=           5 IRanWt=          -1 IRanGd=           0 AccXCQ= 0.00D+00.
 Generated NRdTot=       0 NPtTot=           0 NUsed=           0 NTot=          32
 NSgBfM=  1061  1061  1061  1061  1061 MxSgAt=   140 MxSgA2=   139.
 Leave Link  302 at Thu May  5 13:07:42 2022, MaxMem= 10066329600 cpu:              97.4 elap:               4.1
 (Enter /sw/apps/gaussian-16.0/g16/l303.exe)
 DipDrv:  MaxL=1.
 Leave Link  303 at Thu May  5 13:07:43 2022, MaxMem= 10066329600 cpu:               8.8 elap:               0.4
 (Enter /sw/apps/gaussian-16.0/g16/l308.exe)
 Leave Link  308 at Thu May  5 13:07:43 2022, MaxMem= 10066329600 cpu:               8.4 elap:               0.4
 (Enter /sw/apps/gaussian-16.0/g16/l401.exe)
 ExpMin= 3.36D-02 ExpMax= 4.95D+03 ExpMxC= 7.45D+02 IAcc=3 IRadAn=         5 AccDes= 0.00D+00
 Harris functional with IExCor=20419 and IRadAn=       5 diagonalized for initial guess.
 HarFok:  IExCor=20419 AccDes= 0.00D+00 IRadAn=         5 IDoV= 1 UseB2=F ITyADJ=14
 ICtDFT=  3500011 ScaDFX=  1.000000  1.000000  1.000000  1.000000
 FoFCou: FMM=F IPFlag=           0 FMFlag=      100000 FMFlg1=        2001
         NFxFlg=           0 DoJE=T BraDBF=F KetDBF=T FulRan=T
         wScrn=  0.000000 ICntrl=       500 IOpCl=  0 I1Cent=   200000004 NGrid=           0
         NMat0=    1 NMatS0=      1 NMatT0=    0 NMatD0=    1 NMtDS0=    0 NMtDT0=    0
 Petite list used in FoFCou.
 Harris En= -2890.84548449164    
 JPrj=0 DoOrth=F DoCkMO=F.
 Leave Link  401 at Thu May  5 13:07:50 2022, MaxMem= 10066329600 cpu:             170.3 elap:               7.1
 (Enter /sw/apps/gaussian-16.0/g16/l502.exe)
 Integral symmetry usage will be decided dynamically.
 Closed shell SCF:
 Using DIIS extrapolation, IDIIS=  1040.
 NGot= 10066329600 LenX= 10062561258 LenY= 10060699398
 Requested convergence on RMS density matrix=1.00D-08 within 128 cycles.
 Requested convergence on MAX density matrix=1.00D-06.
 Requested convergence on             energy=1.00D-06.
 No special actions if energy rises.
 Fock matrices will be formed incrementally for  20 cycles.

 Cycle   1  Pass 1  IDiag  1:
 FoFJK:  IHMeth= 1 ICntrl=       0 DoSepK=T KAlg= 0 I1Cent=           0 FoldK=F
 IRaf=         1 NMat=       1 IRICut=       1 DoRegI=T DoRafI=F ISym2E= 0 IDoP0=0 IntGTp=1.
 FoFCou: FMM=T IPFlag=           0 FMFlag=      100000 FMFlg1=        2001
         NFxFlg=           0 DoJE=T BraDBF=F KetDBF=F FulRan=T
         wScrn=  0.000000 ICntrl=       500 IOpCl=  0 I1Cent=           0 NGrid=           0
         NMat0=    1 NMatS0=      1 NMatT0=    0 NMatD0=    1 NMtDS0=    0 NMtDT0=    0
 Symmetry not used in FoFCou.
 FMM levels:  10  Number of levels for PrismC:   9
 E= -3006.48972373719    
 DIIS: error= 2.45D-02 at cycle   1 NSaved=   1.
 NSaved= 1 IEnMin= 1 EnMin= -3006.48972373719     IErMin= 1 ErrMin= 2.45D-02
 ErrMax= 2.45D-02  0.00D+00 EMaxC= 1.00D-01 BMatC= 1.27D+00 BMatP= 1.27D+00
 IDIUse=3 WtCom= 7.55D-01 WtEn= 2.45D-01
 Coeff-Com:  0.100D+01
 Coeff-En:   0.100D+01
 Coeff:      0.100D+01
 Gap=     0.122 Goal=   None    Shift=    0.000
 GapD=    0.122 DampG=1.000 DampE=0.500 DampFc=0.5000 IDamp=-1.
 Damping current iteration by 5.00D-01
 RMSDP=1.55D-03 MaxDP=1.39D-01              OVMax= 1.96D-01

 Cycle   2  Pass 1  IDiag  1:
 RMSU=  7.60D-04    CP:  9.84D-01
 E= -3006.80299872648     Delta-E=       -0.313274989290 Rises=F Damp=T
 DIIS: error= 1.30D-02 at cycle   2 NSaved=   2.
 NSaved= 2 IEnMin= 2 EnMin= -3006.80299872648     IErMin= 2 ErrMin= 1.30D-02
 ErrMax= 1.30D-02  0.00D+00 EMaxC= 1.00D-01 BMatC= 2.29D-01 BMatP= 1.27D+00
 IDIUse=3 WtCom= 8.70D-01 WtEn= 1.30D-01
 Coeff-Com: -0.232D+00 0.123D+01
 Coeff-En:   0.000D+00 0.100D+01
 Coeff:     -0.202D+00 0.120D+01
 Gap=     0.139 Goal=   None    Shift=    0.000
 RMSDP=7.05D-04 MaxDP=6.94D-02 DE=-3.13D-01 OVMax= 1.67D-01

 Cycle   3  Pass 1  IDiag  1:
 RMSU=  6.80D-04    CP:  9.74D-01  1.22D+00
 E= -3007.04458152988     Delta-E=       -0.241582803397 Rises=F Damp=F
 DIIS: error= 1.06D-02 at cycle   3 NSaved=   3.
 NSaved= 3 IEnMin= 3 EnMin= -3007.04458152988     IErMin= 3 ErrMin= 1.06D-02
 ErrMax= 1.06D-02  0.00D+00 EMaxC= 1.00D-01 BMatC= 1.32D-01 BMatP= 2.29D-01
 IDIUse=3 WtCom= 8.94D-01 WtEn= 1.06D-01
 Coeff-Com: -0.260D+00 0.634D+00 0.626D+00
 Coeff-En:   0.000D+00 0.000D+00 0.100D+01
 Coeff:     -0.233D+00 0.567D+00 0.666D+00
 Gap=     0.127 Goal=   None    Shift=    0.000
 RMSDP=4.59D-04 MaxDP=5.55D-02 DE=-2.42D-01 OVMax= 1.25D-01

 Cycle   4  Pass 1  IDiag  1:
 RMSU=  2.70D-04    CP:  9.71D-01  1.50D+00  5.58D-01
 E= -3007.13511011862     Delta-E=       -0.090528588740 Rises=F Damp=F
 DIIS: error= 4.50D-03 at cycle   4 NSaved=   4.
 NSaved= 4 IEnMin= 4 EnMin= -3007.13511011862     IErMin= 4 ErrMin= 4.50D-03
 ErrMax= 4.50D-03  0.00D+00 EMaxC= 1.00D-01 BMatC= 2.94D-02 BMatP= 1.32D-01
 IDIUse=3 WtCom= 9.55D-01 WtEn= 4.50D-02
 Coeff-Com: -0.111D+00 0.228D+00 0.398D+00 0.486D+00
 Coeff-En:   0.000D+00 0.000D+00 0.190D+00 0.810D+00
 Coeff:     -0.106D+00 0.217D+00 0.388D+00 0.500D+00
 Gap=     0.125 Goal=   None    Shift=    0.000
 RMSDP=1.69D-04 MaxDP=1.87D-02 DE=-9.05D-02 OVMax= 4.74D-02

 Cycle   5  Pass 1  IDiag  1:
 RMSU=  6.59D-05    CP:  9.71D-01  1.47D+00  7.04D-01  5.66D-01
 E= -3007.16101527024     Delta-E=       -0.025905151619 Rises=F Damp=F
 DIIS: error= 4.60D-04 at cycle   5 NSaved=   5.
 NSaved= 5 IEnMin= 5 EnMin= -3007.16101527024     IErMin= 5 ErrMin= 4.60D-04
 ErrMax= 4.60D-04  0.00D+00 EMaxC= 1.00D-01 BMatC= 5.84D-04 BMatP= 2.94D-02
 IDIUse=3 WtCom= 9.95D-01 WtEn= 4.60D-03
 Coeff-Com: -0.394D-01 0.773D-01 0.161D+00 0.237D+00 0.564D+00
 Coeff-En:   0.000D+00 0.000D+00 0.000D+00 0.000D+00 0.100D+01
 Coeff:     -0.393D-01 0.770D-01 0.160D+00 0.236D+00 0.566D+00
 Gap=     0.125 Goal=   None    Shift=    0.000
 RMSDP=3.60D-05 MaxDP=6.02D-03 DE=-2.59D-02 OVMax= 1.73D-02

 Cycle   6  Pass 1  IDiag  1:
 RMSU=  2.84D-05    CP:  9.70D-01  1.47D+00  7.01D-01  6.23D-01  7.70D-01
 E= -3007.16150485762     Delta-E=       -0.000489587377 Rises=F Damp=F
 DIIS: error= 2.23D-04 at cycle   6 NSaved=   6.
 NSaved= 6 IEnMin= 6 EnMin= -3007.16150485762     IErMin= 6 ErrMin= 2.23D-04
 ErrMax= 2.23D-04  0.00D+00 EMaxC= 1.00D-01 BMatC= 1.13D-04 BMatP= 5.84D-04
 IDIUse=3 WtCom= 9.98D-01 WtEn= 2.23D-03
 Coeff-Com:  0.121D-02-0.423D-02 0.974D-02 0.289D-01 0.316D+00 0.648D+00
 Coeff-En:   0.000D+00 0.000D+00 0.000D+00 0.000D+00 0.131D+00 0.869D+00
 Coeff:      0.121D-02-0.422D-02 0.972D-02 0.288D-01 0.316D+00 0.649D+00
 Gap=     0.125 Goal=   None    Shift=    0.000
 RMSDP=1.52D-05 MaxDP=1.34D-03 DE=-4.90D-04 OVMax= 5.33D-03

 Cycle   7  Pass 1  IDiag  1:
 RMSU=  1.08D-05    CP:  9.70D-01  1.47D+00  7.08D-01  6.23D-01  8.80D-01
                    CP:  7.74D-01
 E= -3007.16163235233     Delta-E=       -0.000127494712 Rises=F Damp=F
 DIIS: error= 1.21D-04 at cycle   7 NSaved=   7.
 NSaved= 7 IEnMin= 7 EnMin= -3007.16163235233     IErMin= 7 ErrMin= 1.21D-04
 ErrMax= 1.21D-04  0.00D+00 EMaxC= 1.00D-01 BMatC= 1.25D-05 BMatP= 1.13D-04
 IDIUse=3 WtCom= 9.99D-01 WtEn= 1.21D-03
 Coeff-Com:  0.458D-02-0.979D-02-0.106D-01-0.108D-01 0.989D-01 0.311D+00
 Coeff-Com:  0.617D+00
 Coeff-En:   0.000D+00 0.000D+00 0.000D+00 0.000D+00 0.000D+00 0.000D+00
 Coeff-En:   0.100D+01
 Coeff:      0.457D-02-0.978D-02-0.105D-01-0.108D-01 0.988D-01 0.311D+00
 Coeff:      0.617D+00
 Gap=     0.125 Goal=   None    Shift=    0.000
 RMSDP=7.11D-06 MaxDP=1.31D-03 DE=-1.27D-04 OVMax= 5.05D-03

 Cycle   8  Pass 1  IDiag  1:
 RMSU=  5.04D-06    CP:  9.70D-01  1.47D+00  7.08D-01  6.30D-01  8.87D-01
                    CP:  9.34D-01  9.15D-01
 E= -3007.16165332918     Delta-E=       -0.000020976851 Rises=F Damp=F
 DIIS: error= 3.58D-05 at cycle   8 NSaved=   8.
 NSaved= 8 IEnMin= 8 EnMin= -3007.16165332918     IErMin= 8 ErrMin= 3.58D-05
 ErrMax= 3.58D-05  0.00D+00 EMaxC= 1.00D-01 BMatC= 4.34D-06 BMatP= 1.25D-05
 IDIUse=1 WtCom= 1.00D+00 WtEn= 0.00D+00
 Coeff-Com:  0.242D-02-0.473D-02-0.829D-02-0.141D-01-0.182D-01 0.344D-02
 Coeff-Com:  0.379D+00 0.660D+00
 Coeff:      0.242D-02-0.473D-02-0.829D-02-0.141D-01-0.182D-01 0.344D-02
 Coeff:      0.379D+00 0.660D+00
 Gap=     0.125 Goal=   None    Shift=    0.000
 RMSDP=3.98D-06 MaxDP=5.18D-04 DE=-2.10D-05 OVMax= 1.86D-03

 Cycle   9  Pass 1  IDiag  1:
 RMSU=  2.18D-06    CP:  9.70D-01  1.47D+00  7.09D-01  6.31D-01  9.08D-01
                    CP:  9.71D-01  1.16D+00  1.13D+00
 E= -3007.16166280447     Delta-E=       -0.000009475289 Rises=F Damp=F
 DIIS: error= 2.84D-05 at cycle   9 NSaved=   9.
 NSaved= 9 IEnMin= 9 EnMin= -3007.16166280447     IErMin= 9 ErrMin= 2.84D-05
 ErrMax= 2.84D-05  0.00D+00 EMaxC= 1.00D-01 BMatC= 6.86D-07 BMatP= 4.34D-06
 IDIUse=1 WtCom= 1.00D+00 WtEn= 0.00D+00
 Coeff-Com:  0.126D-03-0.749D-04-0.127D-02-0.418D-02-0.254D-01-0.739D-01
 Coeff-Com:  0.908D-01 0.208D+00 0.806D+00
 Coeff:      0.126D-03-0.749D-04-0.127D-02-0.418D-02-0.254D-01-0.739D-01
 Coeff:      0.908D-01 0.208D+00 0.806D+00
 Gap=     0.125 Goal=   None    Shift=    0.000
 RMSDP=2.69D-06 MaxDP=2.33D-04 DE=-9.48D-06 OVMax= 1.92D-03

 Cycle  10  Pass 1  IDiag  1:
 RMSU=  1.24D-06    CP:  9.70D-01  1.47D+00  7.09D-01  6.32D-01  9.14D-01
                    CP:  1.00D+00  1.29D+00  1.43D+00  1.34D+00
 E= -3007.16166609794     Delta-E=       -0.000003293471 Rises=F Damp=F
 DIIS: error= 1.43D-05 at cycle  10 NSaved=  10.
 NSaved=10 IEnMin=10 EnMin= -3007.16166609794     IErMin=10 ErrMin= 1.43D-05
 ErrMax= 1.43D-05  0.00D+00 EMaxC= 1.00D-01 BMatC= 4.28D-07 BMatP= 6.86D-07
 IDIUse=1 WtCom= 1.00D+00 WtEn= 0.00D+00
 Coeff-Com: -0.104D-02 0.210D-02 0.325D-02 0.419D-02-0.173D-02-0.497D-01
 Coeff-Com: -0.905D-01-0.276D+00 0.469D+00 0.940D+00
 Coeff:     -0.104D-02 0.210D-02 0.325D-02 0.419D-02-0.173D-02-0.497D-01
 Coeff:     -0.905D-01-0.276D+00 0.469D+00 0.940D+00
 Gap=     0.125 Goal=   None    Shift=    0.000
 RMSDP=2.81D-06 MaxDP=3.08D-04 DE=-3.29D-06 OVMax= 1.69D-03

 Cycle  11  Pass 1  IDiag  1:
 RMSU=  6.62D-07    CP:  9.70D-01  1.47D+00  7.10D-01  6.33D-01  9.20D-01
                    CP:  1.03D+00  1.43D+00  1.70D+00  1.98D+00  1.50D+00
 E= -3007.16166831306     Delta-E=       -0.000002215122 Rises=F Damp=F
 DIIS: error= 7.40D-06 at cycle  11 NSaved=  11.
 NSaved=11 IEnMin=11 EnMin= -3007.16166831306     IErMin=11 ErrMin= 7.40D-06
 ErrMax= 7.40D-06  0.00D+00 EMaxC= 1.00D-01 BMatC= 9.08D-08 BMatP= 4.28D-07
 IDIUse=1 WtCom= 1.00D+00 WtEn= 0.00D+00
 Coeff-Com: -0.517D-03 0.995D-03 0.193D-02 0.320D-02 0.840D-02-0.513D-02
 Coeff-Com: -0.523D-01-0.227D+00 0.314D-01 0.419D+00 0.820D+00
 Coeff:     -0.517D-03 0.995D-03 0.193D-02 0.320D-02 0.840D-02-0.513D-02
 Coeff:     -0.523D-01-0.227D+00 0.314D-01 0.419D+00 0.820D+00
 Gap=     0.125 Goal=   None    Shift=    0.000
 RMSDP=1.39D-06 MaxDP=1.07D-04 DE=-2.22D-06 OVMax= 9.46D-04

 Cycle  12  Pass 1  IDiag  1:
 RMSU=  3.37D-07    CP:  9.70D-01  1.47D+00  7.10D-01  6.34D-01  9.22D-01
                    CP:  1.04D+00  1.49D+00  1.85D+00  2.31D+00  1.92D+00
                    CP:  1.26D+00
 E= -3007.16166882806     Delta-E=       -0.000000515003 Rises=F Damp=F
 DIIS: error= 3.21D-06 at cycle  12 NSaved=  12.
 NSaved=12 IEnMin=12 EnMin= -3007.16166882806     IErMin=12 ErrMin= 3.21D-06
 ErrMax= 3.21D-06  0.00D+00 EMaxC= 1.00D-01 BMatC= 2.18D-08 BMatP= 9.08D-08
 IDIUse=1 WtCom= 1.00D+00 WtEn= 0.00D+00
 Coeff-Com:  0.824D-04-0.185D-03-0.124D-03 0.108D-03 0.425D-02 0.101D-01
 Coeff-Com:  0.128D-01-0.231D-01-0.982D-01-0.146D+00 0.297D+00 0.943D+00
 Coeff:      0.824D-04-0.185D-03-0.124D-03 0.108D-03 0.425D-02 0.101D-01
 Coeff:      0.128D-01-0.231D-01-0.982D-01-0.146D+00 0.297D+00 0.943D+00
 Gap=     0.125 Goal=   None    Shift=    0.000
 RMSDP=7.73D-07 MaxDP=6.24D-05 DE=-5.15D-07 OVMax= 5.05D-04

 Cycle  13  Pass 1  IDiag  1:
 RMSU=  1.71D-07    CP:  9.70D-01  1.47D+00  7.10D-01  6.34D-01  9.23D-01
                    CP:  1.04D+00  1.52D+00  1.92D+00  2.49D+00  2.18D+00
                    CP:  1.61D+00  1.36D+00
 E= -3007.16166895263     Delta-E=       -0.000000124566 Rises=F Damp=F
 DIIS: error= 1.61D-06 at cycle  13 NSaved=  13.
 NSaved=13 IEnMin=13 EnMin= -3007.16166895263     IErMin=13 ErrMin= 1.61D-06
 ErrMax= 1.61D-06  0.00D+00 EMaxC= 1.00D-01 BMatC= 4.62D-09 BMatP= 2.18D-08
 IDIUse=1 WtCom= 1.00D+00 WtEn= 0.00D+00
 Coeff-Com:  0.156D-03-0.314D-03-0.499D-03-0.673D-03 0.203D-03 0.517D-02
 Coeff-Com:  0.200D-01 0.363D-01-0.449D-01-0.170D+00-0.455D-01 0.464D+00
 Coeff-Com:  0.736D+00
 Coeff:      0.156D-03-0.314D-03-0.499D-03-0.673D-03 0.203D-03 0.517D-02
 Coeff:      0.200D-01 0.363D-01-0.449D-01-0.170D+00-0.455D-01 0.464D+00
 Coeff:      0.736D+00
 Gap=     0.125 Goal=   None    Shift=    0.000
 RMSDP=2.54D-07 MaxDP=2.05D-05 DE=-1.25D-07 OVMax= 1.64D-04

 Cycle  14  Pass 1  IDiag  1:
 RMSU=  8.33D-08    CP:  9.70D-01  1.47D+00  7.10D-01  6.34D-01  9.23D-01
                    CP:  1.04D+00  1.53D+00  1.94D+00  2.54D+00  2.27D+00
                    CP:  1.76D+00  1.62D+00  1.07D+00
 E= -3007.16166896868     Delta-E=       -0.000000016047 Rises=F Damp=F
 DIIS: error= 7.18D-07 at cycle  14 NSaved=  14.
 NSaved=14 IEnMin=14 EnMin= -3007.16166896868     IErMin=14 ErrMin= 7.18D-07
 ErrMax= 7.18D-07  0.00D+00 EMaxC= 1.00D-01 BMatC= 9.09D-10 BMatP= 4.62D-09
 IDIUse=1 WtCom= 1.00D+00 WtEn= 0.00D+00
 Coeff-Com:  0.692D-04-0.135D-03-0.247D-03-0.382D-03-0.613D-03 0.767D-03
 Coeff-Com:  0.863D-02 0.224D-01-0.344D-02-0.638D-01-0.783D-01 0.731D-01
 Coeff-Com:  0.372D+00 0.670D+00
 Coeff:      0.692D-04-0.135D-03-0.247D-03-0.382D-03-0.613D-03 0.767D-03
 Coeff:      0.863D-02 0.224D-01-0.344D-02-0.638D-01-0.783D-01 0.731D-01
 Coeff:      0.372D+00 0.670D+00
 Gap=     0.125 Goal=   None    Shift=    0.000
 RMSDP=8.57D-08 MaxDP=6.25D-06 DE=-1.60D-08 OVMax= 4.98D-05

 Cycle  15  Pass 1  IDiag  1:
 RMSU=  4.04D-08    CP:  9.70D-01  1.47D+00  7.10D-01  6.34D-01  9.23D-01
                    CP:  1.04D+00  1.53D+00  1.94D+00  2.55D+00  2.30D+00
                    CP:  1.80D+00  1.72D+00  1.25D+00  1.12D+00
 E= -3007.16166897144     Delta-E=       -0.000000002763 Rises=F Damp=F
 DIIS: error= 2.74D-07 at cycle  15 NSaved=  15.
 NSaved=15 IEnMin=15 EnMin= -3007.16166897144     IErMin=15 ErrMin= 2.74D-07
 ErrMax= 2.74D-07  0.00D+00 EMaxC= 1.00D-01 BMatC= 1.86D-10 BMatP= 9.09D-10
 IDIUse=1 WtCom= 1.00D+00 WtEn= 0.00D+00
 Coeff-Com: -0.153D-04 0.322D-04 0.390D-04 0.321D-04-0.259D-03-0.113D-02
 Coeff-Com: -0.185D-02-0.182D-02 0.108D-01 0.168D-01-0.149D-01-0.785D-01
 Coeff-Com: -0.508D-01 0.267D+00 0.854D+00
 Coeff:     -0.153D-04 0.322D-04 0.390D-04 0.321D-04-0.259D-03-0.113D-02
 Coeff:     -0.185D-02-0.182D-02 0.108D-01 0.168D-01-0.149D-01-0.785D-01
 Coeff:     -0.508D-01 0.267D+00 0.854D+00
 Gap=     0.125 Goal=   None    Shift=    0.000
 RMSDP=4.95D-08 MaxDP=3.74D-06 DE=-2.76D-09 OVMax= 3.04D-05

 Cycle  16  Pass 1  IDiag  1:
 RMSU=  2.16D-08    CP:  9.70D-01  1.47D+00  7.10D-01  6.34D-01  9.23D-01
                    CP:  1.04D+00  1.53D+00  1.94D+00  2.56D+00  2.30D+00
                    CP:  1.82D+00  1.77D+00  1.36D+00  1.45D+00  1.34D+00
 E= -3007.16166897250     Delta-E=       -0.000000001062 Rises=F Damp=F
 DIIS: error= 2.47D-07 at cycle  16 NSaved=  16.
 NSaved=16 IEnMin=16 EnMin= -3007.16166897250     IErMin=16 ErrMin= 2.47D-07
 ErrMax= 2.47D-07  0.00D+00 EMaxC= 1.00D-01 BMatC= 4.80D-11 BMatP= 1.86D-10
 IDIUse=1 WtCom= 1.00D+00 WtEn= 0.00D+00
 Coeff-Com: -0.244D-04 0.486D-04 0.803D-04 0.110D-03 0.547D-04-0.666D-03
 Coeff-Com: -0.307D-02-0.669D-02 0.616D-02 0.234D-01 0.132D-01-0.537D-01
 Coeff-Com: -0.128D+00-0.605D-01 0.337D+00 0.872D+00
 Coeff:     -0.244D-04 0.486D-04 0.803D-04 0.110D-03 0.547D-04-0.666D-03
 Coeff:     -0.307D-02-0.669D-02 0.616D-02 0.234D-01 0.132D-01-0.537D-01
 Coeff:     -0.128D+00-0.605D-01 0.337D+00 0.872D+00
 Gap=     0.125 Goal=   None    Shift=    0.000
 RMSDP=3.42D-08 MaxDP=2.94D-06 DE=-1.06D-09 OVMax= 2.24D-05

 Cycle  17  Pass 1  IDiag  1:
 RMSU=  1.14D-08    CP:  9.70D-01  1.47D+00  7.10D-01  6.34D-01  9.23D-01
                    CP:  1.04D+00  1.53D+00  1.94D+00  2.56D+00  2.31D+00
                    CP:  1.83D+00  1.80D+00  1.43D+00  1.66D+00  1.75D+00
                    CP:  1.42D+00
 E= -3007.16166897263     Delta-E=       -0.000000000124 Rises=F Damp=F
 DIIS: error= 1.19D-07 at cycle  17 NSaved=  17.
 NSaved=17 IEnMin=17 EnMin= -3007.16166897263     IErMin=17 ErrMin= 1.19D-07
 ErrMax= 1.19D-07  0.00D+00 EMaxC= 1.00D-01 BMatC= 2.09D-11 BMatP= 4.80D-11
 IDIUse=1 WtCom= 1.00D+00 WtEn= 0.00D+00
 Coeff-Com: -0.814D-05 0.156D-04 0.305D-04 0.476D-04 0.125D-03 0.230D-04
 Coeff-Com: -0.950D-03-0.291D-02 0.302D-04 0.656D-02 0.123D-01 0.325D-03
 Coeff-Com: -0.490D-01-0.119D+00-0.128D+00 0.460D+00 0.821D+00
 Coeff:     -0.814D-05 0.156D-04 0.305D-04 0.476D-04 0.125D-03 0.230D-04
 Coeff:     -0.950D-03-0.291D-02 0.302D-04 0.656D-02 0.123D-01 0.325D-03
 Coeff:     -0.490D-01-0.119D+00-0.128D+00 0.460D+00 0.821D+00
 Gap=     0.125 Goal=   None    Shift=    0.000
 RMSDP=2.05D-08 MaxDP=1.54D-06 DE=-1.24D-10 OVMax= 1.23D-05

 Cycle  18  Pass 1  IDiag  1:
 RMSU=  5.35D-09    CP:  9.70D-01  1.47D+00  7.10D-01  6.34D-01  9.23D-01
                    CP:  1.04D+00  1.53D+00  1.94D+00  2.56D+00  2.31D+00
                    CP:  1.83D+00  1.81D+00  1.47D+00  1.79D+00  2.00D+00
                    CP:  1.88D+00  1.17D+00
 E= -3007.16166897284     Delta-E=       -0.000000000216 Rises=F Damp=F
 DIIS: error= 6.33D-08 at cycle  18 NSaved=  18.
 NSaved=18 IEnMin=18 EnMin= -3007.16166897284     IErMin=18 ErrMin= 6.33D-08
 ErrMax= 6.33D-08  0.00D+00 EMaxC= 1.00D-01 BMatC= 3.97D-12 BMatP= 2.09D-11
 IDIUse=1 WtCom= 1.00D+00 WtEn= 0.00D+00
 Coeff-Com:  0.368D-05-0.763D-05-0.108D-04-0.115D-04 0.495D-04 0.236D-03
 Coeff-Com:  0.468D-03 0.739D-03-0.212D-02-0.471D-02 0.137D-02 0.172D-01
 Coeff-Com:  0.163D-01-0.388D-01-0.171D+00-0.139D-01 0.386D+00 0.808D+00
 Coeff:      0.368D-05-0.763D-05-0.108D-04-0.115D-04 0.495D-04 0.236D-03
 Coeff:      0.468D-03 0.739D-03-0.212D-02-0.471D-02 0.137D-02 0.172D-01
 Coeff:      0.163D-01-0.388D-01-0.171D+00-0.139D-01 0.386D+00 0.808D+00
 Gap=     0.125 Goal=   None    Shift=    0.000
 RMSDP=1.05D-08 MaxDP=8.72D-07 DE=-2.16D-10 OVMax= 6.91D-06

 Cycle  19  Pass 1  IDiag  1:
 RMSU=  2.80D-09    CP:  9.70D-01  1.47D+00  7.10D-01  6.34D-01  9.23D-01
                    CP:  1.04D+00  1.53D+00  1.94D+00  2.56D+00  2.31D+00
                    CP:  1.83D+00  1.81D+00  1.48D+00  1.85D+00  2.12D+00
                    CP:  2.10D+00  1.48D+00  1.04D+00
 E= -3007.16166897287     Delta-E=       -0.000000000025 Rises=F Damp=F
 DIIS: error= 2.60D-08 at cycle  19 NSaved=  19.
 NSaved=19 IEnMin=19 EnMin= -3007.16166897287     IErMin=19 ErrMin= 2.60D-08
 ErrMax= 2.60D-08  0.00D+00 EMaxC= 1.00D-01 BMatC= 1.13D-12 BMatP= 3.97D-12
 IDIUse=1 WtCom= 1.00D+00 WtEn= 0.00D+00
 Coeff-Com:  0.315D-05-0.632D-05-0.105D-04-0.134D-04 0.532D-05 0.111D-03
 Coeff-Com:  0.396D-03 0.896D-03-0.104D-02-0.342D-02-0.132D-02 0.861D-02
 Coeff-Com:  0.165D-01-0.414D-03-0.678D-01-0.844D-01 0.416D-01 0.430D+00
 Coeff-Com:  0.660D+00
 Coeff:      0.315D-05-0.632D-05-0.105D-04-0.134D-04 0.532D-05 0.111D-03
 Coeff:      0.396D-03 0.896D-03-0.104D-02-0.342D-02-0.132D-02 0.861D-02
 Coeff:      0.165D-01-0.414D-03-0.678D-01-0.844D-01 0.416D-01 0.430D+00
 Coeff:      0.660D+00
 Gap=     0.125 Goal=   None    Shift=    0.000
 RMSDP=3.25D-09 MaxDP=3.25D-07 DE=-2.55D-11 OVMax= 2.06D-06

 SCF Done:  E(RCAM-B3LYP) =  -3007.16166897     A.U. after   19 cycles
            NFock= 19  Conv=0.33D-08     -V/T= 2.0105
 KE= 2.975972875129D+03 PE=-2.603937355312D+04 EE= 1.053284435575D+04
 Leave Link  502 at Thu May  5 13:17:14 2022, MaxMem= 10066329600 cpu:           13104.5 elap:             563.6
 (Enter /sw/apps/gaussian-16.0/g16/l801.exe)
 DoSCS=F DFT=T ScalE2(SS,OS)=  1.000000  1.000000
 ExpMin= 3.36D-02 ExpMax= 4.95D+03 ExpMxC= 7.45D+02 IAcc=3 IRadAn=         5 AccDes= 0.00D+00
 HarFok:  IExCor=  205 AccDes= 0.00D+00 IRadAn=         5 IDoV=-2 UseB2=F ITyADJ=14
 ICtDFT= 12500011 ScaDFX=  1.000000  1.000000  1.000000  1.000000
 GSVD:  LWork=       -5460 too small for GESVD, short by       25550 words or       25550 for optimal perf.
 Largest valence mixing into a core orbital is  2.66D-04
 Largest core mixing into a valence orbital is  5.20D-05
 Range of M.O.s used for correlation:    71  1298
 NBasis=  1298 NAE=   246 NBE=   246 NFC=    70 NFV=     0
 NROrb=   1228 NOA=   176 NOB=   176 NVA=  1052 NVB=  1052
 Leave Link  801 at Thu May  5 13:17:14 2022, MaxMem= 10066329600 cpu:               8.6 elap:               0.4
 (Enter /sw/apps/gaussian-16.0/g16/l914.exe)
 RHF ground state
 Two-electron integrals replicated using symmetry.
 MDV= 10066329600 DFT=T DoStab=F Mixed=T DoRPA=T DoScal=F NonHer=T
 Making orbital integer symmetry assigments:
 Orbital symmetries:
       Occupied  (A) (A) (A) (A) (A) (A) (A) (A) (A) (A) (A) (A)
                 (A) (A) (A) (A) (A) (A) (A) (A) (A) (A) (A) (A)
                 (A) (A) (A) (A) (A) (A) (A) (A) (A) (A) (A) (A)
                 (A) (A) (A) (A) (A) (A) (A) (A) (A) (A) (A) (A)
                 (A) (A) (A) (A) (A) (A) (A) (A) (A) (A) (A) (A)
                 (A) (A) (A) (A) (A) (A) (A) (A) (A) (A) (A) (A)
                 (A) (A) (A) (A) (A) (A) (A) (A) (A) (A) (A) (A)
                 (A) (A) (A) (A) (A) (A) (A) (A) (A) (A) (A) (A)
                 (A) (A) (A) (A) (A) (A) (A) (A) (A) (A) (A) (A)
                 (A) (A) (A) (A) (A) (A) (A) (A) (A) (A) (A) (A)
                 (A) (A) (A) (A) (A) (A) (A) (A) (A) (A) (A) (A)
                 (A) (A) (A) (A) (A) (A) (A) (A) (A) (A) (A) (A)
                 (A) (A) (A) (A) (A) (A) (A) (A) (A) (A) (A) (A)
                 (A) (A) (A) (A) (A) (A) (A) (A) (A) (A) (A) (A)
                 (A) (A) (A) (A) (A) (A) (A) (A) (A) (A) (A) (A)
                 (A) (A) (A) (A) (A) (A) (A) (A) (A) (A) (A) (A)
                 (A) (A) (A) (A) (A) (A) (A) (A) (A) (A) (A) (A)
                 (A) (A) (A) (A) (A) (A) (A) (A) (A) (A) (A) (A)
                 (A) (A) (A) (A) (A) (A) (A) (A) (A) (A) (A) (A)
                 (A) (A) (A) (A) (A) (A) (A) (A) (A) (A) (A) (A)
                 (A) (A) (A) (A) (A) (A)
       Virtual   (A) (A) (A) (A) (A) (A) (A) (A) (A) (A) (A) (A)
                 (A) (A) (A) (A) (A) (A) (A) (A) (A) (A) (A) (A)
                 (A) (A) (A) (A) (A) (A) (A) (A) (A) (A) (A) (A)
                 (A) (A) (A) (A) (A) (A) (A) (A) (A) (A) (A) (A)
                 (A) (A) (A) (A) (A) (A) (A) (A) (A) (A) (A) (A)
                 (A) (A) (A) (A) (A) (A) (A) (A) (A) (A) (A) (A)
                 (A) (A) (A) (A) (A) (A) (A) (A) (A) (A) (A) (A)
                 (A) (A) (A) (A) (A) (A) (A) (A) (A) (A) (A) (A)
                 (A) (A) (A) (A) (A) (A) (A) (A) (A) (A) (A) (A)
                 (A) (A) (A) (A) (A) (A) (A) (A) (A) (A) (A) (A)
                 (A) (A) (A) (A) (A) (A) (A) (A) (A) (A) (A) (A)
                 (A) (A) (A) (A) (A) (A) (A) (A) (A) (A) (A) (A)
                 (A) (A) (A) (A) (A) (A) (A) (A) (A) (A) (A) (A)
                 (A) (A) (A) (A) (A) (A) (A) (A) (A) (A) (A) (A)
                 (A) (A) (A) (A) (A) (A) (A) (A) (A) (A) (A) (A)
                 (A) (A) (A) (A) (A) (A) (A) (A) (A) (A) (A) (A)
                 (A) (A) (A) (A) (A) (A) (A) (A) (A) (A) (A) (A)
                 (A) (A) (A) (A) (A) (A) (A) (A) (A) (A) (A) (A)
                 (A) (A) (A) (A) (A) (A) (A) (A) (A) (A) (A) (A)
                 (A) (A) (A) (A) (A) (A) (A) (A) (A) (A) (A) (A)
                 (A) (A) (A) (A) (A) (A) (A) (A) (A) (A) (A) (A)
                 (A) (A) (A) (A) (A) (A) (A) (A) (A) (A) (A) (A)
                 (A) (A) (A) (A) (A) (A) (A) (A) (A) (A) (A) (A)
                 (A) (A) (A) (A) (A) (A) (A) (A) (A) (A) (A) (A)
                 (A) (A) (A) (A) (A) (A) (A) (A) (A) (A) (A) (A)
                 (A) (A) (A) (A) (A) (A) (A) (A) (A) (A) (A) (A)
                 (A) (A) (A) (A) (A) (A) (A) (A) (A) (A) (A) (A)
                 (A) (A) (A) (A) (A) (A) (A) (A) (A) (A) (A) (A)
                 (A) (A) (A) (A) (A) (A) (A) (A) (A) (A) (A) (A)
                 (A) (A) (A) (A) (A) (A) (A) (A) (A) (A) (A) (A)
                 (A) (A) (A) (A) (A) (A) (A) (A) (A) (A) (A) (A)
                 (A) (A) (A) (A) (A) (A) (A) (A) (A) (A) (A) (A)
                 (A) (A) (A) (A) (A) (A) (A) (A) (A) (A) (A) (A)
                 (A) (A) (A) (A) (A) (A) (A) (A) (A) (A) (A) (A)
                 (A) (A) (A) (A) (A) (A) (A) (A) (A) (A) (A) (A)
                 (A) (A) (A) (A) (A) (A) (A) (A) (A) (A) (A) (A)
                 (A) (A) (A) (A) (A) (A) (A) (A) (A) (A) (A) (A)
                 (A) (A) (A) (A) (A) (A) (A) (A) (A) (A) (A) (A)
                 (A) (A) (A) (A) (A) (A) (A) (A) (A) (A) (A) (A)
                 (A) (A) (A) (A) (A) (A) (A) (A) (A) (A) (A) (A)
                 (A) (A) (A) (A) (A) (A) (A) (A) (A) (A) (A) (A)
                 (A) (A) (A) (A) (A) (A) (A) (A) (A) (A) (A) (A)
                 (A) (A) (A) (A) (A) (A) (A) (A) (A) (A) (A) (A)
                 (A) (A) (A) (A) (A) (A) (A) (A) (A) (A) (A) (A)
                 (A) (A) (A) (A) (A) (A) (A) (A) (A) (A) (A) (A)
                 (A) (A) (A) (A) (A) (A) (A) (A) (A) (A) (A) (A)
                 (A) (A) (A) (A) (A) (A) (A) (A) (A) (A) (A) (A)
                 (A) (A) (A) (A) (A) (A) (A) (A) (A) (A) (A) (A)
                 (A) (A) (A) (A) (A) (A) (A) (A) (A) (A) (A) (A)
                 (A) (A) (A) (A) (A) (A) (A) (A) (A) (A) (A) (A)
                 (A) (A) (A) (A) (A) (A) (A) (A) (A) (A) (A) (A)
                 (A) (A) (A) (A) (A) (A) (A) (A) (A) (A) (A) (A)
                 (A) (A) (A) (A) (A) (A) (A) (A) (A) (A) (A) (A)
                 (A) (A) (A) (A) (A) (A) (A) (A) (A) (A) (A) (A)
                 (A) (A) (A) (A) (A) (A) (A) (A) (A) (A) (A) (A)
                 (A) (A) (A) (A) (A) (A) (A) (A) (A) (A) (A) (A)
                 (A) (A) (A) (A) (A) (A) (A) (A) (A) (A) (A) (A)
                 (A) (A) (A) (A) (A) (A) (A) (A) (A) (A) (A) (A)
                 (A) (A) (A) (A) (A) (A) (A) (A) (A) (A) (A) (A)
                 (A) (A) (A) (A) (A) (A) (A) (A) (A) (A) (A) (A)
                 (A) (A) (A) (A) (A) (A) (A) (A) (A) (A) (A) (A)
                 (A) (A) (A) (A) (A) (A) (A) (A) (A) (A) (A) (A)
                 (A) (A) (A) (A) (A) (A) (A) (A) (A) (A) (A) (A)
                 (A) (A) (A) (A) (A) (A) (A) (A) (A) (A) (A) (A)
                 (A) (A) (A) (A) (A) (A) (A) (A) (A) (A) (A) (A)
                 (A) (A) (A) (A) (A) (A) (A) (A) (A) (A) (A) (A)
                 (A) (A) (A) (A) (A) (A) (A) (A) (A) (A) (A) (A)
                 (A) (A) (A) (A) (A) (A) (A) (A) (A) (A) (A) (A)
                 (A) (A) (A) (A) (A) (A) (A) (A) (A) (A) (A) (A)
                 (A) (A) (A) (A) (A) (A) (A) (A) (A) (A) (A) (A)
                 (A) (A) (A) (A) (A) (A) (A) (A) (A) (A) (A) (A)
                 (A) (A) (A) (A) (A) (A) (A) (A) (A) (A) (A) (A)
                 (A) (A) (A) (A) (A) (A) (A) (A) (A) (A) (A) (A)
                 (A) (A) (A) (A) (A) (A) (A) (A) (A) (A) (A) (A)
                 (A) (A) (A) (A) (A) (A) (A) (A) (A) (A) (A) (A)
                 (A) (A) (A) (A) (A) (A) (A) (A) (A) (A) (A) (A)
                 (A) (A) (A) (A) (A) (A) (A) (A) (A) (A) (A) (A)
                 (A) (A) (A) (A) (A) (A) (A) (A) (A) (A) (A) (A)
                 (A) (A) (A) (A) (A) (A) (A) (A) (A) (A) (A) (A)
                 (A) (A) (A) (A) (A) (A) (A) (A) (A) (A) (A) (A)
                 (A) (A) (A) (A) (A) (A) (A) (A) (A) (A) (A) (A)
                 (A) (A) (A) (A) (A) (A) (A) (A) (A) (A) (A) (A)
                 (A) (A) (A) (A) (A) (A) (A) (A) (A) (A) (A) (A)
                 (A) (A) (A) (A) (A) (A) (A) (A) (A) (A) (A) (A)
                 (A) (A) (A) (A) (A) (A) (A) (A) (A) (A) (A) (A)
                 (A) (A) (A) (A) (A) (A) (A) (A) (A) (A) (A) (A)
                 (A) (A) (A) (A) (A) (A) (A) (A) (A) (A) (A) (A)
                 (A) (A) (A) (A) (A) (A) (A) (A)
    20 initial guesses have been made.
 Convergence on wavefunction:    0.001000000000000
 Davidson Disk Diagonalization:  ConvIn= 1.00D-03 SkipCon=T Conv= 1.00D-03.
 Max sub-space:  2000 roots to seek:    20 dimension of matrix:       370304
 Iteration     1 Dimension    20 NMult     0 NNew     20
 CISAX will form    20 AO SS matrices at one time.
 NMat=    20 NSing=    20 JSym2X= 0.
 FoFJK:  IHMeth= 1 ICntrl=       0 DoSepK=T KAlg= 0 I1Cent=           0 FoldK=F
 IRaf=         1 NMat=      40 IRICut=       1 DoRegI=T DoRafI=F ISym2E= 0 IDoP0=3 IntGTp=3.
 FoFCou: FMM=T IPFlag=           0 FMFlag=      100000 FMFlg1=        2001
         NFxFlg=           0 DoJE=F BraDBF=F KetDBF=F FulRan=T
         wScrn=  0.000000 ICntrl=       500 IOpCl=  0 I1Cent=           0 NGrid=           0
         NMat0=   20 NMatS0=     20 NMatT0=    0 NMatD0=   20 NMtDS0=    0 NMtDT0=    0
 Symmetry not used in FoFCou.
 FMM levels:  10  Number of levels for PrismC:   9
 New state      3 was old state      4
 New state      4 was old state      6
 New state      5 was old state     10
 Excitation Energies [eV] at current iteration:
 Root      1 :     2.203239429739455
 Root      2 :     2.617299311737315
 Root      3 :     3.725379782763060
 Root      4 :     3.945017874439690
 Root      5 :     3.986239259297579
 Root      6 :     4.180138707148809
 Root      7 :     4.351554136223899
 Root      8 :     4.394051954216799
 Root      9 :     4.426841381110179
 Root     10 :     4.488165651028211
 Root     11 :     4.537902226829945
 Root     12 :     4.704010955312040
 Root     13 :     4.891973179828971
 Root     14 :     4.947770281371443
 Root     15 :     5.104086445400997
 Root     16 :     5.180259633850700
 Root     17 :     5.312482089766617
 Root     18 :     5.361349850307302
 Root     19 :     5.443308766525892
 Root     20 :     6.290896817428428
 Iteration     2 Dimension    30 NMult    20 NNew     10
 CISAX will form    10 AO SS matrices at one time.
 NMat=    10 NSing=    10 JSym2X= 0.
 Root      1 not converged, maximum delta is    0.075301792210835
 Root      2 not converged, maximum delta is    0.069377776064147
 Root      3 not converged, maximum delta is    0.049478885496381
 New state      4 was old state      5
 Root      4 not converged, maximum delta is    0.140557139125755
 New state      5 was old state      4
 Root      5 not converged, maximum delta is    0.083351571391112
 Excitation Energies [eV] at current iteration:
 Root      1 :     1.747641431939323   Change is   -0.455597997800132
 Root      2 :     2.225179693969933   Change is   -0.392119617767381
 Root      3 :     3.398896721049797   Change is   -0.326483061713263
 Root      4 :     3.573251013653881   Change is   -0.412988245643698
 Root      5 :     3.597259078255107   Change is   -0.347758796184584
 Iteration     3 Dimension    40 NMult    30 NNew     10
 CISAX will form    10 AO SS matrices at one time.
 NMat=    10 NSing=    10 JSym2X= 0.
 Root      1 not converged, maximum delta is    0.016182286762360
 Root      2 not converged, maximum delta is    0.011045992259048
 Root      3 not converged, maximum delta is    0.070500968323406
 Root      4 not converged, maximum delta is    0.222011108815178
 Root      5 not converged, maximum delta is    0.199446505591092
 Excitation Energies [eV] at current iteration:
 Root      1 :     1.712306313552579   Change is   -0.035335118386744
 Root      2 :     2.204920831540516   Change is   -0.020258862429417
 Root      3 :     3.378864225321645   Change is   -0.020032495728152
 Root      4 :     3.463549861542229   Change is   -0.109701152111652
 Root      5 :     3.542487498855049   Change is   -0.054771579400058
 Iteration     4 Dimension    50 NMult    40 NNew     10
 CISAX will form    10 AO SS matrices at one time.
 NMat=    10 NSing=    10 JSym2X= 0.
 Root      1 not converged, maximum delta is    0.003051720668094
 Root      2 not converged, maximum delta is    0.002689006026571
 Root      3 not converged, maximum delta is    0.020424500207469
 Root      4 not converged, maximum delta is    0.029090528494639
 Root      5 not converged, maximum delta is    0.079036765681562
 Excitation Energies [eV] at current iteration:
 Root      1 :     1.708064035428857   Change is   -0.004242278123722
 Root      2 :     2.202067828014049   Change is   -0.002853003526467
 Root      3 :     3.374173748457133   Change is   -0.004690476864512
 Root      4 :     3.451102712652616   Change is   -0.012447148889612
 Root      5 :     3.525092203674629   Change is   -0.017395295180419
 Iteration     5 Dimension    60 NMult    50 NNew     10
 CISAX will form    10 AO SS matrices at one time.
 NMat=    10 NSing=    10 JSym2X= 0.
 Root      1 not converged, maximum delta is    0.001298314459544
 Root      2 has converged.
 Root      3 not converged, maximum delta is    0.004671321031852
 Root      4 not converged, maximum delta is    0.005405719875512
 Root      5 not converged, maximum delta is    0.025279337387875
 Excitation Energies [eV] at current iteration:
 Root      1 :     1.707696565167458   Change is   -0.000367470261400
 Root      2 :     2.201833205329737   Change is   -0.000234622684312
 Root      3 :     3.373582312922784   Change is   -0.000591435534348
 Root      4 :     3.449689554044867   Change is   -0.001413158607749
 Root      5 :     3.521758043078132   Change is   -0.003334160596498
 Iteration     6 Dimension    68 NMult    60 NNew      8
 CISAX will form     8 AO SS matrices at one time.
 NMat=     8 NSing=     8 JSym2X= 0.
 Root      1 has converged.
 Root      2 has converged.
 Root      3 not converged, maximum delta is    0.001107031984599
 Root      4 not converged, maximum delta is    0.001773524046686
 Root      5 not converged, maximum delta is    0.010430745045402
 Excitation Energies [eV] at current iteration:
 Root      1 :     1.707664717457233   Change is   -0.000031847710224
 Root      2 :     2.201832448556431   Change is   -0.000000756773306
 Root      3 :     3.373502865661506   Change is   -0.000079447261278
 Root      4 :     3.449462026648495   Change is   -0.000227527396373
 Root      5 :     3.521064140359641   Change is   -0.000693902718491
 Iteration     7 Dimension    74 NMult    68 NNew      6
 CISAX will form     6 AO SS matrices at one time.
 NMat=     6 NSing=     6 JSym2X= 0.
 Root      1 has converged.
 Root      2 has converged.
 Root      3 has converged.
 Root      4 has converged.
 Root      5 not converged, maximum delta is    0.004552200922110
 Excitation Energies [eV] at current iteration:
 Root      1 :     1.707663925701295   Change is   -0.000000791755938
 Root      2 :     2.201830949591054   Change is   -0.000001498965377
 Root      3 :     3.373492939777464   Change is   -0.000009925884043
 Root      4 :     3.449434223316568   Change is   -0.000027803331926
 Root      5 :     3.520861339850546   Change is   -0.000202800509095
 Iteration     8 Dimension    76 NMult    74 NNew      2
 CISAX will form     2 AO SS matrices at one time.
 NMat=     2 NSing=     2 JSym2X= 0.
 Root      1 has converged.
 Root      2 has converged.
 Root      3 has converged.
 Root      4 has converged.
 Root      5 not converged, maximum delta is    0.006180971393937
 Excitation Energies [eV] at current iteration:
 Root      1 :     1.707663867031415   Change is   -0.000000058669881
 Root      2 :     2.201830626820290   Change is   -0.000000322770764
 Root      3 :     3.373492048887795   Change is   -0.000000890889669
 Root      4 :     3.449431315145505   Change is   -0.000002908171063
 Root      5 :     3.520703129920824   Change is   -0.000158209929722
 Iteration     9 Dimension    78 NMult    76 NNew      2
 CISAX will form     2 AO SS matrices at one time.
 NMat=     2 NSing=     2 JSym2X= 0.
 Root      1 has converged.
 Root      2 has converged.
 Root      3 has converged.
 Root      4 has converged.
 Root      5 not converged, maximum delta is    0.003145590767165
 Excitation Energies [eV] at current iteration:
 Root      1 :     1.707663847777879   Change is   -0.000000019253536
 Root      2 :     2.201830309878449   Change is   -0.000000316941842
 Root      3 :     3.373491415397148   Change is   -0.000000633490647
 Root      4 :     3.449430012124874   Change is   -0.000001303020632
 Root      5 :     3.520636899148351   Change is   -0.000066230772474
 Iteration    10 Dimension    80 NMult    78 NNew      2
 CISAX will form     2 AO SS matrices at one time.
 NMat=     2 NSing=     2 JSym2X= 0.
 Root      1 has converged.
 Root      2 has converged.
 Root      3 has converged.
 Root      4 has converged.
 Root      5 has converged.
 Excitation Energies [eV] at current iteration:
 Root      1 :     1.707663839612411   Change is   -0.000000008165468
 Root      2 :     2.201829747232017   Change is   -0.000000562646432
 Root      3 :     3.373491337292084   Change is   -0.000000078105065
 Root      4 :     3.449429765462519   Change is   -0.000000246662355
 Root      5 :     3.520625702280009   Change is   -0.000011196868342
 Convergence achieved on expansion vectors.
 ***********************************************************************
 Excited states from <AA,BB:AA,BB> singles matrix:
 ***********************************************************************
 
 1PDM for each excited state written to RWF  633
 Ground to excited state transition densities written to RWF  633
 Ground to excited state transition electric dipole moments (Au):
       state          X           Y           Z        Dip. S.      Osc.
         1        -1.5023     -2.5122     -0.1532      8.5918      0.3595
         2        -1.1739      0.8206      0.0412      2.0532      0.1108
         3         0.2933     -0.2336      0.0040      0.1406      0.0116
         4         0.5123     -0.3887     -0.0550      0.4166      0.0352
         5        -1.9601      1.4569      0.1279      5.9810      0.5159
 Ground to excited state transition velocity dipole moments (Au):
       state          X           Y           Z        Dip. S.      Osc.
         1         0.0906      0.1527      0.0108      0.0316      0.3360
         2         0.0891     -0.0630     -0.0030      0.0119      0.0982
         3        -0.0308      0.0280      0.0010      0.0017      0.0093
         4        -0.0615      0.0471      0.0035      0.0060      0.0316
         5         0.2475     -0.1815     -0.0169      0.0945      0.4868
 Ground to excited state transition magnetic dipole moments (Au):
       state          X           Y           Z
         1         0.0481      0.1208     -1.8531
         2        -0.0735     -0.0795      0.7946
         3         0.0783      0.2836      0.6188
         4        -0.0022     -0.6297     -0.1081
         5        -0.1947     -0.4816      1.9644
 Ground to excited state transition velocity quadrupole moments (Au):
       state          XX          YY          ZZ          XY          XZ          YZ
         1        -1.8604      0.5547     -0.0061     -1.3391     -0.1426     -0.0197
         2        -1.6950     -0.1321      0.0092      0.6294     -0.0012     -0.0226
         3         0.4434      0.2162     -0.0135     -0.5253      0.0031      0.0033
         4         1.1096      0.1260      0.0031     -0.6771     -0.0097      0.0013
         5        -4.7850      0.3003     -0.0141      2.1867      0.2628     -0.0809
 <0|del|b> * <b|rxdel|0> + <0|del|b> * <b|delr+rdel|0>
 Rotatory Strengths (R) in cgs (10**-40 erg-esu-cm/Gauss)
       state          XX          YY          ZZ    R(velocity)    E-M Angle
         1        31.8319    -16.8923     15.8314     10.2570       89.53
         2         3.1588    -39.5329      2.4092    -11.3217       92.54
         3        22.6692     -3.9614     16.3229     11.6769       77.57
         4       -89.0227      5.6750    -83.3209    -55.5562      127.10
         5       177.3128   -176.1195     31.5090     10.9008       89.45
 1/2[<0|r|b>*<b|rxdel|0> + (<0|rxdel|b>*<b|r|0>)*]
 Rotatory Strengths (R) in cgs (10**-40 erg-esu-cm/Gauss)
       state          XX          YY          ZZ     R(length)
         1        51.0923    214.6574   -200.7758     21.6580
         2       -60.9772     46.1622    -23.1473    -12.6541
         3       -16.2381     46.8532     -1.7319      9.6277
[...]
 Alpha virt. eigenvalues --    1.21825   1.22575   1.22789   1.23243   1.23621
 Alpha virt. eigenvalues --    1.24650   1.24784   1.25330   1.26092   1.26723
 Alpha virt. eigenvalues --    1.27087   1.27525   1.27950   1.28400   1.28520
 Alpha virt. eigenvalues --    1.29784   1.30500   1.30963   1.31684   1.32447
 Alpha virt. eigenvalues --    1.32633   1.33271   1.33358   1.33876   1.34386
 Alpha virt. eigenvalues --    1.35129   1.35230   1.35916   1.36519   1.36895
 Alpha virt. eigenvalues --    1.37322   1.37600   1.38198   1.38603   1.38989
 Alpha virt. eigenvalues --    1.39080   1.39451   1.39727   1.39906   1.40353
 Alpha virt. eigenvalues --    1.40913   1.41167   1.41547   1.41751   1.42290
 Alpha virt. eigenvalues --    1.42458   1.42965   1.43829   1.44143   1.44387
 Alpha virt. eigenvalues --    1.44746   1.45557   1.45734   1.45892   1.46176
 Alpha virt. eigenvalues --    1.46570   1.46736   1.46985   1.47297   1.47572
 Alpha virt. eigenvalues --    1.48231   1.48513   1.49472   1.50482   1.50889
 Alpha virt. eigenvalues --    1.51212   1.51879   1.52193   1.52420   1.53015
 Alpha virt. eigenvalues --    1.53259   1.53388   1.53891   1.54731   1.55048
 Alpha virt. eigenvalues --    1.55403   1.55725   1.56346   1.56774   1.56937
 Alpha virt. eigenvalues --    1.57534   1.57690   1.57920   1.58285   1.58410
 Alpha virt. eigenvalues --    1.59043   1.59193   1.59335   1.59735   1.59854
 Alpha virt. eigenvalues --    1.60204   1.60439   1.60581   1.60673   1.60737
 Alpha virt. eigenvalues --    1.61011   1.61171   1.61316   1.61825   1.61958
 Alpha virt. eigenvalues --    1.62392   1.62510   1.62585   1.62783   1.63337
 Alpha virt. eigenvalues --    1.63546   1.63846   1.64327   1.65273   1.65354
 Alpha virt. eigenvalues --    1.66075   1.66619   1.67005   1.67356   1.67773
 Alpha virt. eigenvalues --    1.68276   1.68584   1.68993   1.69025   1.69500
 Alpha virt. eigenvalues --    1.69627   1.69966   1.70457   1.71025   1.71748
 Alpha virt. eigenvalues --    1.72046   1.72497   1.72527   1.73343   1.73958
 Alpha virt. eigenvalues --    1.74164   1.75120   1.75356   1.75494   1.75902
 Alpha virt. eigenvalues --    1.76268   1.76384   1.76958   1.77227   1.77316
 Alpha virt. eigenvalues --    1.77474   1.77971   1.78375   1.78541   1.78944
 Alpha virt. eigenvalues --    1.79085   1.79358   1.79394   1.79646   1.80070
 Alpha virt. eigenvalues --    1.80290   1.80636   1.81059   1.81238   1.81351
 Alpha virt. eigenvalues --    1.81489   1.81772   1.82305   1.82484   1.82782
 Alpha virt. eigenvalues --    1.83163   1.83523   1.83612   1.83811   1.83913
 Alpha virt. eigenvalues --    1.84247   1.84410   1.84488   1.84618   1.84774
 Alpha virt. eigenvalues --    1.85004   1.85127   1.85142   1.85291   1.85530
 Alpha virt. eigenvalues --    1.85873   1.86040   1.86132   1.86291   1.86628
 Alpha virt. eigenvalues --    1.86804   1.86836   1.87142   1.87494   1.87564
 Alpha virt. eigenvalues --    1.87951   1.88295   1.88359   1.88494   1.88552
 Alpha virt. eigenvalues --    1.88660   1.88805   1.89134   1.89469   1.89610
 Alpha virt. eigenvalues --    1.89699   1.89792   1.90289   1.90520   1.90630
 Alpha virt. eigenvalues --    1.90974   1.91170   1.91326   1.91665   1.91905
 Alpha virt. eigenvalues --    1.92308   1.92488   1.92710   1.92905   1.93304
 Alpha virt. eigenvalues --    1.93596   1.93804   1.93820   1.94010   1.94241
 Alpha virt. eigenvalues --    1.94498   1.94684   1.95024   1.95097   1.95203
 Alpha virt. eigenvalues --    1.95858   1.95990   1.96034   1.96392   1.96508
 Alpha virt. eigenvalues --    1.96742   1.97020   1.97185   1.97536   1.97925
 Alpha virt. eigenvalues --    1.98288   1.98451   1.98600   1.98870   1.99363
 Alpha virt. eigenvalues --    1.99864   1.99886   1.99991   2.00103   2.00295
 Alpha virt. eigenvalues --    2.00671   2.01060   2.01213   2.01689   2.01901
 Alpha virt. eigenvalues --    2.02003   2.02138   2.02275   2.02511   2.02645
 Alpha virt. eigenvalues --    2.02870   2.03239   2.03446   2.03717   2.04056
 Alpha virt. eigenvalues --    2.04410   2.04706   2.04949   2.05271   2.05458
 Alpha virt. eigenvalues --    2.05810   2.06211   2.06604   2.06797   2.07423
 Alpha virt. eigenvalues --    2.07672   2.08128   2.08366   2.08468   2.08938
 Alpha virt. eigenvalues --    2.09002   2.09453   2.10248   2.10436   2.10723
 Alpha virt. eigenvalues --    2.11070   2.11360   2.11640   2.11829   2.12129
 Alpha virt. eigenvalues --    2.12665   2.12913   2.13395   2.13513   2.13733
 Alpha virt. eigenvalues --    2.13933   2.14536   2.14789   2.14842   2.15154
 Alpha virt. eigenvalues --    2.15701   2.15954   2.16058   2.16167   2.16526
 Alpha virt. eigenvalues --    2.17121   2.17355   2.17628   2.17675   2.17926
 Alpha virt. eigenvalues --    2.18150   2.18642   2.18671   2.19369   2.19751
 Alpha virt. eigenvalues --    2.19928   2.20117   2.20371   2.20852   2.20972
 Alpha virt. eigenvalues --    2.21607   2.21962   2.22173   2.22627   2.22818
 Alpha virt. eigenvalues --    2.23025   2.23125   2.23953   2.24357   2.24621
 Alpha virt. eigenvalues --    2.24912   2.25711   2.25967   2.26237   2.26876
 Alpha virt. eigenvalues --    2.27599   2.27801   2.28335   2.29020   2.30013
 Alpha virt. eigenvalues --    2.30309   2.30550   2.30780   2.31211   2.31301
 Alpha virt. eigenvalues --    2.31858   2.31975   2.32271   2.32549   2.32946
 Alpha virt. eigenvalues --    2.33423   2.33712   2.33913   2.34174   2.35533
 Alpha virt. eigenvalues --    2.36004   2.36088   2.36315   2.36663   2.37160
 Alpha virt. eigenvalues --    2.37433   2.37964   2.38167   2.38970   2.39067
 Alpha virt. eigenvalues --    2.39451   2.39485   2.39868   2.40334   2.40595
 Alpha virt. eigenvalues --    2.40886   2.41363   2.42047   2.42703   2.42838
 Alpha virt. eigenvalues --    2.43123   2.43380   2.43932   2.44222   2.44499
 Alpha virt. eigenvalues --    2.45227   2.45386   2.45595   2.45929   2.45963
 Alpha virt. eigenvalues --    2.46187   2.46322   2.46630   2.47242   2.47668
 Alpha virt. eigenvalues --    2.48274   2.48392   2.48717   2.48884   2.49263
 Alpha virt. eigenvalues --    2.49654   2.50362   2.50865   2.50981   2.51556
 Alpha virt. eigenvalues --    2.51770   2.52203   2.53001   2.53125   2.54082
 Alpha virt. eigenvalues --    2.54337   2.54420   2.54886   2.55249   2.55538
 Alpha virt. eigenvalues --    2.55665   2.56024   2.56331   2.56823   2.57752
 Alpha virt. eigenvalues --    2.58139   2.58983   2.59123   2.59513   2.60031
 Alpha virt. eigenvalues --    2.60224   2.61307   2.61598   2.61752   2.61828
 Alpha virt. eigenvalues --    2.62204   2.62601   2.63247   2.63324   2.63453
 Alpha virt. eigenvalues --    2.64120   2.64561   2.65562   2.65670   2.66401
 Alpha virt. eigenvalues --    2.66754   2.67270   2.68394   2.68492   2.68861
 Alpha virt. eigenvalues --    2.69102   2.69533   2.69879   2.70193   2.70797
 Alpha virt. eigenvalues --    2.70935   2.71071   2.71163   2.71766   2.72109
 Alpha virt. eigenvalues --    2.72368   2.72470   2.73138   2.74258   2.74273
 Alpha virt. eigenvalues --    2.74679   2.74956   2.75066   2.76277   2.77128
 Alpha virt. eigenvalues --    2.77235   2.77494   2.77606   2.78284   2.78716
 Alpha virt. eigenvalues --    2.78759   2.78968   2.79907   2.80398   2.81103
 Alpha virt. eigenvalues --    2.81121   2.81877   2.82120   2.82401   2.82579
 Alpha virt. eigenvalues --    2.82772   2.83393   2.83825   2.84598   2.84923
 Alpha virt. eigenvalues --    2.85435   2.85580   2.85732   2.86875   2.87306
 Alpha virt. eigenvalues --    2.87603   2.88306   2.89052   2.89075   2.89597
 Alpha virt. eigenvalues --    2.90109   2.90254   2.90501   2.91156   2.91968
 Alpha virt. eigenvalues --    2.92943   2.93087   2.93725   2.94193   2.94552
 Alpha virt. eigenvalues --    2.94740   2.95572   2.95669   2.96055   2.96272
 Alpha virt. eigenvalues --    2.96637   2.96900   2.97099   2.97491   2.97678
 Alpha virt. eigenvalues --    2.97962   2.98220   2.98377   2.98655   2.98829
 Alpha virt. eigenvalues --    2.99085   2.99816   2.99998   3.00346   3.00448
 Alpha virt. eigenvalues --    3.00828   3.01164   3.01458   3.01529   3.01949
 Alpha virt. eigenvalues --    3.02062   3.02430   3.02871   3.03133   3.03342
 Alpha virt. eigenvalues --    3.03571   3.04597   3.04948   3.05074   3.05234
 Alpha virt. eigenvalues --    3.05447   3.05565   3.06743   3.07349   3.07527
 Alpha virt. eigenvalues --    3.07635   3.08005   3.08731   3.08884   3.09229
 Alpha virt. eigenvalues --    3.09332   3.09600   3.09883   3.10694   3.10764
 Alpha virt. eigenvalues --    3.11103   3.11199   3.12136   3.12399   3.13266
 Alpha virt. eigenvalues --    3.13406   3.13653   3.13987   3.14525   3.14697
 Alpha virt. eigenvalues --    3.14970   3.15708   3.16052   3.16206   3.17812
 Alpha virt. eigenvalues --    3.18360   3.18555   3.20415   3.20542   3.21202
 Alpha virt. eigenvalues --    3.21285   3.22403   3.24138   3.24243   3.24615
 Alpha virt. eigenvalues --    3.25677   3.26830   3.29218   3.29759   3.31153
 Alpha virt. eigenvalues --    3.33357   3.33727   3.45177   3.45761   3.46328
 Alpha virt. eigenvalues --    3.47775   3.50050   3.53132   3.55970   3.58224
 Alpha virt. eigenvalues --    3.61991   3.65556   3.69612   3.70962   3.72594
 Alpha virt. eigenvalues --    3.74683   3.78794
          Condensed to atoms (all electrons):
 Mulliken charges:
               1
     1  Mg   0.852040
     2  C   -0.035052
     3  C   -0.112606
     4  C   -0.046801
     5  C   -0.094278
     6  N   -0.283633
     7  C   -0.009800
     8  C   -0.054277
     9  C   -0.035890
    10  C    0.051732
    11  C    0.069290
    12  C    0.117762
    13  C    0.039552
    14  C    0.170162
    15  O   -0.245416
    16  O   -0.343631
    17  N   -0.495081
    18  C    0.203722
    19  C   -0.146732
    20  C   -0.010613
    21  C    0.138262
    22  C    0.116217
    23  C    0.001865
    24  O   -0.215710
    25  C    0.038166
    26  N   -0.292825
    27  C    0.006083
    28  C   -0.004634
    29  C   -0.070568
    30  C    0.060371
    31  C    0.083634
    32  C    0.039283
    33  C    0.012518
    34  N   -0.308926
    35  C    0.136539
    36  C   -0.219122
    37  C    0.093024
    38  C    0.045717
    39  C    0.111040
    40  C   -0.002770
    41  O   -0.165420
    42  C    0.007632
    43  C    0.215670
    44  O   -0.181589
    45  O   -0.337294
    46  C    0.191524
    47  C    0.292244
    48  C   -0.138455
    49  C   -0.206565
    50  C    0.079211
    51  C    0.119085
    52  C    0.009469
    53  C    0.044407
    54  C   -0.145914
    55  C    0.085430
    56  C   -0.006423
    57  C    0.001909
    58  C    0.084993
    59  C   -0.141203
    60  C    0.043356
    61  C    0.054703
    62  C    0.000216
    63  C    0.046876
    64  C   -0.131803
    65  C    0.054568
    66  C    0.046307
    67  H   -0.040435
    68  H   -0.009639
    69  H   -0.019925
    70  H    0.022285
    71  H    0.012019
    72  H    0.045573
    73  H    0.012703
    74  H   -0.001411
    75  H    0.008703
    76  H    0.014519
    77  H    0.023496
    78  H    0.016532
    79  H    0.006340
    80  H    0.037515
    81  H    0.018659
    82  H    0.030253
    83  H    0.033079
    84  H    0.040188
    85  H    0.008037
    86  H    0.005052
    87  H    0.017888
    88  H    0.022609
    89  H    0.025570
    90  H   -0.001660
    91  H    0.005092
    92  H    0.014647
    93  H    0.019285
    94  H    0.020317
    95  H    0.004875
    96  H    0.032980
    97  H    0.044298
    98  H    0.041515
    99  H    0.036534
   100  H    0.024343
   101  H    0.034334
   102  H    0.063154
   103  H    0.027624
   104  H    0.003898
   105  H    0.012853
   106  H    0.026219
   107  H    0.038521
   108  H    0.008963
   109  H   -0.002735
   110  H   -0.004671
   111  H   -0.011003
   112  H    0.003683
   113  H   -0.015257
   114  H   -0.022572
   115  H    0.018389
   116  H   -0.001385
   117  H    0.007139
   118  H   -0.015429
   119  H   -0.000354
   120  H    0.019000
   121  H   -0.003001
   122  H   -0.022277
   123  H   -0.016191
   124  H   -0.017413
   125  H    0.004138
   126  H    0.008996
   127  H    0.004430
   128  H   -0.015534
   129  H   -0.012675
   130  H    0.001061
   131  H    0.001184
   132  H   -0.004707
   133  H   -0.005643
   134  H   -0.000272
   135  H    0.017396
   136  H   -0.004655
   137  H   -0.001312
   138  H    0.018117
   139  H    0.013088
   140  H   -0.008483
 Sum of Mulliken charges =  -0.00000
 Mulliken charges with hydrogens summed into heavy atoms:
               1
     1  Mg   0.852040
     2  C   -0.035052
     3  C   -0.153041
     4  C   -0.056440
     5  C   -0.114204
     6  N   -0.283633
     7  C   -0.009800
     8  C   -0.031991
     9  C   -0.023871
    10  C    0.051732
    11  C    0.126154
    12  C    0.140984
    13  C    0.079580
    14  C    0.170162
    15  O   -0.245416
    16  O   -0.343631
    17  N   -0.495081
    18  C    0.203722
    19  C   -0.146732
    20  C   -0.010613
    21  C    0.138262
    22  C    0.178731
    23  C    0.001865
    24  O   -0.215710
    25  C    0.141687
    26  N   -0.292825
    27  C    0.006083
    28  C    0.003403
    29  C   -0.065515
    30  C    0.060371
    31  C    0.149700
    32  C    0.042716
    33  C    0.066767
    34  N   -0.308926
    35  C    0.136539
    36  C   -0.219122
    37  C    0.093024
    38  C    0.045717
    39  C    0.193193
    40  C   -0.002770
    41  O   -0.165420
    42  C    0.049147
    43  C    0.215670
    44  O   -0.181589
    45  O   -0.337294
    46  C    0.286735
    47  C    0.383022
    48  C   -0.134557
    49  C   -0.206565
    50  C    0.156804
    51  C    0.125313
    52  C   -0.006205
    53  C    0.032833
    54  C   -0.168486
    55  C    0.109572
    56  C   -0.022206
    57  C    0.017908
    58  C    0.046524
    59  C   -0.158616
    60  C    0.060919
    61  C    0.026493
    62  C    0.002461
    63  C    0.036527
    64  C   -0.132075
    65  C    0.065997
    66  C    0.069028
 Electronic spatial extent (au):  <R**2>=         127285.6843
 Charge=             -0.0000 electrons
 Dipole moment (field-independent basis, Debye):
    X=              4.6953    Y=              2.9111    Z=             -1.0982  Tot=              5.6326
 Quadrupole moment (field-independent basis, Debye-Ang):
   XX=           -387.0739   YY=           -434.9788   ZZ=           -404.6962
   XY=            -15.8927   XZ=              9.0407   YZ=              2.6993
 Traceless Quadrupole moment (field-independent basis, Debye-Ang):
   XX=             21.8424   YY=            -26.0625   ZZ=              4.2201
   XY=            -15.8927   XZ=              9.0407   YZ=              2.6993
 Octapole moment (field-independent basis, Debye-Ang**2):
  XXX=           -496.1807  YYY=            -18.8814  ZZZ=            -18.3535  XYY=            293.0960
  XXY=            -31.1530  XXZ=             47.8097  XZZ=            -38.7578  YZZ=            -26.9770
  YYZ=             41.1272  XYZ=             -4.1832
 Hexadecapole moment (field-independent basis, Debye-Ang**3):
 XXXX=        -143336.4378 YYYY=         -26825.2405 ZZZZ=          -4045.9890 XXXY=          -1090.2734
 XXXZ=            605.6379 YYYX=            244.5768 YYYZ=           -344.6324 ZZZX=            -32.5464
 ZZZY=             57.1567 XXYY=         -30557.6690 XXZZ=         -25534.2363 YYZZ=          -4891.7857
 XXYZ=            146.2388 YYXZ=            -86.5131 ZZXY=           -122.8258
 N-N= 9.523394653267D+03 E-N=-2.603937356153D+04  KE= 2.975972875129D+03
 Leave Link  601 at Thu May  5 13:43:22 2022, MaxMem= 10066329600 cpu:              16.3 elap:               0.8
 (Enter /sw/apps/gaussian-16.0/g16/l9999.exe)
 1\1\GINC-BP1-COMPUTE179\SP\RCAM-B3LYP TD-FC\def2SVP\C55H74Mg1N4O6\OF15
 641\05-May-2022\0\\#p cam-b3lyp/Def2SVP td=(nstates=5)\\step_901_chrom
 ophore_6 TDDFT with cam-b3lyp functional\\0,1\Mg,0,16.675,-2.489,28.22
 4\C,0,16.084,-0.327,31.059\C,0,18.229,-4.562,30.253\C,0,17.595,-4.022,
 25.528\C,0,14.988,-0.006,26.246\N,0,17.197,-2.343,30.361\C,0,16.818,-1
 .508,31.37\C,0,17.104,-2.029,32.693\C,0,18.166,-3.173,32.446\C,0,17.9,
 -3.404,30.945\C,0,19.701,-2.758,32.82\C,0,15.913,-2.474,33.457\C,0,15.
 783,-1.963,34.87\C,0,16.997,-1.509,35.696\O,0,17.269,-0.334,36.007\O,0
 ,17.739,-2.61,35.998\N,0,17.621,-4.127,27.976\C,0,18.192,-4.939,28.953
 \C,0,18.786,-6.113,28.301\C,0,18.544,-5.97,26.877\C,0,17.913,-4.69,26.
 73\C,0,19.605,-7.14,29.041\C,0,18.87,-6.909,25.748\O,0,18.639,-6.622,2
 4.566\C,0,19.633,-8.18,26.069\N,0,16.369,-1.999,26.137\C,0,16.926,-2.8
 58,25.223\C,0,16.847,-2.282,23.807\C,0,15.744,-1.151,23.981\C,0,15.586
 ,-1.061,25.536\C,0,18.219,-1.866,23.168\C,0,14.428,-1.345,23.186\C,0,1
 3.914,-0.169,22.315\N,0,15.753,-0.556,28.549\C,0,15.109,0.264,27.597\C
 ,0,14.677,1.439,28.324\C,0,14.964,1.272,29.646\C,0,15.681,0.073,29.719
 \C,0,13.902,2.618,27.903\C,0,14.839,1.738,31.022\O,0,14.245,2.68,31.53
 2\C,0,15.585,0.737,31.967\C,0,16.62,1.554,32.678\O,0,17.713,1.808,32.2
 88\O,0,16.071,1.879,33.893\C,0,16.938,2.666,34.813\C,0,18.871,-2.4,36.
 922\C,0,18.816,-3.547,37.919\C,0,19.412,-3.558,39.12\C,0,20.402,-2.507
 ,39.661\C,0,19.357,-4.849,39.985\C,0,20.052,-5.979,39.294\C,0,21.171,-
 6.665,40.115\C,0,21.646,-7.986,39.58\C,0,20.919,-9.199,40.155\C,0,23.2
 2,-8.168,39.534\C,0,23.909,-7.722,40.875\C,0,25.191,-8.544,41.081\C,0,
 25.538,-8.883,42.53\C,0,26.849,-8.241,42.968\C,0,25.461,-10.349,43.006
 \C,0,24.06,-10.951,42.985\C,0,23.444,-11.411,44.355\C,0,23.311,-12.956
 ,44.514\C,0,23.569,-13.51,45.94\C,0,21.915,-13.379,43.983\H,0,18.577,-
 5.328,30.95\H,0,17.989,-4.529,24.645\H,0,14.603,0.828,25.655\H,0,17.41
 9,-1.138,33.237\H,0,18.039,-4.099,33.007\H,0,19.783,-1.745,33.215\H,0,
 20.333,-3.103,32.002\H,0,20.052,-3.443,33.59\H,0,15.921,-3.548,33.638\
 H,0,15.024,-2.189,32.893\H,0,15.142,-2.598,35.481\H,0,15.106,-1.115,34
 .769\H,0,19.467,-6.951,30.105\H,0,20.662,-7.037,28.793\H,0,19.344,-8.1
 66,28.783\H,0,20.501,-8.048,26.715\H,0,19.973,-8.556,25.104\H,0,18.938
 ,-8.823,26.61\H,0,16.34,-3.047,23.219\H,0,16.163,-0.2,23.65\H,0,18.137
 ,-0.866,22.741\H,0,18.509,-2.581,22.398\H,0,19.016,-1.938,23.908\H,0,1
 3.692,-1.585,23.953\H,0,14.437,-2.281,22.626\H,0,13.432,-0.552,21.416\
 H,0,14.75,0.488,22.077\H,0,13.114,0.366,22.827\H,0,14.212,2.644,26.858
 \H,0,14.213,3.544,28.387\H,0,12.833,2.522,28.093\H,0,14.805,0.317,32.6
 01\H,0,16.559,2.607,35.833\H,0,16.985,3.737,34.615\H,0,17.971,2.32,34.
 771\H,0,18.806,-1.402,37.355\H,0,19.745,-2.667,36.329\H,0,18.104,-4.33
 9,37.689\H,0,20.695,-1.74,38.944\H,0,21.311,-3.055,39.908\H,0,19.874,-
 2.076,40.512\H,0,18.294,-5.085,40.035\H,0,19.755,-4.707,40.989\H,0,20.
 56,-5.585,38.414\H,0,19.449,-6.768,38.844\H,0,20.937,-6.697,41.179\H,0
 ,22.001,-5.996,39.887\H,0,21.465,-7.97,38.506\H,0,20.115,-9.462,39.468
 \H,0,20.544,-8.983,41.156\H,0,21.683,-9.962,40.302\H,0,23.657,-7.542,3
 8.756\H,0,23.426,-9.154,39.119\H,0,23.231,-7.573,41.715\H,0,24.358,-6.
 763,40.615\H,0,26.003,-7.924,40.701\H,0,25.166,-9.328,40.324\H,0,24.78
 2,-8.402,43.151\H,0,27.126,-8.462,43.999\H,0,26.772,-7.16,42.854\H,0,2
 7.612,-8.667,42.316\H,0,25.884,-10.268,44.007\H,0,26.173,-10.871,42.36
 6\H,0,24.238,-11.773,42.292\H,0,23.372,-10.25,42.512\H,0,22.5,-10.87,4
 4.289\H,0,24.064,-11.009,45.157\H,0,24.098,-13.318,43.853\H,0,22.775,-
 14.14,46.34\H,0,23.851,-12.779,46.698\H,0,24.539,-14.002,45.871\H,0,21
 .076,-12.982,44.555\H,0,21.821,-14.427,43.699\H,0,21.954,-12.841,43.03
 6\\Version=ES64L-G16RevA.03\State=1-A\HF=-3007.161669\RMSD=3.251e-09\P
 G=C01 [X(C55H74Mg1N4O6)]\\@


 A politician is a person who can make waves and then
 make you think he's the only one who can save the ship.
 -- Ivern Ball
 Job cpu time:       0 days 14 hours  5 minutes 29.3 seconds.
 Elapsed time:       0 days  0 hours 35 minutes 44.1 seconds.
 File lengths (MBytes):  RWF=   8929 Int=      0 D2E=      0 Chk=    390 Scr=      1
 Normal termination of Gaussian 16 at Thu May  5 13:43:23 2022.
