 Entering Gaussian System, Link 0=g16
 Initial command:
 /sw/apps/gaussian-16.0/g16/l1.exe "/tmp/Gau-16707.inp" -scrdir="/tmp/"
 Entering Link 1 = /sw/apps/gaussian-16.0/g16/l1.exe PID=     16708.
  
 Copyright (c) 1988,1990,1992,1993,1995,1998,2003,2009,2016,
            Gaussian, Inc.  All Rights Reserved.
  
 This is part of the Gaussian(R) 16 program.  It is based on
 the Gaussian(R) 09 system (copyright 2009, Gaussian, Inc.),
 the Gaussian(R) 03 system (copyright 2003, Gaussian, Inc.),
 the Gaussian(R) 98 system (copyright 1998, Gaussian, Inc.),
 the Gaussian(R) 94 system (copyright 1995, Gaussian, Inc.),
 the Gaussian 92(TM) system (copyright 1992, Gaussian, Inc.),
 the Gaussian 90(TM) system (copyright 1990, Gaussian, Inc.),
 the Gaussian 88(TM) system (copyright 1988, Gaussian, Inc.),
 the Gaussian 86(TM) system (copyright 1986, Carnegie Mellon
 University), and the Gaussian 82(TM) system (copyright 1983,
 Carnegie Mellon University). Gaussian is a federally registered
 trademark of Gaussian, Inc.
  
 This software contains proprietary and confidential information,
 including trade secrets, belonging to Gaussian, Inc.
  
 This software is provided under written license and may be
 used, copied, transmitted, or stored only in accord with that
 written license.
  
 The following legend is applicable only to US Government
 contracts under FAR:
  
                    RESTRICTED RIGHTS LEGEND
  
 Use, reproduction and disclosure by the US Government is
 subject to restrictions as set forth in subparagraphs (a)
 and (c) of the Commercial Computer Software - Restricted
 Rights clause in FAR 52.227-19.
  
 Gaussian, Inc.
 340 Quinnipiac St., Bldg. 40, Wallingford CT 06492
  
  
 ---------------------------------------------------------------
 Warning -- This program may not be used in any manner that
 competes with the business of Gaussian, Inc. or will provide
 assistance to any competitor of Gaussian, Inc.  The licensee
 of this program is prohibited from giving any competitor of
 Gaussian, Inc. access to this program.  By using this program,
 the user acknowledges that Gaussian, Inc. is engaged in the
 business of creating and licensing software in the field of
 computational chemistry and represents and warrants to the
 licensee that it is not a competitor of Gaussian, Inc. and that
 it will not use this program in any manner prohibited above.
 ---------------------------------------------------------------
  

 Cite this work as:
 Gaussian 16, Revision A.03,
 M. J. Frisch, G. W. Trucks, H. B. Schlegel, G. E. Scuseria, 
 M. A. Robb, J. R. Cheeseman, G. Scalmani, V. Barone, 
 G. A. Petersson, H. Nakatsuji, X. Li, M. Caricato, A. V. Marenich, 
 J. Bloino, B. G. Janesko, R. Gomperts, B. Mennucci, H. P. Hratchian, 
 J. V. Ortiz, A. F. Izmaylov, J. L. Sonnenberg, D. Williams-Young, 
 F. Ding, F. Lipparini, F. Egidi, J. Goings, B. Peng, A. Petrone, 
 T. Henderson, D. Ranasinghe, V. G. Zakrzewski, J. Gao, N. Rega, 
 G. Zheng, W. Liang, M. Hada, M. Ehara, K. Toyota, R. Fukuda, 
 J. Hasegawa, M. Ishida, T. Nakajima, Y. Honda, O. Kitao, H. Nakai, 
 T. Vreven, K. Throssell, J. A. Montgomery, Jr., J. E. Peralta, 
 F. Ogliaro, M. J. Bearpark, J. J. Heyd, E. N. Brothers, K. N. Kudin, 
 V. N. Staroverov, T. A. Keith, R. Kobayashi, J. Normand, 
 K. Raghavachari, A. P. Rendell, J. C. Burant, S. S. Iyengar, 
 J. Tomasi, M. Cossi, J. M. Millam, M. Klene, C. Adamo, R. Cammi, 
 J. W. Ochterski, R. L. Martin, K. Morokuma, O. Farkas, 
 J. B. Foresman, and D. J. Fox, Gaussian, Inc., Wallingford CT, 2016.
 
 ******************************************
 Gaussian 16:  ES64L-G16RevA.03 25-Dec-2016
                27-Apr-2022 
 ******************************************
 %nproc=24
 Will use up to   24 processors via shared memory.
 %mem=75GB
 ------------------------------
 #p blyp/Def2SVP td=(nstates=5)
 ------------------------------
 1/38=1,172=1/1;
 2/12=2,17=6,18=5,40=1/2;
 3/5=43,7=101,11=9,25=1,30=1,74=402/1,2,3,8;
 4//1;
 5/5=2,38=5/2;
 8/6=1,10=1,108=5/1;
 9/41=5,42=1,70=2/14;
 6/7=2,8=2,9=2,10=2/1;
 99/5=1,9=1/99;
 Leave Link    1 at Wed Apr 27 03:52:48 2022, MaxMem= 10066329600 cpu:               1.0 elap:               0.0
 (Enter /sw/apps/gaussian-16.0/g16/l101.exe)
 --------------------------------------------------
 step_1051_chromophore_2 TDDFT with blyp functional
 --------------------------------------------------
 Symbolic Z-matrix:
 Charge =  0 Multiplicity = 1
 Mg                    3.489     0.699     44.223 
 C                     6.429     2.769     43.972 
 C                     1.734     3.313     42.794 
 C                     0.845    -1.349     43.949 
 C                     5.477    -1.836     45.381 
 N                     4.042     2.732     43.487 
 C                     5.279     3.311     43.405 
 C                     5.254     4.74      42.782 
 C                     3.67      5.007     42.797 
 C                     3.068     3.588     43.047 
 C                     3.077     6.033     43.869 
 C                     5.962     4.998     41.433 
 C                     6.428     3.793     40.588 
 C                     6.477     3.893     39.069 
 O                     6.29      4.915     38.404 
 O                     6.722     2.614     38.436 
 N                     1.553     0.936     43.382 
 C                     1.061     2.136     42.926 
 C                    -0.316     1.836     42.535 
 C                    -0.633     0.534     42.814 
 C                     0.623    -0.037     43.376 
 C                    -1.259     2.928     41.985 
 C                    -1.959    -0.142     42.606 
 O                    -2.936     0.494     42.165 
 C                    -2.171    -1.569     42.9 
 N                     3.189    -1.326     44.501 
 C                     1.975    -1.922     44.536 
 C                     2.114    -3.444     44.879 
 C                     3.593    -3.479     45.512 
 C                     4.153    -2.199     44.951 
 C                     1.013    -4.178     45.757 
 C                     4.403    -4.75      45.158 
 C                     4.398    -5.898     46.152 
 N                     5.465     0.473     44.745 
 C                     6.13     -0.614     45.252 
 C                     7.497    -0.183     45.574 
 C                     7.658     1.144     45.131 
 C                     6.409     1.478     44.581 
 C                     8.509    -1.06      46.208 
 C                     8.603     2.213     44.984 
 O                     9.75      2.292     45.371 
 C                     7.774     3.335     44.212 
 C                     7.885     4.576     44.987 
 O                     8.868     5.337     44.883 
 O                     6.747     4.807     45.756 
 C                     6.638     6.109     46.444 
 C                     6.637     2.58      36.958 
 C                     5.306     2.089     36.343 
 C                     5.107     1.378     35.227 
 C                     6.17      1.05      34.194 
 C                     3.705     0.905     34.791 
 C                     2.868     2.015     34.06 
 C                     2.395     1.647     32.6 
 C                     0.888     1.438     32.591 
 C                     0.451     0.211     31.848 
 C                     0.236     2.664     31.833 
 C                    -0.438     3.726     32.696 
 C                    -1.812     4.266     31.986 
 C                    -1.567     4.569     30.496 
 C                    -2.045     6.032     30.22 
 C                    -2.328     3.561     29.528 
 C                    -1.481     2.998     28.298 
 C                    -1.638     3.679     26.917 
 C                    -2.319     2.831     25.883 
 C                    -1.666     3.165     24.536 
 C                    -3.842     3.09      25.814 
 H                     1.161     4.174     42.443 
 H                    -0.052    -1.935     44.161 
 H                     6.216    -2.575     45.697 
 H                     5.762     5.43      43.458 
 H                     3.335     5.4       41.838 
 H                     2.309     6.63      43.378 
 H                     3.83      6.742     44.213 
 H                     2.609     5.592     44.749 
 H                     6.739     5.642     41.844 
 H                     5.427     5.674     40.765 
 H                     5.762     2.965     40.83 
 H                     7.385     3.416     40.948 
 H                    -2.121     2.638     41.384 
 H                    -0.658     3.702     41.507 
 H                    -1.833     3.359     42.805 
 H                    -1.995    -1.754     43.96 
 H                    -1.545    -2.236     42.306 
 H                    -3.152    -1.96      42.631 
 H                     2.166    -3.983     43.932 
 H                     3.615    -3.285     46.584 
 H                     0.555    -4.952     45.142 
 H                     0.255    -3.445     46.032 
 H                     1.606    -4.583     46.577 
 H                     5.431    -4.514     44.882 
 H                     3.979    -5.143     44.234 
 H                     4.057    -6.812     45.666 
 H                     3.703    -5.684     46.964 
 H                     5.381    -6.064     46.592 
 H                     8.413    -1.019     47.293 
 H                     9.454    -0.53      46.087 
 H                     8.601    -2.038     45.736 
 H                     8.372     3.404     43.304 
 H                     5.6       6.419     46.325 
 H                     7.243     6.896     45.993 
 H                     6.975     5.849     47.447 
 H                     7.512     2.033     36.606 
 H                     7.037     3.512     36.559 
 H                     4.427     2.118     36.988 
 H                     7.096     1.558     34.465 
 H                     5.789     1.432     33.247 
 H                     6.372    -0.008     34.024 
 H                     3.161     0.6       35.685 
 H                     3.7      -0.067     34.297 
 H                     3.427     2.951     34.102 
 H                     2.051     2.158     34.767 
 H                     2.915     0.723     32.347 
 H                     2.791     2.472     32.007 
 H                     0.507     1.329     33.607 
 H                     0.757     0.374     30.815 
 H                    -0.63      0.084     31.799 
 H                     0.924    -0.692     32.235 
 H                    -0.617     2.287     31.27 
 H                     0.894     3.187     31.139 
 H                     0.254     4.552     32.858 
 H                    -0.524     3.326     33.706 
 H                    -2.055     5.178     32.531 
 H                    -2.506     3.47      32.255 
 H                    -0.516     4.753     30.271 
 H                    -1.681     6.761     30.944 
 H                    -3.134     5.975     30.218 
 H                    -1.681     6.351     29.244 
 H                    -3.148     4.106     29.061 
 H                    -2.794     2.762     30.104 
 H                    -1.654     1.921     28.295 
 H                    -0.426     3.185     28.494 
 H                    -0.636     3.946     26.58 
 H                    -2.211     4.605     26.96 
 H                    -2.11      1.774     26.052 
 H                    -0.846     2.45      24.462 
 H                    -1.217     4.149     24.404 
 H                    -2.277     2.909     23.671 
 H                    -4.288     2.097     25.765 
 H                    -4.138     3.643     24.923 
 H                    -4.121     3.57      26.751 
 
 ITRead=  0  0  0  0  0  0  0  0  0  0  0  0  0  0  0  0  0  0  0  0
 ITRead=  0  0  0  0  0  0  0  0  0  0  0  0  0  0  0  0  0  0  0  0
 ITRead=  0  0  0  0  0  0  0  0  0  0  0  0  0  0  0  0  0  0  0  0
 ITRead=  0  0  0  0  0  0  0  0  0  0  0  0  0  0  0  0  0  0  0  0
 ITRead=  0  0  0  0  0  0  0  0  0  0  0  0  0  0  0  0  0  0  0  0
 ITRead=  0  0  0  0  0  0  0  0  0  0  0  0  0  0  0  0  0  0  0  0
 ITRead=  0  0  0  0  0  0  0  0  0  0  0  0  0  0  0  0  0  0  0  0
 MicOpt= -1 -1 -1 -1 -1 -1 -1 -1 -1 -1 -1 -1 -1 -1 -1 -1 -1 -1 -1 -1
 MicOpt= -1 -1 -1 -1 -1 -1 -1 -1 -1 -1 -1 -1 -1 -1 -1 -1 -1 -1 -1 -1
 MicOpt= -1 -1 -1 -1 -1 -1 -1 -1 -1 -1 -1 -1 -1 -1 -1 -1 -1 -1 -1 -1
 MicOpt= -1 -1 -1 -1 -1 -1 -1 -1 -1 -1 -1 -1 -1 -1 -1 -1 -1 -1 -1 -1
 MicOpt= -1 -1 -1 -1 -1 -1 -1 -1 -1 -1 -1 -1 -1 -1 -1 -1 -1 -1 -1 -1
 MicOpt= -1 -1 -1 -1 -1 -1 -1 -1 -1 -1 -1 -1 -1 -1 -1 -1 -1 -1 -1 -1
 MicOpt= -1 -1 -1 -1 -1 -1 -1 -1 -1 -1 -1 -1 -1 -1 -1 -1 -1 -1 -1 -1
 NAtoms=    140 NQM=      140 NQMF=       0 NMMI=      0 NMMIF=      0
                NMic=       0 NMicF=      0.
                    Isotopes and Nuclear Properties:
 (Nuclear quadrupole moments (NQMom) in fm**2, nuclear magnetic moments (NMagM)
  in nuclear magnetons)

  Atom         1           2           3           4           5           6           7           8           9          10
 IAtWgt=          24          12          12          12          12          14          12          12          12          12
 AtmWgt=  23.9850450  12.0000000  12.0000000  12.0000000  12.0000000  14.0030740  12.0000000  12.0000000  12.0000000  12.0000000
 NucSpn=           0           0           0           0           0           2           0           0           0           0
 AtZEff=  -0.0000000  -0.0000000  -0.0000000  -0.0000000  -0.0000000  -0.0000000  -0.0000000  -0.0000000  -0.0000000  -0.0000000
 NQMom=    0.0000000   0.0000000   0.0000000   0.0000000   0.0000000   2.0440000   0.0000000   0.0000000   0.0000000   0.0000000
 NMagM=    0.0000000   0.0000000   0.0000000   0.0000000   0.0000000   0.4037610   0.0000000   0.0000000   0.0000000   0.0000000
 AtZNuc=  12.0000000   6.0000000   6.0000000   6.0000000   6.0000000   7.0000000   6.0000000   6.0000000   6.0000000   6.0000000

  Atom        11          12          13          14          15          16          17          18          19          20
 IAtWgt=          12          12          12          12          16          16          14          12          12          12
 AtmWgt=  12.0000000  12.0000000  12.0000000  12.0000000  15.9949146  15.9949146  14.0030740  12.0000000  12.0000000  12.0000000
 NucSpn=           0           0           0           0           0           0           2           0           0           0
 AtZEff=  -0.0000000  -0.0000000  -0.0000000  -0.0000000  -0.0000000  -0.0000000  -0.0000000  -0.0000000  -0.0000000  -0.0000000
 NQMom=    0.0000000   0.0000000   0.0000000   0.0000000   0.0000000   0.0000000   2.0440000   0.0000000   0.0000000   0.0000000
 NMagM=    0.0000000   0.0000000   0.0000000   0.0000000   0.0000000   0.0000000   0.4037610   0.0000000   0.0000000   0.0000000
 AtZNuc=   6.0000000   6.0000000   6.0000000   6.0000000   8.0000000   8.0000000   7.0000000   6.0000000   6.0000000   6.0000000

  Atom        21          22          23          24          25          26          27          28          29          30
 IAtWgt=          12          12          12          16          12          14          12          12          12          12
 AtmWgt=  12.0000000  12.0000000  12.0000000  15.9949146  12.0000000  14.0030740  12.0000000  12.0000000  12.0000000  12.0000000
 NucSpn=           0           0           0           0           0           2           0           0           0           0
 AtZEff=  -0.0000000  -0.0000000  -0.0000000  -0.0000000  -0.0000000  -0.0000000  -0.0000000  -0.0000000  -0.0000000  -0.0000000
 NQMom=    0.0000000   0.0000000   0.0000000   0.0000000   0.0000000   2.0440000   0.0000000   0.0000000   0.0000000   0.0000000
 NMagM=    0.0000000   0.0000000   0.0000000   0.0000000   0.0000000   0.4037610   0.0000000   0.0000000   0.0000000   0.0000000
 AtZNuc=   6.0000000   6.0000000   6.0000000   8.0000000   6.0000000   7.0000000   6.0000000   6.0000000   6.0000000   6.0000000

  Atom        31          32          33          34          35          36          37          38          39          40
 IAtWgt=          12          12          12          14          12          12          12          12          12          12
 AtmWgt=  12.0000000  12.0000000  12.0000000  14.0030740  12.0000000  12.0000000  12.0000000  12.0000000  12.0000000  12.0000000
 NucSpn=           0           0           0           2           0           0           0           0           0           0
 AtZEff=  -0.0000000  -0.0000000  -0.0000000  -0.0000000  -0.0000000  -0.0000000  -0.0000000  -0.0000000  -0.0000000  -0.0000000
 NQMom=    0.0000000   0.0000000   0.0000000   2.0440000   0.0000000   0.0000000   0.0000000   0.0000000   0.0000000   0.0000000
 NMagM=    0.0000000   0.0000000   0.0000000   0.4037610   0.0000000   0.0000000   0.0000000   0.0000000   0.0000000   0.0000000
 AtZNuc=   6.0000000   6.0000000   6.0000000   7.0000000   6.0000000   6.0000000   6.0000000   6.0000000   6.0000000   6.0000000

  Atom        41          42          43          44          45          46          47          48          49          50
 IAtWgt=          16          12          12          16          16          12          12          12          12          12
 AtmWgt=  15.9949146  12.0000000  12.0000000  15.9949146  15.9949146  12.0000000  12.0000000  12.0000000  12.0000000  12.0000000
 NucSpn=           0           0           0           0           0           0           0           0           0           0
 AtZEff=  -0.0000000  -0.0000000  -0.0000000  -0.0000000  -0.0000000  -0.0000000  -0.0000000  -0.0000000  -0.0000000  -0.0000000
 NQMom=    0.0000000   0.0000000   0.0000000   0.0000000   0.0000000   0.0000000   0.0000000   0.0000000   0.0000000   0.0000000
 NMagM=    0.0000000   0.0000000   0.0000000   0.0000000   0.0000000   0.0000000   0.0000000   0.0000000   0.0000000   0.0000000
 AtZNuc=   8.0000000   6.0000000   6.0000000   8.0000000   8.0000000   6.0000000   6.0000000   6.0000000   6.0000000   6.0000000

  Atom        51          52          53          54          55          56          57          58          59          60
 IAtWgt=          12          12          12          12          12          12          12          12          12          12
 AtmWgt=  12.0000000  12.0000000  12.0000000  12.0000000  12.0000000  12.0000000  12.0000000  12.0000000  12.0000000  12.0000000
 NucSpn=           0           0           0           0           0           0           0           0           0           0
 AtZEff=  -0.0000000  -0.0000000  -0.0000000  -0.0000000  -0.0000000  -0.0000000  -0.0000000  -0.0000000  -0.0000000  -0.0000000
 NQMom=    0.0000000   0.0000000   0.0000000   0.0000000   0.0000000   0.0000000   0.0000000   0.0000000   0.0000000   0.0000000
 NMagM=    0.0000000   0.0000000   0.0000000   0.0000000   0.0000000   0.0000000   0.0000000   0.0000000   0.0000000   0.0000000
 AtZNuc=   6.0000000   6.0000000   6.0000000   6.0000000   6.0000000   6.0000000   6.0000000   6.0000000   6.0000000   6.0000000

  Atom        61          62          63          64          65          66          67          68          69          70
 IAtWgt=          12          12          12          12          12          12           1           1           1           1
 AtmWgt=  12.0000000  12.0000000  12.0000000  12.0000000  12.0000000  12.0000000   1.0078250   1.0078250   1.0078250   1.0078250
 NucSpn=           0           0           0           0           0           0           1           1           1           1
 AtZEff=  -0.0000000  -0.0000000  -0.0000000  -0.0000000  -0.0000000  -0.0000000  -0.0000000  -0.0000000  -0.0000000  -0.0000000
 NQMom=    0.0000000   0.0000000   0.0000000   0.0000000   0.0000000   0.0000000   0.0000000   0.0000000   0.0000000   0.0000000
 NMagM=    0.0000000   0.0000000   0.0000000   0.0000000   0.0000000   0.0000000   2.7928460   2.7928460   2.7928460   2.7928460
 AtZNuc=   6.0000000   6.0000000   6.0000000   6.0000000   6.0000000   6.0000000   1.0000000   1.0000000   1.0000000   1.0000000

  Atom        71          72          73          74          75          76          77          78          79          80
 IAtWgt=           1           1           1           1           1           1           1           1           1           1
 AtmWgt=   1.0078250   1.0078250   1.0078250   1.0078250   1.0078250   1.0078250   1.0078250   1.0078250   1.0078250   1.0078250
 NucSpn=           1           1           1           1           1           1           1           1           1           1
 AtZEff=  -0.0000000  -0.0000000  -0.0000000  -0.0000000  -0.0000000  -0.0000000  -0.0000000  -0.0000000  -0.0000000  -0.0000000
 NQMom=    0.0000000   0.0000000   0.0000000   0.0000000   0.0000000   0.0000000   0.0000000   0.0000000   0.0000000   0.0000000
 NMagM=    2.7928460   2.7928460   2.7928460   2.7928460   2.7928460   2.7928460   2.7928460   2.7928460   2.7928460   2.7928460
 AtZNuc=   1.0000000   1.0000000   1.0000000   1.0000000   1.0000000   1.0000000   1.0000000   1.0000000   1.0000000   1.0000000

  Atom        81          82          83          84          85          86          87          88          89          90
 IAtWgt=           1           1           1           1           1           1           1           1           1           1
 AtmWgt=   1.0078250   1.0078250   1.0078250   1.0078250   1.0078250   1.0078250   1.0078250   1.0078250   1.0078250   1.0078250
 NucSpn=           1           1           1           1           1           1           1           1           1           1
 AtZEff=  -0.0000000  -0.0000000  -0.0000000  -0.0000000  -0.0000000  -0.0000000  -0.0000000  -0.0000000  -0.0000000  -0.0000000
 NQMom=    0.0000000   0.0000000   0.0000000   0.0000000   0.0000000   0.0000000   0.0000000   0.0000000   0.0000000   0.0000000
 NMagM=    2.7928460   2.7928460   2.7928460   2.7928460   2.7928460   2.7928460   2.7928460   2.7928460   2.7928460   2.7928460
 AtZNuc=   1.0000000   1.0000000   1.0000000   1.0000000   1.0000000   1.0000000   1.0000000   1.0000000   1.0000000   1.0000000

  Atom        91          92          93          94          95          96          97          98          99         100
 IAtWgt=           1           1           1           1           1           1           1           1           1           1
 AtmWgt=   1.0078250   1.0078250   1.0078250   1.0078250   1.0078250   1.0078250   1.0078250   1.0078250   1.0078250   1.0078250
 NucSpn=           1           1           1           1           1           1           1           1           1           1
 AtZEff=  -0.0000000  -0.0000000  -0.0000000  -0.0000000  -0.0000000  -0.0000000  -0.0000000  -0.0000000  -0.0000000  -0.0000000
 NQMom=    0.0000000   0.0000000   0.0000000   0.0000000   0.0000000   0.0000000   0.0000000   0.0000000   0.0000000   0.0000000
 NMagM=    2.7928460   2.7928460   2.7928460   2.7928460   2.7928460   2.7928460   2.7928460   2.7928460   2.7928460   2.7928460
 AtZNuc=   1.0000000   1.0000000   1.0000000   1.0000000   1.0000000   1.0000000   1.0000000   1.0000000   1.0000000   1.0000000

  Atom       101         102         103         104         105         106         107         108         109         110
 IAtWgt=           1           1           1           1           1           1           1           1           1           1
 AtmWgt=   1.0078250   1.0078250   1.0078250   1.0078250   1.0078250   1.0078250   1.0078250   1.0078250   1.0078250   1.0078250
 NucSpn=           1           1           1           1           1           1           1           1           1           1
 AtZEff=  -0.0000000  -0.0000000  -0.0000000  -0.0000000  -0.0000000  -0.0000000  -0.0000000  -0.0000000  -0.0000000  -0.0000000
 NQMom=    0.0000000   0.0000000   0.0000000   0.0000000   0.0000000   0.0000000   0.0000000   0.0000000   0.0000000   0.0000000
 NMagM=    2.7928460   2.7928460   2.7928460   2.7928460   2.7928460   2.7928460   2.7928460   2.7928460   2.7928460   2.7928460
 AtZNuc=   1.0000000   1.0000000   1.0000000   1.0000000   1.0000000   1.0000000   1.0000000   1.0000000   1.0000000   1.0000000

  Atom       111         112         113         114         115         116         117         118         119         120
 IAtWgt=           1           1           1           1           1           1           1           1           1           1
 AtmWgt=   1.0078250   1.0078250   1.0078250   1.0078250   1.0078250   1.0078250   1.0078250   1.0078250   1.0078250   1.0078250
 NucSpn=           1           1           1           1           1           1           1           1           1           1
 AtZEff=  -0.0000000  -0.0000000  -0.0000000  -0.0000000  -0.0000000  -0.0000000  -0.0000000  -0.0000000  -0.0000000  -0.0000000
 NQMom=    0.0000000   0.0000000   0.0000000   0.0000000   0.0000000   0.0000000   0.0000000   0.0000000   0.0000000   0.0000000
 NMagM=    2.7928460   2.7928460   2.7928460   2.7928460   2.7928460   2.7928460   2.7928460   2.7928460   2.7928460   2.7928460
 AtZNuc=   1.0000000   1.0000000   1.0000000   1.0000000   1.0000000   1.0000000   1.0000000   1.0000000   1.0000000   1.0000000

  Atom       121         122         123         124         125         126         127         128         129         130
 IAtWgt=           1           1           1           1           1           1           1           1           1           1
 AtmWgt=   1.0078250   1.0078250   1.0078250   1.0078250   1.0078250   1.0078250   1.0078250   1.0078250   1.0078250   1.0078250
 NucSpn=           1           1           1           1           1           1           1           1           1           1
 AtZEff=  -0.0000000  -0.0000000  -0.0000000  -0.0000000  -0.0000000  -0.0000000  -0.0000000  -0.0000000  -0.0000000  -0.0000000
 NQMom=    0.0000000   0.0000000   0.0000000   0.0000000   0.0000000   0.0000000   0.0000000   0.0000000   0.0000000   0.0000000
 NMagM=    2.7928460   2.7928460   2.7928460   2.7928460   2.7928460   2.7928460   2.7928460   2.7928460   2.7928460   2.7928460
 AtZNuc=   1.0000000   1.0000000   1.0000000   1.0000000   1.0000000   1.0000000   1.0000000   1.0000000   1.0000000   1.0000000

  Atom       131         132         133         134         135         136         137         138         139         140
 IAtWgt=           1           1           1           1           1           1           1           1           1           1
 AtmWgt=   1.0078250   1.0078250   1.0078250   1.0078250   1.0078250   1.0078250   1.0078250   1.0078250   1.0078250   1.0078250
 NucSpn=           1           1           1           1           1           1           1           1           1           1
 AtZEff=  -0.0000000  -0.0000000  -0.0000000  -0.0000000  -0.0000000  -0.0000000  -0.0000000  -0.0000000  -0.0000000  -0.0000000
 NQMom=    0.0000000   0.0000000   0.0000000   0.0000000   0.0000000   0.0000000   0.0000000   0.0000000   0.0000000   0.0000000
 NMagM=    2.7928460   2.7928460   2.7928460   2.7928460   2.7928460   2.7928460   2.7928460   2.7928460   2.7928460   2.7928460
 AtZNuc=   1.0000000   1.0000000   1.0000000   1.0000000   1.0000000   1.0000000   1.0000000   1.0000000   1.0000000   1.0000000
 Leave Link  101 at Wed Apr 27 03:52:48 2022, MaxMem= 10066329600 cpu:               3.5 elap:               0.2
 (Enter /sw/apps/gaussian-16.0/g16/l202.exe)
 Stoichiometry    C55H74MgN4O6
 Framework group  C1[X(C55H74MgN4O6)]
 Deg. of freedom   414
 Full point group                 C1      NOp   1
 Largest Abelian subgroup         C1      NOp   1
 Largest concise Abelian subgroup C1      NOp   1
                         Standard orientation:                         
 ---------------------------------------------------------------------
 Center     Atomic      Atomic             Coordinates (Angstroms)
 Number     Number       Type             X           Y           Z
 ---------------------------------------------------------------------
      1         12           0       -4.485398    1.156453    0.510386
      2          6           0       -5.015053   -2.398680    0.242076
      3          6           0       -2.155709    0.452440    2.966394
      4          6           0       -3.575814    4.385715    0.442264
      5          6           0       -6.638107    1.589143   -2.116011
      6          7           0       -3.711802   -0.721595    1.435090
      7          6           0       -3.998805   -2.020561    1.115013
      8          6           0       -3.208335   -3.058139    1.969053
      9          6           0       -2.611443   -2.076268    3.091647
     10          6           0       -2.830480   -0.655839    2.481016
     11          6           0       -3.235787   -2.125518    4.561775
     12          6           0       -2.183851   -3.990008    1.283719
     13          6           0       -1.748754   -3.688789   -0.166509
     14          6           0       -0.352681   -4.066744   -0.643888
     15          8           0        0.475855   -4.725371   -0.010313
     16          8           0       -0.043822   -3.516981   -1.947315
     17          7           0       -2.977256    2.259150    1.520887
     18          6           0       -2.205264    1.743576    2.534895
     19          6           0       -1.391478    2.874607    2.979343
     20          6           0       -1.723139    4.015285    2.299351
     21          6           0       -2.777266    3.578075    1.341706
     22          6           0       -0.385743    2.742093    4.143452
     23          6           0       -1.150953    5.390395    2.499831
     24          8           0       -0.299582    5.603259    3.384909
     25          6           0       -1.552499    6.539667    1.671795
     26          7           0       -4.927291    2.761410   -0.713033
     27          6           0       -4.607767    4.046266   -0.435031
     28          6           0       -5.194982    5.011116   -1.520248
     29          6           0       -6.317176    4.070659   -2.187764
     30          6           0       -5.816683    2.715978   -1.762244
     31          6           0       -5.712840    6.457895   -1.119632
     32          6           0       -6.468161    4.253821   -3.717638
     33          6           0       -7.548734    5.195418   -4.219357
     34          7           0       -5.712535   -0.040689   -0.625009
     35          6           0       -6.577558    0.283458   -1.638669
     36          6           0       -7.305145   -0.939230   -2.004436
     37          6           0       -6.762457   -2.012450   -1.271778
     38          6           0       -5.756335   -1.421848   -0.488856
     39          6           0       -8.381942   -0.983566   -3.021181
     40          6           0       -6.812982   -3.433458   -1.083158
     41          8           0       -7.572138   -4.251710   -1.558305
     42          6           0       -5.639553   -3.709277   -0.039559
     43          6           0       -6.213275   -4.467789    1.077817
     44          8           0       -6.361867   -5.705548    1.032002
     45          8           0       -6.477201   -3.650320    2.174107
     46          6           0       -6.882488   -4.304437    3.434386
     47          6           0        1.343403   -3.701370   -2.431538
     48          6           0        2.319177   -2.518653   -2.231756
     49          6           0        3.315770   -2.107543   -3.024453
     50          6           0        3.835873   -2.854350   -4.239531
     51          6           0        4.154906   -0.852361   -2.708546
     52          6           0        5.291713   -1.106973   -1.655040
     53          6           0        6.753937   -0.784820   -2.153909
     54          6           0        7.275996    0.450477   -1.435364
     55          6           0        7.939982    1.443334   -2.341954
     56          6           0        8.387726   -0.020479   -0.413111
     57          6           0        7.990379   -0.072410    1.058727
     58          6           0        9.218941    0.444389    2.011161
     59          6           0       10.547017   -0.205129    1.579568
     60          6           0       11.186347   -0.871639    2.841332
     61          6           0       11.567059    0.838665    0.945360
     62          6           0       12.312486    0.368558   -0.385285
     63          6           0       13.740209   -0.217261   -0.266986
     64          6           0       14.815402    0.650655   -0.852395
     65          6           0       15.868941   -0.290864   -1.449029
     66          6           0       15.466484    1.578037    0.199947
     67          1           0       -1.500432    0.238626    3.813593
     68          1           0       -3.532340    5.464973    0.604321
     69          1           0       -7.303360    1.595058   -2.981748
     70          1           0       -3.914238   -3.760782    2.415297
     71          1           0       -1.550011   -2.265565    3.246192
     72          1           0       -2.419486   -2.048453    5.279429
     73          1           0       -3.721567   -3.079758    4.765419
     74          1           0       -3.941484   -1.333285    4.811303
     75          1           0       -2.749455   -4.906695    1.448533
     76          1           0       -1.277158   -4.167171    1.863328
     77          1           0       -1.851472   -2.612936   -0.306845
     78          1           0       -2.480670   -4.072623   -0.876825
     79          1           0        0.436990    3.452734    4.223732
     80          1           0       -0.050006    1.706340    4.200535
     81          1           0       -0.871239    3.025589    5.077026
     82          1           0       -2.619347    6.726108    1.797800
     83          1           0       -1.328239    6.415004    0.611716
     84          1           0       -1.007295    7.464094    1.860978
     85          1           0       -4.419710    5.156459   -2.273814
     86          1           0       -7.284424    4.121626   -1.688627
     87          1           0       -5.093382    7.190569   -1.635894
     88          1           0       -5.586003    6.577281   -0.043929
     89          1           0       -6.741129    6.441662   -1.480788
     90          1           0       -6.550817    3.298227   -4.235966
     91          1           0       -5.521001    4.654209   -4.078994
     92          1           0       -7.110686    5.958560   -4.862474
     93          1           0       -8.014692    5.708831   -3.378253
     94          1           0       -8.333083    4.668005   -4.761646
     95          1           0       -9.340782   -0.743262   -2.561832
     96          1           0       -8.534707   -2.044345   -3.221122
     97          1           0       -8.122427   -0.491462   -3.958314
     98          1           0       -5.009036   -4.356059   -0.648615
     99          1           0       -6.353056   -3.773507    4.225284
    100          1           0       -6.571178   -5.346771    3.508022
    101          1           0       -7.965854   -4.196317    3.391904
    102          1           0        1.272267   -4.042768   -3.464555
    103          1           0        1.701892   -4.680371   -2.113941
    104          1           0        2.046618   -1.779400   -1.477619
    105          1           0        3.325679   -3.815468   -4.309776
    106          1           0        4.901262   -3.000661   -4.062236
    107          1           0        3.765861   -2.334781   -5.195676
    108          1           0        3.483509   -0.091852   -2.309736
    109          1           0        4.470582   -0.297471   -3.592452
    110          1           0        5.187142   -2.124369   -1.275156
    111          1           0        4.956214   -0.476851   -0.831527
    112          1           0        6.665026   -0.600652   -3.224592
    113          1           0        7.277034   -1.725615   -1.979649
    114          1           0        6.461832    0.985021   -0.944755
    115          1           0        8.804729    0.924781   -2.755003
    116          1           0        8.356984    2.306582   -1.824263
    117          1           0        7.281549    1.764328   -3.149627
    118          1           0        9.159568    0.747890   -0.389148
    119          1           0        8.865395   -0.971539   -0.648583
    120          1           0        7.711270   -1.092430    1.321485
    121          1           0        7.032960    0.437824    1.161227
    122          1           0        8.937115    0.119219    3.012489
    123          1           0        9.106110    1.524467    1.919987
    124          1           0       10.401524   -1.133925    1.027071
    125          1           0       10.493887   -1.486253    3.416538
    126          1           0       11.573110   -0.040178    3.431468
    127          1           0       12.000305   -1.525017    2.529238
    128          1           0       12.372475    0.992317    1.663141
    129          1           0       11.088673    1.810271    0.825105
    130          1           0       12.221280    1.204526   -1.080055
    131          1           0       11.778177   -0.488566   -0.793037
    132          1           0       13.727634   -1.185432   -0.768331
    133          1           0       14.041991   -0.402288    0.763716
    134          1           0       14.430735    1.226113   -1.695230
    135          1           0       15.537179   -0.430784   -2.478328
    136          1           0       15.971341   -1.291339   -1.029689
    137          1           0       16.849171    0.166278   -1.580376
    138          1           0       15.528424    2.549341   -0.290050
    139          1           0       16.474436    1.267134    0.473223
    140          1           0       14.773815    1.635345    1.038479
 ---------------------------------------------------------------------
 Rotational constants (GHZ):           0.0386731           0.0110850           0.0100411
 Leave Link  202 at Wed Apr 27 03:52:48 2022, MaxMem= 10066329600 cpu:               0.2 elap:               0.0
 (Enter /sw/apps/gaussian-16.0/g16/l301.exe)
 Standard basis: def2SVP (5D, 7F)
 Ernie: Thresh=  0.10000D-02 Tol=  0.10000D-05 Strict=F.
 There are  1364 symmetry adapted cartesian basis functions of A   symmetry.
 There are  1298 symmetry adapted basis functions of A   symmetry.
  1298 basis functions,  2180 primitive gaussians,  1364 cartesian basis functions
   246 alpha electrons      246 beta electrons
       nuclear repulsion energy      9629.4101429956 Hartrees.
 IExCor=  402 DFT=T Ex=B Corr=LYP ExCW=0 ScaHFX=  0.000000
 ScaDFX=  1.000000  1.000000  1.000000  1.000000 ScalE2=  1.000000  1.000000
 IRadAn=      5 IRanWt=     -1 IRanGd=            0 ICorTp=0 IEmpDi=  4
 NAtoms=  140 NActive=  140 NUniq=  140 SFac= 1.00D+00 NAtFMM=   60 NAOKFM=T Big=T
 Integral buffers will be    131072 words long.
 Regular integral format.
 Two-electron integral symmetry is turned on.
 Leave Link  301 at Wed Apr 27 03:52:48 2022, MaxMem= 10066329600 cpu:               1.3 elap:               0.1
 (Enter /sw/apps/gaussian-16.0/g16/l302.exe)
 NPDir=0 NMtPBC=     1 NCelOv=     1 NCel=       1 NClECP=     1 NCelD=      1
         NCelK=      1 NCelE2=     1 NClLst=     1 CellRange=     0.0.
 One-electron integrals computed using PRISM.
 One-electron integral symmetry used in STVInt
   1 Symmetry operations used in ECPInt.
 ECPInt:  NShTT=  192510 NPrTT=  683786 LenC2=   97616 LenP2D=  211362.
 LDataN:  DoStor=T MaxTD1= 4 Len=   56
 NBasis=  1298 RedAO= T EigKep=  2.85D-04  NBF=  1298
 NBsUse=  1298 1.00D-06 EigRej= -1.00D+00 NBFU=  1298
 Precomputing XC quadrature grid using
 IXCGrd= 4 IRadAn=           5 IRanWt=          -1 IRanGd=           0 AccXCQ= 0.00D+00.
 Generated NRdTot=       0 NPtTot=           0 NUsed=           0 NTot=          32
 NSgBfM=  1141  1124  1131  1132  1141 MxSgAt=   140 MxSgA2=   140.
 Leave Link  302 at Wed Apr 27 03:52:52 2022, MaxMem= 10066329600 cpu:              89.0 elap:               3.8
 (Enter /sw/apps/gaussian-16.0/g16/l303.exe)
 DipDrv:  MaxL=1.
 Leave Link  303 at Wed Apr 27 03:52:53 2022, MaxMem= 10066329600 cpu:               7.8 elap:               0.4
 (Enter /sw/apps/gaussian-16.0/g16/l308.exe)
 Leave Link  308 at Wed Apr 27 03:52:53 2022, MaxMem= 10066329600 cpu:               9.3 elap:               0.5
 (Enter /sw/apps/gaussian-16.0/g16/l401.exe)
 ExpMin= 3.36D-02 ExpMax= 4.95D+03 ExpMxC= 7.45D+02 IAcc=3 IRadAn=         5 AccDes= 0.00D+00
 Harris functional with IExCor=  402 and IRadAn=       5 diagonalized for initial guess.
 HarFok:  IExCor=  402 AccDes= 0.00D+00 IRadAn=         5 IDoV= 1 UseB2=F ITyADJ=14
 ICtDFT=  3500011 ScaDFX=  1.000000  1.000000  1.000000  1.000000
 FoFCou: FMM=F IPFlag=           0 FMFlag=      100000 FMFlg1=        2001
         NFxFlg=           0 DoJE=T BraDBF=F KetDBF=T FulRan=T
         wScrn=  0.000000 ICntrl=       500 IOpCl=  0 I1Cent=   200000004 NGrid=           0
         NMat0=    1 NMatS0=      1 NMatT0=    0 NMatD0=    1 NMtDS0=    0 NMtDT0=    0
 Petite list used in FoFCou.
 Harris En= -3008.76147143770    
 JPrj=0 DoOrth=F DoCkMO=F.
 Leave Link  401 at Wed Apr 27 03:52:59 2022, MaxMem= 10066329600 cpu:             143.7 elap:               6.0
 (Enter /sw/apps/gaussian-16.0/g16/l502.exe)
 Integral symmetry usage will be decided dynamically.
 Closed shell SCF:
 Using DIIS extrapolation, IDIIS=  1040.
 NGot= 10066329600 LenX= 10062561258 LenY= 10060699398
 Requested convergence on RMS density matrix=1.00D-08 within 128 cycles.
 Requested convergence on MAX density matrix=1.00D-06.
 Requested convergence on             energy=1.00D-06.
 No special actions if energy rises.
 Fock matrices will be formed incrementally for  20 cycles.

 Cycle   1  Pass 1  IDiag  1:
 FoFJK:  IHMeth= 1 ICntrl=     500 DoSepK=F KAlg= 0 I1Cent=           0 FoldK=F
 IRaf= 520000000 NMat=       1 IRICut=       1 DoRegI=T DoRafI=F ISym2E= 0 IDoP0=0 IntGTp=1.
 FoFCou: FMM=T IPFlag=           0 FMFlag=      100000 FMFlg1=        2001
         NFxFlg=           0 DoJE=T BraDBF=F KetDBF=F FulRan=T
         wScrn=  0.000000 ICntrl=       500 IOpCl=  0 I1Cent=           0 NGrid=           0
         NMat0=    1 NMatS0=      1 NMatT0=    0 NMatD0=    1 NMtDS0=    0 NMtDT0=    0
 Symmetry not used in FoFCou.
 FMM levels:  10  Number of levels for PrismC:   9
 E= -3005.66786669390    
 DIIS: error= 2.59D-02 at cycle   1 NSaved=   1.
 NSaved= 1 IEnMin= 1 EnMin= -3005.66786669390     IErMin= 1 ErrMin= 2.59D-02
 ErrMax= 2.59D-02  0.00D+00 EMaxC= 1.00D-01 BMatC= 1.55D+00 BMatP= 1.55D+00
 IDIUse=3 WtCom= 7.41D-01 WtEn= 2.59D-01
 Coeff-Com:  0.100D+01
 Coeff-En:   0.100D+01
 Coeff:      0.100D+01
 Gap=     0.060 Goal=   None    Shift=    0.000
 GapD=    0.060 DampG=0.500 DampE=0.500 DampFc=0.2500 IDamp=-1.
 Damping current iteration by 2.50D-01
 RMSDP=3.86D-03 MaxDP=9.92D-01              OVMax= 9.80D-01

 Cycle   2  Pass 1  IDiag  1:
 RMSU=  9.60D-04    CP:  9.90D-01
 E= -3006.14192154939     Delta-E=       -0.474054855495 Rises=F Damp=T
 DIIS: error= 9.35D-03 at cycle   2 NSaved=   2.
 NSaved= 2 IEnMin= 2 EnMin= -3006.14192154939     IErMin= 2 ErrMin= 9.35D-03
 ErrMax= 9.35D-03  0.00D+00 EMaxC= 1.00D-01 BMatC= 2.66D-01 BMatP= 1.55D+00
 IDIUse=3 WtCom= 9.06D-01 WtEn= 9.35D-02
 Coeff-Com: -0.245D+00 0.124D+01
 Coeff-En:   0.132D+00 0.868D+00
 Coeff:     -0.209D+00 0.121D+01
 Gap=     0.161 Goal=   None    Shift=    0.000
 RMSDP=1.69D-03 MaxDP=1.90D-01 DE=-4.74D-01 OVMax= 5.68D-01

 Cycle   3  Pass 1  IDiag  1:
 RMSU=  1.66D-03    CP:  9.64D-01  1.23D+00
 E= -3004.87430291506     Delta-E=        1.267618634334 Rises=F Damp=F
 DIIS: error= 6.96D-02 at cycle   3 NSaved=   3.
 NSaved= 3 IEnMin= 2 EnMin= -3006.14192154939     IErMin= 2 ErrMin= 9.35D-03
 ErrMax= 6.96D-02  0.00D+00 EMaxC= 1.00D-01 BMatC= 1.83D+00 BMatP= 2.66D-01
 IDIUse=2 WtCom= 0.00D+00 WtEn= 1.00D+00
 Coeff-En:   0.000D+00 0.704D+00 0.296D+00
 Coeff:      0.000D+00 0.704D+00 0.296D+00
 Gap=     0.037 Goal=   None    Shift=    0.000
 RMSDP=2.16D-03 MaxDP=4.75D-01 DE= 1.27D+00 OVMax= 7.53D-01

 Cycle   4  Pass 1  IDiag  1:
 RMSU=  1.05D-03    CP:  9.70D-01  1.94D+00 -6.03D-02
 E= -3004.75595537745     Delta-E=        0.118347537609 Rises=F Damp=F
 DIIS: error= 7.23D-02 at cycle   4 NSaved=   4.
 NSaved= 4 IEnMin= 2 EnMin= -3006.14192154939     IErMin= 2 ErrMin= 9.35D-03
 ErrMax= 7.23D-02  0.00D+00 EMaxC= 1.00D-01 BMatC= 1.63D+00 BMatP= 2.66D-01
 IDIUse=2 WtCom= 0.00D+00 WtEn= 1.00D+00
 EnCoef did     1 forward-backward iterations
 Coeff-En:   0.127D+00 0.000D+00 0.434D+00 0.438D+00
 Coeff:      0.127D+00 0.000D+00 0.434D+00 0.438D+00
 Gap=     0.094 Goal=   None    Shift=    0.000
 RMSDP=1.42D-03 MaxDP=3.70D-01 DE= 1.18D-01 OVMax= 5.74D-01

 Cycle   5  Pass 1  IDiag  1:
 RMSU=  7.08D-04    CP:  9.80D-01  1.18D+00  1.34D-01  1.04D-01
 E= -3007.07254034421     Delta-E=       -2.316584966764 Rises=F Damp=F
 DIIS: error= 1.54D-02 at cycle   5 NSaved=   5.
 NSaved= 5 IEnMin= 5 EnMin= -3007.07254034421     IErMin= 2 ErrMin= 9.35D-03
 ErrMax= 1.54D-02  0.00D+00 EMaxC= 1.00D-01 BMatC= 2.87D-01 BMatP= 2.66D-01
 IDIUse=3 WtCom= 8.46D-01 WtEn= 1.54D-01
 EnCoef did     8 forward-backward iterations
 Coeff-Com: -0.126D+00 0.615D+00 0.221D+00 0.101D+00 0.190D+00
 Coeff-En:   0.000D+00 0.000D+00 0.103D+00 0.157D+00 0.740D+00
 Coeff:     -0.107D+00 0.520D+00 0.202D+00 0.110D+00 0.275D+00
 Gap=     0.116 Goal=   None    Shift=    0.000
 RMSDP=9.51D-04 MaxDP=1.23D-01 DE=-2.32D+00 OVMax= 5.53D-01

 Cycle   6  Pass 1  IDiag  1:
 RMSU=  7.25D-04    CP:  9.74D-01  1.07D+00  2.78D-01  2.77D-01  2.59D-01
 E= -3007.11158041918     Delta-E=       -0.039040074969 Rises=F Damp=F
 DIIS: error= 1.45D-02 at cycle   6 NSaved=   6.
 NSaved= 6 IEnMin= 6 EnMin= -3007.11158041918     IErMin= 2 ErrMin= 9.35D-03
 ErrMax= 1.45D-02  0.00D+00 EMaxC= 1.00D-01 BMatC= 2.23D-01 BMatP= 2.66D-01
 IDIUse=3 WtCom= 8.55D-01 WtEn= 1.45D-01
 EnCoef did     2 forward-backward iterations
 Coeff-Com: -0.210D+00 0.520D+00 0.547D-01-0.205D-01 0.252D+00 0.404D+00
 Coeff-En:   0.000D+00 0.000D+00 0.000D+00 0.508D-02 0.472D+00 0.523D+00
 Coeff:     -0.179D+00 0.444D+00 0.468D-01-0.168D-01 0.284D+00 0.421D+00
 Gap=     0.029 Goal=   None    Shift=    0.000
 RMSDP=8.06D-04 MaxDP=5.99D-02 DE=-3.90D-02 OVMax= 6.19D-01

 Cycle   7  Pass 1  IDiag  1:
 RMSU=  5.14D-04    CP:  9.76D-01  1.16D+00  2.34D-01  7.95D-02  7.85D-01
                    CP:  3.97D-01
 E= -3007.22810915146     Delta-E=       -0.116528732273 Rises=F Damp=F
 DIIS: error= 7.46D-03 at cycle   7 NSaved=   7.
 NSaved= 7 IEnMin= 7 EnMin= -3007.22810915146     IErMin= 7 ErrMin= 7.46D-03
 ErrMax= 7.46D-03  0.00D+00 EMaxC= 1.00D-01 BMatC= 9.53D-02 BMatP= 2.23D-01
 IDIUse=3 WtCom= 9.25D-01 WtEn= 7.46D-02
 EnCoef did     7 forward-backward iterations
 Coeff-Com: -0.142D+00 0.309D+00 0.143D-01-0.109D-01 0.227D+00 0.364D+00
 Coeff-Com:  0.238D+00
 Coeff-En:   0.000D+00 0.000D+00 0.000D+00 0.000D+00 0.188D+00 0.373D+00
 Coeff-En:   0.439D+00
 Coeff:     -0.131D+00 0.286D+00 0.133D-01-0.101D-01 0.224D+00 0.365D+00
 Coeff:      0.253D+00
 Gap=     0.035 Goal=   None    Shift=    0.000
 RMSDP=5.04D-04 MaxDP=3.97D-02 DE=-1.17D-01 OVMax= 4.24D-01

 Cycle   8  Pass 1  IDiag  1:
 RMSU=  1.89D-04    CP:  9.78D-01  1.17D+00  1.86D-01  1.36D-01  6.39D-01
                    CP:  6.71D-01  2.27D-01
 E= -3007.35671330121     Delta-E=       -0.128604149750 Rises=F Damp=F
 DIIS: error= 2.05D-03 at cycle   8 NSaved=   8.
 NSaved= 8 IEnMin= 8 EnMin= -3007.35671330121     IErMin= 8 ErrMin= 2.05D-03
 ErrMax= 2.05D-03  0.00D+00 EMaxC= 1.00D-01 BMatC= 1.03D-02 BMatP= 9.53D-02
 IDIUse=3 WtCom= 9.80D-01 WtEn= 2.05D-02
 Coeff-Com: -0.634D-01 0.131D+00 0.395D-03 0.118D-02 0.124D+00 0.201D+00
 Coeff-Com:  0.219D+00 0.387D+00
 Coeff-En:   0.000D+00 0.000D+00 0.000D+00 0.000D+00 0.000D+00 0.000D+00
 Coeff-En:   0.158D+00 0.842D+00
 Coeff:     -0.621D-01 0.128D+00 0.387D-03 0.116D-02 0.121D+00 0.197D+00
 Coeff:      0.218D+00 0.397D+00
 Gap=     0.041 Goal=   None    Shift=    0.000
 RMSDP=1.73D-04 MaxDP=1.33D-02 DE=-1.29D-01 OVMax= 1.28D-01

 Cycle   9  Pass 1  IDiag  1:
 RMSU=  1.02D-04    CP:  9.77D-01  1.17D+00  1.89D-01  1.30D-01  6.72D-01
                    CP:  6.11D-01  4.17D-01  5.44D-01
 E= -3007.36703586984     Delta-E=       -0.010322568631 Rises=F Damp=F
 DIIS: error= 2.01D-03 at cycle   9 NSaved=   9.
 NSaved= 9 IEnMin= 9 EnMin= -3007.36703586984     IErMin= 9 ErrMin= 2.01D-03
 ErrMax= 2.01D-03  0.00D+00 EMaxC= 1.00D-01 BMatC= 3.14D-03 BMatP= 1.03D-02
 IDIUse=3 WtCom= 9.80D-01 WtEn= 2.01D-02
 Coeff-Com: -0.212D-01 0.469D-01-0.547D-02 0.298D-02 0.249D-01 0.569D-01
 Coeff-Com:  0.108D+00 0.342D+00 0.445D+00
 Coeff-En:   0.000D+00 0.000D+00 0.000D+00 0.000D+00 0.000D+00 0.000D+00
 Coeff-En:   0.000D+00 0.271D+00 0.729D+00
 Coeff:     -0.208D-01 0.460D-01-0.536D-02 0.292D-02 0.244D-01 0.557D-01
 Coeff:      0.106D+00 0.341D+00 0.451D+00
 Gap=     0.042 Goal=   None    Shift=    0.000
 RMSDP=1.06D-04 MaxDP=7.25D-03 DE=-1.03D-02 OVMax= 6.67D-02

 Cycle  10  Pass 1  IDiag  1:
 RMSU=  5.96D-05    CP:  9.77D-01  1.17D+00  1.87D-01  1.24D-01  6.65D-01
                    CP:  6.44D-01  4.04D-01  8.02D-01  3.37D-01
 E= -3007.36879819246     Delta-E=       -0.001762322625 Rises=F Damp=F
 DIIS: error= 9.13D-04 at cycle  10 NSaved=  10.
 NSaved=10 IEnMin=10 EnMin= -3007.36879819246     IErMin=10 ErrMin= 9.13D-04
 ErrMax= 9.13D-04  0.00D+00 EMaxC= 1.00D-01 BMatC= 1.64D-03 BMatP= 3.14D-03
 IDIUse=3 WtCom= 9.91D-01 WtEn= 9.13D-03
 Coeff-Com: -0.609D-02 0.170D-01-0.558D-02 0.327D-02-0.111D-01-0.116D-02
 Coeff-Com:  0.384D-01 0.192D+00 0.422D+00 0.351D+00
 Coeff-En:   0.000D+00 0.000D+00 0.000D+00 0.000D+00 0.000D+00 0.000D+00
 Coeff-En:   0.000D+00 0.000D+00 0.393D+00 0.607D+00
 Coeff:     -0.603D-02 0.169D-01-0.553D-02 0.324D-02-0.110D-01-0.115D-02
 Coeff:      0.380D-01 0.190D+00 0.422D+00 0.354D+00
 Gap=     0.042 Goal=   None    Shift=    0.000
 RMSDP=6.18D-05 MaxDP=4.64D-03 DE=-1.76D-03 OVMax= 4.41D-02

 Cycle  11  Pass 1  IDiag  1:
 RMSU=  2.27D-05    CP:  9.78D-01  1.17D+00  1.83D-01  1.29D-01  6.69D-01
                    CP:  6.44D-01  4.00D-01  7.46D-01  6.53D-01  2.38D-01
 E= -3007.37080438127     Delta-E=       -0.002006188804 Rises=F Damp=F
 DIIS: error= 3.24D-04 at cycle  11 NSaved=  11.
 NSaved=11 IEnMin=11 EnMin= -3007.37080438127     IErMin=11 ErrMin= 3.24D-04
 ErrMax= 3.24D-04  0.00D+00 EMaxC= 1.00D-01 BMatC= 2.51D-04 BMatP= 1.64D-03
 IDIUse=3 WtCom= 9.97D-01 WtEn= 3.24D-03
 Coeff-Com: -0.454D-02 0.132D-01-0.329D-02 0.182D-02-0.126D-01-0.690D-02
 Coeff-Com:  0.165D-01 0.810D-01 0.239D+00 0.288D+00 0.388D+00
 Coeff-En:   0.000D+00 0.000D+00 0.000D+00 0.000D+00 0.000D+00 0.000D+00
 Coeff-En:   0.000D+00 0.000D+00 0.000D+00 0.154D+00 0.846D+00
 Coeff:     -0.453D-02 0.131D-01-0.328D-02 0.182D-02-0.126D-01-0.688D-02
 Coeff:      0.164D-01 0.807D-01 0.238D+00 0.287D+00 0.390D+00
 Gap=     0.043 Goal=   None    Shift=    0.000
 RMSDP=2.18D-05 MaxDP=1.98D-03 DE=-2.01D-03 OVMax= 1.32D-02

 Cycle  12  Pass 1  IDiag  1:
 RMSU=  1.10D-05    CP:  9.78D-01  1.17D+00  1.83D-01  1.29D-01  6.69D-01
                    CP:  6.41D-01  4.08D-01  7.53D-01  6.03D-01  4.22D-01
                    CP:  3.99D-01
 E= -3007.37105296429     Delta-E=       -0.000248583026 Rises=F Damp=F
 DIIS: error= 3.64D-04 at cycle  12 NSaved=  12.
 NSaved=12 IEnMin=12 EnMin= -3007.37105296429     IErMin=11 ErrMin= 3.24D-04
 ErrMax= 3.64D-04  0.00D+00 EMaxC= 1.00D-01 BMatC= 6.59D-05 BMatP= 2.51D-04
 IDIUse=3 WtCom= 9.97D-01 WtEn= 3.24D-03
 Coeff-Com: -0.427D-02 0.107D-01-0.993D-03 0.186D-03-0.607D-02-0.270D-02
 Coeff-Com:  0.235D-02-0.153D-01 0.202D-01 0.111D+00 0.339D+00 0.546D+00
 Coeff-En:   0.000D+00 0.000D+00 0.000D+00 0.000D+00 0.000D+00 0.000D+00
 Coeff-En:   0.000D+00 0.000D+00 0.000D+00 0.000D+00 0.153D+00 0.847D+00
 Coeff:     -0.426D-02 0.106D-01-0.990D-03 0.185D-03-0.605D-02-0.269D-02
 Coeff:      0.234D-02-0.152D-01 0.201D-01 0.110D+00 0.339D+00 0.547D+00
 Gap=     0.042 Goal=   None    Shift=    0.000
 RMSDP=1.06D-05 MaxDP=8.54D-04 DE=-2.49D-04 OVMax= 3.70D-03

 Cycle  13  Pass 1  IDiag  1:
 RMSU=  5.81D-06    CP:  9.78D-01  1.17D+00  1.82D-01  1.29D-01  6.68D-01
                    CP:  6.45D-01  4.12D-01  7.60D-01  6.09D-01  4.32D-01
                    CP:  6.31D-01  4.66D-01
 E= -3007.37110534650     Delta-E=       -0.000052382209 Rises=F Damp=F
 DIIS: error= 1.71D-04 at cycle  13 NSaved=  13.
 NSaved=13 IEnMin=13 EnMin= -3007.37110534650     IErMin=13 ErrMin= 1.71D-04
 ErrMax= 1.71D-04  0.00D+00 EMaxC= 1.00D-01 BMatC= 2.01D-05 BMatP= 6.59D-05
 IDIUse=3 WtCom= 9.98D-01 WtEn= 1.71D-03
 Coeff-Com: -0.284D-02 0.626D-02-0.271D-03-0.876D-04-0.192D-02-0.273D-03
 Coeff-Com: -0.118D-02-0.373D-01-0.515D-01 0.190D-01 0.196D+00 0.460D+00
 Coeff-Com:  0.414D+00
 Coeff-En:   0.000D+00 0.000D+00 0.000D+00 0.000D+00 0.000D+00 0.000D+00
 Coeff-En:   0.000D+00 0.000D+00 0.000D+00 0.000D+00 0.000D+00 0.136D+00
 Coeff-En:   0.864D+00
 Coeff:     -0.283D-02 0.625D-02-0.270D-03-0.874D-04-0.192D-02-0.273D-03
 Coeff:     -0.118D-02-0.373D-01-0.514D-01 0.189D-01 0.196D+00 0.459D+00
 Coeff:      0.415D+00
 Gap=     0.042 Goal=   None    Shift=    0.000
 RMSDP=4.74D-06 MaxDP=4.69D-04 DE=-5.24D-05 OVMax= 1.33D-03

 Cycle  14  Pass 1  IDiag  1:
 RMSU=  2.37D-06    CP:  9.78D-01  1.17D+00  1.82D-01  1.29D-01  6.68D-01
                    CP:  6.45D-01  4.16D-01  7.61D-01  6.14D-01  4.41D-01
                    CP:  6.35D-01  6.81D-01  5.30D-01
 E= -3007.37112392412     Delta-E=       -0.000018577617 Rises=F Damp=F
 DIIS: error= 8.53D-05 at cycle  14 NSaved=  14.
 NSaved=14 IEnMin=14 EnMin= -3007.37112392412     IErMin=14 ErrMin= 8.53D-05
 ErrMax= 8.53D-05  0.00D+00 EMaxC= 1.00D-01 BMatC= 3.09D-06 BMatP= 2.01D-05
 IDIUse=1 WtCom= 1.00D+00 WtEn= 0.00D+00
 Coeff-Com: -0.137D-02 0.261D-02-0.105D-03-0.248D-04 0.157D-04 0.529D-03
 Coeff-Com: -0.136D-02-0.268D-01-0.491D-01-0.150D-01 0.677D-01 0.211D+00
 Coeff-Com:  0.286D+00 0.527D+00
 Coeff:     -0.137D-02 0.261D-02-0.105D-03-0.248D-04 0.157D-04 0.529D-03
 Coeff:     -0.136D-02-0.268D-01-0.491D-01-0.150D-01 0.677D-01 0.211D+00
 Coeff:      0.286D+00 0.527D+00
 Gap=     0.042 Goal=   None    Shift=    0.000
 RMSDP=1.82D-06 MaxDP=2.08D-04 DE=-1.86D-05 OVMax= 4.99D-04

 Cycle  15  Pass 1  IDiag  1:
 RMSU=  1.00D-06    CP:  9.78D-01  1.17D+00  1.82D-01  1.29D-01  6.69D-01
                    CP:  6.46D-01  4.17D-01  7.63D-01  6.14D-01  4.47D-01
                    CP:  6.64D-01  7.16D-01  5.78D-01  6.42D-01
 E= -3007.37112645892     Delta-E=       -0.000002534800 Rises=F Damp=F
 DIIS: error= 4.39D-05 at cycle  15 NSaved=  15.
 NSaved=15 IEnMin=15 EnMin= -3007.37112645892     IErMin=15 ErrMin= 4.39D-05
 ErrMax= 4.39D-05  0.00D+00 EMaxC= 1.00D-01 BMatC= 7.17D-07 BMatP= 3.09D-06
 IDIUse=1 WtCom= 1.00D+00 WtEn= 0.00D+00
 Coeff-Com: -0.598D-03 0.987D-03-0.466D-04-0.230D-04 0.369D-03 0.509D-03
 Coeff-Com: -0.105D-02-0.150D-01-0.321D-01-0.188D-01 0.117D-01 0.696D-01
 Coeff-Com:  0.141D+00 0.399D+00 0.445D+00
 Coeff:     -0.598D-03 0.987D-03-0.466D-04-0.230D-04 0.369D-03 0.509D-03
 Coeff:     -0.105D-02-0.150D-01-0.321D-01-0.188D-01 0.117D-01 0.696D-01
 Coeff:      0.141D+00 0.399D+00 0.445D+00
 Gap=     0.042 Goal=   None    Shift=    0.000
 RMSDP=9.45D-07 MaxDP=1.15D-04 DE=-2.53D-06 OVMax= 2.67D-04

 Cycle  16  Pass 1  IDiag  1:
 RMSU=  5.07D-07    CP:  9.78D-01  1.17D+00  1.82D-01  1.29D-01  6.69D-01
                    CP:  6.46D-01  4.17D-01  7.64D-01  6.14D-01  4.48D-01
                    CP:  6.77D-01  7.25D-01  6.11D-01  7.28D-01  5.39D-01
 E= -3007.37112707227     Delta-E=       -0.000000613347 Rises=F Damp=F
 DIIS: error= 1.18D-05 at cycle  16 NSaved=  16.
 NSaved=16 IEnMin=16 EnMin= -3007.37112707227     IErMin=16 ErrMin= 1.18D-05
 ErrMax= 1.18D-05  0.00D+00 EMaxC= 1.00D-01 BMatC= 1.39D-07 BMatP= 7.17D-07
 IDIUse=1 WtCom= 1.00D+00 WtEn= 0.00D+00
 Coeff-Com: -0.187D-03 0.239D-03-0.210D-04-0.328D-05 0.290D-03 0.312D-03
 Coeff-Com: -0.594D-03-0.612D-02-0.154D-01-0.123D-01-0.750D-02 0.462D-02
 Coeff-Com:  0.455D-01 0.193D+00 0.354D+00 0.445D+00
 Coeff:     -0.187D-03 0.239D-03-0.210D-04-0.328D-05 0.290D-03 0.312D-03
 Coeff:     -0.594D-03-0.612D-02-0.154D-01-0.123D-01-0.750D-02 0.462D-02
 Coeff:      0.455D-01 0.193D+00 0.354D+00 0.445D+00
 Gap=     0.042 Goal=   None    Shift=    0.000
 RMSDP=4.51D-07 MaxDP=3.99D-05 DE=-6.13D-07 OVMax= 1.70D-04

 Cycle  17  Pass 1  IDiag  1:
 RMSU=  2.14D-07    CP:  9.78D-01  1.17D+00  1.82D-01  1.29D-01  6.69D-01
                    CP:  6.46D-01  4.17D-01  7.64D-01  6.15D-01  4.49D-01
                    CP:  6.82D-01  7.37D-01  6.22D-01  7.57D-01  6.35D-01
                    CP:  5.18D-01
 E= -3007.37112721050     Delta-E=       -0.000000138230 Rises=F Damp=F
 DIIS: error= 4.03D-06 at cycle  17 NSaved=  17.
 NSaved=17 IEnMin=17 EnMin= -3007.37112721050     IErMin=17 ErrMin= 4.03D-06
 ErrMax= 4.03D-06  0.00D+00 EMaxC= 1.00D-01 BMatC= 1.85D-08 BMatP= 1.39D-07
 IDIUse=1 WtCom= 1.00D+00 WtEn= 0.00D+00
 Coeff-Com: -0.331D-04 0.963D-05-0.809D-05 0.401D-05 0.134D-03 0.142D-03
 Coeff-Com: -0.260D-03-0.182D-02-0.572D-02-0.565D-02-0.787D-02-0.952D-02
 Coeff-Com:  0.718D-02 0.653D-01 0.171D+00 0.321D+00 0.467D+00
 Coeff:     -0.331D-04 0.963D-05-0.809D-05 0.401D-05 0.134D-03 0.142D-03
 Coeff:     -0.260D-03-0.182D-02-0.572D-02-0.565D-02-0.787D-02-0.952D-02
 Coeff:      0.718D-02 0.653D-01 0.171D+00 0.321D+00 0.467D+00
 Gap=     0.042 Goal=   None    Shift=    0.000
 RMSDP=1.72D-07 MaxDP=2.01D-05 DE=-1.38D-07 OVMax= 6.19D-05

 Cycle  18  Pass 1  IDiag  1:
 RMSU=  8.97D-08    CP:  9.78D-01  1.17D+00  1.82D-01  1.29D-01  6.69D-01
                    CP:  6.46D-01  4.17D-01  7.64D-01  6.14D-01  4.49D-01
                    CP:  6.83D-01  7.37D-01  6.30D-01  7.64D-01  6.33D-01
                    CP:  5.77D-01  5.61D-01
 E= -3007.37112722755     Delta-E=       -0.000000017053 Rises=F Damp=F
 DIIS: error= 1.64D-06 at cycle  18 NSaved=  18.
 NSaved=18 IEnMin=18 EnMin= -3007.37112722755     IErMin=18 ErrMin= 1.64D-06
 ErrMax= 1.64D-06  0.00D+00 EMaxC= 1.00D-01 BMatC= 2.62D-09 BMatP= 1.85D-08
 IDIUse=1 WtCom= 1.00D+00 WtEn= 0.00D+00
 Coeff-Com:  0.765D-05-0.305D-04-0.168D-05 0.174D-05 0.407D-04 0.521D-04
 Coeff-Com: -0.931D-04-0.294D-03-0.154D-02-0.194D-02-0.437D-02-0.736D-02
 Coeff-Com: -0.266D-02 0.132D-01 0.589D-01 0.148D+00 0.333D+00 0.465D+00
 Coeff:      0.765D-05-0.305D-04-0.168D-05 0.174D-05 0.407D-04 0.521D-04
 Coeff:     -0.931D-04-0.294D-03-0.154D-02-0.194D-02-0.437D-02-0.736D-02
 Coeff:     -0.266D-02 0.132D-01 0.589D-01 0.148D+00 0.333D+00 0.465D+00
 Gap=     0.042 Goal=   None    Shift=    0.000
 RMSDP=6.62D-08 MaxDP=7.69D-06 DE=-1.71D-08 OVMax= 2.04D-05

 Cycle  19  Pass 1  IDiag  1:
 RMSU=  2.92D-08    CP:  9.78D-01  1.17D+00  1.82D-01  1.29D-01  6.69D-01
                    CP:  6.46D-01  4.17D-01  7.64D-01  6.14D-01  4.50D-01
                    CP:  6.84D-01  7.38D-01  6.30D-01  7.68D-01  6.45D-01
                    CP:  5.85D-01  6.10D-01  5.16D-01
 E= -3007.37112722999     Delta-E=       -0.000000002443 Rises=F Damp=F
 DIIS: error= 5.60D-07 at cycle  19 NSaved=  19.
 NSaved=19 IEnMin=19 EnMin= -3007.37112722999     IErMin=19 ErrMin= 5.60D-07
 ErrMax= 5.60D-07  0.00D+00 EMaxC= 1.00D-01 BMatC= 3.46D-10 BMatP= 2.62D-09
 IDIUse=1 WtCom= 1.00D+00 WtEn= 0.00D+00
 Coeff-Com:  0.765D-05-0.186D-04-0.423D-06 0.102D-05 0.982D-05 0.192D-04
 Coeff-Com: -0.314D-04-0.216D-05-0.387D-03-0.617D-03-0.187D-02-0.347D-02
 Coeff-Com: -0.230D-02 0.203D-02 0.203D-01 0.623D-01 0.168D+00 0.315D+00
 Coeff-Com:  0.441D+00
 Coeff:      0.765D-05-0.186D-04-0.423D-06 0.102D-05 0.982D-05 0.192D-04
 Coeff:     -0.314D-04-0.216D-05-0.387D-03-0.617D-03-0.187D-02-0.347D-02
 Coeff:     -0.230D-02 0.203D-02 0.203D-01 0.623D-01 0.168D+00 0.315D+00
 Coeff:      0.441D+00
 Gap=     0.042 Goal=   None    Shift=    0.000
 RMSDP=1.91D-08 MaxDP=2.67D-06 DE=-2.44D-09 OVMax= 4.41D-06

 Cycle  20  Pass 1  IDiag  1:
 RMSU=  1.17D-08    CP:  9.78D-01  1.17D+00  1.82D-01  1.29D-01  6.69D-01
                    CP:  6.46D-01  4.17D-01  7.64D-01  6.14D-01  4.50D-01
                    CP:  6.84D-01  7.38D-01  6.30D-01  7.67D-01  6.45D-01
                    CP:  5.89D-01  6.00D-01  5.54D-01  5.42D-01
 E= -3007.37112723020     Delta-E=       -0.000000000204 Rises=F Damp=F
 DIIS: error= 2.57D-07 at cycle  20 NSaved=  20.
 NSaved=20 IEnMin=20 EnMin= -3007.37112723020     IErMin=20 ErrMin= 2.57D-07
 ErrMax= 2.57D-07  0.00D+00 EMaxC= 1.00D-01 BMatC= 4.79D-11 BMatP= 3.46D-10
 IDIUse=1 WtCom= 1.00D+00 WtEn= 0.00D+00
 Coeff-Com:  0.320D-05-0.658D-05-0.204D-06 0.525D-06 0.126D-05 0.740D-05
 Coeff-Com: -0.109D-04 0.228D-04-0.101D-03-0.192D-03-0.694D-03-0.137D-02
 Coeff-Com: -0.104D-02 0.470D-03 0.770D-02 0.257D-01 0.752D-01 0.159D+00
 Coeff-Com:  0.296D+00 0.439D+00
 Coeff:      0.320D-05-0.658D-05-0.204D-06 0.525D-06 0.126D-05 0.740D-05
 Coeff:     -0.109D-04 0.228D-04-0.101D-03-0.192D-03-0.694D-03-0.137D-02
 Coeff:     -0.104D-02 0.470D-03 0.770D-02 0.257D-01 0.752D-01 0.159D+00
 Coeff:      0.296D+00 0.439D+00
 Gap=     0.042 Goal=   None    Shift=    0.000
 RMSDP=9.10D-09 MaxDP=1.20D-06 DE=-2.04D-10 OVMax= 1.83D-06

 Cycle  21  Pass 1  IDiag  1:
 Restarting incremental Fock formation.
 E= -3007.37112723026     Delta-E=       -0.000000000062 Rises=F Damp=F
 DIIS: error= 7.37D-08 at cycle  21 NSaved=  20.
 NSaved=20 IEnMin=20 EnMin= -3007.37112723026     IErMin=20 ErrMin= 7.37D-08
 ErrMax= 7.37D-08  0.00D+00 EMaxC= 1.00D-01 BMatC= 6.51D-12 BMatP= 4.79D-11
 IDIUse=1 WtCom= 1.00D+00 WtEn= 0.00D+00
 Coeff-Com:  0.906D-06-0.127D-05 0.281D-07-0.815D-06 0.279D-05-0.394D-05
 Coeff-Com:  0.165D-04-0.215D-04-0.531D-04-0.230D-03-0.489D-03-0.407D-03
 Coeff-Com:  0.113D-03 0.283D-02 0.999D-02 0.308D-01 0.702D-01 0.150D+00
 Coeff-Com:  0.306D+00 0.432D+00
 Coeff:      0.906D-06-0.127D-05 0.281D-07-0.815D-06 0.279D-05-0.394D-05
 Coeff:      0.165D-04-0.215D-04-0.531D-04-0.230D-03-0.489D-03-0.407D-03
 Coeff:      0.113D-03 0.283D-02 0.999D-02 0.308D-01 0.702D-01 0.150D+00
 Coeff:      0.306D+00 0.432D+00
 Gap=     0.042 Goal=   None    Shift=    0.000
 RMSDP=3.17D-09 MaxDP=3.35D-07 DE=-6.18D-11 OVMax= 8.58D-07

 SCF Done:  E(RB-LYP) =  -3007.37112723     A.U. after   21 cycles
            NFock= 21  Conv=0.32D-08     -V/T= 2.0101
 KE= 2.977437271187D+03 PE=-2.625351582076D+04 EE= 1.063929727935D+04
 Leave Link  502 at Wed Apr 27 03:56:52 2022, MaxMem= 10066329600 cpu:            5579.0 elap:             233.3
 (Enter /sw/apps/gaussian-16.0/g16/l801.exe)
 DoSCS=F DFT=T ScalE2(SS,OS)=  1.000000  1.000000
 ExpMin= 3.36D-02 ExpMax= 4.95D+03 ExpMxC= 7.45D+02 IAcc=3 IRadAn=         5 AccDes= 0.00D+00
 HarFok:  IExCor=  205 AccDes= 0.00D+00 IRadAn=         5 IDoV=-2 UseB2=F ITyADJ=14
 ICtDFT= 12500011 ScaDFX=  1.000000  1.000000  1.000000  1.000000
 GSVD:  LWork=       -5460 too small for GESVD, short by       25550 words or       25550 for optimal perf.
 Largest valence mixing into a core orbital is  1.48D-04
 Largest core mixing into a valence orbital is  4.84D-05
 Range of M.O.s used for correlation:    71  1298
 NBasis=  1298 NAE=   246 NBE=   246 NFC=    70 NFV=     0
 NROrb=   1228 NOA=   176 NOB=   176 NVA=  1052 NVB=  1052

 **** Warning!!: The smallest alpha delta epsilon is  0.42488834D-01

 Leave Link  801 at Wed Apr 27 03:56:53 2022, MaxMem= 10066329600 cpu:               6.9 elap:               0.3
 (Enter /sw/apps/gaussian-16.0/g16/l914.exe)
 RHF ground state
 Two-electron integrals replicated using symmetry.
 MDV= 10066329600 DFT=T DoStab=F Mixed=F DoRPA=T DoScal=T NonHer=F
 Making orbital integer symmetry assigments:
 Orbital symmetries:
       Occupied  (A) (A) (A) (A) (A) (A) (A) (A) (A) (A) (A) (A)
                 (A) (A) (A) (A) (A) (A) (A) (A) (A) (A) (A) (A)
                 (A) (A) (A) (A) (A) (A) (A) (A) (A) (A) (A) (A)
                 (A) (A) (A) (A) (A) (A) (A) (A) (A) (A) (A) (A)
                 (A) (A) (A) (A) (A) (A) (A) (A) (A) (A) (A) (A)
                 (A) (A) (A) (A) (A) (A) (A) (A) (A) (A) (A) (A)
                 (A) (A) (A) (A) (A) (A) (A) (A) (A) (A) (A) (A)
                 (A) (A) (A) (A) (A) (A) (A) (A) (A) (A) (A) (A)
                 (A) (A) (A) (A) (A) (A) (A) (A) (A) (A) (A) (A)
                 (A) (A) (A) (A) (A) (A) (A) (A) (A) (A) (A) (A)
                 (A) (A) (A) (A) (A) (A) (A) (A) (A) (A) (A) (A)
                 (A) (A) (A) (A) (A) (A) (A) (A) (A) (A) (A) (A)
                 (A) (A) (A) (A) (A) (A) (A) (A) (A) (A) (A) (A)
                 (A) (A) (A) (A) (A) (A) (A) (A) (A) (A) (A) (A)
                 (A) (A) (A) (A) (A) (A) (A) (A) (A) (A) (A) (A)
                 (A) (A) (A) (A) (A) (A) (A) (A) (A) (A) (A) (A)
                 (A) (A) (A) (A) (A) (A) (A) (A) (A) (A) (A) (A)
                 (A) (A) (A) (A) (A) (A) (A) (A) (A) (A) (A) (A)
                 (A) (A) (A) (A) (A) (A) (A) (A) (A) (A) (A) (A)
                 (A) (A) (A) (A) (A) (A) (A) (A) (A) (A) (A) (A)
                 (A) (A) (A) (A) (A) (A)
       Virtual   (A) (A) (A) (A) (A) (A) (A) (A) (A) (A) (A) (A)
                 (A) (A) (A) (A) (A) (A) (A) (A) (A) (A) (A) (A)
                 (A) (A) (A) (A) (A) (A) (A) (A) (A) (A) (A) (A)
                 (A) (A) (A) (A) (A) (A) (A) (A) (A) (A) (A) (A)
                 (A) (A) (A) (A) (A) (A) (A) (A) (A) (A) (A) (A)
                 (A) (A) (A) (A) (A) (A) (A) (A) (A) (A) (A) (A)
                 (A) (A) (A) (A) (A) (A) (A) (A) (A) (A) (A) (A)
                 (A) (A) (A) (A) (A) (A) (A) (A) (A) (A) (A) (A)
                 (A) (A) (A) (A) (A) (A) (A) (A) (A) (A) (A) (A)
                 (A) (A) (A) (A) (A) (A) (A) (A) (A) (A) (A) (A)
                 (A) (A) (A) (A) (A) (A) (A) (A) (A) (A) (A) (A)
                 (A) (A) (A) (A) (A) (A) (A) (A) (A) (A) (A) (A)
                 (A) (A) (A) (A) (A) (A) (A) (A) (A) (A) (A) (A)
                 (A) (A) (A) (A) (A) (A) (A) (A) (A) (A) (A) (A)
                 (A) (A) (A) (A) (A) (A) (A) (A) (A) (A) (A) (A)
                 (A) (A) (A) (A) (A) (A) (A) (A) (A) (A) (A) (A)
                 (A) (A) (A) (A) (A) (A) (A) (A) (A) (A) (A) (A)
                 (A) (A) (A) (A) (A) (A) (A) (A) (A) (A) (A) (A)
                 (A) (A) (A) (A) (A) (A) (A) (A) (A) (A) (A) (A)
                 (A) (A) (A) (A) (A) (A) (A) (A) (A) (A) (A) (A)
                 (A) (A) (A) (A) (A) (A) (A) (A) (A) (A) (A) (A)
                 (A) (A) (A) (A) (A) (A) (A) (A) (A) (A) (A) (A)
                 (A) (A) (A) (A) (A) (A) (A) (A) (A) (A) (A) (A)
                 (A) (A) (A) (A) (A) (A) (A) (A) (A) (A) (A) (A)
                 (A) (A) (A) (A) (A) (A) (A) (A) (A) (A) (A) (A)
                 (A) (A) (A) (A) (A) (A) (A) (A) (A) (A) (A) (A)
                 (A) (A) (A) (A) (A) (A) (A) (A) (A) (A) (A) (A)
                 (A) (A) (A) (A) (A) (A) (A) (A) (A) (A) (A) (A)
                 (A) (A) (A) (A) (A) (A) (A) (A) (A) (A) (A) (A)
                 (A) (A) (A) (A) (A) (A) (A) (A) (A) (A) (A) (A)
                 (A) (A) (A) (A) (A) (A) (A) (A) (A) (A) (A) (A)
                 (A) (A) (A) (A) (A) (A) (A) (A) (A) (A) (A) (A)
                 (A) (A) (A) (A) (A) (A) (A) (A) (A) (A) (A) (A)
                 (A) (A) (A) (A) (A) (A) (A) (A) (A) (A) (A) (A)
                 (A) (A) (A) (A) (A) (A) (A) (A) (A) (A) (A) (A)
                 (A) (A) (A) (A) (A) (A) (A) (A) (A) (A) (A) (A)
                 (A) (A) (A) (A) (A) (A) (A) (A) (A) (A) (A) (A)
                 (A) (A) (A) (A) (A) (A) (A) (A) (A) (A) (A) (A)
                 (A) (A) (A) (A) (A) (A) (A) (A) (A) (A) (A) (A)
                 (A) (A) (A) (A) (A) (A) (A) (A) (A) (A) (A) (A)
                 (A) (A) (A) (A) (A) (A) (A) (A) (A) (A) (A) (A)
                 (A) (A) (A) (A) (A) (A) (A) (A) (A) (A) (A) (A)
                 (A) (A) (A) (A) (A) (A) (A) (A) (A) (A) (A) (A)
                 (A) (A) (A) (A) (A) (A) (A) (A) (A) (A) (A) (A)
                 (A) (A) (A) (A) (A) (A) (A) (A) (A) (A) (A) (A)
                 (A) (A) (A) (A) (A) (A) (A) (A) (A) (A) (A) (A)
                 (A) (A) (A) (A) (A) (A) (A) (A) (A) (A) (A) (A)
                 (A) (A) (A) (A) (A) (A) (A) (A) (A) (A) (A) (A)
                 (A) (A) (A) (A) (A) (A) (A) (A) (A) (A) (A) (A)
                 (A) (A) (A) (A) (A) (A) (A) (A) (A) (A) (A) (A)
                 (A) (A) (A) (A) (A) (A) (A) (A) (A) (A) (A) (A)
                 (A) (A) (A) (A) (A) (A) (A) (A) (A) (A) (A) (A)
                 (A) (A) (A) (A) (A) (A) (A) (A) (A) (A) (A) (A)
                 (A) (A) (A) (A) (A) (A) (A) (A) (A) (A) (A) (A)
                 (A) (A) (A) (A) (A) (A) (A) (A) (A) (A) (A) (A)
                 (A) (A) (A) (A) (A) (A) (A) (A) (A) (A) (A) (A)
                 (A) (A) (A) (A) (A) (A) (A) (A) (A) (A) (A) (A)
                 (A) (A) (A) (A) (A) (A) (A) (A) (A) (A) (A) (A)
                 (A) (A) (A) (A) (A) (A) (A) (A) (A) (A) (A) (A)
                 (A) (A) (A) (A) (A) (A) (A) (A) (A) (A) (A) (A)
                 (A) (A) (A) (A) (A) (A) (A) (A) (A) (A) (A) (A)
                 (A) (A) (A) (A) (A) (A) (A) (A) (A) (A) (A) (A)
                 (A) (A) (A) (A) (A) (A) (A) (A) (A) (A) (A) (A)
                 (A) (A) (A) (A) (A) (A) (A) (A) (A) (A) (A) (A)
                 (A) (A) (A) (A) (A) (A) (A) (A) (A) (A) (A) (A)
                 (A) (A) (A) (A) (A) (A) (A) (A) (A) (A) (A) (A)
                 (A) (A) (A) (A) (A) (A) (A) (A) (A) (A) (A) (A)
                 (A) (A) (A) (A) (A) (A) (A) (A) (A) (A) (A) (A)
                 (A) (A) (A) (A) (A) (A) (A) (A) (A) (A) (A) (A)
                 (A) (A) (A) (A) (A) (A) (A) (A) (A) (A) (A) (A)
                 (A) (A) (A) (A) (A) (A) (A) (A) (A) (A) (A) (A)
                 (A) (A) (A) (A) (A) (A) (A) (A) (A) (A) (A) (A)
                 (A) (A) (A) (A) (A) (A) (A) (A) (A) (A) (A) (A)
                 (A) (A) (A) (A) (A) (A) (A) (A) (A) (A) (A) (A)
                 (A) (A) (A) (A) (A) (A) (A) (A) (A) (A) (A) (A)
                 (A) (A) (A) (A) (A) (A) (A) (A) (A) (A) (A) (A)
                 (A) (A) (A) (A) (A) (A) (A) (A) (A) (A) (A) (A)
                 (A) (A) (A) (A) (A) (A) (A) (A) (A) (A) (A) (A)
                 (A) (A) (A) (A) (A) (A) (A) (A) (A) (A) (A) (A)
                 (A) (A) (A) (A) (A) (A) (A) (A) (A) (A) (A) (A)
                 (A) (A) (A) (A) (A) (A) (A) (A) (A) (A) (A) (A)
                 (A) (A) (A) (A) (A) (A) (A) (A) (A) (A) (A) (A)
                 (A) (A) (A) (A) (A) (A) (A) (A) (A) (A) (A) (A)
                 (A) (A) (A) (A) (A) (A) (A) (A) (A) (A) (A) (A)
                 (A) (A) (A) (A) (A) (A) (A) (A) (A) (A) (A) (A)
                 (A) (A) (A) (A) (A) (A) (A) (A) (A) (A) (A) (A)
                 (A) (A) (A) (A) (A) (A) (A) (A) (A) (A) (A) (A)
                 (A) (A) (A) (A) (A) (A) (A) (A)
    20 initial guesses have been made.
 Convergence on wavefunction:    0.001000000000000
 Davidson Disk Diagonalization:  ConvIn= 1.00D-03 SkipCon=T Conv= 1.00D-03.
 Max sub-space:  2000 roots to seek:    20 dimension of matrix:       370304
 Iteration     1 Dimension    20 NMult     0 NNew     20
 CISAX will form    20 AO SS matrices at one time.
 NMat=    20 NSing=    20 JSym2X= 0.
 FoFJK:  IHMeth= 1 ICntrl=     500 DoSepK=F KAlg= 0 I1Cent=           0 FoldK=F
 IRaf= 520000000 NMat=      20 IRICut=       1 DoRegI=T DoRafI=F ISym2E= 0 IDoP0=0 IntGTp=1.
 FoFCou: FMM=T IPFlag=           0 FMFlag=      100000 FMFlg1=        2001
         NFxFlg=           0 DoJE=F BraDBF=F KetDBF=F FulRan=T
         wScrn=  0.000000 ICntrl=       500 IOpCl=  0 I1Cent=           0 NGrid=           0
         NMat0=   20 NMatS0=     20 NMatT0=    0 NMatD0=   20 NMtDS0=    0 NMtDT0=    0
 Symmetry not used in FoFCou.
 FMM levels:  10  Number of levels for PrismC:   9
 New state      1 was old state      3
 New state      2 was old state      1
 New state      3 was old state      4
 New state      4 was old state      5
 New state      5 was old state      2
 Excitation Energies [eV] at current iteration:
 Root      1 :     1.817451120467167
 Root      2 :     2.114736086477965
 Root      3 :     2.162625440297860
 Root      4 :     2.181192965756724
 Root      5 :     2.308604744486214
 Root      6 :     2.734179031496538
 Root      7 :     2.817401279930722
 Root      8 :     2.912947966809439
 Root      9 :     2.939474034751375
 Root     10 :     2.980467411057191
 Root     11 :     3.084955862731437
 Root     12 :     3.138171091005052
 Root     13 :     3.203694116197619
 Root     14 :     3.207185226856391
 Root     15 :     3.262773844095113
 Root     16 :     3.330994927089357
 Root     17 :     3.432460682368652
 Root     18 :     3.906557131546579
 Root     19 :     4.033838880614951
 Root     20 :     4.324214919590575
 Iteration     2 Dimension    40 NMult    20 NNew     20
 CISAX will form    20 AO SS matrices at one time.
 NMat=    20 NSing=    20 JSym2X= 0.
 Root      1 not converged, maximum delta is    0.109175708264722
 Root      2 not converged, maximum delta is    0.115135889614405
 New state      3 was old state      5
 Root      3 not converged, maximum delta is    0.398350635742309
 New state      4 was old state      3
 Root      4 not converged, maximum delta is    0.340755110515389
 New state      5 was old state      4
 Root      5 not converged, maximum delta is    0.012577212322472
 Excitation Energies [eV] at current iteration:
 Root      1 :     1.812567492122896   Change is   -0.004883628344271
 Root      2 :     1.869988585338018   Change is   -0.244747501139947
 Root      3 :     2.073085976024454   Change is   -0.235518768461760
 Root      4 :     2.177222274259230   Change is    0.014596833961370
 Root      5 :     2.181130864116732   Change is   -0.000062101639991
 Root      6 :     2.617748421959041   Change is   -0.295199544850398
 Root      7 :     2.708537517607389   Change is   -0.025641513889149
 Root      8 :     2.754729182343258   Change is   -0.330226680388178
 Root      9 :     2.787189659409345   Change is   -0.193277751647846
 Root     10 :     2.816697299281400   Change is   -0.000703980649322
 Root     11 :     2.929409490083333   Change is   -0.010064544668042
 Root     12 :     2.955338049534834   Change is   -0.248356066662785
 Root     13 :     3.089361821083582   Change is   -0.343098861285070
 Root     14 :     3.138159410407701   Change is   -0.000011680597351
 Root     15 :     3.201613627072596   Change is   -0.005571599783794
 Root     16 :     3.249511261295001   Change is   -0.013262582800112
 Root     17 :     3.309485922204857   Change is   -0.021509004884500
 Root     18 :     3.504111509504153   Change is   -0.402445622042426
 Root     19 :     3.748200391066999   Change is   -0.285638489547952
 Root     20 :     3.870762027211577   Change is   -0.453452892378998
 Iteration     3 Dimension    45 NMult    40 NNew      5
 CISAX will form     5 AO SS matrices at one time.
 NMat=     5 NSing=     5 JSym2X= 0.
 Root      1 not converged, maximum delta is    0.290496869650581
 Root      2 not converged, maximum delta is    0.304733889355992
 Root      3 not converged, maximum delta is    0.048639941323022
 Root      4 not converged, maximum delta is    0.039002579006553
 Root      5 not converged, maximum delta is    0.010006164876845
 Excitation Energies [eV] at current iteration:
 Root      1 :     1.804093507743636   Change is   -0.008473984379261
 Root      2 :     1.827999298334340   Change is   -0.041989287003678
 Root      3 :     2.043823544311318   Change is   -0.029262431713136
 Root      4 :     2.173422070676587   Change is   -0.003800203582643
 Root      5 :     2.181124452815066   Change is   -0.000006411301666
 Iteration     4 Dimension    50 NMult    45 NNew      5
 CISAX will form     5 AO SS matrices at one time.
 NMat=     5 NSing=     5 JSym2X= 0.
 Root      1 not converged, maximum delta is    0.182082915877932
 Root      2 not converged, maximum delta is    0.171395368729879
 Root      3 not converged, maximum delta is    0.015348955608620
 Root      4 not converged, maximum delta is    0.011457524786545
 Root      5 not converged, maximum delta is    0.002654764591771
 Excitation Energies [eV] at current iteration:
 Root      1 :     1.793829803857850   Change is   -0.010263703885786
 Root      2 :     1.820700024388147   Change is   -0.007299273946193
 Root      3 :     2.031536670152922   Change is   -0.012286874158396
 Root      4 :     2.171834829777113   Change is   -0.001587240899474
 Root      5 :     2.181121327375593   Change is   -0.000003125439473
 Iteration     5 Dimension    55 NMult    50 NNew      5
 CISAX will form     5 AO SS matrices at one time.
 NMat=     5 NSing=     5 JSym2X= 0.
 Root      1 not converged, maximum delta is    0.050328218831647
 Root      2 not converged, maximum delta is    0.047956744297490
 Root      3 not converged, maximum delta is    0.005497224965797
 Root      4 not converged, maximum delta is    0.003428192076311
 Root      5 has converged.
 Excitation Energies [eV] at current iteration:
 Root      1 :     1.789509880904579   Change is   -0.004319922953271
 Root      2 :     1.819403321070699   Change is   -0.001296703317448
 Root      3 :     2.027451988148333   Change is   -0.004084682004588
 Root      4 :     2.171292138487343   Change is   -0.000542691289770
 Root      5 :     2.181120355555941   Change is   -0.000000971819652
 Iteration     6 Dimension    59 NMult    55 NNew      4
 CISAX will form     4 AO SS matrices at one time.
 NMat=     4 NSing=     4 JSym2X= 0.
 Root      1 not converged, maximum delta is    0.020885716944267
 Root      2 not converged, maximum delta is    0.020023878259716
 Root      3 not converged, maximum delta is    0.002797501769619
 Root      4 not converged, maximum delta is    0.002360003004895
 Root      5 has converged.
 Excitation Energies [eV] at current iteration:
 Root      1 :     1.787345310241752   Change is   -0.002164570662827
 Root      2 :     1.818916335729889   Change is   -0.000486985340810
 Root      3 :     2.025880353694106   Change is   -0.001571634454227
 Root      4 :     2.171048035171821   Change is   -0.000244103315522
 Root      5 :     2.181120118615318   Change is   -0.000000236940622
 Iteration     7 Dimension    63 NMult    59 NNew      4
 CISAX will form     4 AO SS matrices at one time.
 NMat=     4 NSing=     4 JSym2X= 0.
 Root      1 not converged, maximum delta is    0.008446939448363
 Root      2 not converged, maximum delta is    0.008083379490090
 Root      3 not converged, maximum delta is    0.001254452303781
 Root      4 not converged, maximum delta is    0.001112994627535
 Root      5 has converged.
 Excitation Energies [eV] at current iteration:
 Root      1 :     1.786379757778792   Change is   -0.000965552462959
 Root      2 :     1.818726723348293   Change is   -0.000189612381595
 Root      3 :     2.025313874147705   Change is   -0.000566479546401
 Root      4 :     2.170957819279524   Change is   -0.000090215892297
 Root      5 :     2.181120020031055   Change is   -0.000000098584264
 Iteration     8 Dimension    67 NMult    63 NNew      4
 CISAX will form     4 AO SS matrices at one time.
 NMat=     4 NSing=     4 JSym2X= 0.
 Root      1 not converged, maximum delta is    0.003349839082945
 Root      2 not converged, maximum delta is    0.003213621197138
 Root      3 has converged.
 Root      4 has converged.
 Root      5 has converged.
 Excitation Energies [eV] at current iteration:
 Root      1 :     1.785977540378886   Change is   -0.000402217399906
 Root      2 :     1.818652431239636   Change is   -0.000074292108657
 Root      3 :     2.025075843003801   Change is   -0.000238031143904
 Root      4 :     2.170928337117960   Change is   -0.000029482161564
 Root      5 :     2.181119978431855   Change is   -0.000000041599199
 Iteration     9 Dimension    69 NMult    67 NNew      2
 CISAX will form     2 AO SS matrices at one time.
 NMat=     2 NSing=     2 JSym2X= 0.
 Root      1 not converged, maximum delta is    0.001415734208506
 Root      2 not converged, maximum delta is    0.001377820387636
 Root      3 has converged.
[...]
 Alpha virt. eigenvalues --    1.03877   1.04374   1.05022   1.05255   1.05899
 Alpha virt. eigenvalues --    1.06355   1.06773   1.07266   1.07548   1.07718
 Alpha virt. eigenvalues --    1.08500   1.09114   1.09381   1.09691   1.09916
 Alpha virt. eigenvalues --    1.10162   1.11062   1.11388   1.11995   1.12572
 Alpha virt. eigenvalues --    1.12684   1.13270   1.14355   1.14637   1.15112
 Alpha virt. eigenvalues --    1.15648   1.16365   1.16656   1.17178   1.17449
 Alpha virt. eigenvalues --    1.17554   1.17839   1.18692   1.19070   1.20087
 Alpha virt. eigenvalues --    1.20467   1.20540   1.21033   1.21335   1.21964
 Alpha virt. eigenvalues --    1.22418   1.22807   1.23204   1.23599   1.23792
 Alpha virt. eigenvalues --    1.24174   1.24805   1.25521   1.25917   1.26264
 Alpha virt. eigenvalues --    1.26701   1.27057   1.27359   1.27658   1.28378
 Alpha virt. eigenvalues --    1.28763   1.28897   1.29104   1.29711   1.30030
 Alpha virt. eigenvalues --    1.30535   1.31181   1.31737   1.31779   1.32075
 Alpha virt. eigenvalues --    1.32559   1.33051   1.33207   1.33531   1.33594
 Alpha virt. eigenvalues --    1.33889   1.34094   1.34379   1.34557   1.35295
 Alpha virt. eigenvalues --    1.35431   1.36025   1.36437   1.36615   1.36650
 Alpha virt. eigenvalues --    1.37811   1.38224   1.38416   1.39613   1.39869
 Alpha virt. eigenvalues --    1.40297   1.40562   1.40799   1.41885   1.42167
 Alpha virt. eigenvalues --    1.42561   1.42775   1.42899   1.43738   1.43971
 Alpha virt. eigenvalues --    1.44275   1.44640   1.45059   1.45439   1.45476
 Alpha virt. eigenvalues --    1.46015   1.46517   1.46718   1.46870   1.47430
 Alpha virt. eigenvalues --    1.47555   1.47798   1.47942   1.48286   1.48343
 Alpha virt. eigenvalues --    1.48449   1.48745   1.49205   1.49375   1.49597
 Alpha virt. eigenvalues --    1.49915   1.50163   1.50268   1.50351   1.50714
 Alpha virt. eigenvalues --    1.50843   1.51434   1.51625   1.51835   1.51872
 Alpha virt. eigenvalues --    1.52318   1.52775   1.53602   1.54209   1.54382
 Alpha virt. eigenvalues --    1.54402   1.54990   1.55570   1.55913   1.56845
 Alpha virt. eigenvalues --    1.56971   1.57143   1.58232   1.58311   1.58667
 Alpha virt. eigenvalues --    1.59164   1.59601   1.59862   1.60332   1.60813
 Alpha virt. eigenvalues --    1.61082   1.61664   1.61897   1.62133   1.62533
 Alpha virt. eigenvalues --    1.62575   1.62868   1.63471   1.63653   1.63890
 Alpha virt. eigenvalues --    1.64197   1.64376   1.64690   1.65018   1.65282
 Alpha virt. eigenvalues --    1.65636   1.65913   1.66217   1.66579   1.66920
 Alpha virt. eigenvalues --    1.66978   1.67227   1.67394   1.67509   1.67938
 Alpha virt. eigenvalues --    1.68351   1.68833   1.68861   1.68878   1.69280
 Alpha virt. eigenvalues --    1.69323   1.69573   1.69841   1.70024   1.70127
 Alpha virt. eigenvalues --    1.70510   1.70684   1.70702   1.70904   1.71102
 Alpha virt. eigenvalues --    1.71280   1.71388   1.71647   1.71828   1.72279
 Alpha virt. eigenvalues --    1.72687   1.72787   1.73052   1.73220   1.73298
 Alpha virt. eigenvalues --    1.73546   1.73802   1.73943   1.74215   1.74382
 Alpha virt. eigenvalues --    1.74588   1.74701   1.74993   1.75098   1.75271
 Alpha virt. eigenvalues --    1.75350   1.75519   1.75788   1.75863   1.75939
 Alpha virt. eigenvalues --    1.75983   1.76339   1.76467   1.76683   1.76887
 Alpha virt. eigenvalues --    1.77229   1.77512   1.77629   1.77722   1.77899
 Alpha virt. eigenvalues --    1.78440   1.78547   1.78657   1.78946   1.79360
 Alpha virt. eigenvalues --    1.79463   1.79854   1.80218   1.80289   1.80608
 Alpha virt. eigenvalues --    1.80817   1.80889   1.81268   1.81682   1.82119
 Alpha virt. eigenvalues --    1.82502   1.82629   1.82787   1.82789   1.83361
 Alpha virt. eigenvalues --    1.83612   1.83726   1.83858   1.84041   1.84369
 Alpha virt. eigenvalues --    1.84525   1.84853   1.85083   1.85238   1.85550
 Alpha virt. eigenvalues --    1.85659   1.85854   1.86060   1.86303   1.86468
 Alpha virt. eigenvalues --    1.86615   1.87206   1.87849   1.87887   1.88015
 Alpha virt. eigenvalues --    1.88307   1.88700   1.88757   1.88870   1.89290
 Alpha virt. eigenvalues --    1.89526   1.89979   1.90070   1.90288   1.90703
 Alpha virt. eigenvalues --    1.90799   1.91477   1.91650   1.91798   1.92338
 Alpha virt. eigenvalues --    1.92460   1.92869   1.93324   1.93528   1.94295
 Alpha virt. eigenvalues --    1.94641   1.95039   1.95204   1.95449   1.95581
 Alpha virt. eigenvalues --    1.96249   1.96381   1.96584   1.96743   1.97448
 Alpha virt. eigenvalues --    1.97609   1.97684   1.98152   1.98406   1.98821
 Alpha virt. eigenvalues --    1.99037   1.99221   1.99391   1.99851   2.00008
 Alpha virt. eigenvalues --    2.00328   2.00609   2.00737   2.00921   2.01216
 Alpha virt. eigenvalues --    2.01374   2.01393   2.01614   2.02093   2.02451
 Alpha virt. eigenvalues --    2.02682   2.02782   2.03245   2.03421   2.03882
 Alpha virt. eigenvalues --    2.04174   2.04648   2.04927   2.04985   2.05594
 Alpha virt. eigenvalues --    2.06155   2.06342   2.06593   2.06718   2.06840
 Alpha virt. eigenvalues --    2.07226   2.07372   2.07840   2.08104   2.08520
 Alpha virt. eigenvalues --    2.08832   2.09354   2.09616   2.09801   2.09959
 Alpha virt. eigenvalues --    2.10608   2.11001   2.11704   2.11883   2.12016
 Alpha virt. eigenvalues --    2.12526   2.12588   2.13299   2.14179   2.14664
 Alpha virt. eigenvalues --    2.15318   2.16131   2.16619   2.16983   2.17216
 Alpha virt. eigenvalues --    2.18044   2.18319   2.18549   2.19030   2.19308
 Alpha virt. eigenvalues --    2.19968   2.20260   2.20742   2.20875   2.21518
 Alpha virt. eigenvalues --    2.22031   2.22220   2.22512   2.22878   2.23055
 Alpha virt. eigenvalues --    2.23705   2.24143   2.24389   2.24566   2.25093
 Alpha virt. eigenvalues --    2.25324   2.25609   2.26273   2.26333   2.26766
 Alpha virt. eigenvalues --    2.27619   2.27671   2.27776   2.28024   2.28405
 Alpha virt. eigenvalues --    2.28903   2.28911   2.29069   2.29293   2.29549
 Alpha virt. eigenvalues --    2.29904   2.30259   2.30875   2.31103   2.31285
 Alpha virt. eigenvalues --    2.32122   2.32306   2.32730   2.33310   2.33347
 Alpha virt. eigenvalues --    2.33475   2.33841   2.34276   2.34594   2.34909
 Alpha virt. eigenvalues --    2.35064   2.35689   2.36578   2.36644   2.37409
 Alpha virt. eigenvalues --    2.37470   2.37858   2.38155   2.38516   2.39053
 Alpha virt. eigenvalues --    2.39239   2.40661   2.40782   2.41294   2.41360
 Alpha virt. eigenvalues --    2.42038   2.42131   2.42455   2.42638   2.42848
 Alpha virt. eigenvalues --    2.43996   2.44078   2.44094   2.44866   2.45014
 Alpha virt. eigenvalues --    2.45152   2.45826   2.46724   2.47048   2.47319
 Alpha virt. eigenvalues --    2.47460   2.47688   2.48381   2.48451   2.49226
 Alpha virt. eigenvalues --    2.49369   2.49729   2.50022   2.50821   2.51079
 Alpha virt. eigenvalues --    2.51636   2.51766   2.52124   2.52235   2.52544
 Alpha virt. eigenvalues --    2.52820   2.53839   2.54355   2.54945   2.55500
 Alpha virt. eigenvalues --    2.55688   2.55831   2.56228   2.56487   2.56874
 Alpha virt. eigenvalues --    2.57221   2.57506   2.57752   2.57964   2.58479
 Alpha virt. eigenvalues --    2.58880   2.59527   2.59628   2.60143   2.60823
 Alpha virt. eigenvalues --    2.61394   2.62348   2.62432   2.62571   2.62724
 Alpha virt. eigenvalues --    2.63083   2.63313   2.63547   2.64465   2.64805
 Alpha virt. eigenvalues --    2.64914   2.65241   2.65707   2.66257   2.66280
 Alpha virt. eigenvalues --    2.67078   2.67264   2.67785   2.68169   2.68772
 Alpha virt. eigenvalues --    2.68952   2.69491   2.69746   2.70488   2.71091
 Alpha virt. eigenvalues --    2.71900   2.72038   2.73123   2.73296   2.73531
 Alpha virt. eigenvalues --    2.74376   2.74601   2.74798   2.75537   2.76380
 Alpha virt. eigenvalues --    2.77461   2.77688   2.77840   2.78547   2.78625
 Alpha virt. eigenvalues --    2.79253   2.79569   2.79796   2.79863   2.80178
 Alpha virt. eigenvalues --    2.80305   2.80541   2.80705   2.80956   2.81368
 Alpha virt. eigenvalues --    2.81958   2.82199   2.83233   2.83313   2.83649
 Alpha virt. eigenvalues --    2.84646   2.84850   2.85350   2.85484   2.85684
 Alpha virt. eigenvalues --    2.85997   2.86429   2.86592   2.86969   2.87311
 Alpha virt. eigenvalues --    2.87323   2.87413   2.87543   2.87791   2.88168
 Alpha virt. eigenvalues --    2.88324   2.88769   2.89271   2.89487   2.89931
 Alpha virt. eigenvalues --    2.89985   2.90625   2.91015   2.91121   2.92310
 Alpha virt. eigenvalues --    2.92443   2.92675   2.93567   2.94074   2.94126
 Alpha virt. eigenvalues --    2.94717   2.94776   2.95246   2.95639   2.95782
 Alpha virt. eigenvalues --    2.95850   2.96037   2.96422   2.96756   2.96843
 Alpha virt. eigenvalues --    2.97820   2.98447   2.99099   2.99478   2.99675
 Alpha virt. eigenvalues --    2.99915   3.00868   3.01419   3.01655   3.02197
 Alpha virt. eigenvalues --    3.02236   3.02835   3.03314   3.04526   3.04973
 Alpha virt. eigenvalues --    3.05100   3.05515   3.05821   3.06954   3.07303
 Alpha virt. eigenvalues --    3.07849   3.08976   3.10536   3.11547   3.11811
 Alpha virt. eigenvalues --    3.14036   3.18203   3.26670   3.28212   3.28312
 Alpha virt. eigenvalues --    3.31388   3.33322   3.34446   3.37868   3.43754
 Alpha virt. eigenvalues --    3.44014   3.45218   3.48687   3.50521   3.52521
 Alpha virt. eigenvalues --    3.54504   3.57539
          Condensed to atoms (all electrons):
 Mulliken charges:
               1
     1  Mg   0.694980
     2  C    0.042449
     3  C   -0.068213
     4  C   -0.033866
     5  C   -0.080198
     6  N   -0.194994
     7  C   -0.098265
     8  C    0.024539
     9  C   -0.012431
    10  C    0.029032
    11  C    0.097792
    12  C    0.119360
    13  C    0.111680
    14  C    0.117056
    15  O   -0.182092
    16  O   -0.316764
    17  N   -0.267928
    18  C    0.161069
    19  C   -0.132988
    20  C    0.071719
    21  C    0.090137
    22  C    0.165766
    23  C   -0.076699
    24  O   -0.182847
    25  C    0.141762
    26  N   -0.242512
    27  C    0.006484
    28  C   -0.007098
    29  C    0.002264
    30  C    0.059048
    31  C    0.144738
    32  C    0.093644
    33  C    0.078464
    34  N   -0.286863
    35  C    0.093330
    36  C   -0.189534
    37  C    0.120123
    38  C    0.073916
    39  C    0.175807
    40  C   -0.099745
    41  O   -0.094632
    42  C    0.070185
    43  C    0.131470
    44  O   -0.190727
    45  O   -0.299129
    46  C    0.211639
    47  C    0.294660
    48  C   -0.012915
    49  C   -0.167074
    50  C    0.146394
    51  C    0.095129
    52  C    0.046975
    53  C    0.151061
    54  C   -0.021036
    55  C    0.097311
    56  C    0.078221
    57  C    0.013493
    58  C    0.117454
    59  C   -0.063924
    60  C    0.071594
    61  C    0.110379
    62  C    0.071214
    63  C    0.094638
    64  C   -0.103544
    65  C    0.094453
    66  C    0.130610
    67  H   -0.060664
    68  H   -0.080361
    69  H   -0.058955
    70  H   -0.034181
    71  H   -0.022709
    72  H   -0.005983
    73  H   -0.008521
    74  H    0.002484
    75  H   -0.018307
    76  H   -0.013487
    77  H    0.019850
    78  H    0.006683
    79  H    0.001104
    80  H   -0.009987
    81  H   -0.007206
    82  H    0.023304
    83  H    0.004102
    84  H   -0.018235
    85  H   -0.011688
    86  H   -0.016301
    87  H   -0.005466
    88  H    0.002828
    89  H   -0.003358
    90  H   -0.019369
    91  H   -0.039994
    92  H   -0.007440
    93  H   -0.015047
    94  H   -0.004908
    95  H    0.001335
    96  H   -0.012236
    97  H    0.011595
    98  H    0.011031
    99  H    0.020464
   100  H    0.023578
   101  H    0.030064
   102  H   -0.018464
   103  H   -0.008824
   104  H   -0.044064
   105  H   -0.021182
   106  H   -0.006686
   107  H   -0.000114
   108  H   -0.039187
   109  H   -0.035992
   110  H   -0.023650
   111  H   -0.022237
   112  H   -0.038689
   113  H   -0.026607
   114  H   -0.033506
   115  H   -0.021419
   116  H   -0.015027
   117  H   -0.022794
   118  H   -0.041910
   119  H   -0.024053
   120  H   -0.045224
   121  H   -0.041142
   122  H   -0.034437
   123  H   -0.017703
   124  H   -0.024080
   125  H   -0.011369
   126  H   -0.015586
   127  H   -0.018815
   128  H   -0.035640
   129  H   -0.031145
   130  H   -0.025294
   131  H   -0.031293
   132  H   -0.039917
   133  H   -0.031825
   134  H   -0.036378
   135  H   -0.031472
   136  H   -0.008091
   137  H   -0.029728
   138  H   -0.020160
   139  H   -0.009974
   140  H   -0.016357
 Sum of Mulliken charges =  -0.00000
 Mulliken charges with hydrogens summed into heavy atoms:
               1
     1  Mg   0.694980
     2  C    0.042449
     3  C   -0.128878
     4  C   -0.114228
     5  C   -0.139153
     6  N   -0.194994
     7  C   -0.098265
     8  C   -0.009641
     9  C   -0.035139
    10  C    0.029032
    11  C    0.085772
    12  C    0.087566
    13  C    0.138212
    14  C    0.117056
    15  O   -0.182092
    16  O   -0.316764
    17  N   -0.267928
    18  C    0.161069
    19  C   -0.132988
    20  C    0.071719
    21  C    0.090137
    22  C    0.149678
    23  C   -0.076699
    24  O   -0.182847
    25  C    0.150932
    26  N   -0.242512
    27  C    0.006484
    28  C   -0.018787
    29  C   -0.014037
    30  C    0.059048
    31  C    0.138742
    32  C    0.034281
    33  C    0.051069
    34  N   -0.286863
    35  C    0.093330
    36  C   -0.189534
    37  C    0.120123
    38  C    0.073916
    39  C    0.176501
    40  C   -0.099745
    41  O   -0.094632
    42  C    0.081216
    43  C    0.131470
    44  O   -0.190727
    45  O   -0.299129
    46  C    0.285744
    47  C    0.267373
    48  C   -0.056979
    49  C   -0.167074
    50  C    0.118412
    51  C    0.019950
    52  C    0.001088
    53  C    0.085764
    54  C   -0.054542
    55  C    0.038070
    56  C    0.012258
    57  C   -0.072874
    58  C    0.065314
    59  C   -0.088003
    60  C    0.025824
    61  C    0.043594
    62  C    0.014627
    63  C    0.022896
    64  C   -0.139921
    65  C    0.025161
    66  C    0.084118
 Electronic spatial extent (au):  <R**2>=         109709.3315
 Charge=             -0.0000 electrons
 Dipole moment (field-independent basis, Debye):
    X=             -0.9929    Y=              4.9578    Z=             -0.8454  Tot=              5.1265
 Quadrupole moment (field-independent basis, Debye-Ang):
   XX=           -399.9200   YY=           -433.7835   ZZ=           -391.1002
   XY=            -48.7126   XZ=            -19.4297   YZ=            -29.2062
 Traceless Quadrupole moment (field-independent basis, Debye-Ang):
   XX=              8.3479   YY=            -25.5156   ZZ=             17.1677
   XY=            -48.7126   XZ=            -19.4297   YZ=            -29.2062
 Octapole moment (field-independent basis, Debye-Ang**2):
  XXX=            -84.7014  YYY=            206.3200  ZZZ=              9.4405  XYY=             61.4185
  XXY=            305.7081  XXZ=             20.1369  XZZ=           -150.0110  YZZ=           -117.4740
  YYZ=            -81.5970  XYZ=            124.0848
 Hexadecapole moment (field-independent basis, Debye-Ang**3):
 XXXX=        -117967.8299 YYYY=         -24997.1522 ZZZZ=         -11795.6327 XXXY=          -2101.2183
 XXXZ=           -963.3582 YYYX=          -1591.8931 YYYZ=           -628.3059 ZZZX=           -331.8703
 ZZZY=           -406.0244 XXYY=         -24463.2524 XXZZ=         -20989.9625 YYZZ=          -6011.5686
 XXYZ=           -923.0865 YYXZ=           -385.3057 ZZXY=            157.4546
 N-N= 9.629410142996D+03 E-N=-2.625351581234D+04  KE= 2.977437271187D+03
 Leave Link  601 at Wed Apr 27 04:06:24 2022, MaxMem= 10066329600 cpu:               9.8 elap:               0.5
 (Enter /sw/apps/gaussian-16.0/g16/l9999.exe)
 1\1\GINC-BP1-COMPUTE163\SP\RBLYP TD-FC\def2SVP\C55H74Mg1N4O6\OF15641\2
 7-Apr-2022\0\\#p blyp/Def2SVP td=(nstates=5)\\step_1051_chromophore_2 
 TDDFT with blyp functional\\0,1\Mg,0,3.489,0.699,44.223\C,0,6.429,2.76
 9,43.972\C,0,1.734,3.313,42.794\C,0,0.845,-1.349,43.949\C,0,5.477,-1.8
 36,45.381\N,0,4.042,2.732,43.487\C,0,5.279,3.311,43.405\C,0,5.254,4.74
 ,42.782\C,0,3.67,5.007,42.797\C,0,3.068,3.588,43.047\C,0,3.077,6.033,4
 3.869\C,0,5.962,4.998,41.433\C,0,6.428,3.793,40.588\C,0,6.477,3.893,39
 .069\O,0,6.29,4.915,38.404\O,0,6.722,2.614,38.436\N,0,1.553,0.936,43.3
 82\C,0,1.061,2.136,42.926\C,0,-0.316,1.836,42.535\C,0,-0.633,0.534,42.
 814\C,0,0.623,-0.037,43.376\C,0,-1.259,2.928,41.985\C,0,-1.959,-0.142,
 42.606\O,0,-2.936,0.494,42.165\C,0,-2.171,-1.569,42.9\N,0,3.189,-1.326
 ,44.501\C,0,1.975,-1.922,44.536\C,0,2.114,-3.444,44.879\C,0,3.593,-3.4
 79,45.512\C,0,4.153,-2.199,44.951\C,0,1.013,-4.178,45.757\C,0,4.403,-4
 .75,45.158\C,0,4.398,-5.898,46.152\N,0,5.465,0.473,44.745\C,0,6.13,-0.
 614,45.252\C,0,7.497,-0.183,45.574\C,0,7.658,1.144,45.131\C,0,6.409,1.
 478,44.581\C,0,8.509,-1.06,46.208\C,0,8.603,2.213,44.984\O,0,9.75,2.29
 2,45.371\C,0,7.774,3.335,44.212\C,0,7.885,4.576,44.987\O,0,8.868,5.337
 ,44.883\O,0,6.747,4.807,45.756\C,0,6.638,6.109,46.444\C,0,6.637,2.58,3
 6.958\C,0,5.306,2.089,36.343\C,0,5.107,1.378,35.227\C,0,6.17,1.05,34.1
 94\C,0,3.705,0.905,34.791\C,0,2.868,2.015,34.06\C,0,2.395,1.647,32.6\C
 ,0,0.888,1.438,32.591\C,0,0.451,0.211,31.848\C,0,0.236,2.664,31.833\C,
 0,-0.438,3.726,32.696\C,0,-1.812,4.266,31.986\C,0,-1.567,4.569,30.496\
 C,0,-2.045,6.032,30.22\C,0,-2.328,3.561,29.528\C,0,-1.481,2.998,28.298
 \C,0,-1.638,3.679,26.917\C,0,-2.319,2.831,25.883\C,0,-1.666,3.165,24.5
 36\C,0,-3.842,3.09,25.814\H,0,1.161,4.174,42.443\H,0,-0.052,-1.935,44.
 161\H,0,6.216,-2.575,45.697\H,0,5.762,5.43,43.458\H,0,3.335,5.4,41.838
 \H,0,2.309,6.63,43.378\H,0,3.83,6.742,44.213\H,0,2.609,5.592,44.749\H,
 0,6.739,5.642,41.844\H,0,5.427,5.674,40.765\H,0,5.762,2.965,40.83\H,0,
 7.385,3.416,40.948\H,0,-2.121,2.638,41.384\H,0,-0.658,3.702,41.507\H,0
 ,-1.833,3.359,42.805\H,0,-1.995,-1.754,43.96\H,0,-1.545,-2.236,42.306\
 H,0,-3.152,-1.96,42.631\H,0,2.166,-3.983,43.932\H,0,3.615,-3.285,46.58
 4\H,0,0.555,-4.952,45.142\H,0,0.255,-3.445,46.032\H,0,1.606,-4.583,46.
 577\H,0,5.431,-4.514,44.882\H,0,3.979,-5.143,44.234\H,0,4.057,-6.812,4
 5.666\H,0,3.703,-5.684,46.964\H,0,5.381,-6.064,46.592\H,0,8.413,-1.019
 ,47.293\H,0,9.454,-0.53,46.087\H,0,8.601,-2.038,45.736\H,0,8.372,3.404
 ,43.304\H,0,5.6,6.419,46.325\H,0,7.243,6.896,45.993\H,0,6.975,5.849,47
 .447\H,0,7.512,2.033,36.606\H,0,7.037,3.512,36.559\H,0,4.427,2.118,36.
 988\H,0,7.096,1.558,34.465\H,0,5.789,1.432,33.247\H,0,6.372,-0.008,34.
 024\H,0,3.161,0.6,35.685\H,0,3.7,-0.067,34.297\H,0,3.427,2.951,34.102\
 H,0,2.051,2.158,34.767\H,0,2.915,0.723,32.347\H,0,2.791,2.472,32.007\H
 ,0,0.507,1.329,33.607\H,0,0.757,0.374,30.815\H,0,-0.63,0.084,31.799\H,
 0,0.924,-0.692,32.235\H,0,-0.617,2.287,31.27\H,0,0.894,3.187,31.139\H,
 0,0.254,4.552,32.858\H,0,-0.524,3.326,33.706\H,0,-2.055,5.178,32.531\H
 ,0,-2.506,3.47,32.255\H,0,-0.516,4.753,30.271\H,0,-1.681,6.761,30.944\
 H,0,-3.134,5.975,30.218\H,0,-1.681,6.351,29.244\H,0,-3.148,4.106,29.06
 1\H,0,-2.794,2.762,30.104\H,0,-1.654,1.921,28.295\H,0,-0.426,3.185,28.
 494\H,0,-0.636,3.946,26.58\H,0,-2.211,4.605,26.96\H,0,-2.11,1.774,26.0
 52\H,0,-0.846,2.45,24.462\H,0,-1.217,4.149,24.404\H,0,-2.277,2.909,23.
 671\H,0,-4.288,2.097,25.765\H,0,-4.138,3.643,24.923\H,0,-4.121,3.57,26
 .751\\Version=ES64L-G16RevA.03\State=1-A\HF=-3007.3711272\RMSD=3.170e-
 09\PG=C01 [X(C55H74Mg1N4O6)]\\@


 The hours that make us happy make us wise.
                         -- John Masefield
 Job cpu time:       0 days  5 hours 24 minutes 50.0 seconds.
 Elapsed time:       0 days  0 hours 13 minutes 35.8 seconds.
 File lengths (MBytes):  RWF=   8019 Int=      0 D2E=      0 Chk=    390 Scr=      1
 Normal termination of Gaussian 16 at Wed Apr 27 04:06:24 2022.
