 Entering Gaussian System, Link 0=g16
 Initial command:
 /sw/apps/gaussian-16.0/g16/l1.exe "/tmp/Gau-163327.inp" -scrdir="/tmp/"
 Entering Link 1 = /sw/apps/gaussian-16.0/g16/l1.exe PID=    163329.
  
 Copyright (c) 1988,1990,1992,1993,1995,1998,2003,2009,2016,
            Gaussian, Inc.  All Rights Reserved.
  
 This is part of the Gaussian(R) 16 program.  It is based on
 the Gaussian(R) 09 system (copyright 2009, Gaussian, Inc.),
 the Gaussian(R) 03 system (copyright 2003, Gaussian, Inc.),
 the Gaussian(R) 98 system (copyright 1998, Gaussian, Inc.),
 the Gaussian(R) 94 system (copyright 1995, Gaussian, Inc.),
 the Gaussian 92(TM) system (copyright 1992, Gaussian, Inc.),
 the Gaussian 90(TM) system (copyright 1990, Gaussian, Inc.),
 the Gaussian 88(TM) system (copyright 1988, Gaussian, Inc.),
 the Gaussian 86(TM) system (copyright 1986, Carnegie Mellon
 University), and the Gaussian 82(TM) system (copyright 1983,
 Carnegie Mellon University). Gaussian is a federally registered
 trademark of Gaussian, Inc.
  
 This software contains proprietary and confidential information,
 including trade secrets, belonging to Gaussian, Inc.
  
 This software is provided under written license and may be
 used, copied, transmitted, or stored only in accord with that
 written license.
  
 The following legend is applicable only to US Government
 contracts under FAR:
  
                    RESTRICTED RIGHTS LEGEND
  
 Use, reproduction and disclosure by the US Government is
 subject to restrictions as set forth in subparagraphs (a)
 and (c) of the Commercial Computer Software - Restricted
 Rights clause in FAR 52.227-19.
  
 Gaussian, Inc.
 340 Quinnipiac St., Bldg. 40, Wallingford CT 06492
  
  
 ---------------------------------------------------------------
 Warning -- This program may not be used in any manner that
 competes with the business of Gaussian, Inc. or will provide
 assistance to any competitor of Gaussian, Inc.  The licensee
 of this program is prohibited from giving any competitor of
 Gaussian, Inc. access to this program.  By using this program,
 the user acknowledges that Gaussian, Inc. is engaged in the
 business of creating and licensing software in the field of
 computational chemistry and represents and warrants to the
 licensee that it is not a competitor of Gaussian, Inc. and that
 it will not use this program in any manner prohibited above.
 ---------------------------------------------------------------
  

 Cite this work as:
 Gaussian 16, Revision A.03,
 M. J. Frisch, G. W. Trucks, H. B. Schlegel, G. E. Scuseria, 
 M. A. Robb, J. R. Cheeseman, G. Scalmani, V. Barone, 
 G. A. Petersson, H. Nakatsuji, X. Li, M. Caricato, A. V. Marenich, 
 J. Bloino, B. G. Janesko, R. Gomperts, B. Mennucci, H. P. Hratchian, 
 J. V. Ortiz, A. F. Izmaylov, J. L. Sonnenberg, D. Williams-Young, 
 F. Ding, F. Lipparini, F. Egidi, J. Goings, B. Peng, A. Petrone, 
 T. Henderson, D. Ranasinghe, V. G. Zakrzewski, J. Gao, N. Rega, 
 G. Zheng, W. Liang, M. Hada, M. Ehara, K. Toyota, R. Fukuda, 
 J. Hasegawa, M. Ishida, T. Nakajima, Y. Honda, O. Kitao, H. Nakai, 
 T. Vreven, K. Throssell, J. A. Montgomery, Jr., J. E. Peralta, 
 F. Ogliaro, M. J. Bearpark, J. J. Heyd, E. N. Brothers, K. N. Kudin, 
 V. N. Staroverov, T. A. Keith, R. Kobayashi, J. Normand, 
 K. Raghavachari, A. P. Rendell, J. C. Burant, S. S. Iyengar, 
 J. Tomasi, M. Cossi, J. M. Millam, M. Klene, C. Adamo, R. Cammi, 
 J. W. Ochterski, R. L. Martin, K. Morokuma, O. Farkas, 
 J. B. Foresman, and D. J. Fox, Gaussian, Inc., Wallingford CT, 2016.
 
 ******************************************
 Gaussian 16:  ES64L-G16RevA.03 25-Dec-2016
                 4-May-2022 
 ******************************************
 %nproc=24
 Will use up to   24 processors via shared memory.
 %mem=75GB
 ---------------------------------
 #p PBE1PBE/Def2SVP td=(nstates=5)
 ---------------------------------
 1/38=1,172=1/1;
 2/12=2,17=6,18=5,40=1/2;
 3/5=43,7=101,11=9,25=1,30=1,74=-13/1,2,3,8;
 4//1;
 5/5=2,38=5/2;
 8/6=1,10=1,108=5/1;
 9/41=5,42=1,70=2/14;
 6/7=2,8=2,9=2,10=2/1;
 99/5=1,9=1/99;
 Leave Link    1 at Wed May  4 17:26:07 2022, MaxMem= 10066329600 cpu:               1.8 elap:               0.1
 (Enter /sw/apps/gaussian-16.0/g16/l101.exe)
 -----------------------------------------------------
 step_301_chromophore_21 TDDFT with PBE1PBE functional
 -----------------------------------------------------
 Symbolic Z-matrix:
 Charge =  0 Multiplicity = 1
 Mg                    15.631    51.846    25.941 
 C                     17.605    50.77     28.639 
 C                     13.025    52.423    28.107 
 C                     13.718    52.661    23.322 
 C                     18.244    50.914    23.714 
 N                     15.43     51.66     28.11 
 C                     16.417    51.421    29.04 
 C                     15.932    51.774    30.497 
 C                     14.345    51.856    30.264 
 C                     14.208    51.974    28.738 
 C                     13.522    50.669    30.819 
 C                     16.496    53.106    31.003 
 C                     16.427    53.354    32.544 
 C                     15.443    52.554    33.416 
 O                     15.636    51.343    33.679 
 O                     14.412    53.249    33.96 
 N                     13.681    52.559    25.718 
 C                     12.767    52.615    26.732 
 C                     11.45     53.001    26.143 
 C                     11.641    53.242    24.752 
 C                     13.071    52.829    24.557 
 C                     10.126    53.145    26.92 
 C                     10.742    53.798    23.714 
 O                     11.184    54.023    22.617 
 C                     9.242     54.03     23.987 
 N                     15.95     51.837    23.798 
 C                     14.967    52.2      22.923 
 C                     15.459    52.168    21.487 
 C                     16.925    51.673    21.568 
 C                     17.068    51.472    23.116 
 C                     14.613    51.255    20.678 
 C                     18.112    52.593    21.228 
 C                     19.439    51.971    20.586 
 N                     17.547    50.931    26.05 
 C                     18.482    50.541    25.054 
 C                     19.659    49.893    25.719 
 C                     19.264    49.912    27.114 
 C                     18.047    50.61     27.261 
 C                     21.002    49.526    25.054 
 C                     19.754    49.567    28.413 
 O                     20.821    49.005    28.82 
 C                     18.767    50.24     29.474 
 C                     18.406    49.226    30.547 
 O                     17.582    48.307    30.387 
 O                     19.057    49.509    31.714 
 C                     18.716    48.594    32.774 
 C                     13.58     52.523    34.906 
 C                     12.667    53.528    35.519 
 C                     12.091    53.463    36.715 
 C                     12.177    52.287    37.649 
 C                     11.477    54.675    37.318 
 C                     10.083    55.162    36.848 
 C                     10.169    56.344    35.899 
 C                     8.791     56.777    35.369 
 C                     8.871     57.12     33.919 
 C                     8.145     57.941    36.13 
 C                     7.243     57.428    37.236 
 C                     5.749     57.675    36.965 
 C                     4.929     58.09     38.237 
 C                     3.557     57.326    38.103 
 C                     4.554     59.604    38.119 
 C                     5.849     60.491    38.014 
 C                     5.627     61.928    38.531 
 C                     5.546     62.987    37.374 
 C                     6.289     64.246    37.846 
 C                     4.063     63.329    37.071 
 H                     12.258    52.708    28.83 
 H                     13.111    52.94     22.459 
 H                     19.084    50.701    23.05 
 H                     16.324    51.046    31.206 
 H                     13.934    52.793    30.641 
 H                     13.002    50.326    29.924 
 H                     12.83     50.935    31.618 
 H                     14.168    49.87     31.182 
 H                     16.018    53.908    30.44 
 H                     17.56     53.16     30.772 
 H                     16.136    54.394    32.692 
 H                     17.41     53.109    32.945 
 H                     9.811     54.189    26.915 
 H                     10.302    52.678    27.889 
 H                     9.417     52.457    26.461 
 H                     9.225     54.932    24.599 
 H                     8.796     53.153    24.457 
 H                     8.817     54.093    22.986 
 H                     15.373    53.225    21.232 
 H                     17.155    50.748    21.039 
 H                     15.162    50.517    20.092 
 H                     14.206    51.923    19.919 
 H                     13.678    50.957    21.153 
 H                     18.554    53.059    22.109 
 H                     17.673    53.446    20.71 
 H                     20.166    51.792    21.379 
 H                     19.91     52.605    19.834 
 H                     19.009    51.037    20.227 
 H                     21.839    49.764    25.712 
 H                     21.164    50.016    24.095 
 H                     21.134    48.455    24.895 
 H                     19.315    51.112    29.831 
 H                     19.009    47.629    32.359 
 H                     17.673    48.717    33.065 
 H                     19.436    48.61     33.592 
 H                     14.199    51.99     35.627 
 H                     12.942    51.753    34.471 
 H                     12.742    54.505    35.043 
 H                     12.036    51.34     37.127 
 H                     11.326    52.215    38.326 
 H                     13.116    52.23     38.2 
 H                     12.22     55.468    37.232 
 H                     11.288    54.656    38.392 
 H                     9.518     55.46     37.732 
 H                     9.594     54.357    36.301 
 H                     10.79     55.994    35.074 
 H                     10.59     57.167    36.476 
 H                     8.214     55.854    35.417 
 H                     7.909     57.271    33.43 
 H                     9.449     56.352    33.405 
 H                     9.387     58.066    33.755 
 H                     7.614     58.661    35.508 
 H                     8.944     58.478    36.64 
 H                     7.522     58.016    38.11 
 H                     7.315     56.358    37.427 
 H                     5.49      56.687    36.585 
 H                     5.536     58.303    36.1 
 H                     5.534     57.823    39.103 
 H                     2.697     57.954    38.337 
 H                     3.482     56.391    38.658 
 H                     3.355     57.114    37.053 
 H                     3.86      59.911    38.902 
 H                     3.986     59.748    37.2 
 H                     6.423     60.57     37.09 
 H                     6.64      60.192    38.701 
 H                     6.458     62.171    39.192 
 H                     4.71      61.959    39.119 
 H                     5.985     62.587    36.46 
 H                     5.884     65.234    37.629 
 H                     7.296     64.151    37.44 
 H                     6.298     64.171    38.933 
 H                     4.003     63.219    35.989 
 H                     3.742     64.311    37.418 
 H                     3.414     62.52     37.407 
 
 ITRead=  0  0  0  0  0  0  0  0  0  0  0  0  0  0  0  0  0  0  0  0
 ITRead=  0  0  0  0  0  0  0  0  0  0  0  0  0  0  0  0  0  0  0  0
 ITRead=  0  0  0  0  0  0  0  0  0  0  0  0  0  0  0  0  0  0  0  0
 ITRead=  0  0  0  0  0  0  0  0  0  0  0  0  0  0  0  0  0  0  0  0
 ITRead=  0  0  0  0  0  0  0  0  0  0  0  0  0  0  0  0  0  0  0  0
 ITRead=  0  0  0  0  0  0  0  0  0  0  0  0  0  0  0  0  0  0  0  0
 ITRead=  0  0  0  0  0  0  0  0  0  0  0  0  0  0  0  0  0  0  0  0
 MicOpt= -1 -1 -1 -1 -1 -1 -1 -1 -1 -1 -1 -1 -1 -1 -1 -1 -1 -1 -1 -1
 MicOpt= -1 -1 -1 -1 -1 -1 -1 -1 -1 -1 -1 -1 -1 -1 -1 -1 -1 -1 -1 -1
 MicOpt= -1 -1 -1 -1 -1 -1 -1 -1 -1 -1 -1 -1 -1 -1 -1 -1 -1 -1 -1 -1
 MicOpt= -1 -1 -1 -1 -1 -1 -1 -1 -1 -1 -1 -1 -1 -1 -1 -1 -1 -1 -1 -1
 MicOpt= -1 -1 -1 -1 -1 -1 -1 -1 -1 -1 -1 -1 -1 -1 -1 -1 -1 -1 -1 -1
 MicOpt= -1 -1 -1 -1 -1 -1 -1 -1 -1 -1 -1 -1 -1 -1 -1 -1 -1 -1 -1 -1
 MicOpt= -1 -1 -1 -1 -1 -1 -1 -1 -1 -1 -1 -1 -1 -1 -1 -1 -1 -1 -1 -1
 NAtoms=    140 NQM=      140 NQMF=       0 NMMI=      0 NMMIF=      0
                NMic=       0 NMicF=      0.
                    Isotopes and Nuclear Properties:
 (Nuclear quadrupole moments (NQMom) in fm**2, nuclear magnetic moments (NMagM)
  in nuclear magnetons)

  Atom         1           2           3           4           5           6           7           8           9          10
 IAtWgt=          24          12          12          12          12          14          12          12          12          12
 AtmWgt=  23.9850450  12.0000000  12.0000000  12.0000000  12.0000000  14.0030740  12.0000000  12.0000000  12.0000000  12.0000000
 NucSpn=           0           0           0           0           0           2           0           0           0           0
 AtZEff=  -0.0000000  -0.0000000  -0.0000000  -0.0000000  -0.0000000  -0.0000000  -0.0000000  -0.0000000  -0.0000000  -0.0000000
 NQMom=    0.0000000   0.0000000   0.0000000   0.0000000   0.0000000   2.0440000   0.0000000   0.0000000   0.0000000   0.0000000
 NMagM=    0.0000000   0.0000000   0.0000000   0.0000000   0.0000000   0.4037610   0.0000000   0.0000000   0.0000000   0.0000000
 AtZNuc=  12.0000000   6.0000000   6.0000000   6.0000000   6.0000000   7.0000000   6.0000000   6.0000000   6.0000000   6.0000000

  Atom        11          12          13          14          15          16          17          18          19          20
 IAtWgt=          12          12          12          12          16          16          14          12          12          12
 AtmWgt=  12.0000000  12.0000000  12.0000000  12.0000000  15.9949146  15.9949146  14.0030740  12.0000000  12.0000000  12.0000000
 NucSpn=           0           0           0           0           0           0           2           0           0           0
 AtZEff=  -0.0000000  -0.0000000  -0.0000000  -0.0000000  -0.0000000  -0.0000000  -0.0000000  -0.0000000  -0.0000000  -0.0000000
 NQMom=    0.0000000   0.0000000   0.0000000   0.0000000   0.0000000   0.0000000   2.0440000   0.0000000   0.0000000   0.0000000
 NMagM=    0.0000000   0.0000000   0.0000000   0.0000000   0.0000000   0.0000000   0.4037610   0.0000000   0.0000000   0.0000000
 AtZNuc=   6.0000000   6.0000000   6.0000000   6.0000000   8.0000000   8.0000000   7.0000000   6.0000000   6.0000000   6.0000000

  Atom        21          22          23          24          25          26          27          28          29          30
 IAtWgt=          12          12          12          16          12          14          12          12          12          12
 AtmWgt=  12.0000000  12.0000000  12.0000000  15.9949146  12.0000000  14.0030740  12.0000000  12.0000000  12.0000000  12.0000000
 NucSpn=           0           0           0           0           0           2           0           0           0           0
 AtZEff=  -0.0000000  -0.0000000  -0.0000000  -0.0000000  -0.0000000  -0.0000000  -0.0000000  -0.0000000  -0.0000000  -0.0000000
 NQMom=    0.0000000   0.0000000   0.0000000   0.0000000   0.0000000   2.0440000   0.0000000   0.0000000   0.0000000   0.0000000
 NMagM=    0.0000000   0.0000000   0.0000000   0.0000000   0.0000000   0.4037610   0.0000000   0.0000000   0.0000000   0.0000000
 AtZNuc=   6.0000000   6.0000000   6.0000000   8.0000000   6.0000000   7.0000000   6.0000000   6.0000000   6.0000000   6.0000000

  Atom        31          32          33          34          35          36          37          38          39          40
 IAtWgt=          12          12          12          14          12          12          12          12          12          12
 AtmWgt=  12.0000000  12.0000000  12.0000000  14.0030740  12.0000000  12.0000000  12.0000000  12.0000000  12.0000000  12.0000000
 NucSpn=           0           0           0           2           0           0           0           0           0           0
 AtZEff=  -0.0000000  -0.0000000  -0.0000000  -0.0000000  -0.0000000  -0.0000000  -0.0000000  -0.0000000  -0.0000000  -0.0000000
 NQMom=    0.0000000   0.0000000   0.0000000   2.0440000   0.0000000   0.0000000   0.0000000   0.0000000   0.0000000   0.0000000
 NMagM=    0.0000000   0.0000000   0.0000000   0.4037610   0.0000000   0.0000000   0.0000000   0.0000000   0.0000000   0.0000000
 AtZNuc=   6.0000000   6.0000000   6.0000000   7.0000000   6.0000000   6.0000000   6.0000000   6.0000000   6.0000000   6.0000000

  Atom        41          42          43          44          45          46          47          48          49          50
 IAtWgt=          16          12          12          16          16          12          12          12          12          12
 AtmWgt=  15.9949146  12.0000000  12.0000000  15.9949146  15.9949146  12.0000000  12.0000000  12.0000000  12.0000000  12.0000000
 NucSpn=           0           0           0           0           0           0           0           0           0           0
 AtZEff=  -0.0000000  -0.0000000  -0.0000000  -0.0000000  -0.0000000  -0.0000000  -0.0000000  -0.0000000  -0.0000000  -0.0000000
 NQMom=    0.0000000   0.0000000   0.0000000   0.0000000   0.0000000   0.0000000   0.0000000   0.0000000   0.0000000   0.0000000
 NMagM=    0.0000000   0.0000000   0.0000000   0.0000000   0.0000000   0.0000000   0.0000000   0.0000000   0.0000000   0.0000000
 AtZNuc=   8.0000000   6.0000000   6.0000000   8.0000000   8.0000000   6.0000000   6.0000000   6.0000000   6.0000000   6.0000000

  Atom        51          52          53          54          55          56          57          58          59          60
 IAtWgt=          12          12          12          12          12          12          12          12          12          12
 AtmWgt=  12.0000000  12.0000000  12.0000000  12.0000000  12.0000000  12.0000000  12.0000000  12.0000000  12.0000000  12.0000000
 NucSpn=           0           0           0           0           0           0           0           0           0           0
 AtZEff=  -0.0000000  -0.0000000  -0.0000000  -0.0000000  -0.0000000  -0.0000000  -0.0000000  -0.0000000  -0.0000000  -0.0000000
 NQMom=    0.0000000   0.0000000   0.0000000   0.0000000   0.0000000   0.0000000   0.0000000   0.0000000   0.0000000   0.0000000
 NMagM=    0.0000000   0.0000000   0.0000000   0.0000000   0.0000000   0.0000000   0.0000000   0.0000000   0.0000000   0.0000000
 AtZNuc=   6.0000000   6.0000000   6.0000000   6.0000000   6.0000000   6.0000000   6.0000000   6.0000000   6.0000000   6.0000000

  Atom        61          62          63          64          65          66          67          68          69          70
 IAtWgt=          12          12          12          12          12          12           1           1           1           1
 AtmWgt=  12.0000000  12.0000000  12.0000000  12.0000000  12.0000000  12.0000000   1.0078250   1.0078250   1.0078250   1.0078250
 NucSpn=           0           0           0           0           0           0           1           1           1           1
 AtZEff=  -0.0000000  -0.0000000  -0.0000000  -0.0000000  -0.0000000  -0.0000000  -0.0000000  -0.0000000  -0.0000000  -0.0000000
 NQMom=    0.0000000   0.0000000   0.0000000   0.0000000   0.0000000   0.0000000   0.0000000   0.0000000   0.0000000   0.0000000
 NMagM=    0.0000000   0.0000000   0.0000000   0.0000000   0.0000000   0.0000000   2.7928460   2.7928460   2.7928460   2.7928460
 AtZNuc=   6.0000000   6.0000000   6.0000000   6.0000000   6.0000000   6.0000000   1.0000000   1.0000000   1.0000000   1.0000000

  Atom        71          72          73          74          75          76          77          78          79          80
 IAtWgt=           1           1           1           1           1           1           1           1           1           1
 AtmWgt=   1.0078250   1.0078250   1.0078250   1.0078250   1.0078250   1.0078250   1.0078250   1.0078250   1.0078250   1.0078250
 NucSpn=           1           1           1           1           1           1           1           1           1           1
 AtZEff=  -0.0000000  -0.0000000  -0.0000000  -0.0000000  -0.0000000  -0.0000000  -0.0000000  -0.0000000  -0.0000000  -0.0000000
 NQMom=    0.0000000   0.0000000   0.0000000   0.0000000   0.0000000   0.0000000   0.0000000   0.0000000   0.0000000   0.0000000
 NMagM=    2.7928460   2.7928460   2.7928460   2.7928460   2.7928460   2.7928460   2.7928460   2.7928460   2.7928460   2.7928460
 AtZNuc=   1.0000000   1.0000000   1.0000000   1.0000000   1.0000000   1.0000000   1.0000000   1.0000000   1.0000000   1.0000000

  Atom        81          82          83          84          85          86          87          88          89          90
 IAtWgt=           1           1           1           1           1           1           1           1           1           1
 AtmWgt=   1.0078250   1.0078250   1.0078250   1.0078250   1.0078250   1.0078250   1.0078250   1.0078250   1.0078250   1.0078250
 NucSpn=           1           1           1           1           1           1           1           1           1           1
 AtZEff=  -0.0000000  -0.0000000  -0.0000000  -0.0000000  -0.0000000  -0.0000000  -0.0000000  -0.0000000  -0.0000000  -0.0000000
 NQMom=    0.0000000   0.0000000   0.0000000   0.0000000   0.0000000   0.0000000   0.0000000   0.0000000   0.0000000   0.0000000
 NMagM=    2.7928460   2.7928460   2.7928460   2.7928460   2.7928460   2.7928460   2.7928460   2.7928460   2.7928460   2.7928460
 AtZNuc=   1.0000000   1.0000000   1.0000000   1.0000000   1.0000000   1.0000000   1.0000000   1.0000000   1.0000000   1.0000000

  Atom        91          92          93          94          95          96          97          98          99         100
 IAtWgt=           1           1           1           1           1           1           1           1           1           1
 AtmWgt=   1.0078250   1.0078250   1.0078250   1.0078250   1.0078250   1.0078250   1.0078250   1.0078250   1.0078250   1.0078250
 NucSpn=           1           1           1           1           1           1           1           1           1           1
 AtZEff=  -0.0000000  -0.0000000  -0.0000000  -0.0000000  -0.0000000  -0.0000000  -0.0000000  -0.0000000  -0.0000000  -0.0000000
 NQMom=    0.0000000   0.0000000   0.0000000   0.0000000   0.0000000   0.0000000   0.0000000   0.0000000   0.0000000   0.0000000
 NMagM=    2.7928460   2.7928460   2.7928460   2.7928460   2.7928460   2.7928460   2.7928460   2.7928460   2.7928460   2.7928460
 AtZNuc=   1.0000000   1.0000000   1.0000000   1.0000000   1.0000000   1.0000000   1.0000000   1.0000000   1.0000000   1.0000000

  Atom       101         102         103         104         105         106         107         108         109         110
 IAtWgt=           1           1           1           1           1           1           1           1           1           1
 AtmWgt=   1.0078250   1.0078250   1.0078250   1.0078250   1.0078250   1.0078250   1.0078250   1.0078250   1.0078250   1.0078250
 NucSpn=           1           1           1           1           1           1           1           1           1           1
 AtZEff=  -0.0000000  -0.0000000  -0.0000000  -0.0000000  -0.0000000  -0.0000000  -0.0000000  -0.0000000  -0.0000000  -0.0000000
 NQMom=    0.0000000   0.0000000   0.0000000   0.0000000   0.0000000   0.0000000   0.0000000   0.0000000   0.0000000   0.0000000
 NMagM=    2.7928460   2.7928460   2.7928460   2.7928460   2.7928460   2.7928460   2.7928460   2.7928460   2.7928460   2.7928460
 AtZNuc=   1.0000000   1.0000000   1.0000000   1.0000000   1.0000000   1.0000000   1.0000000   1.0000000   1.0000000   1.0000000

  Atom       111         112         113         114         115         116         117         118         119         120
 IAtWgt=           1           1           1           1           1           1           1           1           1           1
 AtmWgt=   1.0078250   1.0078250   1.0078250   1.0078250   1.0078250   1.0078250   1.0078250   1.0078250   1.0078250   1.0078250
 NucSpn=           1           1           1           1           1           1           1           1           1           1
 AtZEff=  -0.0000000  -0.0000000  -0.0000000  -0.0000000  -0.0000000  -0.0000000  -0.0000000  -0.0000000  -0.0000000  -0.0000000
 NQMom=    0.0000000   0.0000000   0.0000000   0.0000000   0.0000000   0.0000000   0.0000000   0.0000000   0.0000000   0.0000000
 NMagM=    2.7928460   2.7928460   2.7928460   2.7928460   2.7928460   2.7928460   2.7928460   2.7928460   2.7928460   2.7928460
 AtZNuc=   1.0000000   1.0000000   1.0000000   1.0000000   1.0000000   1.0000000   1.0000000   1.0000000   1.0000000   1.0000000

  Atom       121         122         123         124         125         126         127         128         129         130
 IAtWgt=           1           1           1           1           1           1           1           1           1           1
 AtmWgt=   1.0078250   1.0078250   1.0078250   1.0078250   1.0078250   1.0078250   1.0078250   1.0078250   1.0078250   1.0078250
 NucSpn=           1           1           1           1           1           1           1           1           1           1
 AtZEff=  -0.0000000  -0.0000000  -0.0000000  -0.0000000  -0.0000000  -0.0000000  -0.0000000  -0.0000000  -0.0000000  -0.0000000
 NQMom=    0.0000000   0.0000000   0.0000000   0.0000000   0.0000000   0.0000000   0.0000000   0.0000000   0.0000000   0.0000000
 NMagM=    2.7928460   2.7928460   2.7928460   2.7928460   2.7928460   2.7928460   2.7928460   2.7928460   2.7928460   2.7928460
 AtZNuc=   1.0000000   1.0000000   1.0000000   1.0000000   1.0000000   1.0000000   1.0000000   1.0000000   1.0000000   1.0000000

  Atom       131         132         133         134         135         136         137         138         139         140
 IAtWgt=           1           1           1           1           1           1           1           1           1           1
 AtmWgt=   1.0078250   1.0078250   1.0078250   1.0078250   1.0078250   1.0078250   1.0078250   1.0078250   1.0078250   1.0078250
 NucSpn=           1           1           1           1           1           1           1           1           1           1
 AtZEff=  -0.0000000  -0.0000000  -0.0000000  -0.0000000  -0.0000000  -0.0000000  -0.0000000  -0.0000000  -0.0000000  -0.0000000
 NQMom=    0.0000000   0.0000000   0.0000000   0.0000000   0.0000000   0.0000000   0.0000000   0.0000000   0.0000000   0.0000000
 NMagM=    2.7928460   2.7928460   2.7928460   2.7928460   2.7928460   2.7928460   2.7928460   2.7928460   2.7928460   2.7928460
 AtZNuc=   1.0000000   1.0000000   1.0000000   1.0000000   1.0000000   1.0000000   1.0000000   1.0000000   1.0000000   1.0000000
 Leave Link  101 at Wed May  4 17:26:07 2022, MaxMem= 10066329600 cpu:               4.4 elap:               0.2
 (Enter /sw/apps/gaussian-16.0/g16/l202.exe)
 Stoichiometry    C55H74MgN4O6
 Framework group  C1[X(C55H74MgN4O6)]
 Deg. of freedom   414
 Full point group                 C1      NOp   1
 Largest Abelian subgroup         C1      NOp   1
 Largest concise Abelian subgroup C1      NOp   1
                         Standard orientation:                         
 ---------------------------------------------------------------------
 Center     Atomic      Atomic             Coordinates (Angstroms)
 Number     Number       Type             X           Y           Z
 ---------------------------------------------------------------------
      1         12           0        5.003802    1.135687    0.055828
      2          6           0        4.781458   -2.355913    0.360703
      3          6           0        1.755782    1.222000   -1.066062
      4          6           0        5.323141    4.430078   -0.421626
      5          6           0        8.454819    0.945860    0.898664
      6          7           0        3.486983   -0.412439   -0.230744
      7          6           0        3.529777   -1.730979    0.163985
      8          6           0        2.096130   -2.384361    0.143185
      9          6           0        1.298353   -1.308411   -0.743080
     10          6           0        2.209681   -0.071370   -0.719042
     11          6           0        0.967272   -1.743096   -2.190753
     12          6           0        1.487491   -2.522771    1.542741
     13          6           0        0.284284   -3.508839    1.687333
     14          6           0       -0.528299   -3.929186    0.449731
     15          8           0       -0.059709   -4.719125   -0.404294
     16          8           0       -1.806128   -3.477076    0.381395
     17          7           0        3.709101    2.660216   -0.544302
     18          6           0        2.460920    2.445416   -1.056780
     19          6           0        1.928475    3.756220   -1.535009
     20          6           0        2.883340    4.764342   -1.216627
     21          6           0        4.029195    3.952661   -0.685887
     22          6           0        0.565447    3.975573   -2.221653
     23          6           0        2.825014    6.242077   -1.304253
     24          8           0        3.731627    6.891109   -0.850152
     25          6           0        1.665401    6.961799   -2.022342
     26          7           0        6.657680    2.520754    0.257244
     27          6           0        6.524689    3.847316   -0.036405
     28          6           0        7.805862    4.611900    0.245003
     29          6           0        8.820267    3.545675    0.729656
     30          6           0        7.934145    2.255566    0.642710
     31          6           0        8.272418    5.296698   -0.986721
     32          6           0        9.333830    3.514853    2.180956
     33          6           0       10.818041    3.001170    2.486283
     34          7           0        6.446173   -0.368988    0.474974
     35          6           0        7.842172   -0.314530    0.732971
     36          6           0        8.357492   -1.710243    0.917061
     37          6           0        7.166378   -2.503516    0.683874
     38          6           0        6.050673   -1.658159    0.509301
     39          6           0        9.753761   -2.112364    1.435999
     40          6           0        6.715556   -3.861166    0.692314
     41          8           0        7.305319   -4.973159    0.881079
     42          6           0        5.119609   -3.819529    0.628752
     43          6           0        4.625866   -4.816045   -0.407115
     44          8           0        4.664228   -4.619468   -1.635538
     45          8           0        4.080517   -5.910803    0.201060
     46          6           0        3.563413   -6.868617   -0.743557
     47          6           0       -2.613884   -4.004952   -0.706306
     48          6           0       -4.007727   -3.542173   -0.456504
     49          6           0       -5.130621   -4.124799   -0.864024
     50          6           0       -5.198264   -5.331435   -1.759669
     51          6           0       -6.435845   -3.735045   -0.269019
     52          6           0       -7.139040   -2.427737   -0.713730
     53          6           0       -6.964012   -1.302286    0.290186
     54          6           0       -7.592993    0.018084   -0.187598
     55          6           0       -6.707377    1.171729    0.146075
     56          6           0       -9.003521    0.290617    0.348565
     57          6           0      -10.055598   -0.229037   -0.612218
     58          6           0      -10.846530    0.890530   -1.310417
     59          6           0      -12.375539    0.581552   -1.481506
     60          6           0      -12.741533    1.123415   -2.915545
     61          6           0      -13.183039    1.488796   -0.495810
     62          6           0      -12.752833    1.213668    0.992157
     63          6           0      -13.871508    1.542044    2.003234
     64          6           0      -13.596712    2.861171    2.810129
     65          6           0      -14.045927    2.619506    4.259170
     66          6           0      -14.401467    4.036632    2.194724
     67          1           0        0.690364    1.231779   -1.304875
     68          1           0        5.437296    5.507027   -0.556567
     69          1           0        9.490369    0.882124    1.238425
     70          1           0        2.161380   -3.413062   -0.208729
     71          1           0        0.387186   -0.977017   -0.244107
     72          1           0        1.429276   -0.943261   -2.770312
     73          1           0       -0.098167   -1.837742   -2.400283
     74          1           0        1.447835   -2.687757   -2.444053
     75          1           0        1.239774   -1.523289    1.900971
     76          1           0        2.238765   -2.917259    2.227095
     77          1           0       -0.446355   -3.034449    2.342548
     78          1           0        0.689005   -4.441514    2.079040
     79          1           0       -0.076306    4.576455   -1.576455
     80          1           0        0.212058    2.981877   -2.496805
     81          1           0        0.772589    4.420975   -3.193977
     82          1           0        0.837692    6.890824   -1.316441
     83          1           0        1.473835    6.507778   -2.995025
     84          1           0        2.075147    7.951670   -2.219472
     85          1           0        7.462093    5.274619    1.040174
     86          1           0        9.725006    3.429615    0.132711
     87          1           0        9.318363    5.122797   -1.242061
     88          1           0        8.259219    6.345771   -0.691382
     89          1           0        7.537278    5.343064   -1.790507
     90          1           0        8.781662    2.818081    2.812067
     91          1           0        9.055390    4.480761    2.603030
     92          1           0       10.777061    1.949949    2.773814
     93          1           0       11.324501    3.548572    3.281991
     94          1           0       11.227656    3.120266    1.484201
     95          1           0        9.684174   -2.956163    2.123995
     96          1           0       10.286223   -1.302467    1.932564
     97          1           0       10.413402   -2.503893    0.660549
     98          1           0        4.807282   -4.027227    1.652203
     99          1           0        4.444496   -7.118768   -1.335517
    100          1           0        2.704911   -6.457577   -1.274294
    101          1           0        3.414911   -7.855034   -0.304571
    102          1           0       -2.511510   -5.088022   -0.766050
    103          1           0       -2.345635   -3.649410   -1.701697
    104          1           0       -4.071593   -2.839168    0.373216
    105          1           0       -4.503807   -5.257552   -2.597192
    106          1           0       -6.122848   -5.386896   -2.333937
    107          1           0       -5.004871   -6.273039   -1.245323
    108          1           0       -6.297242   -3.758713    0.811963
    109          1           0       -7.271199   -4.422728   -0.406257
    110          1           0       -8.203072   -2.641253   -0.822039
    111          1           0       -6.692287   -2.086590   -1.646675
    112          1           0       -5.884787   -1.183744    0.390118
    113          1           0       -7.478695   -1.620630    1.196419
    114          1           0       -7.551734   -0.074586   -1.272435
    115          1           0       -6.998129    2.118906   -0.307450
    116          1           0       -5.680534    0.917147   -0.116386
    117          1           0       -6.714924    1.391946    1.213556
    118          1           0       -9.205338    1.328997    0.609871
    119          1           0       -9.126426   -0.302824    1.253878
    120          1           0      -10.751586   -0.781525    0.018511
    121          1           0       -9.670447   -0.842626   -1.425687
    122          1           0      -10.299434    0.908999   -2.252739
    123          1           0      -10.657005    1.894056   -0.929636
    124          1           0      -12.498220   -0.491613   -1.338199
    125          1           0      -13.678582    1.680551   -2.932230
    126          1           0      -12.750269    0.379809   -3.712320
    127          1           0      -12.047112    1.914741   -3.198087
    128          1           0      -14.256862    1.423581   -0.673646
    129          1           0      -12.948184    2.530342   -0.714776
    130          1           0      -11.823222    1.604554    1.407517
    131          1           0      -12.631076    0.155884    1.223069
    132          1           0      -13.948841    0.701385    2.691597
    133          1           0      -14.819169    1.629665    1.472335
    134          1           0      -12.540096    3.124434    2.761434
    135          1           0      -14.570181    3.401861    4.807200
    136          1           0      -13.142107    2.323569    4.791561
    137          1           0      -14.750490    1.790723    4.196050
    138          1           0      -13.647968    4.814667    2.079291
    139          1           0      -15.259844    4.358715    2.783982
    140          1           0      -14.649332    3.819649    1.155465
 ---------------------------------------------------------------------
 Rotational constants (GHZ):           0.0402347           0.0102091           0.0085908
 Leave Link  202 at Wed May  4 17:26:07 2022, MaxMem= 10066329600 cpu:               1.3 elap:               0.1
 (Enter /sw/apps/gaussian-16.0/g16/l301.exe)
 Standard basis: def2SVP (5D, 7F)
 Ernie: Thresh=  0.10000D-02 Tol=  0.10000D-05 Strict=F.
 There are  1364 symmetry adapted cartesian basis functions of A   symmetry.
 There are  1298 symmetry adapted basis functions of A   symmetry.
  1298 basis functions,  2180 primitive gaussians,  1364 cartesian basis functions
   246 alpha electrons      246 beta electrons
       nuclear repulsion energy      9495.6509026951 Hartrees.
 IExCor= 1009 DFT=T Ex+Corr=PBE1PBE ExCW=0 ScaHFX=  0.250000
 ScaDFX=  0.750000  0.750000  1.000000  1.000000 ScalE2=  1.000000  1.000000
 IRadAn=      5 IRanWt=     -1 IRanGd=            0 ICorTp=0 IEmpDi=  4
 NAtoms=  140 NActive=  140 NUniq=  140 SFac= 1.00D+00 NAtFMM=   60 NAOKFM=T Big=T
 Integral buffers will be    131072 words long.
 Regular integral format.
 Two-electron integral symmetry is turned on.
 Leave Link  301 at Wed May  4 17:26:07 2022, MaxMem= 10066329600 cpu:               1.9 elap:               0.1
 (Enter /sw/apps/gaussian-16.0/g16/l302.exe)
 NPDir=0 NMtPBC=     1 NCelOv=     1 NCel=       1 NClECP=     1 NCelD=      1
         NCelK=      1 NCelE2=     1 NClLst=     1 CellRange=     0.0.
 One-electron integrals computed using PRISM.
 One-electron integral symmetry used in STVInt
   1 Symmetry operations used in ECPInt.
 ECPInt:  NShTT=  192510 NPrTT=  683786 LenC2=   93245 LenP2D=  204743.
 LDataN:  DoStor=T MaxTD1= 4 Len=   56
 NBasis=  1298 RedAO= T EigKep=  3.58D-04  NBF=  1298
 NBsUse=  1298 1.00D-06 EigRej= -1.00D+00 NBFU=  1298
 Precomputing XC quadrature grid using
 IXCGrd= 4 IRadAn=           5 IRanWt=          -1 IRanGd=           0 AccXCQ= 0.00D+00.
 Generated NRdTot=       0 NPtTot=           0 NUsed=           0 NTot=          32
 NSgBfM=  1091  1091  1091  1091  1091 MxSgAt=   140 MxSgA2=   140.
 Leave Link  302 at Wed May  4 17:26:11 2022, MaxMem= 10066329600 cpu:              96.0 elap:               4.0
 (Enter /sw/apps/gaussian-16.0/g16/l303.exe)
 DipDrv:  MaxL=1.
 Leave Link  303 at Wed May  4 17:26:12 2022, MaxMem= 10066329600 cpu:              11.3 elap:               0.6
 (Enter /sw/apps/gaussian-16.0/g16/l308.exe)
 Leave Link  308 at Wed May  4 17:26:12 2022, MaxMem= 10066329600 cpu:               9.5 elap:               0.5
 (Enter /sw/apps/gaussian-16.0/g16/l401.exe)
 ExpMin= 3.36D-02 ExpMax= 4.95D+03 ExpMxC= 7.45D+02 IAcc=3 IRadAn=         5 AccDes= 0.00D+00
 Harris functional with IExCor= 1009 and IRadAn=       5 diagonalized for initial guess.
 HarFok:  IExCor= 1009 AccDes= 0.00D+00 IRadAn=         5 IDoV= 1 UseB2=F ITyADJ=14
 ICtDFT=  3500011 ScaDFX=  1.000000  1.000000  1.000000  1.000000
 FoFCou: FMM=F IPFlag=           0 FMFlag=      100000 FMFlg1=        2001
         NFxFlg=           0 DoJE=T BraDBF=F KetDBF=T FulRan=T
         wScrn=  0.000000 ICntrl=       500 IOpCl=  0 I1Cent=   200000004 NGrid=           0
         NMat0=    1 NMatS0=      1 NMatT0=    0 NMatD0=    1 NMtDS0=    0 NMtDT0=    0
 Petite list used in FoFCou.
 Harris En= -3006.14399746678    
 JPrj=0 DoOrth=F DoCkMO=F.
 Leave Link  401 at Wed May  4 17:26:19 2022, MaxMem= 10066329600 cpu:             160.4 elap:               6.7
 (Enter /sw/apps/gaussian-16.0/g16/l502.exe)
 Integral symmetry usage will be decided dynamically.
 Closed shell SCF:
 Using DIIS extrapolation, IDIIS=  1040.
 NGot= 10066329600 LenX= 10062561258 LenY= 10060699398
 Requested convergence on RMS density matrix=1.00D-08 within 128 cycles.
 Requested convergence on MAX density matrix=1.00D-06.
 Requested convergence on             energy=1.00D-06.
 No special actions if energy rises.
 Fock matrices will be formed incrementally for  20 cycles.

 Cycle   1  Pass 1  IDiag  1:
 FoFJK:  IHMeth= 1 ICntrl=       0 DoSepK=F KAlg= 0 I1Cent=           0 FoldK=F
 IRaf= 510000000 NMat=       1 IRICut=       1 DoRegI=T DoRafI=F ISym2E= 0 IDoP0=0 IntGTp=1.
 FoFCou: FMM=T IPFlag=           0 FMFlag=      100000 FMFlg1=        2001
         NFxFlg=           0 DoJE=F BraDBF=F KetDBF=F FulRan=T
         wScrn=  0.000000 ICntrl=         0 IOpCl=  0 I1Cent=           0 NGrid=           0
         NMat0=    1 NMatS0=      1 NMatT0=    0 NMatD0=    1 NMtDS0=    0 NMtDT0=    0
 Symmetry not used in FoFCou.
 FMM levels:  10  Number of levels for PrismC:   9
 E= -3003.81331959360    
 DIIS: error= 1.84D-02 at cycle   1 NSaved=   1.
 NSaved= 1 IEnMin= 1 EnMin= -3003.81331959360     IErMin= 1 ErrMin= 1.84D-02
 ErrMax= 1.84D-02  0.00D+00 EMaxC= 1.00D-01 BMatC= 1.46D+00 BMatP= 1.46D+00
 IDIUse=3 WtCom= 8.16D-01 WtEn= 1.84D-01
 Coeff-Com:  0.100D+01
 Coeff-En:   0.100D+01
 Coeff:      0.100D+01
 Gap=     0.082 Goal=   None    Shift=    0.000
 GapD=    0.082 DampG=0.500 DampE=0.500 DampFc=0.2500 IDamp=-1.
 Damping current iteration by 2.50D-01
 RMSDP=2.78D-03 MaxDP=7.66D-01              OVMax= 2.88D-01

 Cycle   2  Pass 1  IDiag  1:
 RMSU=  6.91D-04    CP:  9.90D-01
 E= -3004.36219065148     Delta-E=       -0.548871057879 Rises=F Damp=T
 DIIS: error= 9.54D-03 at cycle   2 NSaved=   2.
 NSaved= 2 IEnMin= 2 EnMin= -3004.36219065148     IErMin= 2 ErrMin= 9.54D-03
 ErrMax= 9.54D-03  0.00D+00 EMaxC= 1.00D-01 BMatC= 3.61D-01 BMatP= 1.46D+00
 IDIUse=3 WtCom= 9.05D-01 WtEn= 9.54D-02
 Coeff-Com: -0.753D+00 0.175D+01
 Coeff-En:   0.000D+00 0.100D+01
 Coeff:     -0.681D+00 0.168D+01
 Gap=     0.179 Goal=   None    Shift=    0.000
 RMSDP=9.62D-04 MaxDP=7.02D-02 DE=-5.49D-01 OVMax= 2.43D-01

 Cycle   3  Pass 1  IDiag  1:
 RMSU=  8.38D-04    CP:  9.66D-01  1.60D+00
 E= -3005.17737984066     Delta-E=       -0.815189189176 Rises=F Damp=F
 DIIS: error= 1.17D-02 at cycle   3 NSaved=   3.
 NSaved= 3 IEnMin= 3 EnMin= -3005.17737984066     IErMin= 2 ErrMin= 9.54D-03
 ErrMax= 1.17D-02  0.00D+00 EMaxC= 1.00D-01 BMatC= 1.89D-01 BMatP= 3.61D-01
 IDIUse=3 WtCom= 8.83D-01 WtEn= 1.17D-01
 Coeff-Com: -0.496D+00 0.106D+01 0.433D+00
 Coeff-En:   0.000D+00 0.000D+00 0.100D+01
 Coeff:     -0.438D+00 0.939D+00 0.499D+00
 Gap=     0.072 Goal=   None    Shift=    0.000
 RMSDP=6.07D-04 MaxDP=1.36D-01 DE=-8.15D-01 OVMax= 1.97D-01

 Cycle   4  Pass 1  IDiag  1:
 RMSU=  3.99D-04    CP:  9.72D-01  1.89D+00  5.14D-01
 E= -3005.30640153126     Delta-E=       -0.129021690605 Rises=F Damp=F
 DIIS: error= 6.03D-03 at cycle   4 NSaved=   4.
 NSaved= 4 IEnMin= 4 EnMin= -3005.30640153126     IErMin= 4 ErrMin= 6.03D-03
 ErrMax= 6.03D-03  0.00D+00 EMaxC= 1.00D-01 BMatC= 4.45D-02 BMatP= 1.89D-01
 IDIUse=3 WtCom= 9.40D-01 WtEn= 6.03D-02
 Coeff-Com: -0.112D+00 0.244D+00 0.326D+00 0.542D+00
 Coeff-En:   0.000D+00 0.000D+00 0.249D+00 0.751D+00
 Coeff:     -0.105D+00 0.229D+00 0.321D+00 0.554D+00
 Gap=     0.074 Goal=   None    Shift=    0.000
 RMSDP=3.12D-04 MaxDP=5.61D-02 DE=-1.29D-01 OVMax= 1.62D-01

 Cycle   5  Pass 1  IDiag  1:
 RMSU=  1.64D-04    CP:  9.71D-01  1.76D+00  6.90D-01  5.00D-01
 E= -3005.33851482600     Delta-E=       -0.032113294739 Rises=F Damp=F
 DIIS: error= 2.39D-03 at cycle   5 NSaved=   5.
 NSaved= 5 IEnMin= 5 EnMin= -3005.33851482600     IErMin= 5 ErrMin= 2.39D-03
 ErrMax= 2.39D-03  0.00D+00 EMaxC= 1.00D-01 BMatC= 9.24D-03 BMatP= 4.45D-02
 IDIUse=3 WtCom= 9.76D-01 WtEn= 2.39D-02
 Coeff-Com: -0.302D-01 0.682D-01 0.195D+00 0.413D+00 0.354D+00
 Coeff-En:   0.000D+00 0.000D+00 0.000D+00 0.247D+00 0.753D+00
 Coeff:     -0.295D-01 0.666D-01 0.190D+00 0.409D+00 0.364D+00
 Gap=     0.073 Goal=   None    Shift=    0.000
 RMSDP=1.50D-04 MaxDP=1.36D-02 DE=-3.21D-02 OVMax= 1.02D-01

 Cycle   6  Pass 1  IDiag  1:
 RMSU=  5.72D-05    CP:  9.70D-01  1.77D+00  6.62D-01  6.52D-01  2.54D-01
 E= -3005.35039228957     Delta-E=       -0.011877463570 Rises=F Damp=F
 DIIS: error= 5.90D-04 at cycle   6 NSaved=   6.
 NSaved= 6 IEnMin= 6 EnMin= -3005.35039228957     IErMin= 6 ErrMin= 5.90D-04
 ErrMax= 5.90D-04  0.00D+00 EMaxC= 1.00D-01 BMatC= 8.82D-04 BMatP= 9.24D-03
 IDIUse=3 WtCom= 9.94D-01 WtEn= 5.90D-03
 Coeff-Com: -0.606D-03 0.298D-02 0.699D-01 0.176D+00 0.256D+00 0.496D+00
 Coeff-En:   0.000D+00 0.000D+00 0.000D+00 0.000D+00 0.115D+00 0.885D+00
 Coeff:     -0.602D-03 0.297D-02 0.695D-01 0.175D+00 0.255D+00 0.498D+00
 Gap=     0.074 Goal=   None    Shift=    0.000
 RMSDP=4.74D-05 MaxDP=4.11D-03 DE=-1.19D-02 OVMax= 3.41D-02

 Cycle   7  Pass 1  IDiag  1:
 RMSU=  2.46D-05    CP:  9.70D-01  1.77D+00  6.70D-01  6.31D-01  4.18D-01
                    CP:  5.01D-01
 E= -3005.35140615991     Delta-E=       -0.001013870340 Rises=F Damp=F
 DIIS: error= 2.93D-04 at cycle   7 NSaved=   7.
 NSaved= 7 IEnMin= 7 EnMin= -3005.35140615991     IErMin= 7 ErrMin= 2.93D-04
 ErrMax= 2.93D-04  0.00D+00 EMaxC= 1.00D-01 BMatC= 1.41D-04 BMatP= 8.82D-04
 IDIUse=3 WtCom= 9.97D-01 WtEn= 2.93D-03
 Coeff-Com:  0.272D-02-0.517D-02 0.236D-01 0.668D-01 0.130D+00 0.348D+00
 Coeff-Com:  0.434D+00
 Coeff-En:   0.000D+00 0.000D+00 0.000D+00 0.000D+00 0.000D+00 0.141D+00
 Coeff-En:   0.859D+00
 Coeff:      0.271D-02-0.516D-02 0.236D-01 0.666D-01 0.129D+00 0.348D+00
 Coeff:      0.435D+00
 Gap=     0.074 Goal=   None    Shift=    0.000
 RMSDP=2.08D-05 MaxDP=1.78D-03 DE=-1.01D-03 OVMax= 1.39D-02

 Cycle   8  Pass 1  IDiag  1:
 RMSU=  1.09D-05    CP:  9.70D-01  1.77D+00  6.71D-01  6.33D-01  3.95D-01
                    CP:  6.30D-01  3.65D-01
 E= -3005.35154894440     Delta-E=       -0.000142784484 Rises=F Damp=F
 DIIS: error= 1.33D-04 at cycle   8 NSaved=   8.
 NSaved= 8 IEnMin= 8 EnMin= -3005.35154894440     IErMin= 8 ErrMin= 1.33D-04
 ErrMax= 1.33D-04  0.00D+00 EMaxC= 1.00D-01 BMatC= 2.73D-05 BMatP= 1.41D-04
 IDIUse=3 WtCom= 9.99D-01 WtEn= 1.33D-03
 Coeff-Com:  0.192D-02-0.397D-02 0.560D-02 0.184D-01 0.512D-01 0.171D+00
 Coeff-Com:  0.326D+00 0.430D+00
 Coeff-En:   0.000D+00 0.000D+00 0.000D+00 0.000D+00 0.000D+00 0.000D+00
 Coeff-En:   0.216D+00 0.784D+00
 Coeff:      0.192D-02-0.396D-02 0.559D-02 0.184D-01 0.511D-01 0.170D+00
 Coeff:      0.326D+00 0.431D+00
 Gap=     0.074 Goal=   None    Shift=    0.000
 RMSDP=8.03D-06 MaxDP=7.34D-04 DE=-1.43D-04 OVMax= 4.61D-03

 Cycle   9  Pass 1  IDiag  1:
 RMSU=  3.04D-06    CP:  9.70D-01  1.77D+00  6.70D-01  6.34D-01  4.00D-01
                    CP:  6.08D-01  5.43D-01  4.73D-01
 E= -3005.35158394691     Delta-E=       -0.000035002509 Rises=F Damp=F
 DIIS: error= 4.23D-05 at cycle   9 NSaved=   9.
 NSaved= 9 IEnMin= 9 EnMin= -3005.35158394691     IErMin= 9 ErrMin= 4.23D-05
 ErrMax= 4.23D-05  0.00D+00 EMaxC= 1.00D-01 BMatC= 2.27D-06 BMatP= 2.73D-05
 IDIUse=1 WtCom= 1.00D+00 WtEn= 0.00D+00
 Coeff-Com:  0.758D-03-0.158D-02 0.433D-03 0.214D-02 0.149D-01 0.606D-01
 Coeff-Com:  0.149D+00 0.273D+00 0.500D+00
 Coeff:      0.758D-03-0.158D-02 0.433D-03 0.214D-02 0.149D-01 0.606D-01
 Coeff:      0.149D+00 0.273D+00 0.500D+00
 Gap=     0.074 Goal=   None    Shift=    0.000
 RMSDP=2.08D-06 MaxDP=2.58D-04 DE=-3.50D-05 OVMax= 9.40D-04

 Cycle  10  Pass 1  IDiag  1:
 RMSU=  1.33D-06    CP:  9.70D-01  1.77D+00  6.71D-01  6.34D-01  4.01D-01
                    CP:  6.19D-01  5.27D-01  5.43D-01  6.48D-01
 E= -3005.35158618819     Delta-E=       -0.000002241279 Rises=F Damp=F
 DIIS: error= 1.41D-05 at cycle  10 NSaved=  10.
 NSaved=10 IEnMin=10 EnMin= -3005.35158618819     IErMin=10 ErrMin= 1.41D-05
 ErrMax= 1.41D-05  0.00D+00 EMaxC= 1.00D-01 BMatC= 2.50D-07 BMatP= 2.27D-06
 IDIUse=1 WtCom= 1.00D+00 WtEn= 0.00D+00
 Coeff-Com:  0.142D-03-0.289D-03-0.476D-03-0.156D-02 0.132D-02 0.969D-02
 Coeff-Com:  0.385D-01 0.958D-01 0.291D+00 0.566D+00
 Coeff:      0.142D-03-0.289D-03-0.476D-03-0.156D-02 0.132D-02 0.969D-02
 Coeff:      0.385D-01 0.958D-01 0.291D+00 0.566D+00
 Gap=     0.074 Goal=   None    Shift=    0.000
 RMSDP=6.96D-07 MaxDP=8.76D-05 DE=-2.24D-06 OVMax= 2.65D-04

 Cycle  11  Pass 1  IDiag  1:
 RMSU=  4.51D-07    CP:  9.70D-01  1.77D+00  6.71D-01  6.34D-01  4.01D-01
                    CP:  6.19D-01  5.33D-01  5.42D-01  7.54D-01  7.11D-01
 E= -3005.35158641653     Delta-E=       -0.000000228340 Rises=F Damp=F
 DIIS: error= 5.34D-06 at cycle  11 NSaved=  11.
 NSaved=11 IEnMin=11 EnMin= -3005.35158641653     IErMin=11 ErrMin= 5.34D-06
 ErrMax= 5.34D-06  0.00D+00 EMaxC= 1.00D-01 BMatC= 4.71D-08 BMatP= 2.50D-07
 IDIUse=1 WtCom= 1.00D+00 WtEn= 0.00D+00
 Coeff-Com: -0.505D-05 0.200D-04-0.380D-03-0.140D-02-0.119D-02-0.256D-02
 Coeff-Com:  0.378D-02 0.249D-01 0.114D+00 0.359D+00 0.504D+00
 Coeff:     -0.505D-05 0.200D-04-0.380D-03-0.140D-02-0.119D-02-0.256D-02
 Coeff:      0.378D-02 0.249D-01 0.114D+00 0.359D+00 0.504D+00
 Gap=     0.074 Goal=   None    Shift=    0.000
 RMSDP=2.60D-07 MaxDP=2.43D-05 DE=-2.28D-07 OVMax= 1.05D-04

 Cycle  12  Pass 1  IDiag  1:
 RMSU=  1.65D-07    CP:  9.70D-01  1.77D+00  6.71D-01  6.34D-01  4.01D-01
                    CP:  6.19D-01  5.34D-01  5.51D-01  7.53D-01  8.06D-01
                    CP:  7.57D-01
 E= -3005.35158646392     Delta-E=       -0.000000047394 Rises=F Damp=F
 DIIS: error= 1.91D-06 at cycle  12 NSaved=  12.
 NSaved=12 IEnMin=12 EnMin= -3005.35158646392     IErMin=12 ErrMin= 1.91D-06
 ErrMax= 1.91D-06  0.00D+00 EMaxC= 1.00D-01 BMatC= 3.61D-09 BMatP= 4.71D-08
 IDIUse=1 WtCom= 1.00D+00 WtEn= 0.00D+00
 Coeff-Com: -0.105D-04 0.303D-04-0.122D-03-0.504D-03-0.620D-03-0.243D-02
 Coeff-Com: -0.247D-02 0.183D-02 0.205D-01 0.111D+00 0.249D+00 0.624D+00
 Coeff:     -0.105D-04 0.303D-04-0.122D-03-0.504D-03-0.620D-03-0.243D-02
 Coeff:     -0.247D-02 0.183D-02 0.205D-01 0.111D+00 0.249D+00 0.624D+00
 Gap=     0.074 Goal=   None    Shift=    0.000
 RMSDP=1.06D-07 MaxDP=2.10D-05 DE=-4.74D-08 OVMax= 4.03D-05

 Cycle  13  Pass 1  IDiag  1:
 RMSU=  7.79D-08    CP:  9.70D-01  1.77D+00  6.71D-01  6.34D-01  4.01D-01
                    CP:  6.20D-01  5.34D-01  5.52D-01  7.65D-01  8.15D-01
                    CP:  8.61D-01  8.71D-01
 E= -3005.35158646711     Delta-E=       -0.000000003189 Rises=F Damp=F
 DIIS: error= 8.88D-07 at cycle  13 NSaved=  13.
 NSaved=13 IEnMin=13 EnMin= -3005.35158646711     IErMin=13 ErrMin= 8.88D-07
 ErrMax= 8.88D-07  0.00D+00 EMaxC= 1.00D-01 BMatC= 1.23D-09 BMatP= 3.61D-09
 IDIUse=1 WtCom= 1.00D+00 WtEn= 0.00D+00
 Coeff-Com: -0.479D-05 0.144D-04-0.491D-05-0.553D-04-0.166D-03-0.127D-02
 Coeff-Com: -0.275D-02-0.425D-02-0.129D-01-0.579D-02 0.526D-01 0.413D+00
 Coeff-Com:  0.562D+00
 Coeff:     -0.479D-05 0.144D-04-0.491D-05-0.553D-04-0.166D-03-0.127D-02
 Coeff:     -0.275D-02-0.425D-02-0.129D-01-0.579D-02 0.526D-01 0.413D+00
 Coeff:      0.562D+00
 Gap=     0.074 Goal=   None    Shift=    0.000
 RMSDP=5.04D-08 MaxDP=5.46D-06 DE=-3.19D-09 OVMax= 2.36D-05

 Cycle  14  Pass 1  IDiag  1:
 RMSU=  3.03D-08    CP:  9.70D-01  1.77D+00  6.71D-01  6.34D-01  4.01D-01
                    CP:  6.20D-01  5.34D-01  5.53D-01  7.68D-01  8.31D-01
                    CP:  8.80D-01  1.00D+00  7.82D-01
 E= -3005.35158646876     Delta-E=       -0.000000001650 Rises=F Damp=F
 DIIS: error= 3.39D-07 at cycle  14 NSaved=  14.
 NSaved=14 IEnMin=14 EnMin= -3005.35158646876     IErMin=14 ErrMin= 3.39D-07
 ErrMax= 3.39D-07  0.00D+00 EMaxC= 1.00D-01 BMatC= 1.62D-10 BMatP= 1.23D-09
 IDIUse=1 WtCom= 1.00D+00 WtEn= 0.00D+00
 Coeff-Com:  0.507D-06 0.840D-06 0.189D-04 0.530D-04 0.243D-04-0.370D-03
 Coeff-Com: -0.123D-02-0.276D-02-0.117D-01-0.226D-01-0.117D-01 0.141D+00
 Coeff-Com:  0.327D+00 0.582D+00
 Coeff:      0.507D-06 0.840D-06 0.189D-04 0.530D-04 0.243D-04-0.370D-03
 Coeff:     -0.123D-02-0.276D-02-0.117D-01-0.226D-01-0.117D-01 0.141D+00
 Coeff:      0.327D+00 0.582D+00
 Gap=     0.074 Goal=   None    Shift=    0.000
 RMSDP=2.13D-08 MaxDP=3.13D-06 DE=-1.65D-09 OVMax= 9.63D-06

 Cycle  15  Pass 1  IDiag  1:
 RMSU=  1.30D-08    CP:  9.70D-01  1.77D+00  6.71D-01  6.34D-01  4.01D-01
                    CP:  6.20D-01  5.34D-01  5.53D-01  7.69D-01  8.33D-01
                    CP:  9.02D-01  1.04D+00  8.83D-01  8.77D-01
 E= -3005.35158646892     Delta-E=       -0.000000000166 Rises=F Damp=F
 DIIS: error= 1.20D-07 at cycle  15 NSaved=  15.
 NSaved=15 IEnMin=15 EnMin= -3005.35158646892     IErMin=15 ErrMin= 1.20D-07
 ErrMax= 1.20D-07  0.00D+00 EMaxC= 1.00D-01 BMatC= 2.56D-11 BMatP= 1.62D-10
 IDIUse=1 WtCom= 1.00D+00 WtEn= 0.00D+00
 Coeff-Com:  0.128D-05-0.206D-05 0.106D-04 0.325D-04 0.459D-04 0.512D-06
 Coeff-Com: -0.169D-03-0.556D-03-0.378D-02-0.976D-02-0.128D-01 0.730D-02
 Coeff-Com:  0.717D-01 0.322D+00 0.626D+00
 Coeff:      0.128D-05-0.206D-05 0.106D-04 0.325D-04 0.459D-04 0.512D-06
 Coeff:     -0.169D-03-0.556D-03-0.378D-02-0.976D-02-0.128D-01 0.730D-02
 Coeff:      0.717D-01 0.322D+00 0.626D+00
 Gap=     0.074 Goal=   None    Shift=    0.000
 RMSDP=8.01D-09 MaxDP=5.67D-07 DE=-1.66D-10 OVMax= 4.47D-06

 SCF Done:  E(RPBE1PBE) =  -3005.35158647     A.U. after   15 cycles
            NFock= 15  Conv=0.80D-08     -V/T= 2.0104
 KE= 2.974314648696D+03 PE=-2.598179160415D+04 EE= 1.050647446628D+04
 Leave Link  502 at Wed May  4 17:31:49 2022, MaxMem= 10066329600 cpu:            7870.9 elap:             329.6
 (Enter /sw/apps/gaussian-16.0/g16/l801.exe)
 DoSCS=F DFT=T ScalE2(SS,OS)=  1.000000  1.000000
 ExpMin= 3.36D-02 ExpMax= 4.95D+03 ExpMxC= 7.45D+02 IAcc=3 IRadAn=         5 AccDes= 0.00D+00
 HarFok:  IExCor=  205 AccDes= 0.00D+00 IRadAn=         5 IDoV=-2 UseB2=F ITyADJ=14
 ICtDFT= 12500011 ScaDFX=  1.000000  1.000000  1.000000  1.000000
 GSVD:  LWork=       -5460 too small for GESVD, short by       25550 words or       25550 for optimal perf.
 Largest valence mixing into a core orbital is  1.27D-04
 Largest core mixing into a valence orbital is  5.64D-05
 Range of M.O.s used for correlation:    71  1298
 NBasis=  1298 NAE=   246 NBE=   246 NFC=    70 NFV=     0
 NROrb=   1228 NOA=   176 NOB=   176 NVA=  1052 NVB=  1052

 **** Warning!!: The smallest alpha delta epsilon is  0.74352098D-01

 Leave Link  801 at Wed May  4 17:31:49 2022, MaxMem= 10066329600 cpu:              10.1 elap:               0.5
 (Enter /sw/apps/gaussian-16.0/g16/l914.exe)
 RHF ground state
 Two-electron integrals replicated using symmetry.
 MDV= 10066329600 DFT=T DoStab=F Mixed=T DoRPA=T DoScal=F NonHer=T
 Making orbital integer symmetry assigments:
 Orbital symmetries:
       Occupied  (A) (A) (A) (A) (A) (A) (A) (A) (A) (A) (A) (A)
                 (A) (A) (A) (A) (A) (A) (A) (A) (A) (A) (A) (A)
                 (A) (A) (A) (A) (A) (A) (A) (A) (A) (A) (A) (A)
                 (A) (A) (A) (A) (A) (A) (A) (A) (A) (A) (A) (A)
                 (A) (A) (A) (A) (A) (A) (A) (A) (A) (A) (A) (A)
                 (A) (A) (A) (A) (A) (A) (A) (A) (A) (A) (A) (A)
                 (A) (A) (A) (A) (A) (A) (A) (A) (A) (A) (A) (A)
                 (A) (A) (A) (A) (A) (A) (A) (A) (A) (A) (A) (A)
                 (A) (A) (A) (A) (A) (A) (A) (A) (A) (A) (A) (A)
                 (A) (A) (A) (A) (A) (A) (A) (A) (A) (A) (A) (A)
                 (A) (A) (A) (A) (A) (A) (A) (A) (A) (A) (A) (A)
                 (A) (A) (A) (A) (A) (A) (A) (A) (A) (A) (A) (A)
                 (A) (A) (A) (A) (A) (A) (A) (A) (A) (A) (A) (A)
                 (A) (A) (A) (A) (A) (A) (A) (A) (A) (A) (A) (A)
                 (A) (A) (A) (A) (A) (A) (A) (A) (A) (A) (A) (A)
                 (A) (A) (A) (A) (A) (A) (A) (A) (A) (A) (A) (A)
                 (A) (A) (A) (A) (A) (A) (A) (A) (A) (A) (A) (A)
                 (A) (A) (A) (A) (A) (A) (A) (A) (A) (A) (A) (A)
                 (A) (A) (A) (A) (A) (A) (A) (A) (A) (A) (A) (A)
                 (A) (A) (A) (A) (A) (A) (A) (A) (A) (A) (A) (A)
                 (A) (A) (A) (A) (A) (A)
       Virtual   (A) (A) (A) (A) (A) (A) (A) (A) (A) (A) (A) (A)
                 (A) (A) (A) (A) (A) (A) (A) (A) (A) (A) (A) (A)
                 (A) (A) (A) (A) (A) (A) (A) (A) (A) (A) (A) (A)
                 (A) (A) (A) (A) (A) (A) (A) (A) (A) (A) (A) (A)
                 (A) (A) (A) (A) (A) (A) (A) (A) (A) (A) (A) (A)
                 (A) (A) (A) (A) (A) (A) (A) (A) (A) (A) (A) (A)
                 (A) (A) (A) (A) (A) (A) (A) (A) (A) (A) (A) (A)
                 (A) (A) (A) (A) (A) (A) (A) (A) (A) (A) (A) (A)
                 (A) (A) (A) (A) (A) (A) (A) (A) (A) (A) (A) (A)
                 (A) (A) (A) (A) (A) (A) (A) (A) (A) (A) (A) (A)
                 (A) (A) (A) (A) (A) (A) (A) (A) (A) (A) (A) (A)
                 (A) (A) (A) (A) (A) (A) (A) (A) (A) (A) (A) (A)
                 (A) (A) (A) (A) (A) (A) (A) (A) (A) (A) (A) (A)
                 (A) (A) (A) (A) (A) (A) (A) (A) (A) (A) (A) (A)
                 (A) (A) (A) (A) (A) (A) (A) (A) (A) (A) (A) (A)
                 (A) (A) (A) (A) (A) (A) (A) (A) (A) (A) (A) (A)
                 (A) (A) (A) (A) (A) (A) (A) (A) (A) (A) (A) (A)
                 (A) (A) (A) (A) (A) (A) (A) (A) (A) (A) (A) (A)
                 (A) (A) (A) (A) (A) (A) (A) (A) (A) (A) (A) (A)
                 (A) (A) (A) (A) (A) (A) (A) (A) (A) (A) (A) (A)
                 (A) (A) (A) (A) (A) (A) (A) (A) (A) (A) (A) (A)
                 (A) (A) (A) (A) (A) (A) (A) (A) (A) (A) (A) (A)
                 (A) (A) (A) (A) (A) (A) (A) (A) (A) (A) (A) (A)
                 (A) (A) (A) (A) (A) (A) (A) (A) (A) (A) (A) (A)
                 (A) (A) (A) (A) (A) (A) (A) (A) (A) (A) (A) (A)
                 (A) (A) (A) (A) (A) (A) (A) (A) (A) (A) (A) (A)
                 (A) (A) (A) (A) (A) (A) (A) (A) (A) (A) (A) (A)
                 (A) (A) (A) (A) (A) (A) (A) (A) (A) (A) (A) (A)
                 (A) (A) (A) (A) (A) (A) (A) (A) (A) (A) (A) (A)
                 (A) (A) (A) (A) (A) (A) (A) (A) (A) (A) (A) (A)
                 (A) (A) (A) (A) (A) (A) (A) (A) (A) (A) (A) (A)
                 (A) (A) (A) (A) (A) (A) (A) (A) (A) (A) (A) (A)
                 (A) (A) (A) (A) (A) (A) (A) (A) (A) (A) (A) (A)
                 (A) (A) (A) (A) (A) (A) (A) (A) (A) (A) (A) (A)
                 (A) (A) (A) (A) (A) (A) (A) (A) (A) (A) (A) (A)
                 (A) (A) (A) (A) (A) (A) (A) (A) (A) (A) (A) (A)
                 (A) (A) (A) (A) (A) (A) (A) (A) (A) (A) (A) (A)
                 (A) (A) (A) (A) (A) (A) (A) (A) (A) (A) (A) (A)
                 (A) (A) (A) (A) (A) (A) (A) (A) (A) (A) (A) (A)
                 (A) (A) (A) (A) (A) (A) (A) (A) (A) (A) (A) (A)
                 (A) (A) (A) (A) (A) (A) (A) (A) (A) (A) (A) (A)
                 (A) (A) (A) (A) (A) (A) (A) (A) (A) (A) (A) (A)
                 (A) (A) (A) (A) (A) (A) (A) (A) (A) (A) (A) (A)
                 (A) (A) (A) (A) (A) (A) (A) (A) (A) (A) (A) (A)
                 (A) (A) (A) (A) (A) (A) (A) (A) (A) (A) (A) (A)
                 (A) (A) (A) (A) (A) (A) (A) (A) (A) (A) (A) (A)
                 (A) (A) (A) (A) (A) (A) (A) (A) (A) (A) (A) (A)
                 (A) (A) (A) (A) (A) (A) (A) (A) (A) (A) (A) (A)
                 (A) (A) (A) (A) (A) (A) (A) (A) (A) (A) (A) (A)
                 (A) (A) (A) (A) (A) (A) (A) (A) (A) (A) (A) (A)
                 (A) (A) (A) (A) (A) (A) (A) (A) (A) (A) (A) (A)
                 (A) (A) (A) (A) (A) (A) (A) (A) (A) (A) (A) (A)
                 (A) (A) (A) (A) (A) (A) (A) (A) (A) (A) (A) (A)
                 (A) (A) (A) (A) (A) (A) (A) (A) (A) (A) (A) (A)
                 (A) (A) (A) (A) (A) (A) (A) (A) (A) (A) (A) (A)
                 (A) (A) (A) (A) (A) (A) (A) (A) (A) (A) (A) (A)
                 (A) (A) (A) (A) (A) (A) (A) (A) (A) (A) (A) (A)
                 (A) (A) (A) (A) (A) (A) (A) (A) (A) (A) (A) (A)
                 (A) (A) (A) (A) (A) (A) (A) (A) (A) (A) (A) (A)
                 (A) (A) (A) (A) (A) (A) (A) (A) (A) (A) (A) (A)
                 (A) (A) (A) (A) (A) (A) (A) (A) (A) (A) (A) (A)
                 (A) (A) (A) (A) (A) (A) (A) (A) (A) (A) (A) (A)
                 (A) (A) (A) (A) (A) (A) (A) (A) (A) (A) (A) (A)
                 (A) (A) (A) (A) (A) (A) (A) (A) (A) (A) (A) (A)
                 (A) (A) (A) (A) (A) (A) (A) (A) (A) (A) (A) (A)
                 (A) (A) (A) (A) (A) (A) (A) (A) (A) (A) (A) (A)
                 (A) (A) (A) (A) (A) (A) (A) (A) (A) (A) (A) (A)
                 (A) (A) (A) (A) (A) (A) (A) (A) (A) (A) (A) (A)
                 (A) (A) (A) (A) (A) (A) (A) (A) (A) (A) (A) (A)
                 (A) (A) (A) (A) (A) (A) (A) (A) (A) (A) (A) (A)
                 (A) (A) (A) (A) (A) (A) (A) (A) (A) (A) (A) (A)
                 (A) (A) (A) (A) (A) (A) (A) (A) (A) (A) (A) (A)
                 (A) (A) (A) (A) (A) (A) (A) (A) (A) (A) (A) (A)
                 (A) (A) (A) (A) (A) (A) (A) (A) (A) (A) (A) (A)
                 (A) (A) (A) (A) (A) (A) (A) (A) (A) (A) (A) (A)
                 (A) (A) (A) (A) (A) (A) (A) (A) (A) (A) (A) (A)
                 (A) (A) (A) (A) (A) (A) (A) (A) (A) (A) (A) (A)
                 (A) (A) (A) (A) (A) (A) (A) (A) (A) (A) (A) (A)
                 (A) (A) (A) (A) (A) (A) (A) (A) (A) (A) (A) (A)
                 (A) (A) (A) (A) (A) (A) (A) (A) (A) (A) (A) (A)
                 (A) (A) (A) (A) (A) (A) (A) (A) (A) (A) (A) (A)
                 (A) (A) (A) (A) (A) (A) (A) (A) (A) (A) (A) (A)
                 (A) (A) (A) (A) (A) (A) (A) (A) (A) (A) (A) (A)
                 (A) (A) (A) (A) (A) (A) (A) (A) (A) (A) (A) (A)
                 (A) (A) (A) (A) (A) (A) (A) (A) (A) (A) (A) (A)
                 (A) (A) (A) (A) (A) (A) (A) (A) (A) (A) (A) (A)
                 (A) (A) (A) (A) (A) (A) (A) (A) (A) (A) (A) (A)
                 (A) (A) (A) (A) (A) (A) (A) (A)
    20 initial guesses have been made.
 Convergence on wavefunction:    0.001000000000000
 Davidson Disk Diagonalization:  ConvIn= 1.00D-03 SkipCon=T Conv= 1.00D-03.
 Max sub-space:  2000 roots to seek:    20 dimension of matrix:       370304
 Iteration     1 Dimension    20 NMult     0 NNew     20
 CISAX will form    20 AO SS matrices at one time.
 NMat=    20 NSing=    20 JSym2X= 0.
 FoFJK:  IHMeth= 1 ICntrl=       0 DoSepK=F KAlg= 0 I1Cent=           0 FoldK=F
 IRaf= 510000000 NMat=      40 IRICut=       1 DoRegI=T DoRafI=F ISym2E= 0 IDoP0=3 IntGTp=3.
 FoFCou: FMM=T IPFlag=           0 FMFlag=      100000 FMFlg1=        2001
         NFxFlg=           0 DoJE=F BraDBF=F KetDBF=F FulRan=T
         wScrn=  0.000000 ICntrl=         0 IOpCl=  0 I1Cent=           0 NGrid=           0
         NMat0=   40 NMatS0=     20 NMatT0=    0 NMatD0=   40 NMtDS0=    0 NMtDT0=    0
 Symmetry not used in FoFCou.
 FMM levels:  10  Number of levels for PrismC:   9
 New state      3 was old state      4
 New state      4 was old state      5
 New state      5 was old state      9
 Excitation Energies [eV] at current iteration:
 Root      1 :     2.195054797361673
 Root      2 :     2.475529704643076
 Root      3 :     2.944954226946927
 Root      4 :     3.309876176801157
 Root      5 :     3.339972202186257
 Root      6 :     3.616542309488041
 Root      7 :     3.638056455092499
 Root      8 :     3.698726584750468
 Root      9 :     3.797956168772223
 Root     10 :     3.907364294669843
 Root     11 :     3.981216479734666
 Root     12 :     4.077412263936893
 Root     13 :     4.173128484359434
 Root     14 :     4.288370826519457
 Root     15 :     4.347357402506607
 Root     16 :     4.440025385456979
 Root     17 :     4.642978111979560
 Root     18 :     4.711626593219465
 Root     19 :     4.748789451484562
 Root     20 :     4.808197188426291
 Iteration     2 Dimension    30 NMult    20 NNew     10
 CISAX will form    10 AO SS matrices at one time.
 NMat=    10 NSing=    10 JSym2X= 0.
 Root      1 not converged, maximum delta is    0.056865254481358
 Root      2 not converged, maximum delta is    0.059356306611543
 Root      3 not converged, maximum delta is    0.115414355759745
 Root      4 not converged, maximum delta is    0.163872364628856
 Root      5 not converged, maximum delta is    0.168101512879683
 Excitation Energies [eV] at current iteration:
 Root      1 :     1.853840904035223   Change is   -0.341213893326450
 Root      2 :     2.188671224019951   Change is   -0.286858480623125
 Root      3 :     2.801419251797508   Change is   -0.143534975149418
 Root      4 :     3.025775233090184   Change is   -0.284100943710973
 Root      5 :     3.217766003779361   Change is   -0.122206198406896
 Iteration     3 Dimension    40 NMult    30 NNew     10
 CISAX will form    10 AO SS matrices at one time.
 NMat=    10 NSing=    10 JSym2X= 0.
 Root      1 not converged, maximum delta is    0.024794635852098
 Root      2 not converged, maximum delta is    0.019797614277338
 Root      3 not converged, maximum delta is    0.017090031638846
 Root      4 not converged, maximum delta is    0.012898279419858
 Root      5 not converged, maximum delta is    0.023107809187030
 Excitation Energies [eV] at current iteration:
 Root      1 :     1.822579201641209   Change is   -0.031261702394014
 Root      2 :     2.170850911832236   Change is   -0.017820312187715
 Root      3 :     2.788459208440034   Change is   -0.012960043357475
 Root      4 :     3.009622455696245   Change is   -0.016152777393939
 Root      5 :     3.201250160996403   Change is   -0.016515842782957
 Iteration     4 Dimension    50 NMult    40 NNew     10
 CISAX will form    10 AO SS matrices at one time.
 NMat=    10 NSing=    10 JSym2X= 0.
 Root      1 not converged, maximum delta is    0.003284315992756
 Root      2 not converged, maximum delta is    0.008811391345184
 Root      3 not converged, maximum delta is    0.003886721815529
 Root      4 not converged, maximum delta is    0.009233852640615
 Root      5 not converged, maximum delta is    0.016690787040112
 Excitation Energies [eV] at current iteration:
 Root      1 :     1.819309369596044   Change is   -0.003269832045165
 Root      2 :     2.167562932833258   Change is   -0.003287978998977
 Root      3 :     2.787255190772793   Change is   -0.001204017667241
 Root      4 :     3.007032266601262   Change is   -0.002590189094984
 Root      5 :     3.198974461344553   Change is   -0.002275699651850
 Iteration     5 Dimension    60 NMult    50 NNew     10
 CISAX will form    10 AO SS matrices at one time.
 NMat=    10 NSing=    10 JSym2X= 0.
 Root      1 has converged.
 Root      2 has converged.
 Root      3 has converged.
 Root      4 not converged, maximum delta is    0.002522267455835
 Root      5 not converged, maximum delta is    0.011025583939201
 Excitation Energies [eV] at current iteration:
 Root      1 :     1.818938588131332   Change is   -0.000370781464713
 Root      2 :     2.167320996098200   Change is   -0.000241936735059
 Root      3 :     2.787117035314536   Change is   -0.000138155458256
 Root      4 :     3.006689313347569   Change is   -0.000342953253692
 Root      5 :     3.198591740573709   Change is   -0.000382720770844
 Iteration     6 Dimension    64 NMult    60 NNew      4
 CISAX will form     4 AO SS matrices at one time.
 NMat=     4 NSing=     4 JSym2X= 0.
 Root      1 has converged.
 Root      2 has converged.
 Root      3 has converged.
 Root      4 has converged.
 Root      5 not converged, maximum delta is    0.008994629009973
 Excitation Energies [eV] at current iteration:
 Root      1 :     1.818938349824426   Change is   -0.000000238306906
 Root      2 :     2.167318552277557   Change is   -0.000002443820643
 Root      3 :     2.787116770409082   Change is   -0.000000264905454
 Root      4 :     3.006653441326465   Change is   -0.000035872021104
 Root      5 :     3.198464493972940   Change is   -0.000127246600769
 Iteration     7 Dimension    66 NMult    64 NNew      2
 CISAX will form     2 AO SS matrices at one time.
 NMat=     2 NSing=     2 JSym2X= 0.
 Root      1 has converged.
 Root      2 has converged.
 Root      3 has converged.
 Root      4 has converged.
 Root      5 not converged, maximum delta is    0.005983147258888
 Excitation Energies [eV] at current iteration:
 Root      1 :     1.818936647720202   Change is   -0.000001702104224
 Root      2 :     2.167318306387193   Change is   -0.000000245890364
 Root      3 :     2.787115639456384   Change is   -0.000001130952698
 Root      4 :     3.006653150052321   Change is   -0.000000291274144
 Root      5 :     3.198419742847358   Change is   -0.000044751125582
 Iteration     8 Dimension    68 NMult    66 NNew      2
 CISAX will form     2 AO SS matrices at one time.
 NMat=     2 NSing=     2 JSym2X= 0.
 Root      1 has converged.
 Root      2 has converged.
 Root      3 has converged.
 Root      4 has converged.
 Root      5 not converged, maximum delta is    0.002090761993353
 Excitation Energies [eV] at current iteration:
 Root      1 :     1.818933631159697   Change is   -0.000003016560505
 Root      2 :     2.167316373597526   Change is   -0.000001932789667
 Root      3 :     2.787115559555025   Change is   -0.000000079901359
 Root      4 :     3.006653086789716   Change is   -0.000000063262605
 Root      5 :     3.198409448496693   Change is   -0.000010294350665
 Iteration     9 Dimension    70 NMult    68 NNew      2
 CISAX will form     2 AO SS matrices at one time.
 NMat=     2 NSing=     2 JSym2X= 0.
 Root      1 has converged.
 Root      2 has converged.
 Root      3 has converged.
 Root      4 has converged.
 Root      5 has converged.
 Excitation Energies [eV] at current iteration:
 Root      1 :     1.818933076886194   Change is   -0.000000554273503
 Root      2 :     2.167315639390301   Change is   -0.000000734207225
 Root      3 :     2.787112253350116   Change is   -0.000003306204909
 Root      4 :     3.006653080523999   Change is   -0.000000006265717
 Root      5 :     3.198407626908305   Change is   -0.000001821588388
 Convergence achieved on expansion vectors.
 ***********************************************************************
 Excited states from <AA,BB:AA,BB> singles matrix:
 ***********************************************************************
 
 1PDM for each excited state written to RWF  633
 Ground to excited state transition densities written to RWF  633
 Ground to excited state transition electric dipole moments (Au):
       state          X           Y           Z        Dip. S.      Osc.
         1         2.0146     -1.8981      0.8184      8.3313      0.3713
         2         0.7294      1.2575      0.0301      2.1143      0.1123
         3         0.0425      0.0938      0.0196      0.0110      0.0008
         4        -0.1305     -0.0404     -0.0392      0.0202      0.0015
         5         0.1504      0.2685      0.0204      0.0952      0.0075
 Ground to excited state transition velocity dipole moments (Au):
       state          X           Y           Z        Dip. S.      Osc.
         1        -0.1296      0.1234     -0.0537      0.0349      0.3481
         2        -0.0547     -0.0953     -0.0015      0.0121      0.1011
         3        -0.0040     -0.0091      0.0010      0.0001      0.0006
         4         0.0161      0.0046      0.0051      0.0003      0.0019
         5        -0.0200     -0.0288      0.0001      0.0012      0.0070
 Ground to excited state transition magnetic dipole moments (Au):
       state          X           Y           Z
         1        -0.1946      0.5599      1.7028
         2        -0.0858      0.0695     -0.5101
         3         0.2133     -0.5128     -0.0965
         4        -0.1292     -0.0048      0.7350
         5        -0.2814     -0.2710     -0.4546
 Ground to excited state transition velocity quadrupole moments (Au):
       state          XX          YY          ZZ          XY          XZ          YZ
         1        -2.4759      0.4978      0.0482      0.9283     -0.4751     -0.1979
         2        -0.9866     -0.2406     -0.0168     -0.9273     -0.0665      0.0377
         3        -0.1423      0.1157     -0.0022     -0.0769      0.0082     -0.0038
         4         0.5721     -0.3228      0.0136     -0.0568      0.0765     -0.0412
         5        -0.2613     -0.0579      0.0034     -0.4191      0.0193     -0.0224
 <0|del|b> * <b|rxdel|0> + <0|del|b> * <b|delr+rdel|0>
 Rotatory Strengths (R) in cgs (10**-40 erg-esu-cm/Gauss)
       state          XX          YY          ZZ    R(velocity)    E-M Angle
         1       -71.7722     49.0676     53.1414     10.1456       89.51
         2       -48.0443      8.9210     28.7511     -3.4574       91.17
         3        15.7193     -2.9612     12.8049      8.5210       48.77
         4         9.8084      4.0576     -3.4831      3.4610       82.88
         5        24.8872     18.2470     37.3998     26.8447       50.46
 1/2[<0|r|b>*<b|rxdel|0> + (<0|rxdel|b>*<b|r|0>)*]
 Rotatory Strengths (R) in cgs (10**-40 erg-esu-cm/Gauss)
       state          XX          YY          ZZ     R(length)
         1       277.2512    751.6105   -985.4950     14.4555
         2        44.2498    -61.7625     10.8632     -2.2165
         3        -6.4094     34.0125      1.3341      9.6458
         4       -11.9280     -0.1375     20.3960      2.7768
         5        29.9341     51.4545      6.5612     29.3166
  1/2[<0|del|b>*<b|r|0> + (<0|r|b>*<b|del|0>)*] (Au)
       state          X           Y           Z        Dip. S.   Osc.(frdel)
         1        -0.2611     -0.2342     -0.0439      0.5392      0.3595
         2        -0.0399     -0.1199     -0.0000      0.1598      0.1065
         3        -0.0002     -0.0009      0.0000      0.0010      0.0007
         4        -0.0021     -0.0002     -0.0002      0.0025      0.0017
         5        -0.0030     -0.0077      0.0000      0.0107      0.0072

 Excitation energies and oscillator strengths:
 
 Excited State   1:      Singlet-A      1.8189 eV  681.63 nm  f=0.3713  <S**2>=0.000
     245 -> 248        0.16867
     246 -> 247        0.69294
     246 <- 247       -0.11047
 This state for optimization and/or second-order correction.
 Total Energy, E(TD-HF/TD-DFT) =  -3005.28474191    
 Copying the excited state density for this state as the 1-particle RhoCI density.
 
 Excited State   2:      Singlet-A      2.1673 eV  572.06 nm  f=0.1123  <S**2>=0.000
     245 -> 247        0.65441
     246 -> 248       -0.25008
 
 Excited State   3:      Singlet-A      2.7871 eV  444.85 nm  f=0.0008  <S**2>=0.000
     243 -> 247        0.36951
     243 -> 249       -0.11513
     244 -> 247        0.55915
     244 -> 249       -0.13524
 
 Excited State   4:      Singlet-A      3.0067 eV  412.37 nm  f=0.0015  <S**2>=0.000
     243 -> 247        0.56740
     244 -> 247       -0.38282
     246 -> 248        0.12236
 
 Excited State   5:      Singlet-A      3.1984 eV  387.64 nm  f=0.0075  <S**2>=0.000
     239 -> 247        0.10315
     240 -> 247        0.48338
     240 -> 249        0.10295
     241 -> 247        0.43965
     241 -> 249        0.10340
     246 -> 248        0.10297
 SavETr:  write IOETrn=   770 NScale= 10 NData=  16 NLR=1 NState=    5 LETran=     100.
 Leave Link  914 at Wed May  4 17:47:47 2022, MaxMem= 10066329600 cpu:           22921.7 elap:             957.2
 (Enter /sw/apps/gaussian-16.0/g16/l601.exe)
 Copying SCF densities to generalized density rwf, IOpCl= 0 IROHF=0.
 Hyperfine terms turned off by default for NAtoms > 100.

 **********************************************************************

            Population analysis using the SCF density.

 **********************************************************************

 Orbital symmetries:
       Occupied  (A) (A) (A) (A) (A) (A) (A) (A) (A) (A) (A) (A)
                 (A) (A) (A) (A) (A) (A) (A) (A) (A) (A) (A) (A)
                 (A) (A) (A) (A) (A) (A) (A) (A) (A) (A) (A) (A)
                 (A) (A) (A) (A) (A) (A) (A) (A) (A) (A) (A) (A)
                 (A) (A) (A) (A) (A) (A) (A) (A) (A) (A) (A) (A)
                 (A) (A) (A) (A) (A) (A) (A) (A) (A) (A) (A) (A)
                 (A) (A) (A) (A) (A) (A) (A) (A) (A) (A) (A) (A)
                 (A) (A) (A) (A) (A) (A) (A) (A) (A) (A) (A) (A)
                 (A) (A) (A) (A) (A) (A) (A) (A) (A) (A) (A) (A)
                 (A) (A) (A) (A) (A) (A) (A) (A) (A) (A) (A) (A)
                 (A) (A) (A) (A) (A) (A) (A) (A) (A) (A) (A) (A)
                 (A) (A) (A) (A) (A) (A) (A) (A) (A) (A) (A) (A)
                 (A) (A) (A) (A) (A) (A) (A) (A) (A) (A) (A) (A)
                 (A) (A) (A) (A) (A) (A) (A) (A) (A) (A) (A) (A)
                 (A) (A) (A) (A) (A) (A) (A) (A) (A) (A) (A) (A)
                 (A) (A) (A) (A) (A) (A) (A) (A) (A) (A) (A) (A)
                 (A) (A) (A) (A) (A) (A) (A) (A) (A) (A) (A) (A)
                 (A) (A) (A) (A) (A) (A) (A) (A) (A) (A) (A) (A)
                 (A) (A) (A) (A) (A) (A) (A) (A) (A) (A) (A) (A)
                 (A) (A) (A) (A) (A) (A) (A) (A) (A) (A) (A) (A)
                 (A) (A) (A) (A) (A) (A)
       Virtual   (A) (A) (A) (A) (A) (A) (A) (A) (A) (A) (A) (A)
                 (A) (A) (A) (A) (A) (A) (A) (A) (A) (A) (A) (A)
                 (A) (A) (A) (A) (A) (A) (A) (A) (A) (A) (A) (A)
                 (A) (A) (A) (A) (A) (A) (A) (A) (A) (A) (A) (A)
                 (A) (A) (A) (A) (A) (A) (A) (A) (A) (A) (A) (A)
                 (A) (A) (A) (A) (A) (A) (A) (A) (A) (A) (A) (A)
                 (A) (A) (A) (A) (A) (A) (A) (A) (A) (A) (A) (A)
                 (A) (A) (A) (A) (A) (A) (A) (A) (A) (A) (A) (A)
                 (A) (A) (A) (A) (A) (A) (A) (A) (A) (A) (A) (A)
                 (A) (A) (A) (A) (A) (A) (A) (A) (A) (A) (A) (A)
                 (A) (A) (A) (A) (A) (A) (A) (A) (A) (A) (A) (A)
                 (A) (A) (A) (A) (A) (A) (A) (A) (A) (A) (A) (A)
                 (A) (A) (A) (A) (A) (A) (A) (A) (A) (A) (A) (A)
                 (A) (A) (A) (A) (A) (A) (A) (A) (A) (A) (A) (A)
                 (A) (A) (A) (A) (A) (A) (A) (A) (A) (A) (A) (A)
                 (A) (A) (A) (A) (A) (A) (A) (A) (A) (A) (A) (A)
                 (A) (A) (A) (A) (A) (A) (A) (A) (A) (A) (A) (A)
                 (A) (A) (A) (A) (A) (A) (A) (A) (A) (A) (A) (A)
                 (A) (A) (A) (A) (A) (A) (A) (A) (A) (A) (A) (A)
                 (A) (A) (A) (A) (A) (A) (A) (A) (A) (A) (A) (A)
                 (A) (A) (A) (A) (A) (A) (A) (A) (A) (A) (A) (A)
                 (A) (A) (A) (A) (A) (A) (A) (A) (A) (A) (A) (A)
                 (A) (A) (A) (A) (A) (A) (A) (A) (A) (A) (A) (A)
                 (A) (A) (A) (A) (A) (A) (A) (A) (A) (A) (A) (A)
                 (A) (A) (A) (A) (A) (A) (A) (A) (A) (A) (A) (A)
                 (A) (A) (A) (A) (A) (A) (A) (A) (A) (A) (A) (A)
                 (A) (A) (A) (A) (A) (A) (A) (A) (A) (A) (A) (A)
[...]
 Alpha virt. eigenvalues --    1.17483   1.17801   1.17862   1.18197   1.18370
 Alpha virt. eigenvalues --    1.18765   1.19489   1.20419   1.21021   1.21418
 Alpha virt. eigenvalues --    1.21939   1.22555   1.22748   1.23473   1.23923
 Alpha virt. eigenvalues --    1.24225   1.24397   1.24935   1.25540   1.25996
 Alpha virt. eigenvalues --    1.26708   1.27265   1.27453   1.28149   1.28612
 Alpha virt. eigenvalues --    1.29226   1.29401   1.29553   1.30044   1.30426
 Alpha virt. eigenvalues --    1.31298   1.31580   1.31885   1.32124   1.32564
 Alpha virt. eigenvalues --    1.33018   1.33916   1.34037   1.34222   1.34455
 Alpha virt. eigenvalues --    1.34828   1.35428   1.35648   1.36141   1.36933
 Alpha virt. eigenvalues --    1.37428   1.37840   1.38223   1.38576   1.38747
 Alpha virt. eigenvalues --    1.39176   1.39225   1.39816   1.40302   1.40527
 Alpha virt. eigenvalues --    1.40824   1.41009   1.41657   1.41962   1.42402
 Alpha virt. eigenvalues --    1.42776   1.43328   1.43775   1.44053   1.44379
 Alpha virt. eigenvalues --    1.44544   1.44908   1.45930   1.46046   1.46624
 Alpha virt. eigenvalues --    1.47302   1.47663   1.48078   1.48615   1.48853
 Alpha virt. eigenvalues --    1.49445   1.50022   1.50314   1.50462   1.50783
 Alpha virt. eigenvalues --    1.51172   1.51531   1.51660   1.52377   1.52424
 Alpha virt. eigenvalues --    1.52666   1.52910   1.53377   1.53687   1.53936
 Alpha virt. eigenvalues --    1.54136   1.54587   1.54613   1.54731   1.55035
 Alpha virt. eigenvalues --    1.55273   1.55616   1.55695   1.55770   1.56157
 Alpha virt. eigenvalues --    1.56800   1.56890   1.57064   1.57154   1.57537
 Alpha virt. eigenvalues --    1.57616   1.57915   1.58003   1.58800   1.58890
 Alpha virt. eigenvalues --    1.59134   1.59344   1.59536   1.59570   1.59992
 Alpha virt. eigenvalues --    1.61088   1.61423   1.62025   1.62497   1.62890
 Alpha virt. eigenvalues --    1.63504   1.64049   1.64336   1.65011   1.65871
 Alpha virt. eigenvalues --    1.66280   1.66481   1.66705   1.67337   1.67523
 Alpha virt. eigenvalues --    1.67873   1.68555   1.69115   1.69390   1.70160
 Alpha virt. eigenvalues --    1.70668   1.71120   1.71371   1.71394   1.71643
 Alpha virt. eigenvalues --    1.71744   1.72339   1.72471   1.72557   1.72773
 Alpha virt. eigenvalues --    1.73142   1.73328   1.73410   1.73837   1.73932
 Alpha virt. eigenvalues --    1.74114   1.74680   1.75085   1.75566   1.75667
 Alpha virt. eigenvalues --    1.75940   1.75999   1.76333   1.76334   1.76366
 Alpha virt. eigenvalues --    1.76609   1.76753   1.76916   1.77041   1.77271
 Alpha virt. eigenvalues --    1.77368   1.77793   1.78000   1.78202   1.78350
 Alpha virt. eigenvalues --    1.78674   1.78838   1.79005   1.79186   1.79514
 Alpha virt. eigenvalues --    1.79683   1.79926   1.80038   1.80272   1.80428
 Alpha virt. eigenvalues --    1.80601   1.80733   1.81287   1.81383   1.81396
 Alpha virt. eigenvalues --    1.81510   1.81782   1.81819   1.81978   1.82531
 Alpha virt. eigenvalues --    1.82729   1.82815   1.82869   1.83228   1.83609
 Alpha virt. eigenvalues --    1.83641   1.83906   1.84391   1.84480   1.84880
 Alpha virt. eigenvalues --    1.85028   1.85135   1.85382   1.85760   1.86050
 Alpha virt. eigenvalues --    1.86165   1.86308   1.86560   1.86717   1.87002
 Alpha virt. eigenvalues --    1.87193   1.87423   1.87628   1.87925   1.88145
 Alpha virt. eigenvalues --    1.88240   1.88517   1.88646   1.89098   1.89354
 Alpha virt. eigenvalues --    1.89472   1.89710   1.90259   1.90311   1.90699
 Alpha virt. eigenvalues --    1.90728   1.90993   1.91243   1.91280   1.91948
 Alpha virt. eigenvalues --    1.91954   1.92220   1.92332   1.92444   1.92812
 Alpha virt. eigenvalues --    1.92889   1.93131   1.93393   1.93551   1.94003
 Alpha virt. eigenvalues --    1.94324   1.94583   1.94893   1.95453   1.95570
 Alpha virt. eigenvalues --    1.95799   1.96078   1.96160   1.96542   1.96783
 Alpha virt. eigenvalues --    1.96918   1.97036   1.97296   1.97535   1.97839
 Alpha virt. eigenvalues --    1.97999   1.98725   1.98898   1.99152   1.99487
 Alpha virt. eigenvalues --    1.99725   2.00331   2.00617   2.00847   2.00877
 Alpha virt. eigenvalues --    2.01427   2.01709   2.01806   2.02240   2.02286
 Alpha virt. eigenvalues --    2.02576   2.03252   2.03289   2.03728   2.04039
 Alpha virt. eigenvalues --    2.04277   2.04533   2.05069   2.05370   2.05764
 Alpha virt. eigenvalues --    2.05928   2.06021   2.06763   2.06833   2.07463
 Alpha virt. eigenvalues --    2.07480   2.07744   2.07911   2.08276   2.08372
 Alpha virt. eigenvalues --    2.08590   2.08708   2.09122   2.09291   2.09411
 Alpha virt. eigenvalues --    2.09550   2.09829   2.10282   2.10652   2.10904
 Alpha virt. eigenvalues --    2.11464   2.11731   2.12128   2.12787   2.13072
 Alpha virt. eigenvalues --    2.13648   2.13791   2.14362   2.14637   2.14975
 Alpha virt. eigenvalues --    2.15020   2.15485   2.15509   2.16082   2.16523
 Alpha virt. eigenvalues --    2.16839   2.17182   2.17465   2.17761   2.18449
 Alpha virt. eigenvalues --    2.18603   2.18732   2.19320   2.19654   2.20437
 Alpha virt. eigenvalues --    2.21682   2.22158   2.22371   2.22477   2.22942
 Alpha virt. eigenvalues --    2.23088   2.24026   2.24291   2.24799   2.25188
 Alpha virt. eigenvalues --    2.25451   2.26013   2.26160   2.26738   2.27031
 Alpha virt. eigenvalues --    2.27118   2.28236   2.28407   2.28497   2.28859
 Alpha virt. eigenvalues --    2.29335   2.29564   2.29886   2.30055   2.30588
 Alpha virt. eigenvalues --    2.31459   2.31490   2.31670   2.32107   2.32692
 Alpha virt. eigenvalues --    2.33036   2.33190   2.33431   2.33803   2.34300
 Alpha virt. eigenvalues --    2.34624   2.35255   2.35750   2.35857   2.36267
 Alpha virt. eigenvalues --    2.36603   2.36692   2.37091   2.37192   2.37641
 Alpha virt. eigenvalues --    2.38037   2.38207   2.38711   2.38888   2.39572
 Alpha virt. eigenvalues --    2.39764   2.40056   2.40210   2.40797   2.41377
 Alpha virt. eigenvalues --    2.41401   2.41651   2.42085   2.42540   2.42867
 Alpha virt. eigenvalues --    2.43774   2.43976   2.44514   2.44551   2.45353
 Alpha virt. eigenvalues --    2.45481   2.45998   2.46602   2.47190   2.47379
 Alpha virt. eigenvalues --    2.47587   2.48178   2.48598   2.48692   2.49215
 Alpha virt. eigenvalues --    2.49574   2.49772   2.50159   2.50656   2.51679
 Alpha virt. eigenvalues --    2.52222   2.52883   2.53237   2.53553   2.53714
 Alpha virt. eigenvalues --    2.54152   2.54479   2.55158   2.55521   2.56194
 Alpha virt. eigenvalues --    2.56391   2.56477   2.56562   2.56788   2.57285
 Alpha virt. eigenvalues --    2.58232   2.58556   2.58806   2.59274   2.59322
 Alpha virt. eigenvalues --    2.59499   2.60181   2.60577   2.61146   2.61641
 Alpha virt. eigenvalues --    2.61711   2.61988   2.62625   2.63092   2.63445
 Alpha virt. eigenvalues --    2.63540   2.64264   2.64336   2.66028   2.66332
 Alpha virt. eigenvalues --    2.66532   2.66957   2.67081   2.67433   2.67583
 Alpha virt. eigenvalues --    2.68152   2.68542   2.69565   2.69775   2.70231
 Alpha virt. eigenvalues --    2.70534   2.70749   2.71434   2.71816   2.72173
 Alpha virt. eigenvalues --    2.72328   2.72553   2.73100   2.73261   2.73508
 Alpha virt. eigenvalues --    2.73916   2.74223   2.74774   2.74986   2.75193
 Alpha virt. eigenvalues --    2.75525   2.76269   2.76890   2.77325   2.77901
 Alpha virt. eigenvalues --    2.78232   2.78713   2.79825   2.80396   2.80837
 Alpha virt. eigenvalues --    2.82458   2.82724   2.82968   2.83288   2.84398
 Alpha virt. eigenvalues --    2.84687   2.85081   2.85446   2.85563   2.85749
 Alpha virt. eigenvalues --    2.85812   2.87299   2.87475   2.87912   2.88480
 Alpha virt. eigenvalues --    2.89037   2.89114   2.89628   2.89989   2.90335
 Alpha virt. eigenvalues --    2.90774   2.91084   2.91193   2.91233   2.92002
 Alpha virt. eigenvalues --    2.92305   2.92562   2.92669   2.92894   2.93581
 Alpha virt. eigenvalues --    2.93709   2.94037   2.94331   2.94810   2.95452
 Alpha virt. eigenvalues --    2.95812   2.96012   2.96251   2.96579   2.96646
 Alpha virt. eigenvalues --    2.97036   2.97171   2.97856   2.98162   2.98191
 Alpha virt. eigenvalues --    2.98664   2.99080   2.99366   2.99475   2.99945
 Alpha virt. eigenvalues --    3.00138   3.00307   3.00463   3.00681   3.01058
 Alpha virt. eigenvalues --    3.01372   3.01528   3.02168   3.02555   3.03071
 Alpha virt. eigenvalues --    3.03488   3.03811   3.04003   3.04753   3.05065
 Alpha virt. eigenvalues --    3.05455   3.05908   3.06198   3.07057   3.07483
 Alpha virt. eigenvalues --    3.07573   3.07991   3.08215   3.08938   3.10709
 Alpha virt. eigenvalues --    3.10787   3.11053   3.11649   3.12211   3.12771
 Alpha virt. eigenvalues --    3.13053   3.13551   3.13820   3.14843   3.14997
 Alpha virt. eigenvalues --    3.15713   3.16335   3.16835   3.17732   3.18228
 Alpha virt. eigenvalues --    3.18398   3.18821   3.19737   3.20508   3.21678
 Alpha virt. eigenvalues --    3.23159   3.24831   3.35999   3.38490   3.39538
 Alpha virt. eigenvalues --    3.41199   3.41620   3.43329   3.47583   3.50277
 Alpha virt. eigenvalues --    3.54151   3.59111   3.62303   3.62631   3.63876
 Alpha virt. eigenvalues --    3.66514   3.67506
          Condensed to atoms (all electrons):
 Mulliken charges:
               1
     1  Mg   0.967036
     2  C    0.003348
     3  C   -0.081104
     4  C   -0.056683
     5  C   -0.052838
     6  N   -0.421940
     7  C    0.077523
     8  C   -0.110234
     9  C   -0.145843
    10  C    0.059902
    11  C    0.034219
    12  C    0.003090
    13  C    0.037459
    14  C    0.203818
    15  O   -0.311340
    16  O   -0.344433
    17  N   -0.463714
    18  C    0.190632
    19  C   -0.217964
    20  C   -0.045920
    21  C    0.144299
    22  C    0.068822
    23  C    0.006904
    24  O   -0.225485
    25  C   -0.014627
    26  N   -0.376426
    27  C    0.031635
    28  C   -0.054658
    29  C   -0.110467
    30  C    0.062136
    31  C    0.027727
    32  C   -0.064828
    33  C   -0.062988
    34  N   -0.484212
    35  C    0.116312
    36  C   -0.126169
    37  C   -0.041618
    38  C    0.144603
    39  C    0.059169
    40  C    0.133303
    41  O   -0.273923
    42  C   -0.127370
    43  C    0.301722
    44  O   -0.278476
    45  O   -0.351637
    46  C    0.127540
    47  C    0.250013
    48  C   -0.153808
    49  C   -0.195597
    50  C    0.016543
    51  C    0.025370
    52  C   -0.075544
    53  C   -0.011972
    54  C   -0.188807
    55  C   -0.017811
    56  C    0.028962
    57  C   -0.069082
    58  C   -0.013139
    59  C   -0.205394
    60  C    0.000083
    61  C   -0.001117
    62  C   -0.042268
    63  C   -0.027377
    64  C   -0.263189
    65  C   -0.012938
    66  C   -0.001392
    67  H    0.011903
    68  H    0.018843
    69  H   -0.010947
    70  H    0.067522
    71  H    0.041368
    72  H    0.041377
    73  H    0.043719
    74  H    0.065858
    75  H    0.040081
    76  H    0.044974
    77  H    0.056682
    78  H    0.077910
    79  H    0.071133
    80  H    0.038263
    81  H    0.055984
    82  H    0.069778
    83  H    0.055640
    84  H    0.059536
    85  H    0.057575
    86  H    0.049023
    87  H    0.049856
    88  H    0.031410
    89  H    0.057546
    90  H    0.052257
    91  H    0.031156
    92  H    0.055521
    93  H    0.057478
    94  H    0.038530
    95  H    0.061141
    96  H    0.038470
    97  H    0.059333
    98  H    0.085109
    99  H    0.051313
   100  H    0.078091
   101  H    0.046566
   102  H    0.057551
   103  H    0.060990
   104  H    0.042870
   105  H    0.033042
   106  H    0.038014
   107  H    0.067897
   108  H    0.035103
   109  H    0.015190
   110  H    0.039043
   111  H    0.032329
   112  H    0.026503
   113  H    0.023452
   114  H    0.023579
   115  H    0.031749
   116  H    0.024522
   117  H    0.024834
   118  H    0.029739
   119  H    0.014883
   120  H    0.022368
   121  H    0.044409
   122  H    0.020402
   123  H    0.020648
   124  H    0.038490
   125  H    0.017975
   126  H    0.039512
   127  H    0.027219
   128  H    0.037481
   129  H    0.031231
   130  H    0.028157
   131  H    0.020064
   132  H    0.023452
   133  H    0.025470
   134  H    0.033431
   135  H    0.034067
   136  H    0.037304
   137  H    0.033177
   138  H    0.025215
   139  H    0.044603
   140  H    0.026199
 Sum of Mulliken charges =  -0.00000
 Mulliken charges with hydrogens summed into heavy atoms:
               1
     1  Mg   0.967036
     2  C    0.003348
     3  C   -0.069201
     4  C   -0.037840
     5  C   -0.063785
     6  N   -0.421940
     7  C    0.077523
     8  C   -0.042713
     9  C   -0.104475
    10  C    0.059902
    11  C    0.185174
    12  C    0.088145
    13  C    0.172051
    14  C    0.203818
    15  O   -0.311340
    16  O   -0.344433
    17  N   -0.463714
    18  C    0.190632
    19  C   -0.217964
    20  C   -0.045920
    21  C    0.144299
    22  C    0.234201
    23  C    0.006904
    24  O   -0.225485
    25  C    0.170327
    26  N   -0.376426
    27  C    0.031635
    28  C    0.002917
    29  C   -0.061443
    30  C    0.062136
    31  C    0.166539
    32  C    0.018585
    33  C    0.088541
    34  N   -0.484212
    35  C    0.116312
    36  C   -0.126169
    37  C   -0.041618
    38  C    0.144603
    39  C    0.218113
    40  C    0.133303
    41  O   -0.273923
    42  C   -0.042261
    43  C    0.301722
    44  O   -0.278476
    45  O   -0.351637
    46  C    0.303510
    47  C    0.368554
    48  C   -0.110938
    49  C   -0.195597
    50  C    0.155495
    51  C    0.075663
    52  C   -0.004172
    53  C    0.037984
    54  C   -0.165228
    55  C    0.063295
    56  C    0.073584
    57  C   -0.002306
    58  C    0.027910
    59  C   -0.166903
    60  C    0.084789
    61  C    0.067596
    62  C    0.005953
    63  C    0.021545
    64  C   -0.229758
    65  C    0.091610
    66  C    0.094625
 Electronic spatial extent (au):  <R**2>=         121345.8079
 Charge=              0.0000 electrons
 Dipole moment (field-independent basis, Debye):
    X=             -5.3042    Y=              3.2630    Z=              1.3187  Tot=              6.3656
 Quadrupole moment (field-independent basis, Debye-Ang):
   XX=           -392.6500   YY=           -421.3571   ZZ=           -400.0121
   XY=             47.4294   XZ=             18.6824   YZ=             -6.4016
 Traceless Quadrupole moment (field-independent basis, Debye-Ang):
   XX=             12.0230   YY=            -16.6840   ZZ=              4.6610
   XY=             47.4294   XZ=             18.6824   YZ=             -6.4016
 Octapole moment (field-independent basis, Debye-Ang**2):
  XXX=            259.4504  YYY=           -167.5656  ZZZ=             -3.6429  XYY=           -224.9913
  XXY=            263.9956  XXZ=            102.4582  XZZ=             32.9107  YZZ=              5.2474
  YYZ=            -47.0156  XYZ=              2.3676
 Hexadecapole moment (field-independent basis, Debye-Ang**3):
 XXXX=        -129825.9999 YYYY=         -29317.8971 ZZZZ=          -5148.7411 XXXY=           3618.1451
 XXXZ=           1207.9057 YYYX=            376.1632 YYYZ=             87.3991 ZZZX=            190.5189
 ZZZY=            -84.0277 XXYY=         -28072.9796 XXZZ=         -23295.4498 YYZZ=          -5546.9331
 XXYZ=            265.0615 YYXZ=             39.5785 ZZXY=            198.1845
 N-N= 9.495650902695D+03 E-N=-2.598179157828D+04  KE= 2.974314648696D+03
 Leave Link  601 at Wed May  4 17:47:49 2022, MaxMem= 10066329600 cpu:              31.5 elap:               1.5
 (Enter /sw/apps/gaussian-16.0/g16/l9999.exe)
 1\1\GINC-BP1-COMPUTE219\SP\RPBE1PBE TD-FC\def2SVP\C55H74Mg1N4O6\OF1564
 1\04-May-2022\0\\#p PBE1PBE/Def2SVP td=(nstates=5)\\step_301_chromopho
 re_21 TDDFT with PBE1PBE functional\\0,1\Mg,0,15.631,51.846,25.941\C,0
 ,17.605,50.77,28.639\C,0,13.025,52.423,28.107\C,0,13.718,52.661,23.322
 \C,0,18.244,50.914,23.714\N,0,15.43,51.66,28.11\C,0,16.417,51.421,29.0
 4\C,0,15.932,51.774,30.497\C,0,14.345,51.856,30.264\C,0,14.208,51.974,
 28.738\C,0,13.522,50.669,30.819\C,0,16.496,53.106,31.003\C,0,16.427,53
 .354,32.544\C,0,15.443,52.554,33.416\O,0,15.636,51.343,33.679\O,0,14.4
 12,53.249,33.96\N,0,13.681,52.559,25.718\C,0,12.767,52.615,26.732\C,0,
 11.45,53.001,26.143\C,0,11.641,53.242,24.752\C,0,13.071,52.829,24.557\
 C,0,10.126,53.145,26.92\C,0,10.742,53.798,23.714\O,0,11.184,54.023,22.
 617\C,0,9.242,54.03,23.987\N,0,15.95,51.837,23.798\C,0,14.967,52.2,22.
 923\C,0,15.459,52.168,21.487\C,0,16.925,51.673,21.568\C,0,17.068,51.47
 2,23.116\C,0,14.613,51.255,20.678\C,0,18.112,52.593,21.228\C,0,19.439,
 51.971,20.586\N,0,17.547,50.931,26.05\C,0,18.482,50.541,25.054\C,0,19.
 659,49.893,25.719\C,0,19.264,49.912,27.114\C,0,18.047,50.61,27.261\C,0
 ,21.002,49.526,25.054\C,0,19.754,49.567,28.413\O,0,20.821,49.005,28.82
 \C,0,18.767,50.24,29.474\C,0,18.406,49.226,30.547\O,0,17.582,48.307,30
 .387\O,0,19.057,49.509,31.714\C,0,18.716,48.594,32.774\C,0,13.58,52.52
 3,34.906\C,0,12.667,53.528,35.519\C,0,12.091,53.463,36.715\C,0,12.177,
 52.287,37.649\C,0,11.477,54.675,37.318\C,0,10.083,55.162,36.848\C,0,10
 .169,56.344,35.899\C,0,8.791,56.777,35.369\C,0,8.871,57.12,33.919\C,0,
 8.145,57.941,36.13\C,0,7.243,57.428,37.236\C,0,5.749,57.675,36.965\C,0
 ,4.929,58.09,38.237\C,0,3.557,57.326,38.103\C,0,4.554,59.604,38.119\C,
 0,5.849,60.491,38.014\C,0,5.627,61.928,38.531\C,0,5.546,62.987,37.374\
 C,0,6.289,64.246,37.846\C,0,4.063,63.329,37.071\H,0,12.258,52.708,28.8
 3\H,0,13.111,52.94,22.459\H,0,19.084,50.701,23.05\H,0,16.324,51.046,31
 .206\H,0,13.934,52.793,30.641\H,0,13.002,50.326,29.924\H,0,12.83,50.93
 5,31.618\H,0,14.168,49.87,31.182\H,0,16.018,53.908,30.44\H,0,17.56,53.
 16,30.772\H,0,16.136,54.394,32.692\H,0,17.41,53.109,32.945\H,0,9.811,5
 4.189,26.915\H,0,10.302,52.678,27.889\H,0,9.417,52.457,26.461\H,0,9.22
 5,54.932,24.599\H,0,8.796,53.153,24.457\H,0,8.817,54.093,22.986\H,0,15
 .373,53.225,21.232\H,0,17.155,50.748,21.039\H,0,15.162,50.517,20.092\H
 ,0,14.206,51.923,19.919\H,0,13.678,50.957,21.153\H,0,18.554,53.059,22.
 109\H,0,17.673,53.446,20.71\H,0,20.166,51.792,21.379\H,0,19.91,52.605,
 19.834\H,0,19.009,51.037,20.227\H,0,21.839,49.764,25.712\H,0,21.164,50
 .016,24.095\H,0,21.134,48.455,24.895\H,0,19.315,51.112,29.831\H,0,19.0
 09,47.629,32.359\H,0,17.673,48.717,33.065\H,0,19.436,48.61,33.592\H,0,
 14.199,51.99,35.627\H,0,12.942,51.753,34.471\H,0,12.742,54.505,35.043\
 H,0,12.036,51.34,37.127\H,0,11.326,52.215,38.326\H,0,13.116,52.23,38.2
 \H,0,12.22,55.468,37.232\H,0,11.288,54.656,38.392\H,0,9.518,55.46,37.7
 32\H,0,9.594,54.357,36.301\H,0,10.79,55.994,35.074\H,0,10.59,57.167,36
 .476\H,0,8.214,55.854,35.417\H,0,7.909,57.271,33.43\H,0,9.449,56.352,3
 3.405\H,0,9.387,58.066,33.755\H,0,7.614,58.661,35.508\H,0,8.944,58.478
 ,36.64\H,0,7.522,58.016,38.11\H,0,7.315,56.358,37.427\H,0,5.49,56.687,
 36.585\H,0,5.536,58.303,36.1\H,0,5.534,57.823,39.103\H,0,2.697,57.954,
 38.337\H,0,3.482,56.391,38.658\H,0,3.355,57.114,37.053\H,0,3.86,59.911
 ,38.902\H,0,3.986,59.748,37.2\H,0,6.423,60.57,37.09\H,0,6.64,60.192,38
 .701\H,0,6.458,62.171,39.192\H,0,4.71,61.959,39.119\H,0,5.985,62.587,3
 6.46\H,0,5.884,65.234,37.629\H,0,7.296,64.151,37.44\H,0,6.298,64.171,3
 8.933\H,0,4.003,63.219,35.989\H,0,3.742,64.311,37.418\H,0,3.414,62.52,
 37.407\\Version=ES64L-G16RevA.03\State=1-A\HF=-3005.3515865\RMSD=8.009
 e-09\PG=C01 [X(C55H74Mg1N4O6)]\\@


 KNOWLEDGE IS CHIMERA - FOR BEYOND IT LIES OTHER KNOWLEDGE,
 AND THE INCOMPLETENESS OF WHAT IS KNOWN RENDERS THE KNOWING FALSE.
     -- THE THOMAS COVENANT CHRONICLES
 Job cpu time:       0 days  8 hours 38 minutes 50.2 seconds.
 Elapsed time:       0 days  0 hours 21 minutes 41.4 seconds.
 File lengths (MBytes):  RWF=   8929 Int=      0 D2E=      0 Chk=    390 Scr=      1
 Normal termination of Gaussian 16 at Wed May  4 17:47:50 2022.
