 Entering Gaussian System, Link 0=g16
 Initial command:
 /sw/apps/gaussian-16.0/g16/l1.exe "/tmp/Gau-256563.inp" -scrdir="/tmp/"
 Entering Link 1 = /sw/apps/gaussian-16.0/g16/l1.exe PID=    256564.
  
 Copyright (c) 1988,1990,1992,1993,1995,1998,2003,2009,2016,
            Gaussian, Inc.  All Rights Reserved.
  
 This is part of the Gaussian(R) 16 program.  It is based on
 the Gaussian(R) 09 system (copyright 2009, Gaussian, Inc.),
 the Gaussian(R) 03 system (copyright 2003, Gaussian, Inc.),
 the Gaussian(R) 98 system (copyright 1998, Gaussian, Inc.),
 the Gaussian(R) 94 system (copyright 1995, Gaussian, Inc.),
 the Gaussian 92(TM) system (copyright 1992, Gaussian, Inc.),
 the Gaussian 90(TM) system (copyright 1990, Gaussian, Inc.),
 the Gaussian 88(TM) system (copyright 1988, Gaussian, Inc.),
 the Gaussian 86(TM) system (copyright 1986, Carnegie Mellon
 University), and the Gaussian 82(TM) system (copyright 1983,
 Carnegie Mellon University). Gaussian is a federally registered
 trademark of Gaussian, Inc.
  
 This software contains proprietary and confidential information,
 including trade secrets, belonging to Gaussian, Inc.
  
 This software is provided under written license and may be
 used, copied, transmitted, or stored only in accord with that
 written license.
  
 The following legend is applicable only to US Government
 contracts under FAR:
  
                    RESTRICTED RIGHTS LEGEND
  
 Use, reproduction and disclosure by the US Government is
 subject to restrictions as set forth in subparagraphs (a)
 and (c) of the Commercial Computer Software - Restricted
 Rights clause in FAR 52.227-19.
  
 Gaussian, Inc.
 340 Quinnipiac St., Bldg. 40, Wallingford CT 06492
  
  
 ---------------------------------------------------------------
 Warning -- This program may not be used in any manner that
 competes with the business of Gaussian, Inc. or will provide
 assistance to any competitor of Gaussian, Inc.  The licensee
 of this program is prohibited from giving any competitor of
 Gaussian, Inc. access to this program.  By using this program,
 the user acknowledges that Gaussian, Inc. is engaged in the
 business of creating and licensing software in the field of
 computational chemistry and represents and warrants to the
 licensee that it is not a competitor of Gaussian, Inc. and that
 it will not use this program in any manner prohibited above.
 ---------------------------------------------------------------
  

 Cite this work as:
 Gaussian 16, Revision A.03,
 M. J. Frisch, G. W. Trucks, H. B. Schlegel, G. E. Scuseria, 
 M. A. Robb, J. R. Cheeseman, G. Scalmani, V. Barone, 
 G. A. Petersson, H. Nakatsuji, X. Li, M. Caricato, A. V. Marenich, 
 J. Bloino, B. G. Janesko, R. Gomperts, B. Mennucci, H. P. Hratchian, 
 J. V. Ortiz, A. F. Izmaylov, J. L. Sonnenberg, D. Williams-Young, 
 F. Ding, F. Lipparini, F. Egidi, J. Goings, B. Peng, A. Petrone, 
 T. Henderson, D. Ranasinghe, V. G. Zakrzewski, J. Gao, N. Rega, 
 G. Zheng, W. Liang, M. Hada, M. Ehara, K. Toyota, R. Fukuda, 
 J. Hasegawa, M. Ishida, T. Nakajima, Y. Honda, O. Kitao, H. Nakai, 
 T. Vreven, K. Throssell, J. A. Montgomery, Jr., J. E. Peralta, 
 F. Ogliaro, M. J. Bearpark, J. J. Heyd, E. N. Brothers, K. N. Kudin, 
 V. N. Staroverov, T. A. Keith, R. Kobayashi, J. Normand, 
 K. Raghavachari, A. P. Rendell, J. C. Burant, S. S. Iyengar, 
 J. Tomasi, M. Cossi, J. M. Millam, M. Klene, C. Adamo, R. Cammi, 
 J. W. Ochterski, R. L. Martin, K. Morokuma, O. Farkas, 
 J. B. Foresman, and D. J. Fox, Gaussian, Inc., Wallingford CT, 2016.
 
 ******************************************
 Gaussian 16:  ES64L-G16RevA.03 25-Dec-2016
                27-Apr-2022 
 ******************************************
 %nproc=24
 Will use up to   24 processors via shared memory.
 %mem=75GB
 --------------------------------
 #p wB97XD/Def2SVP td=(nstates=5)
 --------------------------------
 1/38=1,172=1/1;
 2/12=2,17=6,18=5,40=1/2;
 3/5=43,7=101,11=9,25=1,30=1,74=-58/1,2,3,8;
 4//1;
 5/5=2,38=5/2;
 8/6=1,10=1,108=5/1;
 9/41=5,42=1,70=2/14;
 6/7=2,8=2,9=2,10=2/1;
 99/5=1,9=1/99;
 Leave Link    1 at Wed Apr 27 12:17:25 2022, MaxMem= 10066329600 cpu:               0.9 elap:               0.0
 (Enter /sw/apps/gaussian-16.0/g16/l101.exe)
 -----------------------------------------------------
 step_1151_chromophore_27 TDDFT with wB97XD functional
 -----------------------------------------------------
 Symbolic Z-matrix:
 Charge =  0 Multiplicity = 1
 Mg                   -5.989     25.172    26.457 
 C                    -4.141     26.906    28.917 
 C                    -7.207     23.093    28.851 
 C                    -7.658     23.64     24.016 
 C                    -4.216     26.963    23.975 
 N                    -5.772     25.129    28.717 
 C                    -4.941     25.901    29.466 
 C                    -5.066     25.545    30.928 
 C                    -5.84      24.104    30.883 
 C                    -6.295     24.094    29.386 
 C                    -4.936     22.802    31.185 
 C                    -5.85      26.661    31.822 
 C                    -5.425     26.838    33.289 
 C                    -6.55      26.514    34.251 
 O                    -7.397     27.396    34.635 
 O                    -6.35      25.345    34.903 
 N                    -7.14      23.515    26.408 
 C                    -7.571     22.852    27.537 
 C                    -8.369     21.737    27.105 
 C                    -8.476     21.751    25.694 
 C                    -7.752     22.965    25.275 
 C                    -9.028     20.858    28.154 
 C                    -9.172     20.853    24.68 
 O                    -9.214     21.027    23.462 
 C                    -9.885     19.608    25.189 
 N                    -5.89      25.215    24.272 
 C                    -6.898     24.703    23.515 
 C                    -7.039     25.346    22.075 
 C                    -5.931     26.424    22.186 
 C                    -5.267     26.187    23.511 
 C                    -6.722     24.269    20.972 
 C                    -6.374     27.882    21.898 
 C                    -6.596     28.226    20.45 
 N                    -4.438     26.596    26.38 
 C                    -3.817     27.259    25.297 
 C                    -2.785     28.208    25.771 
 C                    -2.882     28.046    27.156 
 C                    -3.924     27.13     27.549 
 C                    -1.958     29.088    24.992 
 C                    -2.363     28.59     28.454 
 O                    -1.534     29.436    28.598 
 C                    -3.197     27.919    29.604 
 C                    -2.241     27.27     30.461 
 O                    -1.452     26.375    30.158 
 O                    -2.311     27.798    31.658 
 C                    -1.462     27.172    32.66 
 C                    -7.114     25.131    36.203 
 C                    -8.122     23.916    36.04 
 C                    -8.24      22.777    36.768 
 C                    -7.385     22.344    37.996 
 C                    -9.36      21.837    36.399 
 C                    -10.777    22.302    36.815 
 C                    -11.526    21.308    37.763 
 C                    -12.476    20.462    36.835 
 C                    -13.828    21.176    36.549 
 C                    -12.638    18.988    37.387 
 C                    -11.571    17.936    36.978 
 C                    -11.068    17.086    38.213 
 C                    -9.532     16.935    38.12 
 C                    -8.868     18.212    38.87 
 C                    -9.06      15.561    38.635 
 C                    -7.612     15.261    38.116 
 C                    -6.471     15.173    39.18 
 C                    -5.298     14.17     38.884 
 C                    -4.807     13.454    40.16 
 C                    -4.105     14.791    38.106 
 H                    -7.727     22.401    29.515 
 H                    -8.237     23.259    23.172 
 H                    -3.67      27.414    23.144 
 H                    -4.078     25.385    31.359 
 H                    -6.817     24.137    31.363 
 H                    -5.034     21.979    30.476 
 H                    -5.289     22.267    32.067 
 H                    -3.88      23.065    31.24 
 H                    -6.858     26.256    31.909 
 H                    -5.986     27.608    31.3 
 H                    -5.072     27.851    33.478 
 H                    -4.542     26.242    33.52 
 H                    -9.94      21.327    28.524 
 H                    -8.333     20.696    28.978 
 H                    -9.472     19.925    27.805 
 H                    -10.553    19.146    24.462 
 H                    -10.587    19.981    25.935 
 H                    -9.162     18.864    25.523 
 H                    -8.006     25.801    21.857 
 H                    -5.164     26.208    21.443 
 H                    -6.816     23.274    21.407 
 H                    -5.697     24.314    20.605 
 H                    -7.48      24.364    20.194 
 H                    -5.715     28.578    22.417 
 H                    -7.376     28.013    22.307 
 H                    -6.614     27.299    19.877 
 H                    -5.874     28.95     20.073 
 H                    -7.561     28.674    20.212 
 H                    -1.318     29.63     25.687 
 H                    -2.625     29.665    24.352 
 H                    -1.34      28.414    24.398 
 H                    -3.737     28.764    30.032 
 H                    -0.452     27.359    32.294 
 H                    -1.697     26.127    32.859 
 H                    -1.637     27.751    33.567 
 H                    -7.607     26.021    36.594 
 H                    -6.391     24.857    36.971 
 H                    -8.636     24.037    35.087 
 H                    -6.651     23.126    38.191 
 H                    -6.976     21.334    38. 
 H                    -8.043     22.365    38.864 
 H                    -9.217     20.838    36.809 
 H                    -9.402     21.75     35.313 
 H                    -11.404    22.478    35.941 
 H                    -10.654    23.248    37.342 
 H                    -12.118    21.93     38.435 
 H                    -10.86     20.562    38.195 
 H                    -11.985    20.343    35.869 
 H                    -14.607    20.668    37.117 
 H                    -14.064    21.219    35.486 
 H                    -14.01     22.184    36.921 
 H                    -13.64     18.706    37.061 
 H                    -12.758    19.108    38.463 
 H                    -10.831    18.53     36.441 
 H                    -12.029    17.246    36.268 
 H                    -11.553    16.112    38.138 
 H                    -11.457    17.54     39.124 
 H                    -9.378     17.023    37.045 
 H                    -9.672     18.944    38.945 
 H                    -8.016     18.525    38.266 
 H                    -8.6       17.953    39.895 
 H                    -9.587     14.759    38.118 
 H                    -8.998     15.362    39.705 
 H                    -7.48      15.993    37.319 
 H                    -7.634     14.298    37.606 
 H                    -6.942     14.956    40.139 
 H                    -5.945     16.128    39.208 
 H                    -5.709     13.334    38.318 
 H                    -3.817     13.847    40.392 
 H                    -4.696     12.376    40.039 
 H                    -5.462     13.572    41.023 
 H                    -4.408     15.343    37.216 
 H                    -3.517     13.934    37.777 
 H                    -3.555     15.464    38.763 
 
 ITRead=  0  0  0  0  0  0  0  0  0  0  0  0  0  0  0  0  0  0  0  0
 ITRead=  0  0  0  0  0  0  0  0  0  0  0  0  0  0  0  0  0  0  0  0
 ITRead=  0  0  0  0  0  0  0  0  0  0  0  0  0  0  0  0  0  0  0  0
 ITRead=  0  0  0  0  0  0  0  0  0  0  0  0  0  0  0  0  0  0  0  0
 ITRead=  0  0  0  0  0  0  0  0  0  0  0  0  0  0  0  0  0  0  0  0
 ITRead=  0  0  0  0  0  0  0  0  0  0  0  0  0  0  0  0  0  0  0  0
 ITRead=  0  0  0  0  0  0  0  0  0  0  0  0  0  0  0  0  0  0  0  0
 MicOpt= -1 -1 -1 -1 -1 -1 -1 -1 -1 -1 -1 -1 -1 -1 -1 -1 -1 -1 -1 -1
 MicOpt= -1 -1 -1 -1 -1 -1 -1 -1 -1 -1 -1 -1 -1 -1 -1 -1 -1 -1 -1 -1
 MicOpt= -1 -1 -1 -1 -1 -1 -1 -1 -1 -1 -1 -1 -1 -1 -1 -1 -1 -1 -1 -1
 MicOpt= -1 -1 -1 -1 -1 -1 -1 -1 -1 -1 -1 -1 -1 -1 -1 -1 -1 -1 -1 -1
 MicOpt= -1 -1 -1 -1 -1 -1 -1 -1 -1 -1 -1 -1 -1 -1 -1 -1 -1 -1 -1 -1
 MicOpt= -1 -1 -1 -1 -1 -1 -1 -1 -1 -1 -1 -1 -1 -1 -1 -1 -1 -1 -1 -1
 MicOpt= -1 -1 -1 -1 -1 -1 -1 -1 -1 -1 -1 -1 -1 -1 -1 -1 -1 -1 -1 -1
 NAtoms=    140 NQM=      140 NQMF=       0 NMMI=      0 NMMIF=      0
                NMic=       0 NMicF=      0.
                    Isotopes and Nuclear Properties:
 (Nuclear quadrupole moments (NQMom) in fm**2, nuclear magnetic moments (NMagM)
  in nuclear magnetons)

  Atom         1           2           3           4           5           6           7           8           9          10
 IAtWgt=          24          12          12          12          12          14          12          12          12          12
 AtmWgt=  23.9850450  12.0000000  12.0000000  12.0000000  12.0000000  14.0030740  12.0000000  12.0000000  12.0000000  12.0000000
 NucSpn=           0           0           0           0           0           2           0           0           0           0
 AtZEff=  -0.0000000  -0.0000000  -0.0000000  -0.0000000  -0.0000000  -0.0000000  -0.0000000  -0.0000000  -0.0000000  -0.0000000
 NQMom=    0.0000000   0.0000000   0.0000000   0.0000000   0.0000000   2.0440000   0.0000000   0.0000000   0.0000000   0.0000000
 NMagM=    0.0000000   0.0000000   0.0000000   0.0000000   0.0000000   0.4037610   0.0000000   0.0000000   0.0000000   0.0000000
 AtZNuc=  12.0000000   6.0000000   6.0000000   6.0000000   6.0000000   7.0000000   6.0000000   6.0000000   6.0000000   6.0000000

  Atom        11          12          13          14          15          16          17          18          19          20
 IAtWgt=          12          12          12          12          16          16          14          12          12          12
 AtmWgt=  12.0000000  12.0000000  12.0000000  12.0000000  15.9949146  15.9949146  14.0030740  12.0000000  12.0000000  12.0000000
 NucSpn=           0           0           0           0           0           0           2           0           0           0
 AtZEff=  -0.0000000  -0.0000000  -0.0000000  -0.0000000  -0.0000000  -0.0000000  -0.0000000  -0.0000000  -0.0000000  -0.0000000
 NQMom=    0.0000000   0.0000000   0.0000000   0.0000000   0.0000000   0.0000000   2.0440000   0.0000000   0.0000000   0.0000000
 NMagM=    0.0000000   0.0000000   0.0000000   0.0000000   0.0000000   0.0000000   0.4037610   0.0000000   0.0000000   0.0000000
 AtZNuc=   6.0000000   6.0000000   6.0000000   6.0000000   8.0000000   8.0000000   7.0000000   6.0000000   6.0000000   6.0000000

  Atom        21          22          23          24          25          26          27          28          29          30
 IAtWgt=          12          12          12          16          12          14          12          12          12          12
 AtmWgt=  12.0000000  12.0000000  12.0000000  15.9949146  12.0000000  14.0030740  12.0000000  12.0000000  12.0000000  12.0000000
 NucSpn=           0           0           0           0           0           2           0           0           0           0
 AtZEff=  -0.0000000  -0.0000000  -0.0000000  -0.0000000  -0.0000000  -0.0000000  -0.0000000  -0.0000000  -0.0000000  -0.0000000
 NQMom=    0.0000000   0.0000000   0.0000000   0.0000000   0.0000000   2.0440000   0.0000000   0.0000000   0.0000000   0.0000000
 NMagM=    0.0000000   0.0000000   0.0000000   0.0000000   0.0000000   0.4037610   0.0000000   0.0000000   0.0000000   0.0000000
 AtZNuc=   6.0000000   6.0000000   6.0000000   8.0000000   6.0000000   7.0000000   6.0000000   6.0000000   6.0000000   6.0000000

  Atom        31          32          33          34          35          36          37          38          39          40
 IAtWgt=          12          12          12          14          12          12          12          12          12          12
 AtmWgt=  12.0000000  12.0000000  12.0000000  14.0030740  12.0000000  12.0000000  12.0000000  12.0000000  12.0000000  12.0000000
 NucSpn=           0           0           0           2           0           0           0           0           0           0
 AtZEff=  -0.0000000  -0.0000000  -0.0000000  -0.0000000  -0.0000000  -0.0000000  -0.0000000  -0.0000000  -0.0000000  -0.0000000
 NQMom=    0.0000000   0.0000000   0.0000000   2.0440000   0.0000000   0.0000000   0.0000000   0.0000000   0.0000000   0.0000000
 NMagM=    0.0000000   0.0000000   0.0000000   0.4037610   0.0000000   0.0000000   0.0000000   0.0000000   0.0000000   0.0000000
 AtZNuc=   6.0000000   6.0000000   6.0000000   7.0000000   6.0000000   6.0000000   6.0000000   6.0000000   6.0000000   6.0000000

  Atom        41          42          43          44          45          46          47          48          49          50
 IAtWgt=          16          12          12          16          16          12          12          12          12          12
 AtmWgt=  15.9949146  12.0000000  12.0000000  15.9949146  15.9949146  12.0000000  12.0000000  12.0000000  12.0000000  12.0000000
 NucSpn=           0           0           0           0           0           0           0           0           0           0
 AtZEff=  -0.0000000  -0.0000000  -0.0000000  -0.0000000  -0.0000000  -0.0000000  -0.0000000  -0.0000000  -0.0000000  -0.0000000
 NQMom=    0.0000000   0.0000000   0.0000000   0.0000000   0.0000000   0.0000000   0.0000000   0.0000000   0.0000000   0.0000000
 NMagM=    0.0000000   0.0000000   0.0000000   0.0000000   0.0000000   0.0000000   0.0000000   0.0000000   0.0000000   0.0000000
 AtZNuc=   8.0000000   6.0000000   6.0000000   8.0000000   8.0000000   6.0000000   6.0000000   6.0000000   6.0000000   6.0000000

  Atom        51          52          53          54          55          56          57          58          59          60
 IAtWgt=          12          12          12          12          12          12          12          12          12          12
 AtmWgt=  12.0000000  12.0000000  12.0000000  12.0000000  12.0000000  12.0000000  12.0000000  12.0000000  12.0000000  12.0000000
 NucSpn=           0           0           0           0           0           0           0           0           0           0
 AtZEff=  -0.0000000  -0.0000000  -0.0000000  -0.0000000  -0.0000000  -0.0000000  -0.0000000  -0.0000000  -0.0000000  -0.0000000
 NQMom=    0.0000000   0.0000000   0.0000000   0.0000000   0.0000000   0.0000000   0.0000000   0.0000000   0.0000000   0.0000000
 NMagM=    0.0000000   0.0000000   0.0000000   0.0000000   0.0000000   0.0000000   0.0000000   0.0000000   0.0000000   0.0000000
 AtZNuc=   6.0000000   6.0000000   6.0000000   6.0000000   6.0000000   6.0000000   6.0000000   6.0000000   6.0000000   6.0000000

  Atom        61          62          63          64          65          66          67          68          69          70
 IAtWgt=          12          12          12          12          12          12           1           1           1           1
 AtmWgt=  12.0000000  12.0000000  12.0000000  12.0000000  12.0000000  12.0000000   1.0078250   1.0078250   1.0078250   1.0078250
 NucSpn=           0           0           0           0           0           0           1           1           1           1
 AtZEff=  -0.0000000  -0.0000000  -0.0000000  -0.0000000  -0.0000000  -0.0000000  -0.0000000  -0.0000000  -0.0000000  -0.0000000
 NQMom=    0.0000000   0.0000000   0.0000000   0.0000000   0.0000000   0.0000000   0.0000000   0.0000000   0.0000000   0.0000000
 NMagM=    0.0000000   0.0000000   0.0000000   0.0000000   0.0000000   0.0000000   2.7928460   2.7928460   2.7928460   2.7928460
 AtZNuc=   6.0000000   6.0000000   6.0000000   6.0000000   6.0000000   6.0000000   1.0000000   1.0000000   1.0000000   1.0000000

  Atom        71          72          73          74          75          76          77          78          79          80
 IAtWgt=           1           1           1           1           1           1           1           1           1           1
 AtmWgt=   1.0078250   1.0078250   1.0078250   1.0078250   1.0078250   1.0078250   1.0078250   1.0078250   1.0078250   1.0078250
 NucSpn=           1           1           1           1           1           1           1           1           1           1
 AtZEff=  -0.0000000  -0.0000000  -0.0000000  -0.0000000  -0.0000000  -0.0000000  -0.0000000  -0.0000000  -0.0000000  -0.0000000
 NQMom=    0.0000000   0.0000000   0.0000000   0.0000000   0.0000000   0.0000000   0.0000000   0.0000000   0.0000000   0.0000000
 NMagM=    2.7928460   2.7928460   2.7928460   2.7928460   2.7928460   2.7928460   2.7928460   2.7928460   2.7928460   2.7928460
 AtZNuc=   1.0000000   1.0000000   1.0000000   1.0000000   1.0000000   1.0000000   1.0000000   1.0000000   1.0000000   1.0000000

  Atom        81          82          83          84          85          86          87          88          89          90
 IAtWgt=           1           1           1           1           1           1           1           1           1           1
 AtmWgt=   1.0078250   1.0078250   1.0078250   1.0078250   1.0078250   1.0078250   1.0078250   1.0078250   1.0078250   1.0078250
 NucSpn=           1           1           1           1           1           1           1           1           1           1
 AtZEff=  -0.0000000  -0.0000000  -0.0000000  -0.0000000  -0.0000000  -0.0000000  -0.0000000  -0.0000000  -0.0000000  -0.0000000
 NQMom=    0.0000000   0.0000000   0.0000000   0.0000000   0.0000000   0.0000000   0.0000000   0.0000000   0.0000000   0.0000000
 NMagM=    2.7928460   2.7928460   2.7928460   2.7928460   2.7928460   2.7928460   2.7928460   2.7928460   2.7928460   2.7928460
 AtZNuc=   1.0000000   1.0000000   1.0000000   1.0000000   1.0000000   1.0000000   1.0000000   1.0000000   1.0000000   1.0000000

  Atom        91          92          93          94          95          96          97          98          99         100
 IAtWgt=           1           1           1           1           1           1           1           1           1           1
 AtmWgt=   1.0078250   1.0078250   1.0078250   1.0078250   1.0078250   1.0078250   1.0078250   1.0078250   1.0078250   1.0078250
 NucSpn=           1           1           1           1           1           1           1           1           1           1
 AtZEff=  -0.0000000  -0.0000000  -0.0000000  -0.0000000  -0.0000000  -0.0000000  -0.0000000  -0.0000000  -0.0000000  -0.0000000
 NQMom=    0.0000000   0.0000000   0.0000000   0.0000000   0.0000000   0.0000000   0.0000000   0.0000000   0.0000000   0.0000000
 NMagM=    2.7928460   2.7928460   2.7928460   2.7928460   2.7928460   2.7928460   2.7928460   2.7928460   2.7928460   2.7928460
 AtZNuc=   1.0000000   1.0000000   1.0000000   1.0000000   1.0000000   1.0000000   1.0000000   1.0000000   1.0000000   1.0000000

  Atom       101         102         103         104         105         106         107         108         109         110
 IAtWgt=           1           1           1           1           1           1           1           1           1           1
 AtmWgt=   1.0078250   1.0078250   1.0078250   1.0078250   1.0078250   1.0078250   1.0078250   1.0078250   1.0078250   1.0078250
 NucSpn=           1           1           1           1           1           1           1           1           1           1
 AtZEff=  -0.0000000  -0.0000000  -0.0000000  -0.0000000  -0.0000000  -0.0000000  -0.0000000  -0.0000000  -0.0000000  -0.0000000
 NQMom=    0.0000000   0.0000000   0.0000000   0.0000000   0.0000000   0.0000000   0.0000000   0.0000000   0.0000000   0.0000000
 NMagM=    2.7928460   2.7928460   2.7928460   2.7928460   2.7928460   2.7928460   2.7928460   2.7928460   2.7928460   2.7928460
 AtZNuc=   1.0000000   1.0000000   1.0000000   1.0000000   1.0000000   1.0000000   1.0000000   1.0000000   1.0000000   1.0000000

  Atom       111         112         113         114         115         116         117         118         119         120
 IAtWgt=           1           1           1           1           1           1           1           1           1           1
 AtmWgt=   1.0078250   1.0078250   1.0078250   1.0078250   1.0078250   1.0078250   1.0078250   1.0078250   1.0078250   1.0078250
 NucSpn=           1           1           1           1           1           1           1           1           1           1
 AtZEff=  -0.0000000  -0.0000000  -0.0000000  -0.0000000  -0.0000000  -0.0000000  -0.0000000  -0.0000000  -0.0000000  -0.0000000
 NQMom=    0.0000000   0.0000000   0.0000000   0.0000000   0.0000000   0.0000000   0.0000000   0.0000000   0.0000000   0.0000000
 NMagM=    2.7928460   2.7928460   2.7928460   2.7928460   2.7928460   2.7928460   2.7928460   2.7928460   2.7928460   2.7928460
 AtZNuc=   1.0000000   1.0000000   1.0000000   1.0000000   1.0000000   1.0000000   1.0000000   1.0000000   1.0000000   1.0000000

  Atom       121         122         123         124         125         126         127         128         129         130
 IAtWgt=           1           1           1           1           1           1           1           1           1           1
 AtmWgt=   1.0078250   1.0078250   1.0078250   1.0078250   1.0078250   1.0078250   1.0078250   1.0078250   1.0078250   1.0078250
 NucSpn=           1           1           1           1           1           1           1           1           1           1
 AtZEff=  -0.0000000  -0.0000000  -0.0000000  -0.0000000  -0.0000000  -0.0000000  -0.0000000  -0.0000000  -0.0000000  -0.0000000
 NQMom=    0.0000000   0.0000000   0.0000000   0.0000000   0.0000000   0.0000000   0.0000000   0.0000000   0.0000000   0.0000000
 NMagM=    2.7928460   2.7928460   2.7928460   2.7928460   2.7928460   2.7928460   2.7928460   2.7928460   2.7928460   2.7928460
 AtZNuc=   1.0000000   1.0000000   1.0000000   1.0000000   1.0000000   1.0000000   1.0000000   1.0000000   1.0000000   1.0000000

  Atom       131         132         133         134         135         136         137         138         139         140
 IAtWgt=           1           1           1           1           1           1           1           1           1           1
 AtmWgt=   1.0078250   1.0078250   1.0078250   1.0078250   1.0078250   1.0078250   1.0078250   1.0078250   1.0078250   1.0078250
 NucSpn=           1           1           1           1           1           1           1           1           1           1
 AtZEff=  -0.0000000  -0.0000000  -0.0000000  -0.0000000  -0.0000000  -0.0000000  -0.0000000  -0.0000000  -0.0000000  -0.0000000
 NQMom=    0.0000000   0.0000000   0.0000000   0.0000000   0.0000000   0.0000000   0.0000000   0.0000000   0.0000000   0.0000000
 NMagM=    2.7928460   2.7928460   2.7928460   2.7928460   2.7928460   2.7928460   2.7928460   2.7928460   2.7928460   2.7928460
 AtZNuc=   1.0000000   1.0000000   1.0000000   1.0000000   1.0000000   1.0000000   1.0000000   1.0000000   1.0000000   1.0000000
 Leave Link  101 at Wed Apr 27 12:17:25 2022, MaxMem= 10066329600 cpu:               4.3 elap:               0.2
 (Enter /sw/apps/gaussian-16.0/g16/l202.exe)
 Stoichiometry    C55H74MgN4O6
 Framework group  C1[X(C55H74MgN4O6)]
 Deg. of freedom   414
 Full point group                 C1      NOp   1
 Largest Abelian subgroup         C1      NOp   1
 Largest concise Abelian subgroup C1      NOp   1
                         Standard orientation:                         
 ---------------------------------------------------------------------
 Center     Atomic      Atomic             Coordinates (Angstroms)
 Number     Number       Type             X           Y           Z
 ---------------------------------------------------------------------
      1         12           0       -4.687872    0.814429    0.112053
      2          6           0       -3.971875   -2.643657    0.161512
      3          6           0       -1.361290    1.491990    0.003578
      4          6           0       -5.533094    4.035569    0.081634
      5          6           0       -8.062238    0.046308    0.843607
      6          7           0       -2.849538   -0.509309   -0.045381
      7          6           0       -2.818286   -1.865666    0.037463
      8          6           0       -1.399350   -2.368278   -0.080043
      9          6           0       -0.515621   -1.013557    0.167616
     10          6           0       -1.643526    0.064303    0.048538
     11          6           0        0.205880   -0.888672    1.605484
     12          6           0       -1.064508   -3.095867   -1.500551
     13          6           0       -0.041220   -4.243439   -1.499305
     14          6           0        1.172925   -3.924870   -2.348074
     15          8           0        1.222439   -4.195320   -3.599950
     16          8           0        2.272188   -3.671097   -1.600487
     17          7           0       -3.610858    2.519367    0.190032
     18          6           0       -2.238837    2.561280    0.064439
     19          6           0       -1.838079    3.938500    0.160923
     20          6           0       -2.985545    4.756666    0.289337
     21          6           0       -4.123195    3.822392    0.209234
     22          6           0       -0.368910    4.287020   -0.004607
     23          6           0       -3.200400    6.257748    0.429363
     24          8           0       -4.286171    6.835376    0.484233
     25          6           0       -1.974884    7.156043    0.522392
     26          7           0       -6.535218    1.917483    0.507600
     27          6           0       -6.668180    3.218505    0.132206
     28          6           0       -8.158106    3.683520   -0.133898
     29          6           0       -8.874084    2.326814    0.086991
     30          6           0       -7.806906    1.375741    0.544464
     31          6           0       -8.580844    4.766453    0.927034
     32          6           0       -9.768351    1.835478   -1.080842
     33          6           0      -11.091663    2.535529   -1.232823
     34          7           0       -5.837769   -0.906113    0.508002
     35          6           0       -7.214462   -1.081207    0.776624
     36          6           0       -7.546988   -2.512032    0.956811
     37          6           0       -6.298463   -3.108545    0.758733
     38          6           0       -5.265445   -2.162987    0.415128
     39          6           0       -8.831590   -3.103403    1.212247
     40          6           0       -5.626008   -4.444458    0.643662
     41          8           0       -6.131864   -5.516970    0.776030
     42          6           0       -4.142099   -4.179480    0.200835
     43          6           0       -3.312940   -4.788526    1.206392
     44          8           0       -3.275868   -4.520984    2.407393
     45          8           0       -2.583381   -5.724282    0.650878
     46          6           0       -1.622503   -6.365287    1.535472
     47          6           0        3.627186   -3.809492   -2.281896
     48          6           0        4.348864   -2.396950   -2.334491
     49          6           0        5.566621   -2.021832   -1.868034
     50          6           0        6.612547   -2.908055   -1.128340
     51          6           0        6.000858   -0.603435   -2.139601
     52          6           0        6.420886   -0.309217   -3.600485
     53          6           0        7.886543    0.216367   -3.753296
     54          6           0        7.772668    1.783335   -3.858378
     55          6           0        7.469779    2.267868   -5.305092
     56          6           0        9.028790    2.485825   -3.200890
     57          6           0        8.997442    2.749478   -1.670538
     58          6           0       10.344345    2.317332   -0.963547
     59          6           0       10.001306    1.586201    0.354982
     60          6           0        9.808989    0.012698    0.006804
     61          6           0       11.032807    1.885958    1.460440
     62          6           0       10.435281    1.528144    2.864362
     63          6           0       11.102831    0.355094    3.651796
     64          6           0       11.115530    0.466797    5.219251
     65          6           0       12.429470   -0.063482    5.831034
     66          6           0        9.883941   -0.173699    5.917197
     67          1           0       -0.337935    1.854887   -0.102301
     68          1           0       -5.902015    5.058618   -0.018396
     69          1           0       -9.104251   -0.091993    1.138839
     70          1           0       -1.182427   -3.066163    0.728292
     71          1           0        0.082506   -0.738020   -0.699761
     72          1           0        0.069627    0.059980    2.126164
     73          1           0        1.290229   -0.836125    1.504571
     74          1           0       -0.122030   -1.682300    2.276274
     75          1           0       -0.556571   -2.319001   -2.071635
     76          1           0       -1.955751   -3.319621   -2.086562
     77          1           0       -0.489750   -5.172357   -1.849207
     78          1           0        0.260323   -4.503841   -0.484648
     79          1           0       -0.102209    4.316118   -1.061314
     80          1           0        0.239049    3.543931    0.511581
     81          1           0       -0.073462    5.305230    0.251096
     82          1           0       -2.185300    8.216273    0.381562
     83          1           0       -1.395281    6.920707   -0.370427
     84          1           0       -1.475717    7.022215    1.481945
     85          1           0       -8.356963    4.071741   -1.133587
     86          1           0       -9.547205    2.426591    0.937841
     87          1           0       -7.684894    5.198052    1.373219
     88          1           0       -9.136950    4.354097    1.768490
     89          1           0       -9.101973    5.561811    0.393458
     90          1           0       -9.848874    0.748834   -1.052964
     91          1           0       -9.274014    2.103300   -2.014838
     92          1           0      -11.079722    3.428995   -0.608676
     93          1           0      -11.940127    1.882054   -1.031161
     94          1           0      -11.303841    2.937787   -2.223651
     95          1           0       -8.682779   -4.179698    1.288619
     96          1           0       -9.509206   -2.732296    0.443785
     97          1           0       -9.110854   -2.716934    2.192905
     98          1           0       -4.105970   -4.625823   -0.793288
     99          1           0       -2.248050   -6.857293    2.280889
    100          1           0       -0.863716   -5.694423    1.936762
    101          1           0       -1.135111   -7.115315    0.912237
    102          1           0        3.598907   -4.290296   -3.259678
    103          1           0        4.240734   -4.468999   -1.668513
    104          1           0        3.615119   -1.661622   -2.663060
    105          1           0        6.203271   -3.914638   -1.041224
    106          1           0        7.047809   -2.519737   -0.207931
    107          1           0        7.465466   -3.017394   -1.797222
    108          1           0        6.825084   -0.290778   -1.499720
    109          1           0        5.159338    0.063650   -1.951001
    110          1           0        5.749156    0.413640   -4.063343
    111          1           0        6.337581   -1.249245   -4.145630
    112          1           0        8.251295   -0.195150   -4.694859
    113          1           0        8.480395    0.063045   -2.853003
    114          1           0        6.927173    2.101472   -3.248194
    115          1           0        8.376621    2.716808   -5.709591
    116          1           0        6.623350    2.952716   -5.350426
    117          1           0        7.294862    1.547413   -6.103791
    118          1           0        9.130836    3.407520   -3.775232
    119          1           0        9.881293    1.896064   -3.535550
    120          1           0        8.080334    2.252840   -1.352626
    121          1           0        8.872166    3.821613   -1.513068
    122          1           0       10.896328    3.235479   -0.758981
    123          1           0       10.947866    1.764173   -1.682668
    124          1           0        9.034145    2.027665    0.593296
    125          1           0        9.671681   -0.021933   -1.073850
    126          1           0        8.957180   -0.337913    0.590056
    127          1           0       10.728889   -0.536421    0.211210
    128          1           0       11.140331    2.961767    1.599347
    129          1           0       12.004940    1.392703    1.459391
    130          1           0        9.368495    1.433729    2.660621
    131          1           0       10.518767    2.411914    3.496765
    132          1           0       12.112292    0.236765    3.257337
    133          1           0       10.512722   -0.549165    3.498265
    134          1           0       11.174229    1.524122    5.477689
    135          1           0       12.195000   -0.995837    6.344952
    136          1           0       12.863712    0.604381    6.575641
    137          1           0       13.227292   -0.231690    5.107914
    138          1           0        8.931350    0.141222    5.490572
    139          1           0        9.924951    0.198977    6.940849
    140          1           0        9.953662   -1.258971    5.850848
 ---------------------------------------------------------------------
 Rotational constants (GHZ):           0.0368689           0.0117803           0.0103876
 Leave Link  202 at Wed Apr 27 12:17:25 2022, MaxMem= 10066329600 cpu:               0.4 elap:               0.0
 (Enter /sw/apps/gaussian-16.0/g16/l301.exe)
 Standard basis: def2SVP (5D, 7F)
 Ernie: Thresh=  0.10000D-02 Tol=  0.10000D-05 Strict=F.
 There are  1364 symmetry adapted cartesian basis functions of A   symmetry.
 There are  1298 symmetry adapted basis functions of A   symmetry.
  1298 basis functions,  2180 primitive gaussians,  1364 cartesian basis functions
   246 alpha electrons      246 beta electrons
       nuclear repulsion energy      9599.7271655112 Hartrees.
 IExCor= 4639 DFT=T Ex+Corr=wB97XD ExCW=0 ScaHFX=  1.000000
 ScaDFX=  1.000000  1.000000  1.000000  1.000000 ScalE2=  1.000000  1.000000
 IRadAn=      5 IRanWt=     -1 IRanGd=            0 ICorTp=0 IEmpDi=121
 HFx  wShort=  0.000000 wLong=  0.200000 cFull=  0.222036 cShort=  0.000000 cLong=  0.777964
 DFx  wShort=  0.000000 wLong=  0.200000 cFull=  0.000000 cShort=  0.000000 cLong=  1.000000
 NAtoms=  140 NActive=  140 NUniq=  140 SFac= 1.00D+00 NAtFMM=   60 NAOKFM=T Big=T
 Integral buffers will be    131072 words long.
 Raffenetti 1 integral format.
 Two-electron integral symmetry is turned on.
 R6Disp:  Grimme-D2 Dispersion energy=       -0.1333454292 Hartrees.
 Nuclear repulsion after empirical dispersion term =     9599.5938200819 Hartrees.
 Leave Link  301 at Wed Apr 27 12:17:26 2022, MaxMem= 10066329600 cpu:               1.4 elap:               0.1
 (Enter /sw/apps/gaussian-16.0/g16/l302.exe)
 NPDir=0 NMtPBC=     1 NCelOv=     1 NCel=       1 NClECP=     1 NCelD=      1
         NCelK=      1 NCelE2=     1 NClLst=     1 CellRange=     0.0.
 One-electron integrals computed using PRISM.
 One-electron integral symmetry used in STVInt
   1 Symmetry operations used in ECPInt.
 ECPInt:  NShTT=  192510 NPrTT=  683786 LenC2=   96810 LenP2D=  209710.
 LDataN:  DoStor=T MaxTD1= 4 Len=   56
 NBasis=  1298 RedAO= T EigKep=  3.40D-04  NBF=  1298
 NBsUse=  1298 1.00D-06 EigRej= -1.00D+00 NBFU=  1298
 Precomputing XC quadrature grid using
 IXCGrd= 4 IRadAn=           5 IRanWt=          -1 IRanGd=           0 AccXCQ= 0.00D+00.
 Generated NRdTot=       0 NPtTot=           0 NUsed=           0 NTot=          32
 NSgBfM=  1157  1157  1157  1157  1157 MxSgAt=   140 MxSgA2=   140.
 Leave Link  302 at Wed Apr 27 12:17:30 2022, MaxMem= 10066329600 cpu:             101.7 elap:               4.3
 (Enter /sw/apps/gaussian-16.0/g16/l303.exe)
 DipDrv:  MaxL=1.
 Leave Link  303 at Wed Apr 27 12:17:30 2022, MaxMem= 10066329600 cpu:               5.7 elap:               0.3
 (Enter /sw/apps/gaussian-16.0/g16/l308.exe)
 Leave Link  308 at Wed Apr 27 12:17:31 2022, MaxMem= 10066329600 cpu:               8.6 elap:               0.4
 (Enter /sw/apps/gaussian-16.0/g16/l401.exe)
 ExpMin= 3.36D-02 ExpMax= 4.95D+03 ExpMxC= 7.45D+02 IAcc=3 IRadAn=         5 AccDes= 0.00D+00
 Harris functional with IExCor= 4639 and IRadAn=       5 diagonalized for initial guess.
 HarFok:  IExCor= 4639 AccDes= 0.00D+00 IRadAn=         5 IDoV= 1 UseB2=F ITyADJ=14
 ICtDFT=  3500011 ScaDFX=  1.000000  1.000000  1.000000  1.000000
 FoFCou: FMM=F IPFlag=           0 FMFlag=      100000 FMFlg1=        2001
         NFxFlg=           0 DoJE=T BraDBF=F KetDBF=T FulRan=T
         wScrn=  0.000000 ICntrl=       500 IOpCl=  0 I1Cent=   200000004 NGrid=           0
         NMat0=    1 NMatS0=      1 NMatT0=    0 NMatD0=    1 NMtDS0=    0 NMtDT0=    0
 Petite list used in FoFCou.
 Harris En= -2878.03266640532    
 JPrj=0 DoOrth=F DoCkMO=F.
 Leave Link  401 at Wed Apr 27 12:17:37 2022, MaxMem= 10066329600 cpu:             149.4 elap:               6.3
 (Enter /sw/apps/gaussian-16.0/g16/l502.exe)
 Integral symmetry usage will be decided dynamically.
 Closed shell SCF:
 Using DIIS extrapolation, IDIIS=  1040.
 NGot= 10066329600 LenX= 10062561258 LenY= 10060699398
 Requested convergence on RMS density matrix=1.00D-08 within 128 cycles.
 Requested convergence on MAX density matrix=1.00D-06.
 Requested convergence on             energy=1.00D-06.
 No special actions if energy rises.
 Fock matrices will be formed incrementally for  20 cycles.

 Cycle   1  Pass 1  IDiag  1:
 FoFJK:  IHMeth= 1 ICntrl=       0 DoSepK=T KAlg= 0 I1Cent=           0 FoldK=F
 IRaf=         1 NMat=       1 IRICut=       1 DoRegI=T DoRafI=F ISym2E= 0 IDoP0=0 IntGTp=1.
 FoFCou: FMM=T IPFlag=           0 FMFlag=      100000 FMFlg1=        2001
         NFxFlg=           0 DoJE=T BraDBF=F KetDBF=F FulRan=T
         wScrn=  0.000000 ICntrl=       500 IOpCl=  0 I1Cent=           0 NGrid=           0
         NMat0=    1 NMatS0=      1 NMatT0=    0 NMatD0=    1 NMtDS0=    0 NMtDT0=    0
 Symmetry not used in FoFCou.
 FMM levels:  10  Number of levels for PrismC:   9
 E= -3007.18797958352    
 DIIS: error= 2.49D-02 at cycle   1 NSaved=   1.
 NSaved= 1 IEnMin= 1 EnMin= -3007.18797958352     IErMin= 1 ErrMin= 2.49D-02
 ErrMax= 2.49D-02  0.00D+00 EMaxC= 1.00D-01 BMatC= 1.48D+00 BMatP= 1.48D+00
 IDIUse=3 WtCom= 7.51D-01 WtEn= 2.49D-01
 Coeff-Com:  0.100D+01
 Coeff-En:   0.100D+01
 Coeff:      0.100D+01
 Gap=     0.159 Goal=   None    Shift=    0.000
 GapD=    0.159 DampG=1.000 DampE=0.500 DampFc=0.5000 IDamp=-1.
 Damping current iteration by 5.00D-01
 RMSDP=1.49D-03 MaxDP=1.71D-01              OVMax= 1.74D-01

 Cycle   2  Pass 1  IDiag  1:
 RMSU=  7.36D-04    CP:  9.88D-01
 E= -3007.50432946379     Delta-E=       -0.316349880277 Rises=F Damp=T
 DIIS: error= 1.44D-02 at cycle   2 NSaved=   2.
 NSaved= 2 IEnMin= 2 EnMin= -3007.50432946379     IErMin= 2 ErrMin= 1.44D-02
 ErrMax= 1.44D-02  0.00D+00 EMaxC= 1.00D-01 BMatC= 2.89D-01 BMatP= 1.48D+00
 IDIUse=3 WtCom= 8.56D-01 WtEn= 1.44D-01
 Coeff-Com: -0.351D+00 0.135D+01
 Coeff-En:   0.000D+00 0.100D+01
 Coeff:     -0.300D+00 0.130D+01
 Gap=     0.177 Goal=   None    Shift=    0.000
 RMSDP=6.94D-04 MaxDP=8.33D-02 DE=-3.16D-01 OVMax= 1.39D-01

 Cycle   3  Pass 1  IDiag  1:
 RMSU=  6.46D-04    CP:  9.80D-01  1.33D+00
 E= -3007.73569913476     Delta-E=       -0.231369670972 Rises=F Damp=F
 DIIS: error= 1.52D-02 at cycle   3 NSaved=   3.
 NSaved= 3 IEnMin= 3 EnMin= -3007.73569913476     IErMin= 2 ErrMin= 1.44D-02
 ErrMax= 1.52D-02  0.00D+00 EMaxC= 1.00D-01 BMatC= 1.40D-01 BMatP= 2.89D-01
 IDIUse=3 WtCom= 8.48D-01 WtEn= 1.52D-01
 Coeff-Com: -0.310D+00 0.690D+00 0.620D+00
 Coeff-En:   0.000D+00 0.000D+00 0.100D+01
 Coeff:     -0.263D+00 0.585D+00 0.678D+00
 Gap=     0.162 Goal=   None    Shift=    0.000
 RMSDP=4.10D-04 MaxDP=5.48D-02 DE=-2.31D-01 OVMax= 8.73D-02

 Cycle   4  Pass 1  IDiag  1:
 RMSU=  2.10D-04    CP:  9.77D-01  1.62D+00  5.72D-01
 E= -3007.83483196777     Delta-E=       -0.099132833004 Rises=F Damp=F
 DIIS: error= 7.53D-03 at cycle   4 NSaved=   4.
 NSaved= 4 IEnMin= 4 EnMin= -3007.83483196777     IErMin= 4 ErrMin= 7.53D-03
 ErrMax= 7.53D-03  0.00D+00 EMaxC= 1.00D-01 BMatC= 2.44D-02 BMatP= 1.40D-01
 IDIUse=3 WtCom= 9.25D-01 WtEn= 7.53D-02
 Coeff-Com: -0.116D+00 0.234D+00 0.382D+00 0.501D+00
 Coeff-En:   0.000D+00 0.000D+00 0.126D+00 0.874D+00
 Coeff:     -0.108D+00 0.216D+00 0.362D+00 0.529D+00
 Gap=     0.160 Goal=   None    Shift=    0.000
 RMSDP=1.30D-04 MaxDP=2.41D-02 DE=-9.91D-02 OVMax= 2.99D-02

 Cycle   5  Pass 1  IDiag  1:
 RMSU=  6.21D-05    CP:  9.77D-01  1.58D+00  7.04D-01  6.67D-01
 E= -3007.85418596648     Delta-E=       -0.019353998714 Rises=F Damp=F
 DIIS: error= 1.08D-03 at cycle   5 NSaved=   5.
 NSaved= 5 IEnMin= 5 EnMin= -3007.85418596648     IErMin= 5 ErrMin= 1.08D-03
 ErrMax= 1.08D-03  0.00D+00 EMaxC= 1.00D-01 BMatC= 6.76D-04 BMatP= 2.44D-02
 IDIUse=3 WtCom= 9.89D-01 WtEn= 1.08D-02
 Coeff-Com: -0.322D-01 0.615D-01 0.135D+00 0.253D+00 0.582D+00
 Coeff-En:   0.000D+00 0.000D+00 0.000D+00 0.000D+00 0.100D+01
 Coeff:     -0.318D-01 0.608D-01 0.133D+00 0.251D+00 0.587D+00
 Gap=     0.160 Goal=   None    Shift=    0.000
 RMSDP=2.35D-05 MaxDP=5.95D-03 DE=-1.94D-02 OVMax= 7.43D-03

 Cycle   6  Pass 1  IDiag  1:
 RMSU=  2.03D-05    CP:  9.77D-01  1.59D+00  7.08D-01  7.10D-01  8.92D-01
 E= -3007.85470632958     Delta-E=       -0.000520363103 Rises=F Damp=F
 DIIS: error= 4.05D-04 at cycle   6 NSaved=   6.
 NSaved= 6 IEnMin= 6 EnMin= -3007.85470632958     IErMin= 6 ErrMin= 4.05D-04
 ErrMax= 4.05D-04  0.00D+00 EMaxC= 1.00D-01 BMatC= 7.26D-05 BMatP= 6.76D-04
 IDIUse=3 WtCom= 9.96D-01 WtEn= 4.05D-03
 Coeff-Com:  0.959D-02-0.208D-01-0.145D-01 0.915D-02 0.262D+00 0.755D+00
 Coeff-En:   0.000D+00 0.000D+00 0.000D+00 0.000D+00 0.000D+00 0.100D+01
 Coeff:      0.955D-02-0.207D-01-0.144D-01 0.911D-02 0.261D+00 0.756D+00
 Gap=     0.160 Goal=   None    Shift=    0.000
 RMSDP=1.21D-05 MaxDP=2.09D-03 DE=-5.20D-04 OVMax= 3.95D-03

 Cycle   7  Pass 1  IDiag  1:
 RMSU=  8.29D-06    CP:  9.77D-01  1.59D+00  7.11D-01  7.34D-01  9.88D-01
                    CP:  9.86D-01
 E= -3007.85478791580     Delta-E=       -0.000081586220 Rises=F Damp=F
 DIIS: error= 1.03D-04 at cycle   7 NSaved=   7.
 NSaved= 7 IEnMin= 7 EnMin= -3007.85478791580     IErMin= 7 ErrMin= 1.03D-04
 ErrMax= 1.03D-04  0.00D+00 EMaxC= 1.00D-01 BMatC= 8.13D-06 BMatP= 7.26D-05
 IDIUse=3 WtCom= 9.99D-01 WtEn= 1.03D-03
 Coeff-Com:  0.695D-02-0.142D-01-0.176D-01-0.204D-01 0.514D-01 0.313D+00
 Coeff-Com:  0.681D+00
 Coeff-En:   0.000D+00 0.000D+00 0.000D+00 0.000D+00 0.000D+00 0.000D+00
 Coeff-En:   0.100D+01
 Coeff:      0.694D-02-0.141D-01-0.176D-01-0.204D-01 0.513D-01 0.312D+00
 Coeff:      0.681D+00
 Gap=     0.160 Goal=   None    Shift=    0.000
 RMSDP=4.59D-06 MaxDP=6.61D-04 DE=-8.16D-05 OVMax= 1.42D-03

 Cycle   8  Pass 1  IDiag  1:
 RMSU=  3.17D-06    CP:  9.76D-01  1.59D+00  7.14D-01  7.37D-01  1.02D+00
                    CP:  1.08D+00  1.05D+00
 E= -3007.85480013443     Delta-E=       -0.000012218623 Rises=F Damp=F
 DIIS: error= 5.99D-05 at cycle   8 NSaved=   8.
 NSaved= 8 IEnMin= 8 EnMin= -3007.85480013443     IErMin= 8 ErrMin= 5.99D-05
 ErrMax= 5.99D-05  0.00D+00 EMaxC= 1.00D-01 BMatC= 1.72D-06 BMatP= 8.13D-06
 IDIUse=1 WtCom= 1.00D+00 WtEn= 0.00D+00
 Coeff-Com:  0.155D-02-0.290D-02-0.560D-02-0.120D-01-0.264D-01-0.140D-02
 Coeff-Com:  0.320D+00 0.727D+00
 Coeff:      0.155D-02-0.290D-02-0.560D-02-0.120D-01-0.264D-01-0.140D-02
 Coeff:      0.320D+00 0.727D+00
 Gap=     0.160 Goal=   None    Shift=    0.000
 RMSDP=2.64D-06 MaxDP=4.05D-04 DE=-1.22D-05 OVMax= 1.22D-03

 Cycle   9  Pass 1  IDiag  1:
 RMSU=  1.53D-06    CP:  9.76D-01  1.59D+00  7.14D-01  7.40D-01  1.03D+00
                    CP:  1.13D+00  1.23D+00  1.17D+00
 E= -3007.85480393963     Delta-E=       -0.000003805199 Rises=F Damp=F
 DIIS: error= 1.46D-05 at cycle   9 NSaved=   9.
 NSaved= 9 IEnMin= 9 EnMin= -3007.85480393963     IErMin= 9 ErrMin= 1.46D-05
 ErrMax= 1.46D-05  0.00D+00 EMaxC= 1.00D-01 BMatC= 2.52D-07 BMatP= 1.72D-06
 IDIUse=1 WtCom= 1.00D+00 WtEn= 0.00D+00
 Coeff-Com: -0.576D-03 0.125D-02 0.979D-03-0.844D-03-0.173D-01-0.542D-01
 Coeff-Com:  0.166D-01 0.240D+00 0.814D+00
 Coeff:     -0.576D-03 0.125D-02 0.979D-03-0.844D-03-0.173D-01-0.542D-01
 Coeff:      0.166D-01 0.240D+00 0.814D+00
 Gap=     0.160 Goal=   None    Shift=    0.000
 RMSDP=1.49D-06 MaxDP=1.11D-04 DE=-3.81D-06 OVMax= 7.97D-04

 Cycle  10  Pass 1  IDiag  1:
 RMSU=  7.37D-07    CP:  9.76D-01  1.59D+00  7.14D-01  7.40D-01  1.04D+00
                    CP:  1.14D+00  1.31D+00  1.42D+00  1.36D+00
 E= -3007.85480518717     Delta-E=       -0.000001247545 Rises=F Damp=F
 DIIS: error= 9.60D-06 at cycle  10 NSaved=  10.
 NSaved=10 IEnMin=10 EnMin= -3007.85480518717     IErMin=10 ErrMin= 9.60D-06
 ErrMax= 9.60D-06  0.00D+00 EMaxC= 1.00D-01 BMatC= 8.48D-08 BMatP= 2.52D-07
 IDIUse=1 WtCom= 1.00D+00 WtEn= 0.00D+00
 Coeff-Com: -0.691D-03 0.136D-02 0.208D-02 0.337D-02 0.128D-02-0.234D-01
 Coeff-Com: -0.825D-01-0.138D+00 0.306D+00 0.930D+00
 Coeff:     -0.691D-03 0.136D-02 0.208D-02 0.337D-02 0.128D-02-0.234D-01
 Coeff:     -0.825D-01-0.138D+00 0.306D+00 0.930D+00
 Gap=     0.160 Goal=   None    Shift=    0.000
 RMSDP=1.29D-06 MaxDP=1.07D-04 DE=-1.25D-06 OVMax= 7.62D-04

 Cycle  11  Pass 1  IDiag  1:
 RMSU=  4.40D-07    CP:  9.76D-01  1.59D+00  7.14D-01  7.41D-01  1.04D+00
                    CP:  1.15D+00  1.38D+00  1.63D+00  1.83D+00  1.52D+00
 E= -3007.85480586486     Delta-E=       -0.000000677688 Rises=F Damp=F
 DIIS: error= 6.10D-06 at cycle  11 NSaved=  11.
 NSaved=11 IEnMin=11 EnMin= -3007.85480586486     IErMin=11 ErrMin= 6.10D-06
 ErrMax= 6.10D-06  0.00D+00 EMaxC= 1.00D-01 BMatC= 3.19D-08 BMatP= 8.48D-08
 IDIUse=1 WtCom= 1.00D+00 WtEn= 0.00D+00
 Coeff-Com: -0.104D-03 0.181D-03 0.519D-03 0.159D-02 0.493D-02 0.450D-02
 Coeff-Com: -0.308D-01-0.119D+00-0.106D+00 0.391D+00 0.853D+00
 Coeff:     -0.104D-03 0.181D-03 0.519D-03 0.159D-02 0.493D-02 0.450D-02
 Coeff:     -0.308D-01-0.119D+00-0.106D+00 0.391D+00 0.853D+00
 Gap=     0.160 Goal=   None    Shift=    0.000
 RMSDP=7.80D-07 MaxDP=5.88D-05 DE=-6.78D-07 OVMax= 4.91D-04

 Cycle  12  Pass 1  IDiag  1:
 RMSU=  2.37D-07    CP:  9.76D-01  1.59D+00  7.14D-01  7.41D-01  1.04D+00
                    CP:  1.16D+00  1.41D+00  1.74D+00  2.09D+00  2.07D+00
                    CP:  1.47D+00
 E= -3007.85480612595     Delta-E=       -0.000000261089 Rises=F Damp=F
 DIIS: error= 3.31D-06 at cycle  12 NSaved=  12.
 NSaved=12 IEnMin=12 EnMin= -3007.85480612595     IErMin=12 ErrMin= 3.31D-06
 ErrMax= 3.31D-06  0.00D+00 EMaxC= 1.00D-01 BMatC= 1.01D-08 BMatP= 3.19D-08
 IDIUse=1 WtCom= 1.00D+00 WtEn= 0.00D+00
 Coeff-Com:  0.264D-03-0.527D-03-0.742D-03-0.861D-03 0.692D-03 0.110D-01
 Coeff-Com:  0.294D-01 0.264D-01-0.177D+00-0.298D+00 0.192D+00 0.122D+01
 Coeff:      0.264D-03-0.527D-03-0.742D-03-0.861D-03 0.692D-03 0.110D-01
 Coeff:      0.294D-01 0.264D-01-0.177D+00-0.298D+00 0.192D+00 0.122D+01
 Gap=     0.160 Goal=   None    Shift=    0.000
 RMSDP=7.74D-07 MaxDP=5.86D-05 DE=-2.61D-07 OVMax= 4.91D-04

 Cycle  13  Pass 1  IDiag  1:
 RMSU=  1.41D-07    CP:  9.76D-01  1.59D+00  7.14D-01  7.41D-01  1.04D+00
                    CP:  1.16D+00  1.43D+00  1.82D+00  2.35D+00  2.62D+00
                    CP:  2.26D+00  1.79D+00
 E= -3007.85480626762     Delta-E=       -0.000000141670 Rises=F Damp=F
 DIIS: error= 1.50D-06 at cycle  13 NSaved=  13.
 NSaved=13 IEnMin=13 EnMin= -3007.85480626762     IErMin=13 ErrMin= 1.50D-06
 ErrMax= 1.50D-06  0.00D+00 EMaxC= 1.00D-01 BMatC= 3.25D-09 BMatP= 1.01D-08
 IDIUse=1 WtCom= 1.00D+00 WtEn= 0.00D+00
 Coeff-Com:  0.161D-03-0.314D-03-0.526D-03-0.885D-03-0.134D-02 0.337D-02
 Coeff-Com:  0.237D-01 0.515D-01-0.417D-01-0.249D+00-0.207D+00 0.560D+00
 Coeff-Com:  0.862D+00
 Coeff:      0.161D-03-0.314D-03-0.526D-03-0.885D-03-0.134D-02 0.337D-02
 Coeff:      0.237D-01 0.515D-01-0.417D-01-0.249D+00-0.207D+00 0.560D+00
 Coeff:      0.862D+00
 Gap=     0.160 Goal=   None    Shift=    0.000
 RMSDP=3.51D-07 MaxDP=2.64D-05 DE=-1.42D-07 OVMax= 2.21D-04

 Cycle  14  Pass 1  IDiag  1:
 RMSU=  7.23D-08    CP:  9.76D-01  1.59D+00  7.14D-01  7.41D-01  1.04D+00
                    CP:  1.16D+00  1.43D+00  1.85D+00  2.44D+00  2.88D+00
                    CP:  2.66D+00  2.34D+00  1.27D+00
 E= -3007.85480629493     Delta-E=       -0.000000027314 Rises=F Damp=F
 DIIS: error= 7.48D-07 at cycle  14 NSaved=  14.
 NSaved=14 IEnMin=14 EnMin= -3007.85480629493     IErMin=14 ErrMin= 7.48D-07
 ErrMax= 7.48D-07  0.00D+00 EMaxC= 1.00D-01 BMatC= 4.54D-10 BMatP= 3.25D-09
 IDIUse=1 WtCom= 1.00D+00 WtEn= 0.00D+00
 Coeff-Com: -0.107D-04 0.239D-04 0.104D-04-0.500D-04-0.529D-03-0.145D-02
 Coeff-Com:  0.234D-04 0.813D-02 0.259D-01-0.739D-02-0.100D+00-0.880D-01
 Coeff-Com:  0.210D+00 0.953D+00
 Coeff:     -0.107D-04 0.239D-04 0.104D-04-0.500D-04-0.529D-03-0.145D-02
 Coeff:      0.234D-04 0.813D-02 0.259D-01-0.739D-02-0.100D+00-0.880D-01
 Coeff:      0.210D+00 0.953D+00
 Gap=     0.160 Goal=   None    Shift=    0.000
 RMSDP=1.34D-07 MaxDP=1.40D-05 DE=-2.73D-08 OVMax= 8.92D-05

 Cycle  15  Pass 1  IDiag  1:
 RMSU=  3.62D-08    CP:  9.76D-01  1.59D+00  7.14D-01  7.41D-01  1.04D+00
                    CP:  1.16D+00  1.43D+00  1.86D+00  2.46D+00  2.97D+00
                    CP:  2.81D+00  2.58D+00  1.60D+00  1.31D+00
 E= -3007.85480629892     Delta-E=       -0.000000003989 Rises=F Damp=F
 DIIS: error= 3.44D-07 at cycle  15 NSaved=  15.
 NSaved=15 IEnMin=15 EnMin= -3007.85480629892     IErMin=15 ErrMin= 3.44D-07
 ErrMax= 3.44D-07  0.00D+00 EMaxC= 1.00D-01 BMatC= 2.10D-10 BMatP= 4.54D-10
 IDIUse=1 WtCom= 1.00D+00 WtEn= 0.00D+00
 Coeff-Com: -0.416D-04 0.827D-04 0.124D-03 0.175D-03 0.270D-04-0.145D-02
 Coeff-Com: -0.543D-02-0.792D-02 0.224D-01 0.500D-01-0.239D-02-0.160D+00
 Coeff-Com: -0.109D+00 0.490D+00 0.724D+00
 Coeff:     -0.416D-04 0.827D-04 0.124D-03 0.175D-03 0.270D-04-0.145D-02
 Coeff:     -0.543D-02-0.792D-02 0.224D-01 0.500D-01-0.239D-02-0.160D+00
 Coeff:     -0.109D+00 0.490D+00 0.724D+00
 Gap=     0.160 Goal=   None    Shift=    0.000
 RMSDP=5.27D-08 MaxDP=3.85D-06 DE=-3.99D-09 OVMax= 3.09D-05

 Cycle  16  Pass 1  IDiag  1:
 RMSU=  2.04D-08    CP:  9.76D-01  1.59D+00  7.14D-01  7.41D-01  1.04D+00
                    CP:  1.16D+00  1.43D+00  1.87D+00  2.47D+00  2.99D+00
                    CP:  2.86D+00  2.67D+00  1.72D+00  1.63D+00  1.20D+00
 E= -3007.85480629980     Delta-E=       -0.000000000879 Rises=F Damp=F
 DIIS: error= 3.04D-07 at cycle  16 NSaved=  16.
 NSaved=16 IEnMin=16 EnMin= -3007.85480629980     IErMin=16 ErrMin= 3.04D-07
 ErrMax= 3.04D-07  0.00D+00 EMaxC= 1.00D-01 BMatC= 3.83D-11 BMatP= 2.10D-10
 IDIUse=1 WtCom= 1.00D+00 WtEn= 0.00D+00
 Coeff-Com: -0.109D-04 0.209D-04 0.372D-04 0.644D-04 0.125D-03-0.119D-03
 Coeff-Com: -0.180D-02-0.437D-02 0.310D-02 0.162D-01 0.198D-01-0.277D-01
 Coeff-Com: -0.943D-01-0.301D-01 0.194D+00 0.925D+00
 Coeff:     -0.109D-04 0.209D-04 0.372D-04 0.644D-04 0.125D-03-0.119D-03
 Coeff:     -0.180D-02-0.437D-02 0.310D-02 0.162D-01 0.198D-01-0.277D-01
 Coeff:     -0.943D-01-0.301D-01 0.194D+00 0.925D+00
 Gap=     0.160 Goal=   None    Shift=    0.000
 RMSDP=3.02D-08 MaxDP=3.70D-06 DE=-8.79D-10 OVMax= 2.21D-05

 Cycle  17  Pass 1  IDiag  1:
 RMSU=  1.09D-08    CP:  9.76D-01  1.59D+00  7.14D-01  7.41D-01  1.04D+00
                    CP:  1.16D+00  1.43D+00  1.87D+00  2.47D+00  3.00D+00
                    CP:  2.88D+00  2.71D+00  1.80D+00  1.80D+00  1.61D+00
                    CP:  1.52D+00
 E= -3007.85480630040     Delta-E=       -0.000000000602 Rises=F Damp=F
 DIIS: error= 1.48D-07 at cycle  17 NSaved=  17.
 NSaved=17 IEnMin=17 EnMin= -3007.85480630040     IErMin=17 ErrMin= 1.48D-07
 ErrMax= 1.48D-07  0.00D+00 EMaxC= 1.00D-01 BMatC= 2.16D-11 BMatP= 3.83D-11
 IDIUse=1 WtCom= 1.00D+00 WtEn= 0.00D+00
 Coeff-Com:  0.107D-04-0.215D-04-0.314D-04-0.405D-04 0.445D-04 0.497D-03
 Coeff-Com:  0.125D-02 0.129D-02-0.637D-02-0.137D-01 0.769D-02 0.532D-01
 Coeff-Com: -0.337D-03-0.177D+00-0.227D+00 0.373D+00 0.987D+00
 Coeff:      0.107D-04-0.215D-04-0.314D-04-0.405D-04 0.445D-04 0.497D-03
 Coeff:      0.125D-02 0.129D-02-0.637D-02-0.137D-01 0.769D-02 0.532D-01
 Coeff:     -0.337D-03-0.177D+00-0.227D+00 0.373D+00 0.987D+00
 Gap=     0.160 Goal=   None    Shift=    0.000
 RMSDP=2.50D-08 MaxDP=1.83D-06 DE=-6.02D-10 OVMax= 1.60D-05

 Cycle  18  Pass 1  IDiag  1:
 RMSU=  6.14D-09    CP:  9.76D-01  1.59D+00  7.14D-01  7.41D-01  1.04D+00
                    CP:  1.16D+00  1.43D+00  1.87D+00  2.47D+00  3.00D+00
                    CP:  2.89D+00  2.72D+00  1.84D+00  1.94D+00  1.94D+00
                    CP:  2.24D+00  1.58D+00
 E= -3007.85480630056     Delta-E=       -0.000000000160 Rises=F Damp=F
 DIIS: error= 1.41D-07 at cycle  18 NSaved=  18.
 NSaved=18 IEnMin=18 EnMin= -3007.85480630056     IErMin=18 ErrMin= 1.41D-07
 ErrMax= 1.41D-07  0.00D+00 EMaxC= 1.00D-01 BMatC= 6.21D-12 BMatP= 2.16D-11
 IDIUse=1 WtCom= 1.00D+00 WtEn= 0.00D+00
 Coeff-Com:  0.892D-05-0.174D-04-0.301D-04-0.462D-04-0.369D-04 0.242D-03
 Coeff-Com:  0.126D-02 0.264D-02-0.357D-02-0.140D-01-0.674D-02 0.362D-01
 Coeff-Com:  0.403D-01-0.486D-01-0.189D+00-0.225D+00 0.318D+00 0.109D+01
 Coeff:      0.892D-05-0.174D-04-0.301D-04-0.462D-04-0.369D-04 0.242D-03
 Coeff:      0.126D-02 0.264D-02-0.357D-02-0.140D-01-0.674D-02 0.362D-01
 Coeff:      0.403D-01-0.486D-01-0.189D+00-0.225D+00 0.318D+00 0.109D+01
 Gap=     0.160 Goal=   None    Shift=    0.000
 RMSDP=2.10D-08 MaxDP=1.63D-06 DE=-1.60D-10 OVMax= 1.57D-05

 Cycle  19  Pass 1  IDiag  1:
 RMSU=  4.18D-09    CP:  9.76D-01  1.59D+00  7.14D-01  7.41D-01  1.04D+00
                    CP:  1.16D+00  1.43D+00  1.86D+00  2.47D+00  3.00D+00
                    CP:  2.89D+00  2.73D+00  1.87D+00  2.04D+00  2.24D+00
                    CP:  2.83D+00  2.39D+00  1.49D+00
 E= -3007.85480630057     Delta-E=       -0.000000000007 Rises=F Damp=F
 DIIS: error= 4.71D-08 at cycle  19 NSaved=  19.
 NSaved=19 IEnMin=19 EnMin= -3007.85480630057     IErMin=19 ErrMin= 4.71D-08
 ErrMax= 4.71D-08  0.00D+00 EMaxC= 1.00D-01 BMatC= 3.53D-12 BMatP= 6.21D-12
 IDIUse=1 WtCom= 1.00D+00 WtEn= 0.00D+00
 Coeff-Com: -0.316D-06 0.842D-06-0.137D-05-0.400D-05-0.327D-04-0.915D-04
 Coeff-Com:  0.136D-04 0.709D-03 0.103D-02-0.104D-02-0.614D-02-0.464D-02
 Coeff-Com:  0.164D-01 0.498D-01 0.231D-02-0.247D+00-0.327D+00 0.572D+00
 Coeff-Com:  0.945D+00
 Coeff:     -0.316D-06 0.842D-06-0.137D-05-0.400D-05-0.327D-04-0.915D-04
 Coeff:      0.136D-04 0.709D-03 0.103D-02-0.104D-02-0.614D-02-0.464D-02
 Coeff:      0.164D-01 0.498D-01 0.231D-02-0.247D+00-0.327D+00 0.572D+00
 Coeff:      0.945D+00
 Gap=     0.160 Goal=   None    Shift=    0.000
 RMSDP=1.42D-08 MaxDP=1.13D-06 DE=-7.28D-12 OVMax= 9.26D-06

 Cycle  20  Pass 1  IDiag  1:
 RMSU=  5.32D-09    CP:  9.76D-01  1.59D+00  7.14D-01  7.41D-01  1.04D+00
                    CP:  1.16D+00  1.43D+00  1.86D+00  2.47D+00  3.00D+00
                    CP:  2.90D+00  2.74D+00  1.89D+00  2.10D+00  2.42D+00
                    CP:  3.00D+00  2.88D+00  2.21D+00  1.24D+00
 E= -3007.85480630072     Delta-E=       -0.000000000149 Rises=F Damp=F
 DIIS: error= 2.40D-08 at cycle  20 NSaved=  20.
 NSaved=20 IEnMin=20 EnMin= -3007.85480630072     IErMin=20 ErrMin= 2.40D-08
 ErrMax= 2.40D-08  0.00D+00 EMaxC= 1.00D-01 BMatC= 5.28D-13 BMatP= 3.53D-12
 IDIUse=1 WtCom= 1.00D+00 WtEn= 0.00D+00
 Coeff-Com: -0.284D-05 0.564D-05 0.825D-05 0.123D-04-0.616D-05-0.117D-03
 Coeff-Com: -0.383D-03-0.401D-03 0.162D-02 0.360D-02-0.889D-03-0.124D-01
 Coeff-Com: -0.441D-02 0.383D-01 0.566D-01-0.552D-01-0.253D+00 0.151D-01
 Coeff-Com:  0.425D+00 0.787D+00
 Coeff:     -0.284D-05 0.564D-05 0.825D-05 0.123D-04-0.616D-05-0.117D-03
 Coeff:     -0.383D-03-0.401D-03 0.162D-02 0.360D-02-0.889D-03-0.124D-01
 Coeff:     -0.441D-02 0.383D-01 0.566D-01-0.552D-01-0.253D+00 0.151D-01
 Coeff:      0.425D+00 0.787D+00
 Gap=     0.160 Goal=   None    Shift=    0.000
 RMSDP=4.29D-09 MaxDP=3.42D-07 DE=-1.49D-10 OVMax= 3.08D-06

 SCF Done:  E(RwB97XD) =  -3007.85480630     A.U. after   20 cycles
            NFock= 20  Conv=0.43D-08     -V/T= 2.0111
 KE= 2.974776454887D+03 PE=-2.619074661004D+04 EE= 1.060852152877D+04
 Leave Link  502 at Wed Apr 27 12:25:20 2022, MaxMem= 10066329600 cpu:           10673.7 elap:             462.7
 (Enter /sw/apps/gaussian-16.0/g16/l801.exe)
 DoSCS=F DFT=T ScalE2(SS,OS)=  1.000000  1.000000
 ExpMin= 3.36D-02 ExpMax= 4.95D+03 ExpMxC= 7.45D+02 IAcc=3 IRadAn=         5 AccDes= 0.00D+00
 HarFok:  IExCor=  205 AccDes= 0.00D+00 IRadAn=         5 IDoV=-2 UseB2=F ITyADJ=14
 ICtDFT= 12500011 ScaDFX=  1.000000  1.000000  1.000000  1.000000
 GSVD:  LWork=       -5460 too small for GESVD, short by       25550 words or       25550 for optimal perf.
 Largest valence mixing into a core orbital is  1.69D-04
 Largest core mixing into a valence orbital is  5.67D-05
 Range of M.O.s used for correlation:    71  1298
 NBasis=  1298 NAE=   246 NBE=   246 NFC=    70 NFV=     0
 NROrb=   1228 NOA=   176 NOB=   176 NVA=  1052 NVB=  1052
 Leave Link  801 at Wed Apr 27 12:25:20 2022, MaxMem= 10066329600 cpu:               7.3 elap:               0.3
 (Enter /sw/apps/gaussian-16.0/g16/l914.exe)
 RHF ground state
 Two-electron integrals replicated using symmetry.
 MDV= 10066329600 DFT=T DoStab=F Mixed=T DoRPA=T DoScal=F NonHer=T
 Making orbital integer symmetry assigments:
 Orbital symmetries:
       Occupied  (A) (A) (A) (A) (A) (A) (A) (A) (A) (A) (A) (A)
                 (A) (A) (A) (A) (A) (A) (A) (A) (A) (A) (A) (A)
                 (A) (A) (A) (A) (A) (A) (A) (A) (A) (A) (A) (A)
                 (A) (A) (A) (A) (A) (A) (A) (A) (A) (A) (A) (A)
                 (A) (A) (A) (A) (A) (A) (A) (A) (A) (A) (A) (A)
                 (A) (A) (A) (A) (A) (A) (A) (A) (A) (A) (A) (A)
                 (A) (A) (A) (A) (A) (A) (A) (A) (A) (A) (A) (A)
                 (A) (A) (A) (A) (A) (A) (A) (A) (A) (A) (A) (A)
                 (A) (A) (A) (A) (A) (A) (A) (A) (A) (A) (A) (A)
                 (A) (A) (A) (A) (A) (A) (A) (A) (A) (A) (A) (A)
                 (A) (A) (A) (A) (A) (A) (A) (A) (A) (A) (A) (A)
                 (A) (A) (A) (A) (A) (A) (A) (A) (A) (A) (A) (A)
                 (A) (A) (A) (A) (A) (A) (A) (A) (A) (A) (A) (A)
                 (A) (A) (A) (A) (A) (A) (A) (A) (A) (A) (A) (A)
                 (A) (A) (A) (A) (A) (A) (A) (A) (A) (A) (A) (A)
                 (A) (A) (A) (A) (A) (A) (A) (A) (A) (A) (A) (A)
                 (A) (A) (A) (A) (A) (A) (A) (A) (A) (A) (A) (A)
                 (A) (A) (A) (A) (A) (A) (A) (A) (A) (A) (A) (A)
                 (A) (A) (A) (A) (A) (A) (A) (A) (A) (A) (A) (A)
                 (A) (A) (A) (A) (A) (A) (A) (A) (A) (A) (A) (A)
                 (A) (A) (A) (A) (A) (A)
       Virtual   (A) (A) (A) (A) (A) (A) (A) (A) (A) (A) (A) (A)
                 (A) (A) (A) (A) (A) (A) (A) (A) (A) (A) (A) (A)
                 (A) (A) (A) (A) (A) (A) (A) (A) (A) (A) (A) (A)
                 (A) (A) (A) (A) (A) (A) (A) (A) (A) (A) (A) (A)
                 (A) (A) (A) (A) (A) (A) (A) (A) (A) (A) (A) (A)
                 (A) (A) (A) (A) (A) (A) (A) (A) (A) (A) (A) (A)
                 (A) (A) (A) (A) (A) (A) (A) (A) (A) (A) (A) (A)
                 (A) (A) (A) (A) (A) (A) (A) (A) (A) (A) (A) (A)
                 (A) (A) (A) (A) (A) (A) (A) (A) (A) (A) (A) (A)
                 (A) (A) (A) (A) (A) (A) (A) (A) (A) (A) (A) (A)
                 (A) (A) (A) (A) (A) (A) (A) (A) (A) (A) (A) (A)
                 (A) (A) (A) (A) (A) (A) (A) (A) (A) (A) (A) (A)
                 (A) (A) (A) (A) (A) (A) (A) (A) (A) (A) (A) (A)
                 (A) (A) (A) (A) (A) (A) (A) (A) (A) (A) (A) (A)
                 (A) (A) (A) (A) (A) (A) (A) (A) (A) (A) (A) (A)
                 (A) (A) (A) (A) (A) (A) (A) (A) (A) (A) (A) (A)
                 (A) (A) (A) (A) (A) (A) (A) (A) (A) (A) (A) (A)
                 (A) (A) (A) (A) (A) (A) (A) (A) (A) (A) (A) (A)
                 (A) (A) (A) (A) (A) (A) (A) (A) (A) (A) (A) (A)
                 (A) (A) (A) (A) (A) (A) (A) (A) (A) (A) (A) (A)
                 (A) (A) (A) (A) (A) (A) (A) (A) (A) (A) (A) (A)
                 (A) (A) (A) (A) (A) (A) (A) (A) (A) (A) (A) (A)
                 (A) (A) (A) (A) (A) (A) (A) (A) (A) (A) (A) (A)
                 (A) (A) (A) (A) (A) (A) (A) (A) (A) (A) (A) (A)
                 (A) (A) (A) (A) (A) (A) (A) (A) (A) (A) (A) (A)
                 (A) (A) (A) (A) (A) (A) (A) (A) (A) (A) (A) (A)
                 (A) (A) (A) (A) (A) (A) (A) (A) (A) (A) (A) (A)
                 (A) (A) (A) (A) (A) (A) (A) (A) (A) (A) (A) (A)
                 (A) (A) (A) (A) (A) (A) (A) (A) (A) (A) (A) (A)
                 (A) (A) (A) (A) (A) (A) (A) (A) (A) (A) (A) (A)
                 (A) (A) (A) (A) (A) (A) (A) (A) (A) (A) (A) (A)
                 (A) (A) (A) (A) (A) (A) (A) (A) (A) (A) (A) (A)
                 (A) (A) (A) (A) (A) (A) (A) (A) (A) (A) (A) (A)
                 (A) (A) (A) (A) (A) (A) (A) (A) (A) (A) (A) (A)
                 (A) (A) (A) (A) (A) (A) (A) (A) (A) (A) (A) (A)
                 (A) (A) (A) (A) (A) (A) (A) (A) (A) (A) (A) (A)
                 (A) (A) (A) (A) (A) (A) (A) (A) (A) (A) (A) (A)
                 (A) (A) (A) (A) (A) (A) (A) (A) (A) (A) (A) (A)
                 (A) (A) (A) (A) (A) (A) (A) (A) (A) (A) (A) (A)
                 (A) (A) (A) (A) (A) (A) (A) (A) (A) (A) (A) (A)
                 (A) (A) (A) (A) (A) (A) (A) (A) (A) (A) (A) (A)
                 (A) (A) (A) (A) (A) (A) (A) (A) (A) (A) (A) (A)
                 (A) (A) (A) (A) (A) (A) (A) (A) (A) (A) (A) (A)
                 (A) (A) (A) (A) (A) (A) (A) (A) (A) (A) (A) (A)
                 (A) (A) (A) (A) (A) (A) (A) (A) (A) (A) (A) (A)
                 (A) (A) (A) (A) (A) (A) (A) (A) (A) (A) (A) (A)
                 (A) (A) (A) (A) (A) (A) (A) (A) (A) (A) (A) (A)
                 (A) (A) (A) (A) (A) (A) (A) (A) (A) (A) (A) (A)
                 (A) (A) (A) (A) (A) (A) (A) (A) (A) (A) (A) (A)
                 (A) (A) (A) (A) (A) (A) (A) (A) (A) (A) (A) (A)
                 (A) (A) (A) (A) (A) (A) (A) (A) (A) (A) (A) (A)
                 (A) (A) (A) (A) (A) (A) (A) (A) (A) (A) (A) (A)
                 (A) (A) (A) (A) (A) (A) (A) (A) (A) (A) (A) (A)
                 (A) (A) (A) (A) (A) (A) (A) (A) (A) (A) (A) (A)
                 (A) (A) (A) (A) (A) (A) (A) (A) (A) (A) (A) (A)
                 (A) (A) (A) (A) (A) (A) (A) (A) (A) (A) (A) (A)
                 (A) (A) (A) (A) (A) (A) (A) (A) (A) (A) (A) (A)
                 (A) (A) (A) (A) (A) (A) (A) (A) (A) (A) (A) (A)
                 (A) (A) (A) (A) (A) (A) (A) (A) (A) (A) (A) (A)
                 (A) (A) (A) (A) (A) (A) (A) (A) (A) (A) (A) (A)
                 (A) (A) (A) (A) (A) (A) (A) (A) (A) (A) (A) (A)
                 (A) (A) (A) (A) (A) (A) (A) (A) (A) (A) (A) (A)
                 (A) (A) (A) (A) (A) (A) (A) (A) (A) (A) (A) (A)
                 (A) (A) (A) (A) (A) (A) (A) (A) (A) (A) (A) (A)
                 (A) (A) (A) (A) (A) (A) (A) (A) (A) (A) (A) (A)
                 (A) (A) (A) (A) (A) (A) (A) (A) (A) (A) (A) (A)
                 (A) (A) (A) (A) (A) (A) (A) (A) (A) (A) (A) (A)
                 (A) (A) (A) (A) (A) (A) (A) (A) (A) (A) (A) (A)
                 (A) (A) (A) (A) (A) (A) (A) (A) (A) (A) (A) (A)
                 (A) (A) (A) (A) (A) (A) (A) (A) (A) (A) (A) (A)
                 (A) (A) (A) (A) (A) (A) (A) (A) (A) (A) (A) (A)
                 (A) (A) (A) (A) (A) (A) (A) (A) (A) (A) (A) (A)
                 (A) (A) (A) (A) (A) (A) (A) (A) (A) (A) (A) (A)
                 (A) (A) (A) (A) (A) (A) (A) (A) (A) (A) (A) (A)
                 (A) (A) (A) (A) (A) (A) (A) (A) (A) (A) (A) (A)
                 (A) (A) (A) (A) (A) (A) (A) (A) (A) (A) (A) (A)
                 (A) (A) (A) (A) (A) (A) (A) (A) (A) (A) (A) (A)
                 (A) (A) (A) (A) (A) (A) (A) (A) (A) (A) (A) (A)
                 (A) (A) (A) (A) (A) (A) (A) (A) (A) (A) (A) (A)
                 (A) (A) (A) (A) (A) (A) (A) (A) (A) (A) (A) (A)
                 (A) (A) (A) (A) (A) (A) (A) (A) (A) (A) (A) (A)
                 (A) (A) (A) (A) (A) (A) (A) (A) (A) (A) (A) (A)
                 (A) (A) (A) (A) (A) (A) (A) (A) (A) (A) (A) (A)
                 (A) (A) (A) (A) (A) (A) (A) (A) (A) (A) (A) (A)
                 (A) (A) (A) (A) (A) (A) (A) (A) (A) (A) (A) (A)
                 (A) (A) (A) (A) (A) (A) (A) (A) (A) (A) (A) (A)
                 (A) (A) (A) (A) (A) (A) (A) (A) (A) (A) (A) (A)
                 (A) (A) (A) (A) (A) (A) (A) (A)
    20 initial guesses have been made.
 Convergence on wavefunction:    0.001000000000000
 Davidson Disk Diagonalization:  ConvIn= 1.00D-03 SkipCon=T Conv= 1.00D-03.
 Max sub-space:  2000 roots to seek:    20 dimension of matrix:       370304
 Iteration     1 Dimension    20 NMult     0 NNew     20
 CISAX will form    20 AO SS matrices at one time.
 NMat=    20 NSing=    20 JSym2X= 0.
 FoFJK:  IHMeth= 1 ICntrl=       0 DoSepK=T KAlg= 0 I1Cent=           0 FoldK=F
 IRaf=         1 NMat=      40 IRICut=       1 DoRegI=T DoRafI=F ISym2E= 0 IDoP0=3 IntGTp=3.
 FoFCou: FMM=T IPFlag=           0 FMFlag=      100000 FMFlg1=        2001
         NFxFlg=           0 DoJE=F BraDBF=F KetDBF=F FulRan=T
         wScrn=  0.000000 ICntrl=       500 IOpCl=  0 I1Cent=           0 NGrid=           0
         NMat0=   20 NMatS0=     20 NMatT0=    0 NMatD0=   20 NMtDS0=    0 NMtDT0=    0
 Symmetry not used in FoFCou.
 FMM levels:  10  Number of levels for PrismC:   9
 New state      3 was old state      5
 New state      4 was old state      3
 New state      5 was old state      7
 Excitation Energies [eV] at current iteration:
 Root      1 :     2.175096158165850
 Root      2 :     2.585474419695062
 Root      3 :     3.863730551651018
 Root      4 :     4.007519823612506
 Root      5 :     4.295783981827748
 Root      6 :     4.392770711753596
 Root      7 :     4.418620551710666
 Root      8 :     4.469814565182656
 Root      9 :     4.473881023435550
 Root     10 :     4.552664782200969
 Root     11 :     4.823973622612567
 Root     12 :     4.978891141396258
 Root     13 :     5.041340181798437
 Root     14 :     5.114849464811805
 Root     15 :     5.418588369947453
 Root     16 :     5.671207571921636
 Root     17 :     5.686990759363798
 Root     18 :     5.705048314598403
 Root     19 :     6.196638102452868
 Root     20 :     6.463376130536057
 Iteration     2 Dimension    30 NMult    20 NNew     10
 CISAX will form    10 AO SS matrices at one time.
 NMat=    10 NSing=    10 JSym2X= 0.
 Root      1 not converged, maximum delta is    0.077358789007285
 Root      2 not converged, maximum delta is    0.054597618391635
 New state      3 was old state      4
 Root      3 not converged, maximum delta is    0.137062436622945
 New state      4 was old state      3
 Root      4 not converged, maximum delta is    0.070987957417689
 Root      5 not converged, maximum delta is    0.235608161875535
 Excitation Energies [eV] at current iteration:
 Root      1 :     1.683520672196384   Change is   -0.491575485969466
 Root      2 :     2.197541890592807   Change is   -0.387932529102255
 Root      3 :     3.422585971370055   Change is   -0.584933852242451
 Root      4 :     3.500598590851481   Change is   -0.363131960799537
 Root      5 :     3.829110621746808   Change is   -0.466673360080941
 Iteration     3 Dimension    40 NMult    30 NNew     10
 CISAX will form    10 AO SS matrices at one time.
 NMat=    10 NSing=    10 JSym2X= 0.
 Root      1 not converged, maximum delta is    0.017490589890487
 Root      2 not converged, maximum delta is    0.012105784355692
 Root      3 not converged, maximum delta is    0.029209386800085
 Root      4 not converged, maximum delta is    0.014780532313023
 Root      5 not converged, maximum delta is    0.041578567699086
 Excitation Energies [eV] at current iteration:
 Root      1 :     1.645255374537927   Change is   -0.038265297658457
 Root      2 :     2.180984703115761   Change is   -0.016557187477046
 Root      3 :     3.378438333785514   Change is   -0.044147637584540
 Root      4 :     3.485345402757618   Change is   -0.015253188093863
 Root      5 :     3.761742545552829   Change is   -0.067368076193979
 Iteration     4 Dimension    50 NMult    40 NNew     10
 CISAX will form    10 AO SS matrices at one time.
 NMat=    10 NSing=    10 JSym2X= 0.
 Root      1 not converged, maximum delta is    0.003423308121455
 Root      2 not converged, maximum delta is    0.005304174508070
 Root      3 not converged, maximum delta is    0.009318880101053
 Root      4 not converged, maximum delta is    0.007057207748503
 Root      5 not converged, maximum delta is    0.101400138346043
 Excitation Energies [eV] at current iteration:
 Root      1 :     1.640958376856758   Change is   -0.004296997681169
 Root      2 :     2.178459846939909   Change is   -0.002524856175853
 Root      3 :     3.371284979315581   Change is   -0.007153354469934
 Root      4 :     3.482023546624528   Change is   -0.003321856133089
 Root      5 :     3.725640757291894   Change is   -0.036101788260934
 Iteration     5 Dimension    60 NMult    50 NNew     10
 CISAX will form    10 AO SS matrices at one time.
 NMat=    10 NSing=    10 JSym2X= 0.
 Root      1 not converged, maximum delta is    0.001338883074297
 Root      2 has converged.
 Root      3 not converged, maximum delta is    0.002206795868585
 Root      4 not converged, maximum delta is    0.002530965633921
 Root      5 not converged, maximum delta is    0.070461111100112
 Excitation Energies [eV] at current iteration:
 Root      1 :     1.640581173900718   Change is   -0.000377202956040
 Root      2 :     2.178249913616633   Change is   -0.000209933323276
 Root      3 :     3.370467877093993   Change is   -0.000817102221588
 Root      4 :     3.481606298335894   Change is   -0.000417248288634
 Root      5 :     3.706124358243265   Change is   -0.019516399048629
 Iteration     6 Dimension    68 NMult    60 NNew      8
 CISAX will form     8 AO SS matrices at one time.
 NMat=     8 NSing=     8 JSym2X= 0.
 Root      1 has converged.
 Root      2 has converged.
 Root      3 not converged, maximum delta is    0.002147103429423
 Root      4 not converged, maximum delta is    0.001254441250886
 Root      5 not converged, maximum delta is    0.043354163961678
 Excitation Energies [eV] at current iteration:
 Root      1 :     1.640548790244639   Change is   -0.000032383656079
 Root      2 :     2.178247667371751   Change is   -0.000002246244882
 Root      3 :     3.370341710284980   Change is   -0.000126166809013
 Root      4 :     3.481543978316292   Change is   -0.000062320019602
 Root      5 :     3.698911278545491   Change is   -0.007213079697774
 Iteration     7 Dimension    74 NMult    68 NNew      6
 CISAX will form     6 AO SS matrices at one time.
 NMat=     6 NSing=     6 JSym2X= 0.
 Root      1 has converged.
 Root      2 has converged.
 Root      3 not converged, maximum delta is    0.003402336166150
 Root      4 not converged, maximum delta is    0.002909667075215
 Root      5 not converged, maximum delta is    0.137479401829020
 Excitation Energies [eV] at current iteration:
 Root      1 :     1.640548612223172   Change is   -0.000000178021467
 Root      2 :     2.178246090407652   Change is   -0.000001576964099
 Root      3 :     3.370283291944477   Change is   -0.000058418340502
 Root      4 :     3.481514874983076   Change is   -0.000029103333216
 Root      5 :     3.681358769773268   Change is   -0.017552508772224
 Iteration     8 Dimension    80 NMult    74 NNew      6
 CISAX will form     6 AO SS matrices at one time.
 NMat=     6 NSing=     6 JSym2X= 0.
 Root      1 has converged.
 Root      2 has converged.
 Root      3 not converged, maximum delta is    0.002008791603811
 Root      4 not converged, maximum delta is    0.002727496749053
 Root      5 not converged, maximum delta is    0.231124387298848
 Excitation Energies [eV] at current iteration:
 Root      1 :     1.640548564198367   Change is   -0.000000048024805
 Root      2 :     2.178245778894912   Change is   -0.000000311512740
 Root      3 :     3.370260279260666   Change is   -0.000023012683811
 Root      4 :     3.481495566568159   Change is   -0.000019308414917
 Root      5 :     3.631438661458488   Change is   -0.049920108314780
 Iteration     9 Dimension    86 NMult    80 NNew      6
 CISAX will form     6 AO SS matrices at one time.
 NMat=     6 NSing=     6 JSym2X= 0.
 Root      1 has converged.
 Root      2 has converged.
 Root      3 has converged.
 Root      4 has converged.
 Root      5 not converged, maximum delta is    0.025191394150326
 Excitation Energies [eV] at current iteration:
 Root      1 :     1.640548474731775   Change is   -0.000000089466592
 Root      2 :     2.178245487779976   Change is   -0.000000291114937
 Root      3 :     3.370257461393553   Change is   -0.000002817867114
 Root      4 :     3.481492189694612   Change is   -0.000003376873546
 Root      5 :     3.621378753467815   Change is   -0.010059907990673
 Iteration    10 Dimension    88 NMult    86 NNew      2
 CISAX will form     2 AO SS matrices at one time.
 NMat=     2 NSing=     2 JSym2X= 0.
 Root      1 has converged.
 Root      2 has converged.
 Root      3 has converged.
 Root      4 has converged.
 Root      5 not converged, maximum delta is    0.007082803035826
 Excitation Energies [eV] at current iteration:
 Root      1 :     1.640548440483196   Change is   -0.000000034248579
 Root      2 :     2.178245309097651   Change is   -0.000000178682324
 Root      3 :     3.370257280136335   Change is   -0.000000181257218
 Root      4 :     3.481491886734395   Change is   -0.000000302960218
 Root      5 :     3.620005407712883   Change is   -0.001373345754932
 Iteration    11 Dimension    90 NMult    88 NNew      2
 CISAX will form     2 AO SS matrices at one time.
 NMat=     2 NSing=     2 JSym2X= 0.
 Root      1 has converged.
 Root      2 has converged.
 Root      3 has converged.
 Root      4 has converged.
 Root      5 not converged, maximum delta is    0.002344070136540
 Excitation Energies [eV] at current iteration:
 Root      1 :     1.640548395267290   Change is   -0.000000045215906
 Root      2 :     2.178244347792626   Change is   -0.000000961305026
 Root      3 :     3.370257275495965   Change is   -0.000000004640370
 Root      4 :     3.481491870384990   Change is   -0.000000016349404
 Root      5 :     3.619853716831363   Change is   -0.000151690881520
 Iteration    12 Dimension    92 NMult    90 NNew      2
 CISAX will form     2 AO SS matrices at one time.
 NMat=     2 NSing=     2 JSym2X= 0.
 Root      1 has converged.
 Root      2 has converged.
 Root      3 has converged.
 Root      4 has converged.
 Root      5 not converged, maximum delta is    0.001066689243341
 Excitation Energies [eV] at current iteration:
 Root      1 :     1.640548392306053   Change is   -0.000000002961237
 Root      2 :     2.178244282521330   Change is   -0.000000065271296
 Root      3 :     3.370257266954866   Change is   -0.000000008541099
 Root      4 :     3.481491867249881   Change is   -0.000000003135109
 Root      5 :     3.619825890059886   Change is   -0.000027826771477
 Iteration    13 Dimension    94 NMult    92 NNew      2
 CISAX will form     2 AO SS matrices at one time.
 NMat=     2 NSing=     2 JSym2X= 0.
 Root      1 has converged.
 Root      2 has converged.
 Root      3 has converged.
[...]
 Alpha virt. eigenvalues --    1.26386   1.26550   1.27237   1.27372   1.27737
 Alpha virt. eigenvalues --    1.28203   1.28665   1.29239   1.29947   1.30041
 Alpha virt. eigenvalues --    1.31217   1.31305   1.31848   1.32228   1.32576
 Alpha virt. eigenvalues --    1.33065   1.33471   1.33792   1.34506   1.34684
 Alpha virt. eigenvalues --    1.35090   1.36164   1.36325   1.36911   1.37175
 Alpha virt. eigenvalues --    1.37664   1.38251   1.38285   1.39254   1.39340
 Alpha virt. eigenvalues --    1.39598   1.40307   1.40785   1.40880   1.41841
 Alpha virt. eigenvalues --    1.42059   1.42636   1.42887   1.43102   1.43293
 Alpha virt. eigenvalues --    1.43778   1.43897   1.44471   1.44645   1.44847
 Alpha virt. eigenvalues --    1.45502   1.45644   1.46057   1.46472   1.46774
 Alpha virt. eigenvalues --    1.46899   1.47297   1.48151   1.48661   1.48832
 Alpha virt. eigenvalues --    1.49532   1.50148   1.50344   1.50733   1.50917
 Alpha virt. eigenvalues --    1.51271   1.51583   1.51629   1.51743   1.52390
 Alpha virt. eigenvalues --    1.53056   1.54206   1.54799   1.55256   1.55728
 Alpha virt. eigenvalues --    1.56747   1.57292   1.57680   1.58344   1.58570
 Alpha virt. eigenvalues --    1.58774   1.59130   1.59315   1.59521   1.59972
 Alpha virt. eigenvalues --    1.60116   1.60451   1.61084   1.61308   1.61384
 Alpha virt. eigenvalues --    1.61539   1.61694   1.61787   1.62053   1.62137
 Alpha virt. eigenvalues --    1.62595   1.62608   1.62808   1.63102   1.63279
 Alpha virt. eigenvalues --    1.63379   1.63630   1.64401   1.65028   1.65075
 Alpha virt. eigenvalues --    1.65173   1.65476   1.65886   1.66032   1.66426
 Alpha virt. eigenvalues --    1.66535   1.66681   1.67355   1.68030   1.68156
 Alpha virt. eigenvalues --    1.68271   1.68642   1.69422   1.69587   1.70074
 Alpha virt. eigenvalues --    1.70280   1.70863   1.71982   1.72705   1.73157
 Alpha virt. eigenvalues --    1.73365   1.73751   1.74144   1.74747   1.75087
 Alpha virt. eigenvalues --    1.75418   1.75956   1.76193   1.76777   1.76988
 Alpha virt. eigenvalues --    1.77254   1.77535   1.77807   1.77913   1.78583
 Alpha virt. eigenvalues --    1.79055   1.79270   1.79402   1.79644   1.79679
 Alpha virt. eigenvalues --    1.79970   1.80042   1.80540   1.80752   1.80850
 Alpha virt. eigenvalues --    1.80870   1.81496   1.81594   1.81895   1.82013
 Alpha virt. eigenvalues --    1.82409   1.82753   1.83332   1.83617   1.83748
 Alpha virt. eigenvalues --    1.83845   1.84123   1.84149   1.84331   1.84434
 Alpha virt. eigenvalues --    1.84718   1.84837   1.85114   1.85323   1.85805
 Alpha virt. eigenvalues --    1.85912   1.86015   1.86151   1.86238   1.86608
 Alpha virt. eigenvalues --    1.86701   1.87000   1.87191   1.87244   1.87423
 Alpha virt. eigenvalues --    1.87640   1.87925   1.88120   1.88245   1.88457
 Alpha virt. eigenvalues --    1.88563   1.88684   1.89030   1.89083   1.89397
 Alpha virt. eigenvalues --    1.89659   1.89852   1.89951   1.90195   1.90337
 Alpha virt. eigenvalues --    1.90646   1.90891   1.91130   1.91371   1.91537
 Alpha virt. eigenvalues --    1.91695   1.92143   1.92295   1.92474   1.92539
 Alpha virt. eigenvalues --    1.93097   1.93341   1.93460   1.93631   1.93801
 Alpha virt. eigenvalues --    1.94004   1.94100   1.94411   1.94595   1.94691
 Alpha virt. eigenvalues --    1.95227   1.95504   1.95736   1.95877   1.96396
 Alpha virt. eigenvalues --    1.96608   1.97210   1.97454   1.97470   1.97520
 Alpha virt. eigenvalues --    1.97673   1.97702   1.97957   1.98254   1.98603
 Alpha virt. eigenvalues --    1.98914   1.98978   1.99507   1.99775   1.99999
 Alpha virt. eigenvalues --    2.00061   2.00885   2.00980   2.01380   2.01455
 Alpha virt. eigenvalues --    2.02142   2.02421   2.02587   2.02736   2.03090
 Alpha virt. eigenvalues --    2.03154   2.03606   2.03806   2.04203   2.04361
 Alpha virt. eigenvalues --    2.04606   2.04642   2.04715   2.05131   2.05294
 Alpha virt. eigenvalues --    2.05482   2.05777   2.05956   2.06608   2.06807
 Alpha virt. eigenvalues --    2.06810   2.07030   2.07705   2.08002   2.08271
 Alpha virt. eigenvalues --    2.08348   2.08621   2.09175   2.09493   2.09654
 Alpha virt. eigenvalues --    2.09804   2.10091   2.10196   2.10770   2.11634
 Alpha virt. eigenvalues --    2.11942   2.12366   2.12393   2.12635   2.13016
 Alpha virt. eigenvalues --    2.13089   2.13724   2.14028   2.14208   2.14655
 Alpha virt. eigenvalues --    2.14923   2.15476   2.15623   2.15676   2.15812
 Alpha virt. eigenvalues --    2.16165   2.16211   2.16308   2.16732   2.16889
 Alpha virt. eigenvalues --    2.17719   2.17869   2.18183   2.18298   2.18703
 Alpha virt. eigenvalues --    2.19040   2.19644   2.19706   2.20053   2.20505
 Alpha virt. eigenvalues --    2.20741   2.21329   2.21629   2.21797   2.21960
 Alpha virt. eigenvalues --    2.22827   2.23108   2.23263   2.23470   2.23670
 Alpha virt. eigenvalues --    2.24104   2.24178   2.25001   2.25168   2.25753
 Alpha virt. eigenvalues --    2.25831   2.26297   2.26521   2.26937   2.27240
 Alpha virt. eigenvalues --    2.27551   2.28504   2.29057   2.29816   2.30145
 Alpha virt. eigenvalues --    2.30690   2.31002   2.31965   2.32205   2.32314
 Alpha virt. eigenvalues --    2.32903   2.32984   2.33739   2.34387   2.34529
 Alpha virt. eigenvalues --    2.34657   2.35265   2.35525   2.36388   2.36772
 Alpha virt. eigenvalues --    2.36955   2.37240   2.37404   2.37879   2.38017
 Alpha virt. eigenvalues --    2.38624   2.38825   2.38953   2.39111   2.39635
 Alpha virt. eigenvalues --    2.39818   2.40206   2.40323   2.40843   2.40935
 Alpha virt. eigenvalues --    2.41488   2.41565   2.42494   2.42658   2.42861
 Alpha virt. eigenvalues --    2.42937   2.43345   2.43866   2.44091   2.44158
 Alpha virt. eigenvalues --    2.44350   2.44967   2.45391   2.45574   2.46131
 Alpha virt. eigenvalues --    2.46217   2.46893   2.47801   2.48161   2.48762
 Alpha virt. eigenvalues --    2.49044   2.49552   2.49931   2.50026   2.50652
 Alpha virt. eigenvalues --    2.50773   2.51062   2.51380   2.51396   2.51915
 Alpha virt. eigenvalues --    2.52136   2.52257   2.52594   2.53492   2.53989
 Alpha virt. eigenvalues --    2.54205   2.54254   2.54832   2.55383   2.55753
 Alpha virt. eigenvalues --    2.56476   2.56870   2.57540   2.58970   2.59056
 Alpha virt. eigenvalues --    2.59362   2.59695   2.60299   2.60398   2.60645
 Alpha virt. eigenvalues --    2.61515   2.61631   2.61731   2.62502   2.62921
 Alpha virt. eigenvalues --    2.63584   2.63888   2.64200   2.64399   2.64850
 Alpha virt. eigenvalues --    2.65009   2.65197   2.65750   2.66192   2.66284
 Alpha virt. eigenvalues --    2.66954   2.67185   2.67291   2.67531   2.67800
 Alpha virt. eigenvalues --    2.67934   2.68173   2.69852   2.70092   2.70667
 Alpha virt. eigenvalues --    2.70772   2.71013   2.71929   2.72028   2.72745
 Alpha virt. eigenvalues --    2.72899   2.73756   2.74005   2.74171   2.74560
 Alpha virt. eigenvalues --    2.75035   2.75176   2.75298   2.76252   2.76639
 Alpha virt. eigenvalues --    2.76778   2.76816   2.78380   2.78596   2.78787
 Alpha virt. eigenvalues --    2.79383   2.79785   2.79859   2.80373   2.80473
 Alpha virt. eigenvalues --    2.80587   2.80731   2.81103   2.81178   2.81282
 Alpha virt. eigenvalues --    2.81489   2.81959   2.82258   2.83146   2.83207
 Alpha virt. eigenvalues --    2.84085   2.84630   2.85668   2.85809   2.86220
 Alpha virt. eigenvalues --    2.87649   2.88003   2.88379   2.88960   2.89409
 Alpha virt. eigenvalues --    2.90359   2.90871   2.91103   2.91275   2.91560
 Alpha virt. eigenvalues --    2.92212   2.93004   2.93312   2.94230   2.94737
 Alpha virt. eigenvalues --    2.95001   2.96051   2.96074   2.96905   2.97554
 Alpha virt. eigenvalues --    2.97853   2.98236   2.98328   2.98605   2.98728
 Alpha virt. eigenvalues --    2.99354   3.00319   3.00450   3.00852   3.01264
 Alpha virt. eigenvalues --    3.01360   3.01497   3.01627   3.01714   3.02247
 Alpha virt. eigenvalues --    3.02607   3.02925   3.02999   3.03296   3.03566
 Alpha virt. eigenvalues --    3.03699   3.04103   3.04248   3.04708   3.04919
 Alpha virt. eigenvalues --    3.05504   3.05612   3.05742   3.06160   3.06290
 Alpha virt. eigenvalues --    3.06541   3.06978   3.07080   3.07420   3.07492
 Alpha virt. eigenvalues --    3.07902   3.08142   3.08503   3.08762   3.09233
 Alpha virt. eigenvalues --    3.09487   3.09896   3.10019   3.10542   3.10888
 Alpha virt. eigenvalues --    3.11315   3.12368   3.12983   3.13224   3.13612
 Alpha virt. eigenvalues --    3.13895   3.14286   3.14782   3.14910   3.15313
 Alpha virt. eigenvalues --    3.15975   3.16463   3.16918   3.16944   3.17378
 Alpha virt. eigenvalues --    3.18005   3.19083   3.19659   3.20741   3.21540
 Alpha virt. eigenvalues --    3.22770   3.22894   3.22990   3.23928   3.25473
 Alpha virt. eigenvalues --    3.27194   3.28127   3.30413   3.30461   3.31429
 Alpha virt. eigenvalues --    3.32495   3.33389   3.41178   3.45533   3.48386
 Alpha virt. eigenvalues --    3.49701   3.52257   3.53364   3.53969   3.57361
 Alpha virt. eigenvalues --    3.62021   3.63282   3.67460   3.71174   3.74227
 Alpha virt. eigenvalues --    3.75131   3.78869
          Condensed to atoms (all electrons):
 Mulliken charges:
               1
     1  Mg   0.944739
     2  C   -0.017081
     3  C   -0.082105
     4  C   -0.050933
     5  C   -0.118686
     6  N   -0.314381
     7  C   -0.006973
     8  C   -0.076372
     9  C   -0.091489
    10  C    0.046355
    11  C    0.013791
    12  C    0.011007
    13  C    0.038505
    14  C    0.213759
    15  O   -0.326927
    16  O   -0.358593
    17  N   -0.520853
    18  C    0.165815
    19  C   -0.149675
    20  C   -0.059307
    21  C    0.166549
    22  C    0.041170
    23  C    0.052376
    24  O   -0.229376
    25  C   -0.021632
    26  N   -0.336655
    27  C    0.008649
    28  C   -0.094380
    29  C   -0.038019
    30  C    0.057784
    31  C    0.016425
    32  C   -0.003642
    33  C   -0.047112
    34  N   -0.463166
    35  C    0.139414
    36  C   -0.194486
    37  C   -0.060541
    38  C    0.150437
    39  C    0.095941
    40  C    0.103833
    41  O   -0.173156
    42  C   -0.032485
    43  C    0.230522
    44  O   -0.274988
    45  O   -0.318753
    46  C    0.134448
    47  C    0.235270
    48  C   -0.137639
    49  C   -0.172426
    50  C    0.040722
    51  C    0.038257
    52  C   -0.038177
    53  C    0.031082
    54  C   -0.224081
    55  C   -0.005192
    56  C   -0.008648
    57  C   -0.033513
    58  C    0.010366
    59  C   -0.204455
    60  C    0.006776
    61  C    0.029548
    62  C   -0.047612
    63  C    0.018761
    64  C   -0.210709
    65  C   -0.017412
    66  C   -0.010552
    67  H   -0.006819
    68  H    0.014801
    69  H    0.001448
    70  H    0.038971
    71  H    0.043527
    72  H    0.037725
    73  H    0.039965
    74  H    0.055588
    75  H    0.037239
    76  H    0.050594
    77  H    0.068620
    78  H    0.039447
    79  H    0.054240
    80  H    0.055904
    81  H    0.029187
    82  H    0.045415
    83  H    0.044304
    84  H    0.072444
    85  H    0.048497
    86  H    0.027886
    87  H    0.048842
    88  H    0.039815
    89  H    0.044841
    90  H    0.033127
    91  H    0.021915
    92  H    0.027467
    93  H    0.041663
    94  H    0.031118
    95  H    0.065170
    96  H    0.053352
    97  H    0.050937
    98  H    0.073611
    99  H    0.069513
   100  H    0.061126
   101  H    0.050441
   102  H    0.079307
   103  H    0.032785
   104  H    0.025373
   105  H    0.021984
   106  H    0.058296
   107  H    0.038959
   108  H    0.007642
   109  H    0.029203
   110  H    0.027311
   111  H    0.022308
   112  H    0.029410
   113  H    0.010925
   114  H    0.013398
   115  H    0.021954
   116  H    0.036598
   117  H    0.021735
   118  H    0.009372
   119  H    0.013125
   120  H    0.025766
   121  H    0.033939
   122  H    0.015152
   123  H    0.022281
   124  H    0.024920
   125  H    0.026505
   126  H    0.047543
   127  H    0.036369
   128  H    0.017317
   129  H    0.020354
   130  H    0.008304
   131  H    0.009878
   132  H    0.013471
   133  H    0.014962
   134  H    0.019766
   135  H    0.020277
   136  H    0.029858
   137  H    0.026031
   138  H    0.031675
   139  H    0.036821
   140  H    0.037087
 Sum of Mulliken charges =  -0.00000
 Mulliken charges with hydrogens summed into heavy atoms:
               1
     1  Mg   0.944739
     2  C   -0.017081
     3  C   -0.088925
     4  C   -0.036132
     5  C   -0.117238
     6  N   -0.314381
     7  C   -0.006973
     8  C   -0.037402
     9  C   -0.047962
    10  C    0.046355
    11  C    0.147069
    12  C    0.098841
    13  C    0.146571
    14  C    0.213759
    15  O   -0.326927
    16  O   -0.358593
    17  N   -0.520853
    18  C    0.165815
    19  C   -0.149675
    20  C   -0.059307
    21  C    0.166549
    22  C    0.180501
    23  C    0.052376
    24  O   -0.229376
    25  C    0.140530
    26  N   -0.336655
    27  C    0.008649
    28  C   -0.045883
    29  C   -0.010133
    30  C    0.057784
    31  C    0.149924
    32  C    0.051400
    33  C    0.053136
    34  N   -0.463166
    35  C    0.139414
    36  C   -0.194486
    37  C   -0.060541
    38  C    0.150437
    39  C    0.265401
    40  C    0.103833
    41  O   -0.173156
    42  C    0.041127
    43  C    0.230522
    44  O   -0.274988
    45  O   -0.318753
    46  C    0.315528
    47  C    0.347361
    48  C   -0.112266
    49  C   -0.172426
    50  C    0.159961
    51  C    0.075102
    52  C    0.011442
    53  C    0.071416
    54  C   -0.210684
    55  C    0.075095
    56  C    0.013849
    57  C    0.026192
    58  C    0.047799
    59  C   -0.179535
    60  C    0.117193
    61  C    0.067219
    62  C   -0.029430
    63  C    0.047194
    64  C   -0.190944
    65  C    0.058754
    66  C    0.095030
 Electronic spatial extent (au):  <R**2>=         105620.7548
 Charge=             -0.0000 electrons
 Dipole moment (field-independent basis, Debye):
    X=              4.8157    Y=              2.5331    Z=             -1.0701  Tot=              5.5455
 Quadrupole moment (field-independent basis, Debye-Ang):
   XX=           -361.5718   YY=           -422.0083   ZZ=           -419.3065
   XY=            -16.4683   XZ=             16.4673   YZ=             -7.0173
 Traceless Quadrupole moment (field-independent basis, Debye-Ang):
   XX=             39.3904   YY=            -21.0461   ZZ=            -18.3443
   XY=            -16.4683   XZ=             16.4673   YZ=             -7.0173
 Octapole moment (field-independent basis, Debye-Ang**2):
  XXX=           -275.5484  YYY=           -139.0711  ZZZ=             30.6609  XYY=            282.2352
  XXY=            129.5638  XXZ=            -90.5878  XZZ=             14.5260  YZZ=             65.8413
  YYZ=              4.7450  XYZ=              0.6643
 Hexadecapole moment (field-independent basis, Debye-Ang**3):
 XXXX=        -101713.5487 YYYY=         -26117.2891 ZZZZ=         -11866.7232 XXXY=          -1360.4734
 XXXZ=            272.1002 YYYX=            -15.5539 YYYZ=           -293.8979 ZZZX=             19.4731
 ZZZY=           -133.2847 XXYY=         -23441.9473 XXZZ=         -19801.6072 YYZZ=          -6457.5955
 XXYZ=            262.1907 YYXZ=            365.6170 ZZXY=             22.7576
 N-N= 9.599593820082D+03 E-N=-2.619074661690D+04  KE= 2.974776454887D+03
 Leave Link  601 at Wed Apr 27 12:50:45 2022, MaxMem= 10066329600 cpu:              11.4 elap:               0.6
 (Enter /sw/apps/gaussian-16.0/g16/l9999.exe)
 1\1\GINC-BP1-COMPUTE175\SP\RwB97XD TD-FC\def2SVP\C55H74Mg1N4O6\OF15641
 \27-Apr-2022\0\\#p wB97XD/Def2SVP td=(nstates=5)\\step_1151_chromophor
 e_27 TDDFT with wB97XD functional\\0,1\Mg,0,-5.989,25.172,26.457\C,0,-
 4.141,26.906,28.917\C,0,-7.207,23.093,28.851\C,0,-7.658,23.64,24.016\C
 ,0,-4.216,26.963,23.975\N,0,-5.772,25.129,28.717\C,0,-4.941,25.901,29.
 466\C,0,-5.066,25.545,30.928\C,0,-5.84,24.104,30.883\C,0,-6.295,24.094
 ,29.386\C,0,-4.936,22.802,31.185\C,0,-5.85,26.661,31.822\C,0,-5.425,26
 .838,33.289\C,0,-6.55,26.514,34.251\O,0,-7.397,27.396,34.635\O,0,-6.35
 ,25.345,34.903\N,0,-7.14,23.515,26.408\C,0,-7.571,22.852,27.537\C,0,-8
 .369,21.737,27.105\C,0,-8.476,21.751,25.694\C,0,-7.752,22.965,25.275\C
 ,0,-9.028,20.858,28.154\C,0,-9.172,20.853,24.68\O,0,-9.214,21.027,23.4
 62\C,0,-9.885,19.608,25.189\N,0,-5.89,25.215,24.272\C,0,-6.898,24.703,
 23.515\C,0,-7.039,25.346,22.075\C,0,-5.931,26.424,22.186\C,0,-5.267,26
 .187,23.511\C,0,-6.722,24.269,20.972\C,0,-6.374,27.882,21.898\C,0,-6.5
 96,28.226,20.45\N,0,-4.438,26.596,26.38\C,0,-3.817,27.259,25.297\C,0,-
 2.785,28.208,25.771\C,0,-2.882,28.046,27.156\C,0,-3.924,27.13,27.549\C
 ,0,-1.958,29.088,24.992\C,0,-2.363,28.59,28.454\O,0,-1.534,29.436,28.5
 98\C,0,-3.197,27.919,29.604\C,0,-2.241,27.27,30.461\O,0,-1.452,26.375,
 30.158\O,0,-2.311,27.798,31.658\C,0,-1.462,27.172,32.66\C,0,-7.114,25.
 131,36.203\C,0,-8.122,23.916,36.04\C,0,-8.24,22.777,36.768\C,0,-7.385,
 22.344,37.996\C,0,-9.36,21.837,36.399\C,0,-10.777,22.302,36.815\C,0,-1
 1.526,21.308,37.763\C,0,-12.476,20.462,36.835\C,0,-13.828,21.176,36.54
 9\C,0,-12.638,18.988,37.387\C,0,-11.571,17.936,36.978\C,0,-11.068,17.0
 86,38.213\C,0,-9.532,16.935,38.12\C,0,-8.868,18.212,38.87\C,0,-9.06,15
 .561,38.635\C,0,-7.612,15.261,38.116\C,0,-6.471,15.173,39.18\C,0,-5.29
 8,14.17,38.884\C,0,-4.807,13.454,40.16\C,0,-4.105,14.791,38.106\H,0,-7
 .727,22.401,29.515\H,0,-8.237,23.259,23.172\H,0,-3.67,27.414,23.144\H,
 0,-4.078,25.385,31.359\H,0,-6.817,24.137,31.363\H,0,-5.034,21.979,30.4
 76\H,0,-5.289,22.267,32.067\H,0,-3.88,23.065,31.24\H,0,-6.858,26.256,3
 1.909\H,0,-5.986,27.608,31.3\H,0,-5.072,27.851,33.478\H,0,-4.542,26.24
 2,33.52\H,0,-9.94,21.327,28.524\H,0,-8.333,20.696,28.978\H,0,-9.472,19
 .925,27.805\H,0,-10.553,19.146,24.462\H,0,-10.587,19.981,25.935\H,0,-9
 .162,18.864,25.523\H,0,-8.006,25.801,21.857\H,0,-5.164,26.208,21.443\H
 ,0,-6.816,23.274,21.407\H,0,-5.697,24.314,20.605\H,0,-7.48,24.364,20.1
 94\H,0,-5.715,28.578,22.417\H,0,-7.376,28.013,22.307\H,0,-6.614,27.299
 ,19.877\H,0,-5.874,28.95,20.073\H,0,-7.561,28.674,20.212\H,0,-1.318,29
 .63,25.687\H,0,-2.625,29.665,24.352\H,0,-1.34,28.414,24.398\H,0,-3.737
 ,28.764,30.032\H,0,-0.452,27.359,32.294\H,0,-1.697,26.127,32.859\H,0,-
 1.637,27.751,33.567\H,0,-7.607,26.021,36.594\H,0,-6.391,24.857,36.971\
 H,0,-8.636,24.037,35.087\H,0,-6.651,23.126,38.191\H,0,-6.976,21.334,38
 .\H,0,-8.043,22.365,38.864\H,0,-9.217,20.838,36.809\H,0,-9.402,21.75,3
 5.313\H,0,-11.404,22.478,35.941\H,0,-10.654,23.248,37.342\H,0,-12.118,
 21.93,38.435\H,0,-10.86,20.562,38.195\H,0,-11.985,20.343,35.869\H,0,-1
 4.607,20.668,37.117\H,0,-14.064,21.219,35.486\H,0,-14.01,22.184,36.921
 \H,0,-13.64,18.706,37.061\H,0,-12.758,19.108,38.463\H,0,-10.831,18.53,
 36.441\H,0,-12.029,17.246,36.268\H,0,-11.553,16.112,38.138\H,0,-11.457
 ,17.54,39.124\H,0,-9.378,17.023,37.045\H,0,-9.672,18.944,38.945\H,0,-8
 .016,18.525,38.266\H,0,-8.6,17.953,39.895\H,0,-9.587,14.759,38.118\H,0
 ,-8.998,15.362,39.705\H,0,-7.48,15.993,37.319\H,0,-7.634,14.298,37.606
 \H,0,-6.942,14.956,40.139\H,0,-5.945,16.128,39.208\H,0,-5.709,13.334,3
 8.318\H,0,-3.817,13.847,40.392\H,0,-4.696,12.376,40.039\H,0,-5.462,13.
 572,41.023\H,0,-4.408,15.343,37.216\H,0,-3.517,13.934,37.777\H,0,-3.55
 5,15.464,38.763\\Version=ES64L-G16RevA.03\State=1-A\HF=-3007.8548063\R
 MSD=4.291e-09\PG=C01 [X(C55H74Mg1N4O6)]\\@


 ALL PAPERS THAT YOU SAVE WILL NEVER BE NEEDED UNTIL
 SUCH TIME AS THEY ARE DISPOSED OF, WHEN THEY BECOME
 ESSENTIAL.

           -- JOHN CORCORAN IN
              PAUL DICKSON'S "THE OFFICIAL RULES"
 Job cpu time:       0 days 13 hours  6 minutes 47.4 seconds.
 Elapsed time:       0 days  0 hours 33 minutes 19.9 seconds.
 File lengths (MBytes):  RWF=   8929 Int=      0 D2E=      0 Chk=    390 Scr=      1
 Normal termination of Gaussian 16 at Wed Apr 27 12:50:46 2022.
