 Entering Gaussian System, Link 0=g16
 Initial command:
 /sw/apps/gaussian-16.0/g16/l1.exe "/tmp/Gau-185396.inp" -scrdir="/tmp/"
 Entering Link 1 = /sw/apps/gaussian-16.0/g16/l1.exe PID=    185397.
  
 Copyright (c) 1988,1990,1992,1993,1995,1998,2003,2009,2016,
            Gaussian, Inc.  All Rights Reserved.
  
 This is part of the Gaussian(R) 16 program.  It is based on
 the Gaussian(R) 09 system (copyright 2009, Gaussian, Inc.),
 the Gaussian(R) 03 system (copyright 2003, Gaussian, Inc.),
 the Gaussian(R) 98 system (copyright 1998, Gaussian, Inc.),
 the Gaussian(R) 94 system (copyright 1995, Gaussian, Inc.),
 the Gaussian 92(TM) system (copyright 1992, Gaussian, Inc.),
 the Gaussian 90(TM) system (copyright 1990, Gaussian, Inc.),
 the Gaussian 88(TM) system (copyright 1988, Gaussian, Inc.),
 the Gaussian 86(TM) system (copyright 1986, Carnegie Mellon
 University), and the Gaussian 82(TM) system (copyright 1983,
 Carnegie Mellon University). Gaussian is a federally registered
 trademark of Gaussian, Inc.
  
 This software contains proprietary and confidential information,
 including trade secrets, belonging to Gaussian, Inc.
  
 This software is provided under written license and may be
 used, copied, transmitted, or stored only in accord with that
 written license.
  
 The following legend is applicable only to US Government
 contracts under FAR:
  
                    RESTRICTED RIGHTS LEGEND
  
 Use, reproduction and disclosure by the US Government is
 subject to restrictions as set forth in subparagraphs (a)
 and (c) of the Commercial Computer Software - Restricted
 Rights clause in FAR 52.227-19.
  
 Gaussian, Inc.
 340 Quinnipiac St., Bldg. 40, Wallingford CT 06492
  
  
 ---------------------------------------------------------------
 Warning -- This program may not be used in any manner that
 competes with the business of Gaussian, Inc. or will provide
 assistance to any competitor of Gaussian, Inc.  The licensee
 of this program is prohibited from giving any competitor of
 Gaussian, Inc. access to this program.  By using this program,
 the user acknowledges that Gaussian, Inc. is engaged in the
 business of creating and licensing software in the field of
 computational chemistry and represents and warrants to the
 licensee that it is not a competitor of Gaussian, Inc. and that
 it will not use this program in any manner prohibited above.
 ---------------------------------------------------------------
  

 Cite this work as:
 Gaussian 16, Revision A.03,
 M. J. Frisch, G. W. Trucks, H. B. Schlegel, G. E. Scuseria, 
 M. A. Robb, J. R. Cheeseman, G. Scalmani, V. Barone, 
 G. A. Petersson, H. Nakatsuji, X. Li, M. Caricato, A. V. Marenich, 
 J. Bloino, B. G. Janesko, R. Gomperts, B. Mennucci, H. P. Hratchian, 
 J. V. Ortiz, A. F. Izmaylov, J. L. Sonnenberg, D. Williams-Young, 
 F. Ding, F. Lipparini, F. Egidi, J. Goings, B. Peng, A. Petrone, 
 T. Henderson, D. Ranasinghe, V. G. Zakrzewski, J. Gao, N. Rega, 
 G. Zheng, W. Liang, M. Hada, M. Ehara, K. Toyota, R. Fukuda, 
 J. Hasegawa, M. Ishida, T. Nakajima, Y. Honda, O. Kitao, H. Nakai, 
 T. Vreven, K. Throssell, J. A. Montgomery, Jr., J. E. Peralta, 
 F. Ogliaro, M. J. Bearpark, J. J. Heyd, E. N. Brothers, K. N. Kudin, 
 V. N. Staroverov, T. A. Keith, R. Kobayashi, J. Normand, 
 K. Raghavachari, A. P. Rendell, J. C. Burant, S. S. Iyengar, 
 J. Tomasi, M. Cossi, J. M. Millam, M. Klene, C. Adamo, R. Cammi, 
 J. W. Ochterski, R. L. Martin, K. Morokuma, O. Farkas, 
 J. B. Foresman, and D. J. Fox, Gaussian, Inc., Wallingford CT, 2016.
 
 ******************************************
 Gaussian 16:  ES64L-G16RevA.03 25-Dec-2016
                 4-May-2022 
 ******************************************
 %nproc=24
 Will use up to   24 processors via shared memory.
 %mem=75GB
 ---------------------------------
 #p PBE1PBE/Def2SVP td=(nstates=5)
 ---------------------------------
 1/38=1,172=1/1;
 2/12=2,17=6,18=5,40=1/2;
 3/5=43,7=101,11=9,25=1,30=1,74=-13/1,2,3,8;
 4//1;
 5/5=2,38=5/2;
 8/6=1,10=1,108=5/1;
 9/41=5,42=1,70=2/14;
 6/7=2,8=2,9=2,10=2/1;
 99/5=1,9=1/99;
 Leave Link    1 at Wed May  4 08:48:37 2022, MaxMem= 10066329600 cpu:               1.0 elap:               0.0
 (Enter /sw/apps/gaussian-16.0/g16/l101.exe)
 ------------------------------------------------------
 step_1551_chromophore_12 TDDFT with PBE1PBE functional
 ------------------------------------------------------
 Symbolic Z-matrix:
 Charge =  0 Multiplicity = 1
 Mg                    47.958    14.614    27.756 
 C                     45.995    14.497    30.683 
 C                     49.839    16.981    29.255 
 C                     49.761    14.489    25.069 
 C                     45.432    12.583    26.245 
 N                     47.827    15.642    29.827 
 C                     47.094    15.281    30.872 
 C                     47.545    15.894    32.14 
 C                     48.681    16.871    31.657 
 C                     48.867    16.458    30.189 
 C                     48.411    18.366    31.705 
 C                     47.955    14.938    33.252 
 C                     47.787    15.445    34.67 
 C                     48.962    15.187    35.628 
 O                     49.772    14.289    35.505 
 O                     48.889    16.097    36.657 
 N                     49.616    15.646    27.233 
 C                     50.251    16.577    28.001 
 C                     51.481    16.965    27.275 
 C                     51.515    16.176    26.11 
 C                     50.283    15.41     26.071 
 C                     52.559    17.913    27.801 
 C                     52.579    16.11     25.047 
 O                     52.639    15.193    24.179 
 C                     53.649    17.057    24.925 
 N                     47.55     13.729    25.902 
 C                     48.538    13.796    24.972 
 C                     48.047    12.984    23.697 
 C                     46.703    12.304    24.121 
 C                     46.528    12.923    25.496 
 C                     47.963    13.859    22.395 
 C                     46.773    10.761    24.104 
 C                     47.421    9.996     22.967 
 N                     46.059    13.829    28.25 
 C                     45.14     13.017    27.563 
 C                     44.025    12.719    28.334 
 C                     44.352    13.248    29.588 
 C                     45.596    13.895    29.483 
 C                     42.779    11.994    27.875 
 C                     43.944    13.184    30.953 
 O                     43.015    12.576    31.501 
 C                     45.019    14.042    31.719 
 C                     44.343    15.191    32.298 
 O                     43.922    16.251    31.786 
 O                     44.07     14.84     33.614 
 C                     42.972    15.551    34.315 
 C                     50.063    16.074    37.57 
 C                     50.241    17.409    38.248 
 C                     51.242    17.786    39.1 
 C                     52.456    16.947    39.337 
 C                     51.284    19.156    39.847 
 C                     52.548    20.005    39.659 
 C                     52.236    21.506    39.74 
 C                     53.235    22.464    39.032 
 C                     53.985    23.273    40.084 
 C                     52.468    23.405    38.003 
 C                     53.29     23.624    36.712 
 C                     52.403    24.492    35.733 
 C                     52.799    24.411    34.316 
 C                     54.123    25.116    34.099 
 C                     51.718    24.902    33.305 
 C                     51.797    24.34     31.841 
 C                     50.546    23.599    31.495 
 C                     50.511    23.073    30.044 
 C                     51.512    21.964    29.635 
 C                     50.525    24.184    29.04 
 H                     50.543    17.714    29.653 
 H                     50.361    14.343    24.168 
 H                     44.64     12.031    25.733 
 H                     46.717    16.482    32.538 
 H                     49.613    16.707    32.198 
 H                     48.229    18.672    30.675 
 H                     49.27     18.915    32.092 
 H                     47.51     18.707    32.213 
 H                     49.015    14.742    33.088 
 H                     47.415    13.998    33.142 
 H                     46.953    15.032    35.238 
 H                     47.52     16.496    34.561 
 H                     52.633    18.919    27.387 
 H                     53.578    17.53     27.849 
 H                     52.358    18.188    28.836 
 H                     53.224    18.057    25.017 
 H                     54.225    16.951    24.005 
 H                     54.384    16.812    25.692 
 H                     48.844    12.24     23.69 
 H                     45.769    12.566    23.624 
 H                     48.595    14.747    22.373 
 H                     46.912    14.129    22.287 
 H                     48.372    13.26     21.581 
 H                     45.762    10.385    24.26 
 H                     47.338    10.481    24.993 
 H                     47.486    10.665    22.109 
 H                     46.782    9.166     22.664 
 H                     48.393    9.582     23.237 
 H                     42.35     11.523    28.759 
 H                     43.057    11.203    27.177 
 H                     42.194    12.784    27.405 
 H                     45.444    13.434    32.517 
 H                     43.456    16.002    35.181 
 H                     42.326    14.679    34.424 
 H                     42.465    16.287    33.692 
 H                     50.985    15.906    37.013 
 H                     50.       15.269    38.302 
 H                     49.376    18.071    38.204 
 H                     52.524    16.613    40.373 
 H                     53.3      17.595    39.1 
 H                     52.537    16.002    38.799 
 H                     51.174    18.897    40.9 
 H                     50.453    19.774    39.507 
 H                     52.979    19.697    38.706 
 H                     53.195    19.78     40.507 
 H                     52.314    21.712    40.808 
 H                     51.208    21.759    39.479 
 H                     53.987    21.851    38.535 
 H                     53.356    23.794    40.806 
 H                     54.699    23.892    39.541 
 H                     54.622    22.653    40.714 
 H                     52.193    24.342    38.486 
 H                     51.543    22.964    37.631 
 H                     53.461    22.647    36.261 
 H                     54.25     24.098    36.916 
 H                     52.528    25.502    36.123 
 H                     51.357    24.189    35.773 
 H                     53.072    23.377    34.106 
 H                     54.438    25.534    35.055 
 H                     54.073    25.828    33.275 
 H                     54.938    24.441    33.836 
 H                     51.679    25.969    33.088 
 H                     50.755    24.716    33.78 
 H                     52.727    23.78     31.739 
 H                     52.06     25.206    31.233 
 H                     49.775    24.351    31.664 
 H                     50.433    22.785    32.211 
 H                     49.545    22.599    29.875 
 H                     52.405    22.21     30.21 
 H                     51.741    21.904    28.571 
 H                     51.174    20.972    29.935 
 H                     51.342    24.085    28.325 
 H                     50.548    25.21     29.409 
 H                     49.536    24.105    28.59 
 
 ITRead=  0  0  0  0  0  0  0  0  0  0  0  0  0  0  0  0  0  0  0  0
 ITRead=  0  0  0  0  0  0  0  0  0  0  0  0  0  0  0  0  0  0  0  0
 ITRead=  0  0  0  0  0  0  0  0  0  0  0  0  0  0  0  0  0  0  0  0
 ITRead=  0  0  0  0  0  0  0  0  0  0  0  0  0  0  0  0  0  0  0  0
 ITRead=  0  0  0  0  0  0  0  0  0  0  0  0  0  0  0  0  0  0  0  0
 ITRead=  0  0  0  0  0  0  0  0  0  0  0  0  0  0  0  0  0  0  0  0
 ITRead=  0  0  0  0  0  0  0  0  0  0  0  0  0  0  0  0  0  0  0  0
 MicOpt= -1 -1 -1 -1 -1 -1 -1 -1 -1 -1 -1 -1 -1 -1 -1 -1 -1 -1 -1 -1
 MicOpt= -1 -1 -1 -1 -1 -1 -1 -1 -1 -1 -1 -1 -1 -1 -1 -1 -1 -1 -1 -1
 MicOpt= -1 -1 -1 -1 -1 -1 -1 -1 -1 -1 -1 -1 -1 -1 -1 -1 -1 -1 -1 -1
 MicOpt= -1 -1 -1 -1 -1 -1 -1 -1 -1 -1 -1 -1 -1 -1 -1 -1 -1 -1 -1 -1
 MicOpt= -1 -1 -1 -1 -1 -1 -1 -1 -1 -1 -1 -1 -1 -1 -1 -1 -1 -1 -1 -1
 MicOpt= -1 -1 -1 -1 -1 -1 -1 -1 -1 -1 -1 -1 -1 -1 -1 -1 -1 -1 -1 -1
 MicOpt= -1 -1 -1 -1 -1 -1 -1 -1 -1 -1 -1 -1 -1 -1 -1 -1 -1 -1 -1 -1
 NAtoms=    140 NQM=      140 NQMF=       0 NMMI=      0 NMMIF=      0
                NMic=       0 NMicF=      0.
                    Isotopes and Nuclear Properties:
 (Nuclear quadrupole moments (NQMom) in fm**2, nuclear magnetic moments (NMagM)
  in nuclear magnetons)

  Atom         1           2           3           4           5           6           7           8           9          10
 IAtWgt=          24          12          12          12          12          14          12          12          12          12
 AtmWgt=  23.9850450  12.0000000  12.0000000  12.0000000  12.0000000  14.0030740  12.0000000  12.0000000  12.0000000  12.0000000
 NucSpn=           0           0           0           0           0           2           0           0           0           0
 AtZEff=  -0.0000000  -0.0000000  -0.0000000  -0.0000000  -0.0000000  -0.0000000  -0.0000000  -0.0000000  -0.0000000  -0.0000000
 NQMom=    0.0000000   0.0000000   0.0000000   0.0000000   0.0000000   2.0440000   0.0000000   0.0000000   0.0000000   0.0000000
 NMagM=    0.0000000   0.0000000   0.0000000   0.0000000   0.0000000   0.4037610   0.0000000   0.0000000   0.0000000   0.0000000
 AtZNuc=  12.0000000   6.0000000   6.0000000   6.0000000   6.0000000   7.0000000   6.0000000   6.0000000   6.0000000   6.0000000

  Atom        11          12          13          14          15          16          17          18          19          20
 IAtWgt=          12          12          12          12          16          16          14          12          12          12
 AtmWgt=  12.0000000  12.0000000  12.0000000  12.0000000  15.9949146  15.9949146  14.0030740  12.0000000  12.0000000  12.0000000
 NucSpn=           0           0           0           0           0           0           2           0           0           0
 AtZEff=  -0.0000000  -0.0000000  -0.0000000  -0.0000000  -0.0000000  -0.0000000  -0.0000000  -0.0000000  -0.0000000  -0.0000000
 NQMom=    0.0000000   0.0000000   0.0000000   0.0000000   0.0000000   0.0000000   2.0440000   0.0000000   0.0000000   0.0000000
 NMagM=    0.0000000   0.0000000   0.0000000   0.0000000   0.0000000   0.0000000   0.4037610   0.0000000   0.0000000   0.0000000
 AtZNuc=   6.0000000   6.0000000   6.0000000   6.0000000   8.0000000   8.0000000   7.0000000   6.0000000   6.0000000   6.0000000

  Atom        21          22          23          24          25          26          27          28          29          30
 IAtWgt=          12          12          12          16          12          14          12          12          12          12
 AtmWgt=  12.0000000  12.0000000  12.0000000  15.9949146  12.0000000  14.0030740  12.0000000  12.0000000  12.0000000  12.0000000
 NucSpn=           0           0           0           0           0           2           0           0           0           0
 AtZEff=  -0.0000000  -0.0000000  -0.0000000  -0.0000000  -0.0000000  -0.0000000  -0.0000000  -0.0000000  -0.0000000  -0.0000000
 NQMom=    0.0000000   0.0000000   0.0000000   0.0000000   0.0000000   2.0440000   0.0000000   0.0000000   0.0000000   0.0000000
 NMagM=    0.0000000   0.0000000   0.0000000   0.0000000   0.0000000   0.4037610   0.0000000   0.0000000   0.0000000   0.0000000
 AtZNuc=   6.0000000   6.0000000   6.0000000   8.0000000   6.0000000   7.0000000   6.0000000   6.0000000   6.0000000   6.0000000

  Atom        31          32          33          34          35          36          37          38          39          40
 IAtWgt=          12          12          12          14          12          12          12          12          12          12
 AtmWgt=  12.0000000  12.0000000  12.0000000  14.0030740  12.0000000  12.0000000  12.0000000  12.0000000  12.0000000  12.0000000
 NucSpn=           0           0           0           2           0           0           0           0           0           0
 AtZEff=  -0.0000000  -0.0000000  -0.0000000  -0.0000000  -0.0000000  -0.0000000  -0.0000000  -0.0000000  -0.0000000  -0.0000000
 NQMom=    0.0000000   0.0000000   0.0000000   2.0440000   0.0000000   0.0000000   0.0000000   0.0000000   0.0000000   0.0000000
 NMagM=    0.0000000   0.0000000   0.0000000   0.4037610   0.0000000   0.0000000   0.0000000   0.0000000   0.0000000   0.0000000
 AtZNuc=   6.0000000   6.0000000   6.0000000   7.0000000   6.0000000   6.0000000   6.0000000   6.0000000   6.0000000   6.0000000

  Atom        41          42          43          44          45          46          47          48          49          50
 IAtWgt=          16          12          12          16          16          12          12          12          12          12
 AtmWgt=  15.9949146  12.0000000  12.0000000  15.9949146  15.9949146  12.0000000  12.0000000  12.0000000  12.0000000  12.0000000
 NucSpn=           0           0           0           0           0           0           0           0           0           0
 AtZEff=  -0.0000000  -0.0000000  -0.0000000  -0.0000000  -0.0000000  -0.0000000  -0.0000000  -0.0000000  -0.0000000  -0.0000000
 NQMom=    0.0000000   0.0000000   0.0000000   0.0000000   0.0000000   0.0000000   0.0000000   0.0000000   0.0000000   0.0000000
 NMagM=    0.0000000   0.0000000   0.0000000   0.0000000   0.0000000   0.0000000   0.0000000   0.0000000   0.0000000   0.0000000
 AtZNuc=   8.0000000   6.0000000   6.0000000   8.0000000   8.0000000   6.0000000   6.0000000   6.0000000   6.0000000   6.0000000

  Atom        51          52          53          54          55          56          57          58          59          60
 IAtWgt=          12          12          12          12          12          12          12          12          12          12
 AtmWgt=  12.0000000  12.0000000  12.0000000  12.0000000  12.0000000  12.0000000  12.0000000  12.0000000  12.0000000  12.0000000
 NucSpn=           0           0           0           0           0           0           0           0           0           0
 AtZEff=  -0.0000000  -0.0000000  -0.0000000  -0.0000000  -0.0000000  -0.0000000  -0.0000000  -0.0000000  -0.0000000  -0.0000000
 NQMom=    0.0000000   0.0000000   0.0000000   0.0000000   0.0000000   0.0000000   0.0000000   0.0000000   0.0000000   0.0000000
 NMagM=    0.0000000   0.0000000   0.0000000   0.0000000   0.0000000   0.0000000   0.0000000   0.0000000   0.0000000   0.0000000
 AtZNuc=   6.0000000   6.0000000   6.0000000   6.0000000   6.0000000   6.0000000   6.0000000   6.0000000   6.0000000   6.0000000

  Atom        61          62          63          64          65          66          67          68          69          70
 IAtWgt=          12          12          12          12          12          12           1           1           1           1
 AtmWgt=  12.0000000  12.0000000  12.0000000  12.0000000  12.0000000  12.0000000   1.0078250   1.0078250   1.0078250   1.0078250
 NucSpn=           0           0           0           0           0           0           1           1           1           1
 AtZEff=  -0.0000000  -0.0000000  -0.0000000  -0.0000000  -0.0000000  -0.0000000  -0.0000000  -0.0000000  -0.0000000  -0.0000000
 NQMom=    0.0000000   0.0000000   0.0000000   0.0000000   0.0000000   0.0000000   0.0000000   0.0000000   0.0000000   0.0000000
 NMagM=    0.0000000   0.0000000   0.0000000   0.0000000   0.0000000   0.0000000   2.7928460   2.7928460   2.7928460   2.7928460
 AtZNuc=   6.0000000   6.0000000   6.0000000   6.0000000   6.0000000   6.0000000   1.0000000   1.0000000   1.0000000   1.0000000

  Atom        71          72          73          74          75          76          77          78          79          80
 IAtWgt=           1           1           1           1           1           1           1           1           1           1
 AtmWgt=   1.0078250   1.0078250   1.0078250   1.0078250   1.0078250   1.0078250   1.0078250   1.0078250   1.0078250   1.0078250
 NucSpn=           1           1           1           1           1           1           1           1           1           1
 AtZEff=  -0.0000000  -0.0000000  -0.0000000  -0.0000000  -0.0000000  -0.0000000  -0.0000000  -0.0000000  -0.0000000  -0.0000000
 NQMom=    0.0000000   0.0000000   0.0000000   0.0000000   0.0000000   0.0000000   0.0000000   0.0000000   0.0000000   0.0000000
 NMagM=    2.7928460   2.7928460   2.7928460   2.7928460   2.7928460   2.7928460   2.7928460   2.7928460   2.7928460   2.7928460
 AtZNuc=   1.0000000   1.0000000   1.0000000   1.0000000   1.0000000   1.0000000   1.0000000   1.0000000   1.0000000   1.0000000

  Atom        81          82          83          84          85          86          87          88          89          90
 IAtWgt=           1           1           1           1           1           1           1           1           1           1
 AtmWgt=   1.0078250   1.0078250   1.0078250   1.0078250   1.0078250   1.0078250   1.0078250   1.0078250   1.0078250   1.0078250
 NucSpn=           1           1           1           1           1           1           1           1           1           1
 AtZEff=  -0.0000000  -0.0000000  -0.0000000  -0.0000000  -0.0000000  -0.0000000  -0.0000000  -0.0000000  -0.0000000  -0.0000000
 NQMom=    0.0000000   0.0000000   0.0000000   0.0000000   0.0000000   0.0000000   0.0000000   0.0000000   0.0000000   0.0000000
 NMagM=    2.7928460   2.7928460   2.7928460   2.7928460   2.7928460   2.7928460   2.7928460   2.7928460   2.7928460   2.7928460
 AtZNuc=   1.0000000   1.0000000   1.0000000   1.0000000   1.0000000   1.0000000   1.0000000   1.0000000   1.0000000   1.0000000

  Atom        91          92          93          94          95          96          97          98          99         100
 IAtWgt=           1           1           1           1           1           1           1           1           1           1
 AtmWgt=   1.0078250   1.0078250   1.0078250   1.0078250   1.0078250   1.0078250   1.0078250   1.0078250   1.0078250   1.0078250
 NucSpn=           1           1           1           1           1           1           1           1           1           1
 AtZEff=  -0.0000000  -0.0000000  -0.0000000  -0.0000000  -0.0000000  -0.0000000  -0.0000000  -0.0000000  -0.0000000  -0.0000000
 NQMom=    0.0000000   0.0000000   0.0000000   0.0000000   0.0000000   0.0000000   0.0000000   0.0000000   0.0000000   0.0000000
 NMagM=    2.7928460   2.7928460   2.7928460   2.7928460   2.7928460   2.7928460   2.7928460   2.7928460   2.7928460   2.7928460
 AtZNuc=   1.0000000   1.0000000   1.0000000   1.0000000   1.0000000   1.0000000   1.0000000   1.0000000   1.0000000   1.0000000

  Atom       101         102         103         104         105         106         107         108         109         110
 IAtWgt=           1           1           1           1           1           1           1           1           1           1
 AtmWgt=   1.0078250   1.0078250   1.0078250   1.0078250   1.0078250   1.0078250   1.0078250   1.0078250   1.0078250   1.0078250
 NucSpn=           1           1           1           1           1           1           1           1           1           1
 AtZEff=  -0.0000000  -0.0000000  -0.0000000  -0.0000000  -0.0000000  -0.0000000  -0.0000000  -0.0000000  -0.0000000  -0.0000000
 NQMom=    0.0000000   0.0000000   0.0000000   0.0000000   0.0000000   0.0000000   0.0000000   0.0000000   0.0000000   0.0000000
 NMagM=    2.7928460   2.7928460   2.7928460   2.7928460   2.7928460   2.7928460   2.7928460   2.7928460   2.7928460   2.7928460
 AtZNuc=   1.0000000   1.0000000   1.0000000   1.0000000   1.0000000   1.0000000   1.0000000   1.0000000   1.0000000   1.0000000

  Atom       111         112         113         114         115         116         117         118         119         120
 IAtWgt=           1           1           1           1           1           1           1           1           1           1
 AtmWgt=   1.0078250   1.0078250   1.0078250   1.0078250   1.0078250   1.0078250   1.0078250   1.0078250   1.0078250   1.0078250
 NucSpn=           1           1           1           1           1           1           1           1           1           1
 AtZEff=  -0.0000000  -0.0000000  -0.0000000  -0.0000000  -0.0000000  -0.0000000  -0.0000000  -0.0000000  -0.0000000  -0.0000000
 NQMom=    0.0000000   0.0000000   0.0000000   0.0000000   0.0000000   0.0000000   0.0000000   0.0000000   0.0000000   0.0000000
 NMagM=    2.7928460   2.7928460   2.7928460   2.7928460   2.7928460   2.7928460   2.7928460   2.7928460   2.7928460   2.7928460
 AtZNuc=   1.0000000   1.0000000   1.0000000   1.0000000   1.0000000   1.0000000   1.0000000   1.0000000   1.0000000   1.0000000

  Atom       121         122         123         124         125         126         127         128         129         130
 IAtWgt=           1           1           1           1           1           1           1           1           1           1
 AtmWgt=   1.0078250   1.0078250   1.0078250   1.0078250   1.0078250   1.0078250   1.0078250   1.0078250   1.0078250   1.0078250
 NucSpn=           1           1           1           1           1           1           1           1           1           1
 AtZEff=  -0.0000000  -0.0000000  -0.0000000  -0.0000000  -0.0000000  -0.0000000  -0.0000000  -0.0000000  -0.0000000  -0.0000000
 NQMom=    0.0000000   0.0000000   0.0000000   0.0000000   0.0000000   0.0000000   0.0000000   0.0000000   0.0000000   0.0000000
 NMagM=    2.7928460   2.7928460   2.7928460   2.7928460   2.7928460   2.7928460   2.7928460   2.7928460   2.7928460   2.7928460
 AtZNuc=   1.0000000   1.0000000   1.0000000   1.0000000   1.0000000   1.0000000   1.0000000   1.0000000   1.0000000   1.0000000

  Atom       131         132         133         134         135         136         137         138         139         140
 IAtWgt=           1           1           1           1           1           1           1           1           1           1
 AtmWgt=   1.0078250   1.0078250   1.0078250   1.0078250   1.0078250   1.0078250   1.0078250   1.0078250   1.0078250   1.0078250
 NucSpn=           1           1           1           1           1           1           1           1           1           1
 AtZEff=  -0.0000000  -0.0000000  -0.0000000  -0.0000000  -0.0000000  -0.0000000  -0.0000000  -0.0000000  -0.0000000  -0.0000000
 NQMom=    0.0000000   0.0000000   0.0000000   0.0000000   0.0000000   0.0000000   0.0000000   0.0000000   0.0000000   0.0000000
 NMagM=    2.7928460   2.7928460   2.7928460   2.7928460   2.7928460   2.7928460   2.7928460   2.7928460   2.7928460   2.7928460
 AtZNuc=   1.0000000   1.0000000   1.0000000   1.0000000   1.0000000   1.0000000   1.0000000   1.0000000   1.0000000   1.0000000
 Leave Link  101 at Wed May  4 08:48:37 2022, MaxMem= 10066329600 cpu:               2.8 elap:               0.1
 (Enter /sw/apps/gaussian-16.0/g16/l202.exe)
 Stoichiometry    C55H74MgN4O6
 Framework group  C1[X(C55H74MgN4O6)]
 Deg. of freedom   414
 Full point group                 C1      NOp   1
 Largest Abelian subgroup         C1      NOp   1
 Largest concise Abelian subgroup C1      NOp   1
                         Standard orientation:                         
 ---------------------------------------------------------------------
 Center     Atomic      Atomic             Coordinates (Angstroms)
 Number     Number       Type             X           Y           Z
 ---------------------------------------------------------------------
      1         12           0       -4.248883    0.438237   -0.236271
      2          6           0       -2.870741   -2.663117    0.721183
      3          6           0       -1.106366    1.661901   -0.359085
      4          6           0       -5.649695    3.170588   -1.265051
      5          6           0       -7.430682   -0.970293    0.588929
      6          7           0       -2.180733   -0.504293    0.208002
      7          6           0       -1.886853   -1.787758    0.369202
      8          6           0       -0.443125   -2.076926    0.231262
      9          6           0        0.175902   -0.637705    0.077112
     10          6           0       -1.072534    0.238836   -0.105297
     11          6           0        0.990769   -0.078846    1.232056
     12          6           0       -0.045980   -3.063042   -0.858890
     13          6           0        1.227284   -3.849642   -0.622129
     14          6           0        2.189833   -3.960750   -1.816327
     15          8           0        1.859728   -3.872690   -2.982907
     16          8           0        3.448264   -4.235508   -1.333490
     17          7           0       -3.443054    2.222284   -0.741575
     18          6           0       -2.113637    2.526335   -0.738079
     19          6           0       -1.983687    3.887721   -1.303995
     20          6           0       -3.284377    4.291316   -1.659266
     21          6           0       -4.195008    3.250864   -1.218459
     22          6           0       -0.665070    4.608258   -1.586025
     23          6           0       -3.724723    5.559510   -2.340590
     24          8           0       -4.874232    5.716328   -2.842537
     25          6           0       -2.882817    6.706652   -2.519060
     26          7           0       -6.264667    1.006765   -0.216389
     27          6           0       -6.556800    2.209975   -0.775386
     28          6           0       -8.136184    2.382838   -0.733988
     29          6           0       -8.697748    1.014258   -0.223942
     30          6           0       -7.392813    0.307930    0.096458
     31          6           0       -8.604703    3.637010    0.087857
     32          6           0       -9.588496    0.299491   -1.263996
     33          6           0      -10.638459    1.038527   -2.069790
     34          7           0       -5.016219   -1.338333    0.613116
     35          6           0       -6.316849   -1.795598    0.887243
     36          6           0       -6.320761   -3.078236    1.417615
     37          6           0       -4.980087   -3.468838    1.321139
     38          6           0       -4.240050   -2.384802    0.816777
     39          6           0       -7.519102   -3.826447    1.958892
     40          6           0       -4.164211   -4.637026    1.380035
     41          8           0       -4.446919   -5.821204    1.605441
     42          6           0       -2.724021   -4.122624    1.006152
     43          6           0       -1.866768   -4.315236    2.163925
     44          8           0       -1.768677   -3.683274    3.238163
     45          8           0       -1.207096   -5.517864    1.944595
     46          6           0       -0.665672   -6.244094    3.120170
     47          6           0        4.515117   -4.200679   -2.369340
     48          6           0        5.854282   -3.891055   -1.749371
     49          6           0        7.049740   -3.713674   -2.389254
     50          6           0        7.159387   -3.610961   -3.876303
     51          6           0        8.411891   -3.508441   -1.655022
     52          6           0        9.216560   -2.257820   -2.032242
     53          6           0       10.044251   -1.741371   -0.846867
     54          6           0       10.439569   -0.238075   -0.876103
     55          6           0       11.945527   -0.119567   -1.080384
     56          6           0        9.968546    0.486367    0.460285
     57          6           0        9.443226    1.912855    0.178330
     58          6           0        8.923743    2.500924    1.550535
     59          6           0        7.980804    3.625157    1.415508
     60          6           0        8.701151    4.857128    0.905176
     61          6           0        7.149002    3.939483    2.696549
     62          6           0        5.778609    4.679846    2.498391
     63          6           0        4.651680    3.845659    3.016041
     64          6           0        3.271703    4.531681    2.924730
     65          6           0        2.676484    4.812035    1.522489
     66          6           0        3.193470    5.759026    3.779152
     67          1           0       -0.138774    2.152643   -0.478446
     68          1           0       -6.181937    4.032632   -1.673358
     69          1           0       -8.406609   -1.344407    0.907863
     70          1           0       -0.099911   -2.511879    1.170811
     71          1           0        0.803301   -0.559913   -0.810874
     72          1           0        0.353424    0.657421    1.721302
     73          1           0        1.897233    0.414367    0.879759
     74          1           0        1.244072   -0.750216    2.051352
     75          1           0        0.092829   -2.460261   -1.756832
     76          1           0       -0.866597   -3.756831   -1.039294
     77          1           0        1.106757   -4.897504   -0.346073
     78          1           0        1.668699   -3.404710    0.269476
     79          1           0       -0.352677    5.424045   -0.933483
     80          1           0       -0.495287    4.954276   -2.605240
     81          1           0        0.181055    3.943302   -1.415271
     82          1           0       -2.380078    6.904378   -1.571829
     83          1           0       -3.413980    7.587809   -2.880778
     84          1           0       -2.207123    6.483977   -3.345131
     85          1           0       -8.296017    2.462760   -1.809562
     86          1           0       -9.236363    0.954641    0.721758
     87          1           0       -7.878532    4.444197    0.185721
     88          1           0       -8.895709    3.257086    1.067723
     89          1           0       -9.405765    4.110046   -0.480663
     90          1           0      -10.050634   -0.554282   -0.768685
     91          1           0       -8.904043   -0.116531   -2.003182
     92          1           0      -10.850755    1.977893   -1.559427
     93          1           0      -11.570536    0.472643   -2.075934
     94          1           0      -10.341217    1.195131   -3.107192
     95          1           0       -7.300133   -4.887810    1.845327
     96          1           0       -8.393931   -3.598876    1.348110
     97          1           0       -7.606097   -3.447735    2.976848
     98          1           0       -2.347289   -4.718704    0.175577
     99          1           0        0.401247   -6.327472    2.914388
    100          1           0       -1.323863   -7.109091    3.029916
    101          1           0       -0.868552   -5.746792    4.068012
    102          1           0        4.334660   -3.399190   -3.086004
    103          1           0        4.556496   -5.122453   -2.949374
    104          1           0        5.904929   -4.015568   -0.667550
    105          1           0        7.744581   -4.428641   -4.298704
    106          1           0        7.662727   -2.661442   -4.059254
    107          1           0        6.241924   -3.676099   -4.462007
    108          1           0        8.990707   -4.399455   -1.898037
    109          1           0        8.232560   -3.438692   -0.582147
    110          1           0        8.492015   -1.535657   -2.409535
    111          1           0        9.932131   -2.573565   -2.791585
    112          1           0       10.972355   -2.307029   -0.935170
    113          1           0        9.639643   -2.015010    0.127980
    114          1           0        9.982649    0.208059   -1.759545
    115          1           0       12.556267   -0.692617   -0.382548
    116          1           0       12.162608    0.946914   -1.137827
    117          1           0       12.267187   -0.491562   -2.052611
    118          1           0       10.772833    0.476050    1.195062
    119          1           0        9.112997   -0.000066    0.929230
    120          1           0        8.602278    1.824067   -0.508761
    121          1           0       10.207703    2.547043   -0.270304
    122          1           0        9.843690    2.811663    2.045472
    123          1           0        8.407272    1.741097    2.136577
    124          1           0        7.318450    3.404448    0.578633
    125          1           0        9.754978    4.603263    0.791658
    126          1           0        8.498353    5.731082    1.524447
    127          1           0        8.401051    5.151788   -0.100873
    128          1           0        7.601190    4.591342    3.443346
    129          1           0        7.047960    2.994223    3.229338
    130          1           0        5.703904    4.988396    1.455261
    131          1           0        5.933932    5.660746    2.948390
    132          1           0        4.943678    3.676303    4.052652
    133          1           0        4.658498    2.902213    2.470254
    134          1           0        2.530678    3.870840    3.372572
    135          1           0        3.554920    5.048748    0.921734
    136          1           0        1.944858    5.618517    1.473020
    137          1           0        2.196044    3.931983    1.094711
    138          1           0        2.901010    6.641438    3.209650
    139          1           0        4.071521    6.034840    4.364233
    140          1           0        2.470258    5.468370    4.540299
 ---------------------------------------------------------------------
 Rotational constants (GHZ):           0.0360289           0.0147362           0.0118347
 Leave Link  202 at Wed May  4 08:48:37 2022, MaxMem= 10066329600 cpu:               0.3 elap:               0.0
 (Enter /sw/apps/gaussian-16.0/g16/l301.exe)
 Standard basis: def2SVP (5D, 7F)
 Ernie: Thresh=  0.10000D-02 Tol=  0.10000D-05 Strict=F.
 There are  1364 symmetry adapted cartesian basis functions of A   symmetry.
 There are  1298 symmetry adapted basis functions of A   symmetry.
  1298 basis functions,  2180 primitive gaussians,  1364 cartesian basis functions
   246 alpha electrons      246 beta electrons
       nuclear repulsion energy      9818.3284066940 Hartrees.
 IExCor= 1009 DFT=T Ex+Corr=PBE1PBE ExCW=0 ScaHFX=  0.250000
 ScaDFX=  0.750000  0.750000  1.000000  1.000000 ScalE2=  1.000000  1.000000
 IRadAn=      5 IRanWt=     -1 IRanGd=            0 ICorTp=0 IEmpDi=  4
 NAtoms=  140 NActive=  140 NUniq=  140 SFac= 1.00D+00 NAtFMM=   60 NAOKFM=T Big=T
 Integral buffers will be    131072 words long.
 Regular integral format.
 Two-electron integral symmetry is turned on.
 Leave Link  301 at Wed May  4 08:48:37 2022, MaxMem= 10066329600 cpu:               1.3 elap:               0.1
 (Enter /sw/apps/gaussian-16.0/g16/l302.exe)
 NPDir=0 NMtPBC=     1 NCelOv=     1 NCel=       1 NClECP=     1 NCelD=      1
         NCelK=      1 NCelE2=     1 NClLst=     1 CellRange=     0.0.
 One-electron integrals computed using PRISM.
 One-electron integral symmetry used in STVInt
   1 Symmetry operations used in ECPInt.
 ECPInt:  NShTT=  192510 NPrTT=  683786 LenC2=  103470 LenP2D=  221209.
 LDataN:  DoStor=T MaxTD1= 4 Len=   56
 NBasis=  1298 RedAO= T EigKep=  2.65D-04  NBF=  1298
 NBsUse=  1298 1.00D-06 EigRej= -1.00D+00 NBFU=  1298
 Precomputing XC quadrature grid using
 IXCGrd= 4 IRadAn=           5 IRanWt=          -1 IRanGd=           0 AccXCQ= 0.00D+00.
 Generated NRdTot=       0 NPtTot=           0 NUsed=           0 NTot=          32
 NSgBfM=  1190  1187  1187  1190  1190 MxSgAt=   140 MxSgA2=   140.
 Leave Link  302 at Wed May  4 08:48:40 2022, MaxMem= 10066329600 cpu:              80.8 elap:               3.4
 (Enter /sw/apps/gaussian-16.0/g16/l303.exe)
 DipDrv:  MaxL=1.
 Leave Link  303 at Wed May  4 08:48:41 2022, MaxMem= 10066329600 cpu:               7.0 elap:               0.3
 (Enter /sw/apps/gaussian-16.0/g16/l308.exe)
 Leave Link  308 at Wed May  4 08:48:41 2022, MaxMem= 10066329600 cpu:               8.8 elap:               0.4
 (Enter /sw/apps/gaussian-16.0/g16/l401.exe)
 ExpMin= 3.36D-02 ExpMax= 4.95D+03 ExpMxC= 7.45D+02 IAcc=3 IRadAn=         5 AccDes= 0.00D+00
 Harris functional with IExCor= 1009 and IRadAn=       5 diagonalized for initial guess.
 HarFok:  IExCor= 1009 AccDes= 0.00D+00 IRadAn=         5 IDoV= 1 UseB2=F ITyADJ=14
 ICtDFT=  3500011 ScaDFX=  1.000000  1.000000  1.000000  1.000000
 FoFCou: FMM=F IPFlag=           0 FMFlag=      100000 FMFlg1=        2001
         NFxFlg=           0 DoJE=T BraDBF=F KetDBF=T FulRan=T
         wScrn=  0.000000 ICntrl=       500 IOpCl=  0 I1Cent=   200000004 NGrid=           0
         NMat0=    1 NMatS0=      1 NMatT0=    0 NMatD0=    1 NMtDS0=    0 NMtDT0=    0
 Petite list used in FoFCou.
 Harris En= -3006.20676447663    
 JPrj=0 DoOrth=F DoCkMO=F.
 Leave Link  401 at Wed May  4 08:48:47 2022, MaxMem= 10066329600 cpu:             133.7 elap:               5.6
 (Enter /sw/apps/gaussian-16.0/g16/l502.exe)
 Integral symmetry usage will be decided dynamically.
 Closed shell SCF:
 Using DIIS extrapolation, IDIIS=  1040.
 NGot= 10066329600 LenX= 10062561258 LenY= 10060699398
 Requested convergence on RMS density matrix=1.00D-08 within 128 cycles.
 Requested convergence on MAX density matrix=1.00D-06.
 Requested convergence on             energy=1.00D-06.
 No special actions if energy rises.
 Fock matrices will be formed incrementally for  20 cycles.

 Cycle   1  Pass 1  IDiag  1:
 FoFJK:  IHMeth= 1 ICntrl=       0 DoSepK=F KAlg= 0 I1Cent=           0 FoldK=F
 IRaf= 540000000 NMat=       1 IRICut=       1 DoRegI=T DoRafI=F ISym2E= 0 IDoP0=0 IntGTp=1.
 FoFCou: FMM=T IPFlag=           0 FMFlag=      100000 FMFlg1=        2001
         NFxFlg=           0 DoJE=F BraDBF=F KetDBF=F FulRan=T
         wScrn=  0.000000 ICntrl=         0 IOpCl=  0 I1Cent=           0 NGrid=           0
         NMat0=    1 NMatS0=      1 NMatT0=    0 NMatD0=    1 NMtDS0=    0 NMtDT0=    0
 Symmetry not used in FoFCou.
 FMM levels:  10  Number of levels for PrismC:   9
 E= -3003.82963130425    
 DIIS: error= 2.25D-02 at cycle   1 NSaved=   1.
 NSaved= 1 IEnMin= 1 EnMin= -3003.82963130425     IErMin= 1 ErrMin= 2.25D-02
 ErrMax= 2.25D-02  0.00D+00 EMaxC= 1.00D-01 BMatC= 1.48D+00 BMatP= 1.48D+00
 IDIUse=3 WtCom= 7.75D-01 WtEn= 2.25D-01
 Coeff-Com:  0.100D+01
 Coeff-En:   0.100D+01
 Coeff:      0.100D+01
 Gap=     0.060 Goal=   None    Shift=    0.000
 GapD=    0.060 DampG=0.500 DampE=0.500 DampFc=0.2500 IDamp=-1.
 Damping current iteration by 2.50D-01
 RMSDP=2.93D-03 MaxDP=7.84D-01              OVMax= 5.02D-01

 Cycle   2  Pass 1  IDiag  1:
 RMSU=  7.26D-04    CP:  9.89D-01
 E= -3004.38782299152     Delta-E=       -0.558191687272 Rises=F Damp=T
 DIIS: error= 8.51D-03 at cycle   2 NSaved=   2.
 NSaved= 2 IEnMin= 2 EnMin= -3004.38782299152     IErMin= 2 ErrMin= 8.51D-03
 ErrMax= 8.51D-03  0.00D+00 EMaxC= 1.00D-01 BMatC= 3.70D-01 BMatP= 1.48D+00
 IDIUse=3 WtCom= 9.15D-01 WtEn= 8.51D-02
 Coeff-Com: -0.765D+00 0.177D+01
 Coeff-En:   0.000D+00 0.100D+01
 Coeff:     -0.700D+00 0.170D+01
 Gap=     0.172 Goal=   None    Shift=    0.000
 RMSDP=1.07D-03 MaxDP=7.16D-02 DE=-5.58D-01 OVMax= 5.66D-01

 Cycle   3  Pass 1  IDiag  1:
 RMSU=  9.57D-04    CP:  9.63D-01  1.58D+00
 E= -3005.16454396419     Delta-E=       -0.776720972672 Rises=F Damp=F
 DIIS: error= 1.53D-02 at cycle   3 NSaved=   3.
 NSaved= 3 IEnMin= 3 EnMin= -3005.16454396419     IErMin= 2 ErrMin= 8.51D-03
 ErrMax= 1.53D-02  0.00D+00 EMaxC= 1.00D-01 BMatC= 2.14D-01 BMatP= 3.70D-01
 IDIUse=3 WtCom= 8.47D-01 WtEn= 1.53D-01
 Coeff-Com: -0.520D+00 0.110D+01 0.417D+00
 Coeff-En:   0.000D+00 0.000D+00 0.100D+01
 Coeff:     -0.441D+00 0.935D+00 0.506D+00
 Gap=     0.061 Goal=   None    Shift=    0.000
 RMSDP=8.52D-04 MaxDP=1.01D-01 DE=-7.77D-01 OVMax= 5.16D-01

 Cycle   4  Pass 1  IDiag  1:
 RMSU=  5.29D-04    CP:  9.68D-01  1.99D+00  3.77D-01
 E= -3005.27340671457     Delta-E=       -0.108862750376 Rises=F Damp=F
 DIIS: error= 8.60D-03 at cycle   4 NSaved=   4.
 NSaved= 4 IEnMin= 4 EnMin= -3005.27340671457     IErMin= 2 ErrMin= 8.51D-03
 ErrMax= 8.60D-03  0.00D+00 EMaxC= 1.00D-01 BMatC= 9.21D-02 BMatP= 2.14D-01
 IDIUse=3 WtCom= 9.14D-01 WtEn= 8.60D-02
 Coeff-Com: -0.172D+00 0.372D+00 0.374D+00 0.426D+00
 Coeff-En:   0.000D+00 0.000D+00 0.384D+00 0.616D+00
 Coeff:     -0.157D+00 0.340D+00 0.375D+00 0.442D+00
 Gap=     0.067 Goal=   None    Shift=    0.000
 RMSDP=5.18D-04 MaxDP=3.60D-02 DE=-1.09D-01 OVMax= 3.77D-01

 Cycle   5  Pass 1  IDiag  1:
 RMSU=  2.29D-04    CP:  9.68D-01  1.78D+00  6.71D-01  3.59D-01
 E= -3005.37183450722     Delta-E=       -0.098427792651 Rises=F Damp=F
 DIIS: error= 2.74D-03 at cycle   5 NSaved=   5.
 NSaved= 5 IEnMin= 5 EnMin= -3005.37183450722     IErMin= 5 ErrMin= 2.74D-03
 ErrMax= 2.74D-03  0.00D+00 EMaxC= 1.00D-01 BMatC= 1.65D-02 BMatP= 9.21D-02
 IDIUse=3 WtCom= 9.73D-01 WtEn= 2.74D-02
 Coeff-Com: -0.335D-01 0.785D-01 0.220D+00 0.354D+00 0.381D+00
 Coeff-En:   0.000D+00 0.000D+00 0.000D+00 0.199D+00 0.801D+00
 Coeff:     -0.326D-01 0.764D-01 0.214D+00 0.350D+00 0.392D+00
 Gap=     0.073 Goal=   None    Shift=    0.000
 RMSDP=2.05D-04 MaxDP=3.21D-02 DE=-9.84D-02 OVMax= 1.43D-01

 Cycle   6  Pass 1  IDiag  1:
 RMSU=  8.86D-05    CP:  9.67D-01  1.78D+00  6.18D-01  5.69D-01  3.97D-01
 E= -3005.39364042485     Delta-E=       -0.021805917630 Rises=F Damp=F
 DIIS: error= 7.16D-04 at cycle   6 NSaved=   6.
 NSaved= 6 IEnMin= 6 EnMin= -3005.39364042485     IErMin= 6 ErrMin= 7.16D-04
 ErrMax= 7.16D-04  0.00D+00 EMaxC= 1.00D-01 BMatC= 9.60D-04 BMatP= 1.65D-02
 IDIUse=3 WtCom= 9.93D-01 WtEn= 7.16D-03
 Coeff-Com:  0.599D-02-0.106D-01 0.419D-01 0.938D-01 0.221D+00 0.648D+00
 Coeff-En:   0.000D+00 0.000D+00 0.000D+00 0.000D+00 0.423D-01 0.958D+00
 Coeff:      0.595D-02-0.105D-01 0.416D-01 0.932D-01 0.220D+00 0.650D+00
 Gap=     0.077 Goal=   None    Shift=    0.000
 RMSDP=4.82D-05 MaxDP=8.89D-03 DE=-2.18D-02 OVMax= 2.45D-02

 Cycle   7  Pass 1  IDiag  1:
 RMSU=  3.24D-05    CP:  9.67D-01  1.79D+00  6.27D-01  5.42D-01  5.11D-01
                    CP:  8.05D-01
 E= -3005.39453698442     Delta-E=       -0.000896559564 Rises=F Damp=F
 DIIS: error= 3.68D-04 at cycle   7 NSaved=   7.
 NSaved= 7 IEnMin= 7 EnMin= -3005.39453698442     IErMin= 7 ErrMin= 3.68D-04
 ErrMax= 3.68D-04  0.00D+00 EMaxC= 1.00D-01 BMatC= 1.90D-04 BMatP= 9.60D-04
 IDIUse=3 WtCom= 9.96D-01 WtEn= 3.68D-03
 Coeff-Com:  0.475D-02-0.996D-02-0.943D-04 0.108D-01 0.837D-01 0.396D+00
 Coeff-Com:  0.515D+00
 Coeff-En:   0.000D+00 0.000D+00 0.000D+00 0.000D+00 0.000D+00 0.134D+00
 Coeff-En:   0.866D+00
 Coeff:      0.474D-02-0.992D-02-0.940D-04 0.108D-01 0.834D-01 0.395D+00
 Coeff:      0.516D+00
 Gap=     0.078 Goal=   None    Shift=    0.000
 RMSDP=2.25D-05 MaxDP=2.62D-03 DE=-8.97D-04 OVMax= 8.56D-03

 Cycle   8  Pass 1  IDiag  1:
 RMSU=  1.33D-05    CP:  9.67D-01  1.79D+00  6.27D-01  5.47D-01  4.98D-01
                    CP:  8.54D-01  4.72D-01
 E= -3005.39469444620     Delta-E=       -0.000157461787 Rises=F Damp=F
 DIIS: error= 1.15D-04 at cycle   8 NSaved=   8.
 NSaved= 8 IEnMin= 8 EnMin= -3005.39469444620     IErMin= 8 ErrMin= 1.15D-04
 ErrMax= 1.15D-04  0.00D+00 EMaxC= 1.00D-01 BMatC= 3.61D-05 BMatP= 1.90D-04
 IDIUse=3 WtCom= 9.99D-01 WtEn= 1.15D-03
 Coeff-Com:  0.189D-02-0.415D-02-0.417D-02-0.333D-02 0.332D-01 0.198D+00
 Coeff-Com:  0.358D+00 0.420D+00
 Coeff-En:   0.000D+00 0.000D+00 0.000D+00 0.000D+00 0.000D+00 0.000D+00
 Coeff-En:   0.184D+00 0.816D+00
 Coeff:      0.189D-02-0.415D-02-0.417D-02-0.333D-02 0.332D-01 0.198D+00
 Coeff:      0.358D+00 0.421D+00
 Gap=     0.078 Goal=   None    Shift=    0.000
 RMSDP=1.00D-05 MaxDP=1.34D-03 DE=-1.57D-04 OVMax= 4.80D-03

 Cycle   9  Pass 1  IDiag  1:
 RMSU=  5.26D-06    CP:  9.67D-01  1.79D+00  6.27D-01  5.46D-01  5.06D-01
                    CP:  8.54D-01  6.13D-01  4.80D-01
 E= -3005.39473522134     Delta-E=       -0.000040775138 Rises=F Damp=F
 DIIS: error= 3.79D-05 at cycle   9 NSaved=   9.
 NSaved= 9 IEnMin= 9 EnMin= -3005.39473522134     IErMin= 9 ErrMin= 3.79D-05
 ErrMax= 3.79D-05  0.00D+00 EMaxC= 1.00D-01 BMatC= 3.45D-06 BMatP= 3.61D-05
 IDIUse=1 WtCom= 1.00D+00 WtEn= 0.00D+00
 Coeff-Com:  0.447D-03-0.101D-02-0.270D-02-0.421D-02 0.986D-02 0.739D-01
 Coeff-Com:  0.171D+00 0.272D+00 0.481D+00
 Coeff:      0.447D-03-0.101D-02-0.270D-02-0.421D-02 0.986D-02 0.739D-01
 Coeff:      0.171D+00 0.272D+00 0.481D+00
 Gap=     0.078 Goal=   None    Shift=    0.000
 RMSDP=2.94D-06 MaxDP=5.83D-04 DE=-4.08D-05 OVMax= 1.60D-03

 Cycle  10  Pass 1  IDiag  1:
 RMSU=  1.95D-06    CP:  9.67D-01  1.79D+00  6.28D-01  5.46D-01  5.06D-01
                    CP:  8.61D-01  5.97D-01  5.80D-01  7.24D-01
 E= -3005.39473862356     Delta-E=       -0.000003402223 Rises=F Damp=F
 DIIS: error= 1.61D-05 at cycle  10 NSaved=  10.
 NSaved=10 IEnMin=10 EnMin= -3005.39473862356     IErMin=10 ErrMin= 1.61D-05
 ErrMax= 1.61D-05  0.00D+00 EMaxC= 1.00D-01 BMatC= 5.00D-07 BMatP= 3.45D-06
 IDIUse=1 WtCom= 1.00D+00 WtEn= 0.00D+00
 Coeff-Com: -0.129D-04 0.480D-04-0.102D-02-0.229D-02 0.495D-03 0.126D-01
 Coeff-Com:  0.517D-01 0.102D+00 0.305D+00 0.532D+00
 Coeff:     -0.129D-04 0.480D-04-0.102D-02-0.229D-02 0.495D-03 0.126D-01
 Coeff:      0.517D-01 0.102D+00 0.305D+00 0.532D+00
 Gap=     0.078 Goal=   None    Shift=    0.000
 RMSDP=1.13D-06 MaxDP=1.13D-04 DE=-3.40D-06 OVMax= 5.05D-04

 Cycle  11  Pass 1  IDiag  1:
 RMSU=  7.18D-07    CP:  9.67D-01  1.79D+00  6.28D-01  5.46D-01  5.06D-01
                    CP:  8.62D-01  6.04D-01  5.81D-01  8.20D-01  6.64D-01
 E= -3005.39473915719     Delta-E=       -0.000000533622 Rises=F Damp=F
 DIIS: error= 6.87D-06 at cycle  11 NSaved=  11.
 NSaved=11 IEnMin=11 EnMin= -3005.39473915719     IErMin=11 ErrMin= 6.87D-06
 ErrMax= 6.87D-06  0.00D+00 EMaxC= 1.00D-01 BMatC= 1.00D-07 BMatP= 5.00D-07
 IDIUse=1 WtCom= 1.00D+00 WtEn= 0.00D+00
 Coeff-Com: -0.488D-04 0.142D-03-0.246D-03-0.878D-03-0.133D-02-0.411D-02
 Coeff-Com:  0.749D-02 0.214D-01 0.118D+00 0.353D+00 0.506D+00
 Coeff:     -0.488D-04 0.142D-03-0.246D-03-0.878D-03-0.133D-02-0.411D-02
 Coeff:      0.749D-02 0.214D-01 0.118D+00 0.353D+00 0.506D+00
 Gap=     0.078 Goal=   None    Shift=    0.000
 RMSDP=4.56D-07 MaxDP=3.81D-05 DE=-5.34D-07 OVMax= 1.93D-04

 Cycle  12  Pass 1  IDiag  1:
 RMSU=  2.43D-07    CP:  9.67D-01  1.79D+00  6.28D-01  5.46D-01  5.06D-01
                    CP:  8.62D-01  6.08D-01  5.90D-01  8.18D-01  7.88D-01
                    CP:  6.78D-01
 E= -3005.39473926751     Delta-E=       -0.000000110320 Rises=F Damp=F
 DIIS: error= 1.98D-06 at cycle  12 NSaved=  12.
 NSaved=12 IEnMin=12 EnMin= -3005.39473926751     IErMin=12 ErrMin= 1.98D-06
 ErrMax= 1.98D-06  0.00D+00 EMaxC= 1.00D-01 BMatC= 1.01D-08 BMatP= 1.00D-07
 IDIUse=1 WtCom= 1.00D+00 WtEn= 0.00D+00
 Coeff-Com: -0.232D-05 0.327D-04 0.404D-04-0.808D-04-0.796D-03-0.449D-02
 Coeff-Com: -0.399D-02-0.702D-02 0.101D-01 0.102D+00 0.282D+00 0.623D+00
 Coeff:     -0.232D-05 0.327D-04 0.404D-04-0.808D-04-0.796D-03-0.449D-02
 Coeff:     -0.399D-02-0.702D-02 0.101D-01 0.102D+00 0.282D+00 0.623D+00
 Gap=     0.078 Goal=   None    Shift=    0.000
 RMSDP=1.58D-07 MaxDP=2.11D-05 DE=-1.10D-07 OVMax= 5.36D-05

 Cycle  13  Pass 1  IDiag  1:
 RMSU=  9.89D-08    CP:  9.67D-01  1.79D+00  6.28D-01  5.46D-01  5.06D-01
                    CP:  8.62D-01  6.08D-01  5.91D-01  8.32D-01  7.97D-01
                    CP:  7.61D-01  7.12D-01
 E= -3005.39473927784     Delta-E=       -0.000000010335 Rises=F Damp=F
 DIIS: error= 6.82D-07 at cycle  13 NSaved=  13.
 NSaved=13 IEnMin=13 EnMin= -3005.39473927784     IErMin=13 ErrMin= 6.82D-07
 ErrMax= 6.82D-07  0.00D+00 EMaxC= 1.00D-01 BMatC= 1.63D-09 BMatP= 1.01D-08
 IDIUse=1 WtCom= 1.00D+00 WtEn= 0.00D+00
 Coeff-Com:  0.724D-05-0.224D-05 0.582D-04 0.682D-04-0.357D-03-0.242D-02
 Coeff-Com: -0.376D-02-0.806D-02-0.112D-01 0.125D-01 0.987D-01 0.369D+00
 Coeff-Com:  0.546D+00
 Coeff:      0.724D-05-0.224D-05 0.582D-04 0.682D-04-0.357D-03-0.242D-02
 Coeff:     -0.376D-02-0.806D-02-0.112D-01 0.125D-01 0.987D-01 0.369D+00
 Coeff:      0.546D+00
 Gap=     0.078 Goal=   None    Shift=    0.000
 RMSDP=5.65D-08 MaxDP=5.88D-06 DE=-1.03D-08 OVMax= 1.70D-05

 Cycle  14  Pass 1  IDiag  1:
 RMSU=  3.36D-08    CP:  9.67D-01  1.79D+00  6.28D-01  5.46D-01  5.06D-01
                    CP:  8.62D-01  6.08D-01  5.92D-01  8.34D-01  8.03D-01
                    CP:  7.66D-01  7.82D-01  6.45D-01
 E= -3005.39473927928     Delta-E=       -0.000000001442 Rises=F Damp=F
 DIIS: error= 2.93D-07 at cycle  14 NSaved=  14.
 NSaved=14 IEnMin=14 EnMin= -3005.39473927928     IErMin=14 ErrMin= 2.93D-07
 ErrMax= 2.93D-07  0.00D+00 EMaxC= 1.00D-01 BMatC= 1.92D-10 BMatP= 1.63D-09
 IDIUse=1 WtCom= 1.00D+00 WtEn= 0.00D+00
 Coeff-Com:  0.558D-05-0.609D-05 0.328D-04 0.518D-04-0.133D-03-0.101D-02
 Coeff-Com: -0.183D-02-0.422D-02-0.763D-02-0.249D-02 0.321D-01 0.161D+00
 Coeff-Com:  0.334D+00 0.490D+00
 Coeff:      0.558D-05-0.609D-05 0.328D-04 0.518D-04-0.133D-03-0.101D-02
 Coeff:     -0.183D-02-0.422D-02-0.763D-02-0.249D-02 0.321D-01 0.161D+00
 Coeff:      0.334D+00 0.490D+00
 Gap=     0.078 Goal=   None    Shift=    0.000
 RMSDP=1.78D-08 MaxDP=1.95D-06 DE=-1.44D-09 OVMax= 5.04D-06

 Cycle  15  Pass 1  IDiag  1:
 RMSU=  1.24D-08    CP:  9.67D-01  1.79D+00  6.28D-01  5.46D-01  5.06D-01
                    CP:  8.62D-01  6.08D-01  5.92D-01  8.34D-01  8.05D-01
                    CP:  7.70D-01  7.88D-01  7.21D-01  7.50D-01
 E= -3005.39473927936     Delta-E=       -0.000000000076 Rises=F Damp=F
 DIIS: error= 1.11D-07 at cycle  15 NSaved=  15.
 NSaved=15 IEnMin=15 EnMin= -3005.39473927936     IErMin=15 ErrMin= 1.11D-07
 ErrMax= 1.11D-07  0.00D+00 EMaxC= 1.00D-01 BMatC= 1.83D-11 BMatP= 1.92D-10
 IDIUse=1 WtCom= 1.00D+00 WtEn= 0.00D+00
 Coeff-Com:  0.234D-05-0.335D-05 0.101D-04 0.183D-04-0.215D-04-0.197D-03
 Coeff-Com: -0.420D-03-0.116D-02-0.239D-02-0.275D-02 0.465D-02 0.374D-01
 Coeff-Com:  0.118D+00 0.269D+00 0.578D+00
 Coeff:      0.234D-05-0.335D-05 0.101D-04 0.183D-04-0.215D-04-0.197D-03
 Coeff:     -0.420D-03-0.116D-02-0.239D-02-0.275D-02 0.465D-02 0.374D-01
 Coeff:      0.118D+00 0.269D+00 0.578D+00
 Gap=     0.078 Goal=   None    Shift=    0.000
 RMSDP=5.96D-09 MaxDP=4.91D-07 DE=-7.64D-11 OVMax= 2.02D-06

 SCF Done:  E(RPBE1PBE) =  -3005.39473928     A.U. after   15 cycles
            NFock= 15  Conv=0.60D-08     -V/T= 2.0100
 KE= 2.975723771321D+03 PE=-2.662798964187D+04 EE= 1.082854272458D+04
 Leave Link  502 at Wed May  4 08:53:18 2022, MaxMem= 10066329600 cpu:            6458.2 elap:             270.8
 (Enter /sw/apps/gaussian-16.0/g16/l801.exe)
 DoSCS=F DFT=T ScalE2(SS,OS)=  1.000000  1.000000
 ExpMin= 3.36D-02 ExpMax= 4.95D+03 ExpMxC= 7.45D+02 IAcc=3 IRadAn=         5 AccDes= 0.00D+00
 HarFok:  IExCor=  205 AccDes= 0.00D+00 IRadAn=         5 IDoV=-2 UseB2=F ITyADJ=14
 ICtDFT= 12500011 ScaDFX=  1.000000  1.000000  1.000000  1.000000
 GSVD:  LWork=       -5460 too small for GESVD, short by       25550 words or       25550 for optimal perf.
 Largest valence mixing into a core orbital is  1.64D-04
 Largest core mixing into a valence orbital is  5.49D-05
 Range of M.O.s used for correlation:    71  1298
 NBasis=  1298 NAE=   246 NBE=   246 NFC=    70 NFV=     0
 NROrb=   1228 NOA=   176 NOB=   176 NVA=  1052 NVB=  1052

 **** Warning!!: The smallest alpha delta epsilon is  0.77795861D-01

 Leave Link  801 at Wed May  4 08:53:18 2022, MaxMem= 10066329600 cpu:               7.3 elap:               0.3
 (Enter /sw/apps/gaussian-16.0/g16/l914.exe)
 RHF ground state
 Two-electron integrals replicated using symmetry.
 MDV= 10066329600 DFT=T DoStab=F Mixed=T DoRPA=T DoScal=F NonHer=T
 Making orbital integer symmetry assigments:
 Orbital symmetries:
       Occupied  (A) (A) (A) (A) (A) (A) (A) (A) (A) (A) (A) (A)
                 (A) (A) (A) (A) (A) (A) (A) (A) (A) (A) (A) (A)
                 (A) (A) (A) (A) (A) (A) (A) (A) (A) (A) (A) (A)
                 (A) (A) (A) (A) (A) (A) (A) (A) (A) (A) (A) (A)
                 (A) (A) (A) (A) (A) (A) (A) (A) (A) (A) (A) (A)
                 (A) (A) (A) (A) (A) (A) (A) (A) (A) (A) (A) (A)
                 (A) (A) (A) (A) (A) (A) (A) (A) (A) (A) (A) (A)
                 (A) (A) (A) (A) (A) (A) (A) (A) (A) (A) (A) (A)
                 (A) (A) (A) (A) (A) (A) (A) (A) (A) (A) (A) (A)
                 (A) (A) (A) (A) (A) (A) (A) (A) (A) (A) (A) (A)
                 (A) (A) (A) (A) (A) (A) (A) (A) (A) (A) (A) (A)
                 (A) (A) (A) (A) (A) (A) (A) (A) (A) (A) (A) (A)
                 (A) (A) (A) (A) (A) (A) (A) (A) (A) (A) (A) (A)
                 (A) (A) (A) (A) (A) (A) (A) (A) (A) (A) (A) (A)
                 (A) (A) (A) (A) (A) (A) (A) (A) (A) (A) (A) (A)
                 (A) (A) (A) (A) (A) (A) (A) (A) (A) (A) (A) (A)
                 (A) (A) (A) (A) (A) (A) (A) (A) (A) (A) (A) (A)
                 (A) (A) (A) (A) (A) (A) (A) (A) (A) (A) (A) (A)
                 (A) (A) (A) (A) (A) (A) (A) (A) (A) (A) (A) (A)
                 (A) (A) (A) (A) (A) (A) (A) (A) (A) (A) (A) (A)
                 (A) (A) (A) (A) (A) (A)
       Virtual   (A) (A) (A) (A) (A) (A) (A) (A) (A) (A) (A) (A)
                 (A) (A) (A) (A) (A) (A) (A) (A) (A) (A) (A) (A)
                 (A) (A) (A) (A) (A) (A) (A) (A) (A) (A) (A) (A)
                 (A) (A) (A) (A) (A) (A) (A) (A) (A) (A) (A) (A)
                 (A) (A) (A) (A) (A) (A) (A) (A) (A) (A) (A) (A)
                 (A) (A) (A) (A) (A) (A) (A) (A) (A) (A) (A) (A)
                 (A) (A) (A) (A) (A) (A) (A) (A) (A) (A) (A) (A)
                 (A) (A) (A) (A) (A) (A) (A) (A) (A) (A) (A) (A)
                 (A) (A) (A) (A) (A) (A) (A) (A) (A) (A) (A) (A)
                 (A) (A) (A) (A) (A) (A) (A) (A) (A) (A) (A) (A)
                 (A) (A) (A) (A) (A) (A) (A) (A) (A) (A) (A) (A)
                 (A) (A) (A) (A) (A) (A) (A) (A) (A) (A) (A) (A)
                 (A) (A) (A) (A) (A) (A) (A) (A) (A) (A) (A) (A)
                 (A) (A) (A) (A) (A) (A) (A) (A) (A) (A) (A) (A)
                 (A) (A) (A) (A) (A) (A) (A) (A) (A) (A) (A) (A)
                 (A) (A) (A) (A) (A) (A) (A) (A) (A) (A) (A) (A)
                 (A) (A) (A) (A) (A) (A) (A) (A) (A) (A) (A) (A)
                 (A) (A) (A) (A) (A) (A) (A) (A) (A) (A) (A) (A)
                 (A) (A) (A) (A) (A) (A) (A) (A) (A) (A) (A) (A)
                 (A) (A) (A) (A) (A) (A) (A) (A) (A) (A) (A) (A)
                 (A) (A) (A) (A) (A) (A) (A) (A) (A) (A) (A) (A)
                 (A) (A) (A) (A) (A) (A) (A) (A) (A) (A) (A) (A)
                 (A) (A) (A) (A) (A) (A) (A) (A) (A) (A) (A) (A)
                 (A) (A) (A) (A) (A) (A) (A) (A) (A) (A) (A) (A)
                 (A) (A) (A) (A) (A) (A) (A) (A) (A) (A) (A) (A)
                 (A) (A) (A) (A) (A) (A) (A) (A) (A) (A) (A) (A)
                 (A) (A) (A) (A) (A) (A) (A) (A) (A) (A) (A) (A)
                 (A) (A) (A) (A) (A) (A) (A) (A) (A) (A) (A) (A)
                 (A) (A) (A) (A) (A) (A) (A) (A) (A) (A) (A) (A)
                 (A) (A) (A) (A) (A) (A) (A) (A) (A) (A) (A) (A)
                 (A) (A) (A) (A) (A) (A) (A) (A) (A) (A) (A) (A)
                 (A) (A) (A) (A) (A) (A) (A) (A) (A) (A) (A) (A)
                 (A) (A) (A) (A) (A) (A) (A) (A) (A) (A) (A) (A)
                 (A) (A) (A) (A) (A) (A) (A) (A) (A) (A) (A) (A)
                 (A) (A) (A) (A) (A) (A) (A) (A) (A) (A) (A) (A)
                 (A) (A) (A) (A) (A) (A) (A) (A) (A) (A) (A) (A)
                 (A) (A) (A) (A) (A) (A) (A) (A) (A) (A) (A) (A)
                 (A) (A) (A) (A) (A) (A) (A) (A) (A) (A) (A) (A)
                 (A) (A) (A) (A) (A) (A) (A) (A) (A) (A) (A) (A)
                 (A) (A) (A) (A) (A) (A) (A) (A) (A) (A) (A) (A)
                 (A) (A) (A) (A) (A) (A) (A) (A) (A) (A) (A) (A)
                 (A) (A) (A) (A) (A) (A) (A) (A) (A) (A) (A) (A)
                 (A) (A) (A) (A) (A) (A) (A) (A) (A) (A) (A) (A)
                 (A) (A) (A) (A) (A) (A) (A) (A) (A) (A) (A) (A)
                 (A) (A) (A) (A) (A) (A) (A) (A) (A) (A) (A) (A)
                 (A) (A) (A) (A) (A) (A) (A) (A) (A) (A) (A) (A)
                 (A) (A) (A) (A) (A) (A) (A) (A) (A) (A) (A) (A)
                 (A) (A) (A) (A) (A) (A) (A) (A) (A) (A) (A) (A)
                 (A) (A) (A) (A) (A) (A) (A) (A) (A) (A) (A) (A)
                 (A) (A) (A) (A) (A) (A) (A) (A) (A) (A) (A) (A)
                 (A) (A) (A) (A) (A) (A) (A) (A) (A) (A) (A) (A)
                 (A) (A) (A) (A) (A) (A) (A) (A) (A) (A) (A) (A)
                 (A) (A) (A) (A) (A) (A) (A) (A) (A) (A) (A) (A)
                 (A) (A) (A) (A) (A) (A) (A) (A) (A) (A) (A) (A)
                 (A) (A) (A) (A) (A) (A) (A) (A) (A) (A) (A) (A)
                 (A) (A) (A) (A) (A) (A) (A) (A) (A) (A) (A) (A)
                 (A) (A) (A) (A) (A) (A) (A) (A) (A) (A) (A) (A)
                 (A) (A) (A) (A) (A) (A) (A) (A) (A) (A) (A) (A)
                 (A) (A) (A) (A) (A) (A) (A) (A) (A) (A) (A) (A)
                 (A) (A) (A) (A) (A) (A) (A) (A) (A) (A) (A) (A)
                 (A) (A) (A) (A) (A) (A) (A) (A) (A) (A) (A) (A)
                 (A) (A) (A) (A) (A) (A) (A) (A) (A) (A) (A) (A)
                 (A) (A) (A) (A) (A) (A) (A) (A) (A) (A) (A) (A)
                 (A) (A) (A) (A) (A) (A) (A) (A) (A) (A) (A) (A)
                 (A) (A) (A) (A) (A) (A) (A) (A) (A) (A) (A) (A)
                 (A) (A) (A) (A) (A) (A) (A) (A) (A) (A) (A) (A)
                 (A) (A) (A) (A) (A) (A) (A) (A) (A) (A) (A) (A)
                 (A) (A) (A) (A) (A) (A) (A) (A) (A) (A) (A) (A)
                 (A) (A) (A) (A) (A) (A) (A) (A) (A) (A) (A) (A)
                 (A) (A) (A) (A) (A) (A) (A) (A) (A) (A) (A) (A)
                 (A) (A) (A) (A) (A) (A) (A) (A) (A) (A) (A) (A)
                 (A) (A) (A) (A) (A) (A) (A) (A) (A) (A) (A) (A)
                 (A) (A) (A) (A) (A) (A) (A) (A) (A) (A) (A) (A)
                 (A) (A) (A) (A) (A) (A) (A) (A) (A) (A) (A) (A)
                 (A) (A) (A) (A) (A) (A) (A) (A) (A) (A) (A) (A)
                 (A) (A) (A) (A) (A) (A) (A) (A) (A) (A) (A) (A)
                 (A) (A) (A) (A) (A) (A) (A) (A) (A) (A) (A) (A)
                 (A) (A) (A) (A) (A) (A) (A) (A) (A) (A) (A) (A)
                 (A) (A) (A) (A) (A) (A) (A) (A) (A) (A) (A) (A)
                 (A) (A) (A) (A) (A) (A) (A) (A) (A) (A) (A) (A)
                 (A) (A) (A) (A) (A) (A) (A) (A) (A) (A) (A) (A)
                 (A) (A) (A) (A) (A) (A) (A) (A) (A) (A) (A) (A)
                 (A) (A) (A) (A) (A) (A) (A) (A) (A) (A) (A) (A)
                 (A) (A) (A) (A) (A) (A) (A) (A) (A) (A) (A) (A)
                 (A) (A) (A) (A) (A) (A) (A) (A) (A) (A) (A) (A)
                 (A) (A) (A) (A) (A) (A) (A) (A) (A) (A) (A) (A)
                 (A) (A) (A) (A) (A) (A) (A) (A) (A) (A) (A) (A)
                 (A) (A) (A) (A) (A) (A) (A) (A)
    20 initial guesses have been made.
 Convergence on wavefunction:    0.001000000000000
 Davidson Disk Diagonalization:  ConvIn= 1.00D-03 SkipCon=T Conv= 1.00D-03.
 Max sub-space:  2000 roots to seek:    20 dimension of matrix:       370304
 Iteration     1 Dimension    20 NMult     0 NNew     20
 CISAX will form    20 AO SS matrices at one time.
 NMat=    20 NSing=    20 JSym2X= 0.
 FoFJK:  IHMeth= 1 ICntrl=       0 DoSepK=F KAlg= 0 I1Cent=           0 FoldK=F
 IRaf= 540000000 NMat=      40 IRICut=       1 DoRegI=T DoRafI=F ISym2E= 0 IDoP0=3 IntGTp=3.
 FoFCou: FMM=T IPFlag=           0 FMFlag=      100000 FMFlg1=        2001
         NFxFlg=           0 DoJE=F BraDBF=F KetDBF=F FulRan=T
         wScrn=  0.000000 ICntrl=         0 IOpCl=  0 I1Cent=           0 NGrid=           0
         NMat0=   40 NMatS0=     20 NMatT0=    0 NMatD0=   40 NMtDS0=    0 NMtDT0=    0
 Symmetry not used in FoFCou.
 FMM levels:  10  Number of levels for PrismC:   9
 New state      3 was old state      4
 New state      4 was old state      7
 New state      5 was old state      6
 Excitation Energies [eV] at current iteration:
 Root      1 :     2.259574278958491
 Root      2 :     2.553052016545125
 Root      3 :     3.060381569880731
 Root      4 :     3.109215768625742
 Root      5 :     3.345534877627823
 Root      6 :     3.461931730996096
 Root      7 :     3.678135717038251
 Root      8 :     3.739577244552694
 Root      9 :     3.874544724534476
 Root     10 :     3.931292302967777
 Root     11 :     3.955655028536926
 Root     12 :     4.084845914079529
 Root     13 :     4.157593384501562
 Root     14 :     4.529139493502572
 Root     15 :     4.547022038549980
 Root     16 :     4.600501256975092
 Root     17 :     4.746418528187300
 Root     18 :     4.835795251210312
 Root     19 :     4.839989587990276
 Root     20 :     4.930494981245394
 Iteration     2 Dimension    30 NMult    20 NNew     10
 CISAX will form    10 AO SS matrices at one time.
 NMat=    10 NSing=    10 JSym2X= 0.
 Root      1 not converged, maximum delta is    0.052885733509648
 Root      2 not converged, maximum delta is    0.051370421210952
 Root      3 not converged, maximum delta is    0.170272469688856
 Root      4 not converged, maximum delta is    0.127295590368372
 Root      5 not converged, maximum delta is    0.041389613225435
 Excitation Energies [eV] at current iteration:
 Root      1 :     1.927842436263436   Change is   -0.331731842695055
 Root      2 :     2.268218498873841   Change is   -0.284833517671284
 Root      3 :     2.932667297719259   Change is   -0.127714272161472
 Root      4 :     2.987500288087091   Change is   -0.121715480538651
 Root      5 :     3.105770844361475   Change is   -0.239764033266349
 Iteration     3 Dimension    40 NMult    30 NNew     10
 CISAX will form    10 AO SS matrices at one time.
 NMat=    10 NSing=    10 JSym2X= 0.
 Root      1 not converged, maximum delta is    0.024898317759956
 Root      2 not converged, maximum delta is    0.021816022792153
 Root      3 not converged, maximum delta is    0.031028112282250
 Root      4 not converged, maximum delta is    0.021344924680480
 Root      5 not converged, maximum delta is    0.012398850006655
 Excitation Energies [eV] at current iteration:
 Root      1 :     1.898729767388586   Change is   -0.029112668874850
 Root      2 :     2.247058168102868   Change is   -0.021160330770973
 Root      3 :     2.913046900084726   Change is   -0.019620397634533
 Root      4 :     2.975835284567574   Change is   -0.011665003519517
 Root      5 :     3.093891420655712   Change is   -0.011879423705763
 Iteration     4 Dimension    50 NMult    40 NNew     10
 CISAX will form    10 AO SS matrices at one time.
 NMat=    10 NSing=    10 JSym2X= 0.
 Root      1 not converged, maximum delta is    0.003472794179013
 Root      2 not converged, maximum delta is    0.009590466750113
 Root      3 not converged, maximum delta is    0.006419703271178
 Root      4 not converged, maximum delta is    0.003957709007174
 Root      5 not converged, maximum delta is    0.010921431771359
 Excitation Energies [eV] at current iteration:
 Root      1 :     1.895745641282542   Change is   -0.002984126106044
 Root      2 :     2.243327513525584   Change is   -0.003730654577283
 Root      3 :     2.911551235632996   Change is   -0.001495664451730
 Root      4 :     2.974538554236935   Change is   -0.001296730330639
 Root      5 :     3.091841571923672   Change is   -0.002049848732040
 Iteration     5 Dimension    60 NMult    50 NNew     10
 CISAX will form    10 AO SS matrices at one time.
 NMat=    10 NSing=    10 JSym2X= 0.
 Root      1 has converged.
 Root      2 has converged.
 Root      3 not converged, maximum delta is    0.001294139042058
 Root      4 not converged, maximum delta is    0.001091229392879
 Root      5 not converged, maximum delta is    0.001668551149912
 Excitation Energies [eV] at current iteration:
 Root      1 :     1.895438839831385   Change is   -0.000306801451157
 Root      2 :     2.243035572438040   Change is   -0.000291941087545
 Root      3 :     2.911357190174855   Change is   -0.000194045458141
 Root      4 :     2.974371342605572   Change is   -0.000167211631363
 Root      5 :     3.091577462042002   Change is   -0.000264109881670
 Iteration     6 Dimension    66 NMult    60 NNew      6
 CISAX will form     6 AO SS matrices at one time.
 NMat=     6 NSing=     6 JSym2X= 0.
 Root      1 has converged.
 Root      2 has converged.
 Root      3 has converged.
 Root      4 has converged.
 Root      5 has converged.
 Excitation Energies [eV] at current iteration:
 Root      1 :     1.895435572872636   Change is   -0.000003266958749
 Root      2 :     2.243034335238824   Change is   -0.000001237199216
 Root      3 :     2.911331194085855   Change is   -0.000025996089001
 Root      4 :     2.974355729884531   Change is   -0.000015612721041
 Root      5 :     3.091551625250068   Change is   -0.000025836791934
 Convergence achieved on expansion vectors.
 ***********************************************************************
 Excited states from <AA,BB:AA,BB> singles matrix:
 ***********************************************************************
 
 1PDM for each excited state written to RWF  633
 Ground to excited state transition densities written to RWF  633
 Ground to excited state transition electric dipole moments (Au):
       state          X           Y           Z        Dip. S.      Osc.
         1        -1.3071     -2.3883      0.8427      8.1225      0.3772
         2        -1.2099      0.9752     -0.3413      2.5314      0.1391
         3        -0.0243     -0.0107      0.0091      0.0008      0.0001
         4        -0.0366      0.0140     -0.0433      0.0034      0.0002
         5         0.2077     -0.1167      0.0004      0.0568      0.0043
 Ground to excited state transition velocity dipole moments (Au):
       state          X           Y           Z        Dip. S.      Osc.
         1         0.0874      0.1618     -0.0564      0.0370      0.3542
         2         0.0947     -0.0775      0.0263      0.0157      0.1267
         3        -0.0001      0.0009      0.0009      0.0000      0.0000
         4         0.0020     -0.0022      0.0028      0.0000      0.0001
         5        -0.0256      0.0133      0.0006      0.0008      0.0049
 Ground to excited state transition magnetic dipole moments (Au):
       state          X           Y           Z
         1        -0.0148     -0.4716     -1.3398
         2         0.0329      0.0691      0.2509
         3        -0.4219      0.0936     -0.2863
         4        -0.0598     -0.4725      0.1507
         5        -0.0415     -0.2007     -0.8734
 Ground to excited state transition velocity quadrupole moments (Au):
       state          XX          YY          ZZ          XY          XZ          YZ
         1        -1.3412      0.2301      0.0278     -1.1248      0.4765     -0.0613
         2        -1.4386      0.0855      0.0114      0.6264     -0.2269      0.0247
         3         0.0179     -0.0477     -0.0060     -0.0113     -0.0102      0.0186
         4        -0.0119      0.0294      0.0189     -0.0253      0.0104     -0.0308
         5         0.5086     -0.3073     -0.0045      0.0247     -0.1294      0.0764
 <0|del|b> * <b|rxdel|0> + <0|del|b> * <b|delr+rdel|0>
 Rotatory Strengths (R) in cgs (10**-40 erg-esu-cm/Gauss)
       state          XX          YY          ZZ    R(velocity)    E-M Angle
         1       -72.8973     27.8385     24.6311     -6.8093       90.42
         2         0.5014    -18.9369     55.8233     12.4626       82.37
         3        -0.6261     -0.7208      0.3801     -0.3222      102.77
         4         4.5164      0.9884      3.0694      2.8581       48.77
         5        -4.4105     -4.3187     -4.2889     -4.3393       94.63
 1/2[<0|r|b>*<b|rxdel|0> + (<0|rxdel|b>*<b|r|0>)*]
 Rotatory Strengths (R) in cgs (10**-40 erg-esu-cm/Gauss)
       state          XX          YY          ZZ     R(length)
         1       -13.6670   -796.5305    798.3873     -3.9367
         2        28.1496    -47.6208     60.5653     13.6981
         3        -7.2615      0.7069      1.8470     -1.5692
         4        -1.5491      4.6737      4.6114      2.5787
         5         6.0984    -16.5645      0.2275     -3.4129
  1/2[<0|del|b>*<b|r|0> + (<0|r|b>*<b|del|0>)*] (Au)
       state          X           Y           Z        Dip. S.   Osc.(frdel)
         1        -0.1143     -0.3864     -0.0475      0.5482      0.3655
         2        -0.1146     -0.0756     -0.0090      0.1991      0.1328
         3         0.0000     -0.0000      0.0000     -0.0000     -0.0000
         4        -0.0001     -0.0000     -0.0001      0.0002      0.0001
         5        -0.0053     -0.0016      0.0000      0.0069      0.0046

 Excitation energies and oscillator strengths:
 
 Excited State   1:      Singlet-A      1.8954 eV  654.12 nm  f=0.3772  <S**2>=0.000
     245 -> 248        0.18110
     246 -> 247        0.69104
     246 <- 247       -0.10264
 This state for optimization and/or second-order correction.
 Total Energy, E(TD-HF/TD-DFT) =  -3005.32508330    
 Copying the excited state density for this state as the 1-particle RhoCI density.
 
 Excited State   2:      Singlet-A      2.2430 eV  552.75 nm  f=0.1391  <S**2>=0.000
     245 -> 247        0.66023
     246 -> 248       -0.24462
 
 Excited State   3:      Singlet-A      2.9113 eV  425.87 nm  f=0.0001  <S**2>=0.000
     242 -> 247       -0.12323
     243 -> 247        0.65189
     243 -> 249        0.20170
 
 Excited State   4:      Singlet-A      2.9744 eV  416.84 nm  f=0.0002  <S**2>=0.000
     241 -> 247        0.64024
     241 -> 249       -0.14032
     241 -> 250        0.10287
     242 -> 247        0.22284
 
 Excited State   5:      Singlet-A      3.0916 eV  401.04 nm  f=0.0043  <S**2>=0.000
     241 -> 247       -0.22634
     242 -> 247        0.64318
     243 -> 247        0.13939
 SavETr:  write IOETrn=   770 NScale= 10 NData=  16 NLR=1 NState=    5 LETran=     100.
 Leave Link  914 at Wed May  4 09:05:05 2022, MaxMem= 10066329600 cpu:           16922.3 elap:             706.7
 (Enter /sw/apps/gaussian-16.0/g16/l601.exe)
 Copying SCF densities to generalized density rwf, IOpCl= 0 IROHF=0.
 Hyperfine terms turned off by default for NAtoms > 100.

 **********************************************************************

            Population analysis using the SCF density.

 **********************************************************************

 Orbital symmetries:
       Occupied  (A) (A) (A) (A) (A) (A) (A) (A) (A) (A) (A) (A)
                 (A) (A) (A) (A) (A) (A) (A) (A) (A) (A) (A) (A)
                 (A) (A) (A) (A) (A) (A) (A) (A) (A) (A) (A) (A)
                 (A) (A) (A) (A) (A) (A) (A) (A) (A) (A) (A) (A)
                 (A) (A) (A) (A) (A) (A) (A) (A) (A) (A) (A) (A)
                 (A) (A) (A) (A) (A) (A) (A) (A) (A) (A) (A) (A)
                 (A) (A) (A) (A) (A) (A) (A) (A) (A) (A) (A) (A)
                 (A) (A) (A) (A) (A) (A) (A) (A) (A) (A) (A) (A)
                 (A) (A) (A) (A) (A) (A) (A) (A) (A) (A) (A) (A)
                 (A) (A) (A) (A) (A) (A) (A) (A) (A) (A) (A) (A)
                 (A) (A) (A) (A) (A) (A) (A) (A) (A) (A) (A) (A)
                 (A) (A) (A) (A) (A) (A) (A) (A) (A) (A) (A) (A)
                 (A) (A) (A) (A) (A) (A) (A) (A) (A) (A) (A) (A)
                 (A) (A) (A) (A) (A) (A) (A) (A) (A) (A) (A) (A)
                 (A) (A) (A) (A) (A) (A) (A) (A) (A) (A) (A) (A)
                 (A) (A) (A) (A) (A) (A) (A) (A) (A) (A) (A) (A)
                 (A) (A) (A) (A) (A) (A) (A) (A) (A) (A) (A) (A)
                 (A) (A) (A) (A) (A) (A) (A) (A) (A) (A) (A) (A)
                 (A) (A) (A) (A) (A) (A) (A) (A) (A) (A) (A) (A)
                 (A) (A) (A) (A) (A) (A) (A) (A) (A) (A) (A) (A)
                 (A) (A) (A) (A) (A) (A)
       Virtual   (A) (A) (A) (A) (A) (A) (A) (A) (A) (A) (A) (A)
                 (A) (A) (A) (A) (A) (A) (A) (A) (A) (A) (A) (A)
                 (A) (A) (A) (A) (A) (A) (A) (A) (A) (A) (A) (A)
                 (A) (A) (A) (A) (A) (A) (A) (A) (A) (A) (A) (A)
                 (A) (A) (A) (A) (A) (A) (A) (A) (A) (A) (A) (A)
                 (A) (A) (A) (A) (A) (A) (A) (A) (A) (A) (A) (A)
                 (A) (A) (A) (A) (A) (A) (A) (A) (A) (A) (A) (A)
                 (A) (A) (A) (A) (A) (A) (A) (A) (A) (A) (A) (A)
                 (A) (A) (A) (A) (A) (A) (A) (A) (A) (A) (A) (A)
                 (A) (A) (A) (A) (A) (A) (A) (A) (A) (A) (A) (A)
                 (A) (A) (A) (A) (A) (A) (A) (A) (A) (A) (A) (A)
                 (A) (A) (A) (A) (A) (A) (A) (A) (A) (A) (A) (A)
                 (A) (A) (A) (A) (A) (A) (A) (A) (A) (A) (A) (A)
                 (A) (A) (A) (A) (A) (A) (A) (A) (A) (A) (A) (A)
                 (A) (A) (A) (A) (A) (A) (A) (A) (A) (A) (A) (A)
                 (A) (A) (A) (A) (A) (A) (A) (A) (A) (A) (A) (A)
                 (A) (A) (A) (A) (A) (A) (A) (A) (A) (A) (A) (A)
                 (A) (A) (A) (A) (A) (A) (A) (A) (A) (A) (A) (A)
                 (A) (A) (A) (A) (A) (A) (A) (A) (A) (A) (A) (A)
                 (A) (A) (A) (A) (A) (A) (A) (A) (A) (A) (A) (A)
                 (A) (A) (A) (A) (A) (A) (A) (A) (A) (A) (A) (A)
                 (A) (A) (A) (A) (A) (A) (A) (A) (A) (A) (A) (A)
                 (A) (A) (A) (A) (A) (A) (A) (A) (A) (A) (A) (A)
                 (A) (A) (A) (A) (A) (A) (A) (A) (A) (A) (A) (A)
                 (A) (A) (A) (A) (A) (A) (A) (A) (A) (A) (A) (A)
                 (A) (A) (A) (A) (A) (A) (A) (A) (A) (A) (A) (A)
                 (A) (A) (A) (A) (A) (A) (A) (A) (A) (A) (A) (A)
                 (A) (A) (A) (A) (A) (A) (A) (A) (A) (A) (A) (A)
                 (A) (A) (A) (A) (A) (A) (A) (A) (A) (A) (A) (A)
                 (A) (A) (A) (A) (A) (A) (A) (A) (A) (A) (A) (A)
                 (A) (A) (A) (A) (A) (A) (A) (A) (A) (A) (A) (A)
                 (A) (A) (A) (A) (A) (A) (A) (A) (A) (A) (A) (A)
                 (A) (A) (A) (A) (A) (A) (A) (A) (A) (A) (A) (A)
                 (A) (A) (A) (A) (A) (A) (A) (A) (A) (A) (A) (A)
                 (A) (A) (A) (A) (A) (A) (A) (A) (A) (A) (A) (A)
                 (A) (A) (A) (A) (A) (A) (A) (A) (A) (A) (A) (A)
                 (A) (A) (A) (A) (A) (A) (A) (A) (A) (A) (A) (A)
                 (A) (A) (A) (A) (A) (A) (A) (A) (A) (A) (A) (A)
                 (A) (A) (A) (A) (A) (A) (A) (A) (A) (A) (A) (A)
                 (A) (A) (A) (A) (A) (A) (A) (A) (A) (A) (A) (A)
                 (A) (A) (A) (A) (A) (A) (A) (A) (A) (A) (A) (A)
                 (A) (A) (A) (A) (A) (A) (A) (A) (A) (A) (A) (A)
                 (A) (A) (A) (A) (A) (A) (A) (A) (A) (A) (A) (A)
                 (A) (A) (A) (A) (A) (A) (A) (A) (A) (A) (A) (A)
                 (A) (A) (A) (A) (A) (A) (A) (A) (A) (A) (A) (A)
                 (A) (A) (A) (A) (A) (A) (A) (A) (A) (A) (A) (A)
                 (A) (A) (A) (A) (A) (A) (A) (A) (A) (A) (A) (A)
                 (A) (A) (A) (A) (A) (A) (A) (A) (A) (A) (A) (A)
                 (A) (A) (A) (A) (A) (A) (A) (A) (A) (A) (A) (A)
                 (A) (A) (A) (A) (A) (A) (A) (A) (A) (A) (A) (A)
                 (A) (A) (A) (A) (A) (A) (A) (A) (A) (A) (A) (A)
                 (A) (A) (A) (A) (A) (A) (A) (A) (A) (A) (A) (A)
                 (A) (A) (A) (A) (A) (A) (A) (A) (A) (A) (A) (A)
                 (A) (A) (A) (A) (A) (A) (A) (A) (A) (A) (A) (A)
                 (A) (A) (A) (A) (A) (A) (A) (A) (A) (A) (A) (A)
                 (A) (A) (A) (A) (A) (A) (A) (A) (A) (A) (A) (A)
                 (A) (A) (A) (A) (A) (A) (A) (A) (A) (A) (A) (A)
                 (A) (A) (A) (A) (A) (A) (A) (A) (A) (A) (A) (A)
                 (A) (A) (A) (A) (A) (A) (A) (A) (A) (A) (A) (A)
                 (A) (A) (A) (A) (A) (A) (A) (A) (A) (A) (A) (A)
                 (A) (A) (A) (A) (A) (A) (A) (A) (A) (A) (A) (A)
[...]
 Alpha virt. eigenvalues --    1.17411   1.17676   1.18140   1.18748   1.19270
 Alpha virt. eigenvalues --    1.19509   1.20135   1.20531   1.20837   1.21276
 Alpha virt. eigenvalues --    1.21422   1.22255   1.22770   1.23356   1.23547
 Alpha virt. eigenvalues --    1.24087   1.24598   1.24921   1.26115   1.26262
 Alpha virt. eigenvalues --    1.26584   1.26775   1.27400   1.27581   1.27812
 Alpha virt. eigenvalues --    1.28677   1.29217   1.29418   1.29656   1.30431
 Alpha virt. eigenvalues --    1.31025   1.31161   1.32594   1.32623   1.32982
 Alpha virt. eigenvalues --    1.33121   1.33618   1.33885   1.34191   1.34580
 Alpha virt. eigenvalues --    1.34616   1.35227   1.35364   1.35521   1.36165
 Alpha virt. eigenvalues --    1.36649   1.36864   1.37091   1.37562   1.37604
 Alpha virt. eigenvalues --    1.38042   1.38504   1.38770   1.38992   1.39178
 Alpha virt. eigenvalues --    1.39909   1.39944   1.41144   1.41215   1.41580
 Alpha virt. eigenvalues --    1.41920   1.42347   1.42591   1.43173   1.43549
 Alpha virt. eigenvalues --    1.43867   1.44364   1.45100   1.45218   1.45464
 Alpha virt. eigenvalues --    1.46102   1.46409   1.47118   1.48064   1.48420
 Alpha virt. eigenvalues --    1.48826   1.49350   1.49875   1.50927   1.51117
 Alpha virt. eigenvalues --    1.51498   1.51632   1.51966   1.52234   1.52505
 Alpha virt. eigenvalues --    1.52771   1.52829   1.53210   1.53557   1.53703
 Alpha virt. eigenvalues --    1.53990   1.54381   1.54864   1.54902   1.55113
 Alpha virt. eigenvalues --    1.55174   1.55783   1.55807   1.56037   1.56432
 Alpha virt. eigenvalues --    1.56689   1.57228   1.57336   1.57642   1.57897
 Alpha virt. eigenvalues --    1.58286   1.58404   1.58683   1.58979   1.59210
 Alpha virt. eigenvalues --    1.59687   1.60098   1.60633   1.60812   1.61078
 Alpha virt. eigenvalues --    1.61605   1.62425   1.62980   1.63652   1.63673
 Alpha virt. eigenvalues --    1.63886   1.64890   1.65484   1.65765   1.65954
 Alpha virt. eigenvalues --    1.66432   1.66522   1.67500   1.68164   1.68718
 Alpha virt. eigenvalues --    1.68827   1.69189   1.69703   1.69839   1.69920
 Alpha virt. eigenvalues --    1.70179   1.70624   1.70757   1.71426   1.71769
 Alpha virt. eigenvalues --    1.72248   1.72861   1.73308   1.73555   1.73798
 Alpha virt. eigenvalues --    1.73969   1.74099   1.74238   1.74782   1.74951
 Alpha virt. eigenvalues --    1.75075   1.75155   1.75275   1.75561   1.75829
 Alpha virt. eigenvalues --    1.75949   1.76212   1.76399   1.76603   1.76689
 Alpha virt. eigenvalues --    1.76926   1.77189   1.77409   1.77746   1.78162
 Alpha virt. eigenvalues --    1.78464   1.78503   1.78623   1.78716   1.79027
 Alpha virt. eigenvalues --    1.79256   1.79374   1.79598   1.79780   1.79958
 Alpha virt. eigenvalues --    1.80123   1.80358   1.80455   1.80570   1.80813
 Alpha virt. eigenvalues --    1.80910   1.81074   1.81626   1.81775   1.81938
 Alpha virt. eigenvalues --    1.82099   1.82374   1.82499   1.82909   1.83435
 Alpha virt. eigenvalues --    1.83506   1.83751   1.84073   1.84340   1.84484
 Alpha virt. eigenvalues --    1.84533   1.84891   1.85104   1.85399   1.85414
 Alpha virt. eigenvalues --    1.85527   1.85659   1.85791   1.85882   1.86186
 Alpha virt. eigenvalues --    1.86242   1.86371   1.86522   1.86765   1.86948
 Alpha virt. eigenvalues --    1.87067   1.87368   1.87486   1.87663   1.87959
 Alpha virt. eigenvalues --    1.88492   1.88703   1.88781   1.89352   1.89409
 Alpha virt. eigenvalues --    1.89789   1.89920   1.90334   1.90534   1.90661
 Alpha virt. eigenvalues --    1.90885   1.90990   1.91213   1.91364   1.91421
 Alpha virt. eigenvalues --    1.92023   1.92167   1.92473   1.92761   1.93013
 Alpha virt. eigenvalues --    1.93341   1.93410   1.93996   1.94152   1.94314
 Alpha virt. eigenvalues --    1.94728   1.94970   1.95679   1.95796   1.95931
 Alpha virt. eigenvalues --    1.96037   1.96268   1.96632   1.97277   1.97513
 Alpha virt. eigenvalues --    1.97754   1.98240   1.98480   1.98714   1.98844
 Alpha virt. eigenvalues --    1.99002   1.99217   1.99410   1.99964   2.00067
 Alpha virt. eigenvalues --    2.00416   2.00624   2.00832   2.00903   2.01119
 Alpha virt. eigenvalues --    2.01670   2.01950   2.02393   2.02778   2.03052
 Alpha virt. eigenvalues --    2.03183   2.03492   2.03597   2.03929   2.04498
 Alpha virt. eigenvalues --    2.04859   2.04944   2.05169   2.05197   2.06217
 Alpha virt. eigenvalues --    2.06269   2.06456   2.06886   2.06973   2.07263
 Alpha virt. eigenvalues --    2.07578   2.07720   2.08140   2.08703   2.08772
 Alpha virt. eigenvalues --    2.09028   2.09589   2.09703   2.10198   2.10450
 Alpha virt. eigenvalues --    2.10579   2.10851   2.11291   2.11549   2.11601
 Alpha virt. eigenvalues --    2.11788   2.11894   2.12614   2.12915   2.13269
 Alpha virt. eigenvalues --    2.14002   2.14449   2.14844   2.14882   2.15240
 Alpha virt. eigenvalues --    2.15530   2.15722   2.16091   2.16566   2.16831
 Alpha virt. eigenvalues --    2.17548   2.17758   2.17786   2.18139   2.18870
 Alpha virt. eigenvalues --    2.19094   2.19208   2.19369   2.19597   2.20616
 Alpha virt. eigenvalues --    2.20963   2.21662   2.22104   2.23139   2.23563
 Alpha virt. eigenvalues --    2.23784   2.23808   2.24740   2.25473   2.25916
 Alpha virt. eigenvalues --    2.25945   2.26960   2.27091   2.27388   2.27648
 Alpha virt. eigenvalues --    2.28145   2.28648   2.28741   2.29215   2.29480
 Alpha virt. eigenvalues --    2.29654   2.30059   2.30224   2.30758   2.31309
 Alpha virt. eigenvalues --    2.32046   2.32297   2.32595   2.32908   2.33377
 Alpha virt. eigenvalues --    2.33419   2.34396   2.34603   2.34976   2.35705
 Alpha virt. eigenvalues --    2.35912   2.36124   2.36358   2.37131   2.37395
 Alpha virt. eigenvalues --    2.37564   2.38091   2.38321   2.38372   2.38794
 Alpha virt. eigenvalues --    2.38838   2.39556   2.39654   2.40223   2.40558
 Alpha virt. eigenvalues --    2.40724   2.41029   2.41376   2.41952   2.42202
 Alpha virt. eigenvalues --    2.42464   2.42509   2.42732   2.43323   2.43768
 Alpha virt. eigenvalues --    2.44119   2.44695   2.45394   2.45543   2.45998
 Alpha virt. eigenvalues --    2.46335   2.46461   2.46704   2.47049   2.47347
 Alpha virt. eigenvalues --    2.48767   2.49304   2.49379   2.49809   2.49826
 Alpha virt. eigenvalues --    2.50931   2.51329   2.51505   2.51877   2.52521
 Alpha virt. eigenvalues --    2.52839   2.53583   2.54799   2.55070   2.55465
 Alpha virt. eigenvalues --    2.55675   2.55943   2.56103   2.56610   2.56910
 Alpha virt. eigenvalues --    2.57668   2.58234   2.58553   2.58720   2.58864
 Alpha virt. eigenvalues --    2.59183   2.59787   2.59938   2.60339   2.60521
 Alpha virt. eigenvalues --    2.60930   2.61410   2.61886   2.62488   2.62668
 Alpha virt. eigenvalues --    2.63498   2.63884   2.64101   2.64456   2.64799
 Alpha virt. eigenvalues --    2.65317   2.65338   2.65597   2.65907   2.66504
 Alpha virt. eigenvalues --    2.66736   2.67067   2.67099   2.67363   2.67670
 Alpha virt. eigenvalues --    2.68404   2.68686   2.68963   2.69010   2.70541
 Alpha virt. eigenvalues --    2.71037   2.71083   2.71279   2.71712   2.72680
 Alpha virt. eigenvalues --    2.73057   2.73198   2.73556   2.73806   2.73881
 Alpha virt. eigenvalues --    2.74579   2.74885   2.75246   2.75548   2.75708
 Alpha virt. eigenvalues --    2.75962   2.76154   2.76618   2.77638   2.78228
 Alpha virt. eigenvalues --    2.79782   2.80564   2.80781   2.81026   2.81388
 Alpha virt. eigenvalues --    2.82267   2.82476   2.82820   2.83061   2.83670
 Alpha virt. eigenvalues --    2.84517   2.84650   2.85276   2.86458   2.86542
 Alpha virt. eigenvalues --    2.87071   2.87899   2.88402   2.88698   2.88939
 Alpha virt. eigenvalues --    2.89146   2.89355   2.90279   2.90381   2.91051
 Alpha virt. eigenvalues --    2.91497   2.92138   2.92187   2.92595   2.92837
 Alpha virt. eigenvalues --    2.93344   2.93820   2.94003   2.94207   2.94659
 Alpha virt. eigenvalues --    2.94886   2.95069   2.95569   2.95791   2.96171
 Alpha virt. eigenvalues --    2.96560   2.96569   2.96743   2.97187   2.97604
 Alpha virt. eigenvalues --    2.97832   2.97936   2.97997   2.98324   2.99323
 Alpha virt. eigenvalues --    2.99377   2.99646   2.99664   2.99778   3.00353
 Alpha virt. eigenvalues --    3.00443   3.00701   3.01100   3.01458   3.01620
 Alpha virt. eigenvalues --    3.01728   3.02293   3.02455   3.03313   3.04055
 Alpha virt. eigenvalues --    3.04476   3.04673   3.04857   3.05401   3.05502
 Alpha virt. eigenvalues --    3.05975   3.07216   3.07838   3.08106   3.08346
 Alpha virt. eigenvalues --    3.08547   3.09156   3.09702   3.09836   3.09967
 Alpha virt. eigenvalues --    3.10140   3.10496   3.11318   3.11468   3.11652
 Alpha virt. eigenvalues --    3.12297   3.13511   3.13697   3.14149   3.15293
 Alpha virt. eigenvalues --    3.16144   3.16171   3.17329   3.17701   3.19673
 Alpha virt. eigenvalues --    3.20092   3.20702   3.21680   3.22517   3.24142
 Alpha virt. eigenvalues --    3.25159   3.28332   3.37529   3.39851   3.40499
 Alpha virt. eigenvalues --    3.42833   3.44918   3.48465   3.48792   3.52416
 Alpha virt. eigenvalues --    3.58015   3.60327   3.61417   3.62029   3.65347
 Alpha virt. eigenvalues --    3.66066   3.68429
          Condensed to atoms (all electrons):
 Mulliken charges:
               1
     1  Mg   0.973503
     2  C   -0.001117
     3  C   -0.048964
     4  C   -0.042055
     5  C   -0.086024
     6  N   -0.335003
     7  C   -0.000192
     8  C   -0.096160
     9  C   -0.122967
    10  C    0.055479
    11  C    0.016422
    12  C    0.048458
    13  C   -0.033007
    14  C    0.223698
    15  O   -0.253104
    16  O   -0.374353
    17  N   -0.532563
    18  C    0.150471
    19  C   -0.131714
    20  C   -0.062595
    21  C    0.164893
    22  C    0.035255
    23  C    0.036150
    24  O   -0.284981
    25  C    0.014904
    26  N   -0.412082
    27  C    0.064624
    28  C   -0.097098
    29  C   -0.097797
    30  C    0.080632
    31  C    0.017202
    32  C   -0.053488
    33  C   -0.046379
    34  N   -0.444741
    35  C    0.131462
    36  C   -0.199298
    37  C   -0.051351
    38  C    0.190883
    39  C    0.086338
    40  C    0.129381
    41  O   -0.232813
    42  C   -0.136509
    43  C    0.300435
    44  O   -0.280913
    45  O   -0.397263
    46  C    0.109329
    47  C    0.236239
    48  C   -0.135953
    49  C   -0.231515
    50  C    0.009820
    51  C    0.031707
    52  C   -0.084506
    53  C    0.002977
    54  C   -0.178866
    55  C   -0.017719
    56  C   -0.014557
    57  C   -0.064472
    58  C   -0.027855
    59  C   -0.179231
    60  C   -0.000287
    61  C   -0.008871
    62  C   -0.059457
    63  C   -0.000820
    64  C   -0.204405
    65  C   -0.027456
    66  C   -0.026524
    67  H   -0.003902
    68  H    0.026796
    69  H   -0.000064
    70  H    0.063258
    71  H    0.044652
    72  H    0.047629
    73  H    0.045872
    74  H    0.049409
    75  H    0.047434
    76  H    0.042835
    77  H    0.076186
    78  H    0.054534
    79  H    0.056099
    80  H    0.055085
    81  H    0.023049
    82  H    0.055375
    83  H    0.055560
    84  H    0.060085
    85  H    0.055983
    86  H    0.044871
    87  H    0.049783
    88  H    0.048997
    89  H    0.047067
    90  H    0.033391
    91  H    0.034835
    92  H    0.039629
    93  H    0.041250
    94  H    0.050993
    95  H    0.067342
    96  H    0.043667
    97  H    0.071309
    98  H    0.086139
    99  H    0.065306
   100  H    0.078404
   101  H    0.072920
   102  H    0.063367
   103  H    0.065670
   104  H    0.030120
   105  H    0.045654
   106  H    0.050880
   107  H    0.034175
   108  H    0.043503
   109  H    0.027734
   110  H    0.052636
   111  H    0.039498
   112  H    0.014620
   113  H    0.026141
   114  H    0.028368
   115  H    0.042226
   116  H    0.030790
   117  H    0.026511
   118  H    0.029730
   119  H    0.029857
   120  H    0.027926
   121  H    0.035430
   122  H    0.030827
   123  H    0.021702
   124  H    0.024263
   125  H    0.027455
   126  H    0.032565
   127  H    0.022983
   128  H    0.025148
   129  H    0.013936
   130  H    0.018803
   131  H    0.019389
   132  H    0.036538
   133  H    0.030225
   134  H    0.029924
   135  H    0.028759
   136  H    0.040729
   137  H    0.028674
   138  H    0.033840
   139  H    0.030515
   140  H    0.033879
 Sum of Mulliken charges =  -0.00000
 Mulliken charges with hydrogens summed into heavy atoms:
               1
     1  Mg   0.973503
     2  C   -0.001117
     3  C   -0.052866
     4  C   -0.015259
     5  C   -0.086088
     6  N   -0.335003
     7  C   -0.000192
     8  C   -0.032901
     9  C   -0.078315
    10  C    0.055479
    11  C    0.159332
    12  C    0.138727
    13  C    0.097713
    14  C    0.223698
    15  O   -0.253104
    16  O   -0.374353
    17  N   -0.532563
    18  C    0.150471
    19  C   -0.131714
    20  C   -0.062595
    21  C    0.164893
    22  C    0.169488
    23  C    0.036150
    24  O   -0.284981
    25  C    0.185923
    26  N   -0.412082
    27  C    0.064624
    28  C   -0.041114
    29  C   -0.052927
    30  C    0.080632
    31  C    0.163048
    32  C    0.014738
    33  C    0.085491
    34  N   -0.444741
    35  C    0.131462
    36  C   -0.199298
    37  C   -0.051351
    38  C    0.190883
    39  C    0.268657
    40  C    0.129381
    41  O   -0.232813
    42  C   -0.050370
    43  C    0.300435
    44  O   -0.280913
    45  O   -0.397263
    46  C    0.325960
    47  C    0.365276
    48  C   -0.105833
    49  C   -0.231515
    50  C    0.140529
    51  C    0.102944
    52  C    0.007628
    53  C    0.043738
    54  C   -0.150498
    55  C    0.081808
    56  C    0.045029
    57  C   -0.001116
    58  C    0.024674
    59  C   -0.154969
    60  C    0.082715
    61  C    0.030213
    62  C   -0.021265
    63  C    0.065943
    64  C   -0.174481
    65  C    0.070706
    66  C    0.071711
 Electronic spatial extent (au):  <R**2>=          91365.5723
 Charge=             -0.0000 electrons
 Dipole moment (field-independent basis, Debye):
    X=              4.2988    Y=              2.4962    Z=             -0.9108  Tot=              5.0537
 Quadrupole moment (field-independent basis, Debye-Ang):
   XX=           -355.4684   YY=           -418.7979   ZZ=           -413.3623
   XY=            -11.1564   XZ=             -7.3574   YZ=              6.8440
 Traceless Quadrupole moment (field-independent basis, Debye-Ang):
   XX=             40.4078   YY=            -22.9217   ZZ=            -17.4861
   XY=            -11.1564   XZ=             -7.3574   YZ=              6.8440
 Octapole moment (field-independent basis, Debye-Ang**2):
  XXX=           -203.1147  YYY=             18.4270  ZZZ=             10.3763  XYY=            232.3269
  XXY=           -127.6869  XXZ=            -55.0993  XZZ=             77.9603  YZZ=            -36.9344
  YYZ=             26.7509  XYZ=            -62.6186
 Hexadecapole moment (field-independent basis, Debye-Ang**3):
 XXXX=         -81151.7903 YYYY=         -30410.1238 ZZZZ=          -8094.0561 XXXY=           -707.2137
 XXXZ=          -1063.0786 YYYX=           -586.3873 YYYZ=           -130.7298 ZZZX=           -165.0569
 ZZZY=            -94.7944 XXYY=         -20531.0997 XXZZ=         -15784.5997 YYZZ=          -6338.9031
 XXYZ=            718.2231 YYXZ=           -280.1865 ZZXY=             16.5059
 N-N= 9.818328406694D+03 E-N=-2.662798965494D+04  KE= 2.975723771321D+03
 Leave Link  601 at Wed May  4 09:05:05 2022, MaxMem= 10066329600 cpu:              14.1 elap:               0.7
 (Enter /sw/apps/gaussian-16.0/g16/l9999.exe)
 1\1\GINC-BP1-COMPUTE102\SP\RPBE1PBE TD-FC\def2SVP\C55H74Mg1N4O6\OF1564
 1\04-May-2022\0\\#p PBE1PBE/Def2SVP td=(nstates=5)\\step_1551_chromoph
 ore_12 TDDFT with PBE1PBE functional\\0,1\Mg,0,47.958,14.614,27.756\C,
 0,45.995,14.497,30.683\C,0,49.839,16.981,29.255\C,0,49.761,14.489,25.0
 69\C,0,45.432,12.583,26.245\N,0,47.827,15.642,29.827\C,0,47.094,15.281
 ,30.872\C,0,47.545,15.894,32.14\C,0,48.681,16.871,31.657\C,0,48.867,16
 .458,30.189\C,0,48.411,18.366,31.705\C,0,47.955,14.938,33.252\C,0,47.7
 87,15.445,34.67\C,0,48.962,15.187,35.628\O,0,49.772,14.289,35.505\O,0,
 48.889,16.097,36.657\N,0,49.616,15.646,27.233\C,0,50.251,16.577,28.001
 \C,0,51.481,16.965,27.275\C,0,51.515,16.176,26.11\C,0,50.283,15.41,26.
 071\C,0,52.559,17.913,27.801\C,0,52.579,16.11,25.047\O,0,52.639,15.193
 ,24.179\C,0,53.649,17.057,24.925\N,0,47.55,13.729,25.902\C,0,48.538,13
 .796,24.972\C,0,48.047,12.984,23.697\C,0,46.703,12.304,24.121\C,0,46.5
 28,12.923,25.496\C,0,47.963,13.859,22.395\C,0,46.773,10.761,24.104\C,0
 ,47.421,9.996,22.967\N,0,46.059,13.829,28.25\C,0,45.14,13.017,27.563\C
 ,0,44.025,12.719,28.334\C,0,44.352,13.248,29.588\C,0,45.596,13.895,29.
 483\C,0,42.779,11.994,27.875\C,0,43.944,13.184,30.953\O,0,43.015,12.57
 6,31.501\C,0,45.019,14.042,31.719\C,0,44.343,15.191,32.298\O,0,43.922,
 16.251,31.786\O,0,44.07,14.84,33.614\C,0,42.972,15.551,34.315\C,0,50.0
 63,16.074,37.57\C,0,50.241,17.409,38.248\C,0,51.242,17.786,39.1\C,0,52
 .456,16.947,39.337\C,0,51.284,19.156,39.847\C,0,52.548,20.005,39.659\C
 ,0,52.236,21.506,39.74\C,0,53.235,22.464,39.032\C,0,53.985,23.273,40.0
 84\C,0,52.468,23.405,38.003\C,0,53.29,23.624,36.712\C,0,52.403,24.492,
 35.733\C,0,52.799,24.411,34.316\C,0,54.123,25.116,34.099\C,0,51.718,24
 .902,33.305\C,0,51.797,24.34,31.841\C,0,50.546,23.599,31.495\C,0,50.51
 1,23.073,30.044\C,0,51.512,21.964,29.635\C,0,50.525,24.184,29.04\H,0,5
 0.543,17.714,29.653\H,0,50.361,14.343,24.168\H,0,44.64,12.031,25.733\H
 ,0,46.717,16.482,32.538\H,0,49.613,16.707,32.198\H,0,48.229,18.672,30.
 675\H,0,49.27,18.915,32.092\H,0,47.51,18.707,32.213\H,0,49.015,14.742,
 33.088\H,0,47.415,13.998,33.142\H,0,46.953,15.032,35.238\H,0,47.52,16.
 496,34.561\H,0,52.633,18.919,27.387\H,0,53.578,17.53,27.849\H,0,52.358
 ,18.188,28.836\H,0,53.224,18.057,25.017\H,0,54.225,16.951,24.005\H,0,5
 4.384,16.812,25.692\H,0,48.844,12.24,23.69\H,0,45.769,12.566,23.624\H,
 0,48.595,14.747,22.373\H,0,46.912,14.129,22.287\H,0,48.372,13.26,21.58
 1\H,0,45.762,10.385,24.26\H,0,47.338,10.481,24.993\H,0,47.486,10.665,2
 2.109\H,0,46.782,9.166,22.664\H,0,48.393,9.582,23.237\H,0,42.35,11.523
 ,28.759\H,0,43.057,11.203,27.177\H,0,42.194,12.784,27.405\H,0,45.444,1
 3.434,32.517\H,0,43.456,16.002,35.181\H,0,42.326,14.679,34.424\H,0,42.
 465,16.287,33.692\H,0,50.985,15.906,37.013\H,0,50.,15.269,38.302\H,0,4
 9.376,18.071,38.204\H,0,52.524,16.613,40.373\H,0,53.3,17.595,39.1\H,0,
 52.537,16.002,38.799\H,0,51.174,18.897,40.9\H,0,50.453,19.774,39.507\H
 ,0,52.979,19.697,38.706\H,0,53.195,19.78,40.507\H,0,52.314,21.712,40.8
 08\H,0,51.208,21.759,39.479\H,0,53.987,21.851,38.535\H,0,53.356,23.794
 ,40.806\H,0,54.699,23.892,39.541\H,0,54.622,22.653,40.714\H,0,52.193,2
 4.342,38.486\H,0,51.543,22.964,37.631\H,0,53.461,22.647,36.261\H,0,54.
 25,24.098,36.916\H,0,52.528,25.502,36.123\H,0,51.357,24.189,35.773\H,0
 ,53.072,23.377,34.106\H,0,54.438,25.534,35.055\H,0,54.073,25.828,33.27
 5\H,0,54.938,24.441,33.836\H,0,51.679,25.969,33.088\H,0,50.755,24.716,
 33.78\H,0,52.727,23.78,31.739\H,0,52.06,25.206,31.233\H,0,49.775,24.35
 1,31.664\H,0,50.433,22.785,32.211\H,0,49.545,22.599,29.875\H,0,52.405,
 22.21,30.21\H,0,51.741,21.904,28.571\H,0,51.174,20.972,29.935\H,0,51.3
 42,24.085,28.325\H,0,50.548,25.21,29.409\H,0,49.536,24.105,28.59\\Vers
 ion=ES64L-G16RevA.03\State=1-A\HF=-3005.3947393\RMSD=5.956e-09\PG=C01 
 [X(C55H74Mg1N4O6)]\\@


 THERE ARE PEOPLE SO ADDICTED TO EXAGERATING THEY
 CAN'T TELL THE TRUTH WITHOUT LYING. -- FORTUNE COOKIE
 Job cpu time:       0 days  6 hours 34 minutes  4.7 seconds.
 Elapsed time:       0 days  0 hours 16 minutes 28.9 seconds.
 File lengths (MBytes):  RWF=   8929 Int=      0 D2E=      0 Chk=    390 Scr=      1
 Normal termination of Gaussian 16 at Wed May  4 09:05:07 2022.
