 Entering Gaussian System, Link 0=g16
 Initial command:
 /sw/apps/gaussian-16.0/g16/l1.exe "/tmp/Gau-187066.inp" -scrdir="/tmp/"
 Entering Link 1 = /sw/apps/gaussian-16.0/g16/l1.exe PID=    187068.
  
 Copyright (c) 1988,1990,1992,1993,1995,1998,2003,2009,2016,
            Gaussian, Inc.  All Rights Reserved.
  
 This is part of the Gaussian(R) 16 program.  It is based on
 the Gaussian(R) 09 system (copyright 2009, Gaussian, Inc.),
 the Gaussian(R) 03 system (copyright 2003, Gaussian, Inc.),
 the Gaussian(R) 98 system (copyright 1998, Gaussian, Inc.),
 the Gaussian(R) 94 system (copyright 1995, Gaussian, Inc.),
 the Gaussian 92(TM) system (copyright 1992, Gaussian, Inc.),
 the Gaussian 90(TM) system (copyright 1990, Gaussian, Inc.),
 the Gaussian 88(TM) system (copyright 1988, Gaussian, Inc.),
 the Gaussian 86(TM) system (copyright 1986, Carnegie Mellon
 University), and the Gaussian 82(TM) system (copyright 1983,
 Carnegie Mellon University). Gaussian is a federally registered
 trademark of Gaussian, Inc.
  
 This software contains proprietary and confidential information,
 including trade secrets, belonging to Gaussian, Inc.
  
 This software is provided under written license and may be
 used, copied, transmitted, or stored only in accord with that
 written license.
  
 The following legend is applicable only to US Government
 contracts under FAR:
  
                    RESTRICTED RIGHTS LEGEND
  
 Use, reproduction and disclosure by the US Government is
 subject to restrictions as set forth in subparagraphs (a)
 and (c) of the Commercial Computer Software - Restricted
 Rights clause in FAR 52.227-19.
  
 Gaussian, Inc.
 340 Quinnipiac St., Bldg. 40, Wallingford CT 06492
  
  
 ---------------------------------------------------------------
 Warning -- This program may not be used in any manner that
 competes with the business of Gaussian, Inc. or will provide
 assistance to any competitor of Gaussian, Inc.  The licensee
 of this program is prohibited from giving any competitor of
 Gaussian, Inc. access to this program.  By using this program,
 the user acknowledges that Gaussian, Inc. is engaged in the
 business of creating and licensing software in the field of
 computational chemistry and represents and warrants to the
 licensee that it is not a competitor of Gaussian, Inc. and that
 it will not use this program in any manner prohibited above.
 ---------------------------------------------------------------
  

 Cite this work as:
 Gaussian 16, Revision A.03,
 M. J. Frisch, G. W. Trucks, H. B. Schlegel, G. E. Scuseria, 
 M. A. Robb, J. R. Cheeseman, G. Scalmani, V. Barone, 
 G. A. Petersson, H. Nakatsuji, X. Li, M. Caricato, A. V. Marenich, 
 J. Bloino, B. G. Janesko, R. Gomperts, B. Mennucci, H. P. Hratchian, 
 J. V. Ortiz, A. F. Izmaylov, J. L. Sonnenberg, D. Williams-Young, 
 F. Ding, F. Lipparini, F. Egidi, J. Goings, B. Peng, A. Petrone, 
 T. Henderson, D. Ranasinghe, V. G. Zakrzewski, J. Gao, N. Rega, 
 G. Zheng, W. Liang, M. Hada, M. Ehara, K. Toyota, R. Fukuda, 
 J. Hasegawa, M. Ishida, T. Nakajima, Y. Honda, O. Kitao, H. Nakai, 
 T. Vreven, K. Throssell, J. A. Montgomery, Jr., J. E. Peralta, 
 F. Ogliaro, M. J. Bearpark, J. J. Heyd, E. N. Brothers, K. N. Kudin, 
 V. N. Staroverov, T. A. Keith, R. Kobayashi, J. Normand, 
 K. Raghavachari, A. P. Rendell, J. C. Burant, S. S. Iyengar, 
 J. Tomasi, M. Cossi, J. M. Millam, M. Klene, C. Adamo, R. Cammi, 
 J. W. Ochterski, R. L. Martin, K. Morokuma, O. Farkas, 
 J. B. Foresman, and D. J. Fox, Gaussian, Inc., Wallingford CT, 2016.
 
 ******************************************
 Gaussian 16:  ES64L-G16RevA.03 25-Dec-2016
                 4-May-2022 
 ******************************************
 %nproc=24
 Will use up to   24 processors via shared memory.
 %mem=75GB
 --------------------------------
 #p wB97XD/Def2SVP td=(nstates=5)
 --------------------------------
 1/38=1,172=1/1;
 2/12=2,17=6,18=5,40=1/2;
 3/5=43,7=101,11=9,25=1,30=1,74=-58/1,2,3,8;
 4//1;
 5/5=2,38=5/2;
 8/6=1,10=1,108=5/1;
 9/41=5,42=1,70=2/14;
 6/7=2,8=2,9=2,10=2/1;
 99/5=1,9=1/99;
 Leave Link    1 at Wed May  4 09:05:07 2022, MaxMem= 10066329600 cpu:               0.9 elap:               0.0
 (Enter /sw/apps/gaussian-16.0/g16/l101.exe)
 -----------------------------------------------------
 step_1551_chromophore_12 TDDFT with wB97XD functional
 -----------------------------------------------------
 Symbolic Z-matrix:
 Charge =  0 Multiplicity = 1
 Mg                    47.958    14.614    27.756 
 C                     45.995    14.497    30.683 
 C                     49.839    16.981    29.255 
 C                     49.761    14.489    25.069 
 C                     45.432    12.583    26.245 
 N                     47.827    15.642    29.827 
 C                     47.094    15.281    30.872 
 C                     47.545    15.894    32.14 
 C                     48.681    16.871    31.657 
 C                     48.867    16.458    30.189 
 C                     48.411    18.366    31.705 
 C                     47.955    14.938    33.252 
 C                     47.787    15.445    34.67 
 C                     48.962    15.187    35.628 
 O                     49.772    14.289    35.505 
 O                     48.889    16.097    36.657 
 N                     49.616    15.646    27.233 
 C                     50.251    16.577    28.001 
 C                     51.481    16.965    27.275 
 C                     51.515    16.176    26.11 
 C                     50.283    15.41     26.071 
 C                     52.559    17.913    27.801 
 C                     52.579    16.11     25.047 
 O                     52.639    15.193    24.179 
 C                     53.649    17.057    24.925 
 N                     47.55     13.729    25.902 
 C                     48.538    13.796    24.972 
 C                     48.047    12.984    23.697 
 C                     46.703    12.304    24.121 
 C                     46.528    12.923    25.496 
 C                     47.963    13.859    22.395 
 C                     46.773    10.761    24.104 
 C                     47.421    9.996     22.967 
 N                     46.059    13.829    28.25 
 C                     45.14     13.017    27.563 
 C                     44.025    12.719    28.334 
 C                     44.352    13.248    29.588 
 C                     45.596    13.895    29.483 
 C                     42.779    11.994    27.875 
 C                     43.944    13.184    30.953 
 O                     43.015    12.576    31.501 
 C                     45.019    14.042    31.719 
 C                     44.343    15.191    32.298 
 O                     43.922    16.251    31.786 
 O                     44.07     14.84     33.614 
 C                     42.972    15.551    34.315 
 C                     50.063    16.074    37.57 
 C                     50.241    17.409    38.248 
 C                     51.242    17.786    39.1 
 C                     52.456    16.947    39.337 
 C                     51.284    19.156    39.847 
 C                     52.548    20.005    39.659 
 C                     52.236    21.506    39.74 
 C                     53.235    22.464    39.032 
 C                     53.985    23.273    40.084 
 C                     52.468    23.405    38.003 
 C                     53.29     23.624    36.712 
 C                     52.403    24.492    35.733 
 C                     52.799    24.411    34.316 
 C                     54.123    25.116    34.099 
 C                     51.718    24.902    33.305 
 C                     51.797    24.34     31.841 
 C                     50.546    23.599    31.495 
 C                     50.511    23.073    30.044 
 C                     51.512    21.964    29.635 
 C                     50.525    24.184    29.04 
 H                     50.543    17.714    29.653 
 H                     50.361    14.343    24.168 
 H                     44.64     12.031    25.733 
 H                     46.717    16.482    32.538 
 H                     49.613    16.707    32.198 
 H                     48.229    18.672    30.675 
 H                     49.27     18.915    32.092 
 H                     47.51     18.707    32.213 
 H                     49.015    14.742    33.088 
 H                     47.415    13.998    33.142 
 H                     46.953    15.032    35.238 
 H                     47.52     16.496    34.561 
 H                     52.633    18.919    27.387 
 H                     53.578    17.53     27.849 
 H                     52.358    18.188    28.836 
 H                     53.224    18.057    25.017 
 H                     54.225    16.951    24.005 
 H                     54.384    16.812    25.692 
 H                     48.844    12.24     23.69 
 H                     45.769    12.566    23.624 
 H                     48.595    14.747    22.373 
 H                     46.912    14.129    22.287 
 H                     48.372    13.26     21.581 
 H                     45.762    10.385    24.26 
 H                     47.338    10.481    24.993 
 H                     47.486    10.665    22.109 
 H                     46.782    9.166     22.664 
 H                     48.393    9.582     23.237 
 H                     42.35     11.523    28.759 
 H                     43.057    11.203    27.177 
 H                     42.194    12.784    27.405 
 H                     45.444    13.434    32.517 
 H                     43.456    16.002    35.181 
 H                     42.326    14.679    34.424 
 H                     42.465    16.287    33.692 
 H                     50.985    15.906    37.013 
 H                     50.       15.269    38.302 
 H                     49.376    18.071    38.204 
 H                     52.524    16.613    40.373 
 H                     53.3      17.595    39.1 
 H                     52.537    16.002    38.799 
 H                     51.174    18.897    40.9 
 H                     50.453    19.774    39.507 
 H                     52.979    19.697    38.706 
 H                     53.195    19.78     40.507 
 H                     52.314    21.712    40.808 
 H                     51.208    21.759    39.479 
 H                     53.987    21.851    38.535 
 H                     53.356    23.794    40.806 
 H                     54.699    23.892    39.541 
 H                     54.622    22.653    40.714 
 H                     52.193    24.342    38.486 
 H                     51.543    22.964    37.631 
 H                     53.461    22.647    36.261 
 H                     54.25     24.098    36.916 
 H                     52.528    25.502    36.123 
 H                     51.357    24.189    35.773 
 H                     53.072    23.377    34.106 
 H                     54.438    25.534    35.055 
 H                     54.073    25.828    33.275 
 H                     54.938    24.441    33.836 
 H                     51.679    25.969    33.088 
 H                     50.755    24.716    33.78 
 H                     52.727    23.78     31.739 
 H                     52.06     25.206    31.233 
 H                     49.775    24.351    31.664 
 H                     50.433    22.785    32.211 
 H                     49.545    22.599    29.875 
 H                     52.405    22.21     30.21 
 H                     51.741    21.904    28.571 
 H                     51.174    20.972    29.935 
 H                     51.342    24.085    28.325 
 H                     50.548    25.21     29.409 
 H                     49.536    24.105    28.59 
 
 ITRead=  0  0  0  0  0  0  0  0  0  0  0  0  0  0  0  0  0  0  0  0
 ITRead=  0  0  0  0  0  0  0  0  0  0  0  0  0  0  0  0  0  0  0  0
 ITRead=  0  0  0  0  0  0  0  0  0  0  0  0  0  0  0  0  0  0  0  0
 ITRead=  0  0  0  0  0  0  0  0  0  0  0  0  0  0  0  0  0  0  0  0
 ITRead=  0  0  0  0  0  0  0  0  0  0  0  0  0  0  0  0  0  0  0  0
 ITRead=  0  0  0  0  0  0  0  0  0  0  0  0  0  0  0  0  0  0  0  0
 ITRead=  0  0  0  0  0  0  0  0  0  0  0  0  0  0  0  0  0  0  0  0
 MicOpt= -1 -1 -1 -1 -1 -1 -1 -1 -1 -1 -1 -1 -1 -1 -1 -1 -1 -1 -1 -1
 MicOpt= -1 -1 -1 -1 -1 -1 -1 -1 -1 -1 -1 -1 -1 -1 -1 -1 -1 -1 -1 -1
 MicOpt= -1 -1 -1 -1 -1 -1 -1 -1 -1 -1 -1 -1 -1 -1 -1 -1 -1 -1 -1 -1
 MicOpt= -1 -1 -1 -1 -1 -1 -1 -1 -1 -1 -1 -1 -1 -1 -1 -1 -1 -1 -1 -1
 MicOpt= -1 -1 -1 -1 -1 -1 -1 -1 -1 -1 -1 -1 -1 -1 -1 -1 -1 -1 -1 -1
 MicOpt= -1 -1 -1 -1 -1 -1 -1 -1 -1 -1 -1 -1 -1 -1 -1 -1 -1 -1 -1 -1
 MicOpt= -1 -1 -1 -1 -1 -1 -1 -1 -1 -1 -1 -1 -1 -1 -1 -1 -1 -1 -1 -1
 NAtoms=    140 NQM=      140 NQMF=       0 NMMI=      0 NMMIF=      0
                NMic=       0 NMicF=      0.
                    Isotopes and Nuclear Properties:
 (Nuclear quadrupole moments (NQMom) in fm**2, nuclear magnetic moments (NMagM)
  in nuclear magnetons)

  Atom         1           2           3           4           5           6           7           8           9          10
 IAtWgt=          24          12          12          12          12          14          12          12          12          12
 AtmWgt=  23.9850450  12.0000000  12.0000000  12.0000000  12.0000000  14.0030740  12.0000000  12.0000000  12.0000000  12.0000000
 NucSpn=           0           0           0           0           0           2           0           0           0           0
 AtZEff=  -0.0000000  -0.0000000  -0.0000000  -0.0000000  -0.0000000  -0.0000000  -0.0000000  -0.0000000  -0.0000000  -0.0000000
 NQMom=    0.0000000   0.0000000   0.0000000   0.0000000   0.0000000   2.0440000   0.0000000   0.0000000   0.0000000   0.0000000
 NMagM=    0.0000000   0.0000000   0.0000000   0.0000000   0.0000000   0.4037610   0.0000000   0.0000000   0.0000000   0.0000000
 AtZNuc=  12.0000000   6.0000000   6.0000000   6.0000000   6.0000000   7.0000000   6.0000000   6.0000000   6.0000000   6.0000000

  Atom        11          12          13          14          15          16          17          18          19          20
 IAtWgt=          12          12          12          12          16          16          14          12          12          12
 AtmWgt=  12.0000000  12.0000000  12.0000000  12.0000000  15.9949146  15.9949146  14.0030740  12.0000000  12.0000000  12.0000000
 NucSpn=           0           0           0           0           0           0           2           0           0           0
 AtZEff=  -0.0000000  -0.0000000  -0.0000000  -0.0000000  -0.0000000  -0.0000000  -0.0000000  -0.0000000  -0.0000000  -0.0000000
 NQMom=    0.0000000   0.0000000   0.0000000   0.0000000   0.0000000   0.0000000   2.0440000   0.0000000   0.0000000   0.0000000
 NMagM=    0.0000000   0.0000000   0.0000000   0.0000000   0.0000000   0.0000000   0.4037610   0.0000000   0.0000000   0.0000000
 AtZNuc=   6.0000000   6.0000000   6.0000000   6.0000000   8.0000000   8.0000000   7.0000000   6.0000000   6.0000000   6.0000000

  Atom        21          22          23          24          25          26          27          28          29          30
 IAtWgt=          12          12          12          16          12          14          12          12          12          12
 AtmWgt=  12.0000000  12.0000000  12.0000000  15.9949146  12.0000000  14.0030740  12.0000000  12.0000000  12.0000000  12.0000000
 NucSpn=           0           0           0           0           0           2           0           0           0           0
 AtZEff=  -0.0000000  -0.0000000  -0.0000000  -0.0000000  -0.0000000  -0.0000000  -0.0000000  -0.0000000  -0.0000000  -0.0000000
 NQMom=    0.0000000   0.0000000   0.0000000   0.0000000   0.0000000   2.0440000   0.0000000   0.0000000   0.0000000   0.0000000
 NMagM=    0.0000000   0.0000000   0.0000000   0.0000000   0.0000000   0.4037610   0.0000000   0.0000000   0.0000000   0.0000000
 AtZNuc=   6.0000000   6.0000000   6.0000000   8.0000000   6.0000000   7.0000000   6.0000000   6.0000000   6.0000000   6.0000000

  Atom        31          32          33          34          35          36          37          38          39          40
 IAtWgt=          12          12          12          14          12          12          12          12          12          12
 AtmWgt=  12.0000000  12.0000000  12.0000000  14.0030740  12.0000000  12.0000000  12.0000000  12.0000000  12.0000000  12.0000000
 NucSpn=           0           0           0           2           0           0           0           0           0           0
 AtZEff=  -0.0000000  -0.0000000  -0.0000000  -0.0000000  -0.0000000  -0.0000000  -0.0000000  -0.0000000  -0.0000000  -0.0000000
 NQMom=    0.0000000   0.0000000   0.0000000   2.0440000   0.0000000   0.0000000   0.0000000   0.0000000   0.0000000   0.0000000
 NMagM=    0.0000000   0.0000000   0.0000000   0.4037610   0.0000000   0.0000000   0.0000000   0.0000000   0.0000000   0.0000000
 AtZNuc=   6.0000000   6.0000000   6.0000000   7.0000000   6.0000000   6.0000000   6.0000000   6.0000000   6.0000000   6.0000000

  Atom        41          42          43          44          45          46          47          48          49          50
 IAtWgt=          16          12          12          16          16          12          12          12          12          12
 AtmWgt=  15.9949146  12.0000000  12.0000000  15.9949146  15.9949146  12.0000000  12.0000000  12.0000000  12.0000000  12.0000000
 NucSpn=           0           0           0           0           0           0           0           0           0           0
 AtZEff=  -0.0000000  -0.0000000  -0.0000000  -0.0000000  -0.0000000  -0.0000000  -0.0000000  -0.0000000  -0.0000000  -0.0000000
 NQMom=    0.0000000   0.0000000   0.0000000   0.0000000   0.0000000   0.0000000   0.0000000   0.0000000   0.0000000   0.0000000
 NMagM=    0.0000000   0.0000000   0.0000000   0.0000000   0.0000000   0.0000000   0.0000000   0.0000000   0.0000000   0.0000000
 AtZNuc=   8.0000000   6.0000000   6.0000000   8.0000000   8.0000000   6.0000000   6.0000000   6.0000000   6.0000000   6.0000000

  Atom        51          52          53          54          55          56          57          58          59          60
 IAtWgt=          12          12          12          12          12          12          12          12          12          12
 AtmWgt=  12.0000000  12.0000000  12.0000000  12.0000000  12.0000000  12.0000000  12.0000000  12.0000000  12.0000000  12.0000000
 NucSpn=           0           0           0           0           0           0           0           0           0           0
 AtZEff=  -0.0000000  -0.0000000  -0.0000000  -0.0000000  -0.0000000  -0.0000000  -0.0000000  -0.0000000  -0.0000000  -0.0000000
 NQMom=    0.0000000   0.0000000   0.0000000   0.0000000   0.0000000   0.0000000   0.0000000   0.0000000   0.0000000   0.0000000
 NMagM=    0.0000000   0.0000000   0.0000000   0.0000000   0.0000000   0.0000000   0.0000000   0.0000000   0.0000000   0.0000000
 AtZNuc=   6.0000000   6.0000000   6.0000000   6.0000000   6.0000000   6.0000000   6.0000000   6.0000000   6.0000000   6.0000000

  Atom        61          62          63          64          65          66          67          68          69          70
 IAtWgt=          12          12          12          12          12          12           1           1           1           1
 AtmWgt=  12.0000000  12.0000000  12.0000000  12.0000000  12.0000000  12.0000000   1.0078250   1.0078250   1.0078250   1.0078250
 NucSpn=           0           0           0           0           0           0           1           1           1           1
 AtZEff=  -0.0000000  -0.0000000  -0.0000000  -0.0000000  -0.0000000  -0.0000000  -0.0000000  -0.0000000  -0.0000000  -0.0000000
 NQMom=    0.0000000   0.0000000   0.0000000   0.0000000   0.0000000   0.0000000   0.0000000   0.0000000   0.0000000   0.0000000
 NMagM=    0.0000000   0.0000000   0.0000000   0.0000000   0.0000000   0.0000000   2.7928460   2.7928460   2.7928460   2.7928460
 AtZNuc=   6.0000000   6.0000000   6.0000000   6.0000000   6.0000000   6.0000000   1.0000000   1.0000000   1.0000000   1.0000000

  Atom        71          72          73          74          75          76          77          78          79          80
 IAtWgt=           1           1           1           1           1           1           1           1           1           1
 AtmWgt=   1.0078250   1.0078250   1.0078250   1.0078250   1.0078250   1.0078250   1.0078250   1.0078250   1.0078250   1.0078250
 NucSpn=           1           1           1           1           1           1           1           1           1           1
 AtZEff=  -0.0000000  -0.0000000  -0.0000000  -0.0000000  -0.0000000  -0.0000000  -0.0000000  -0.0000000  -0.0000000  -0.0000000
 NQMom=    0.0000000   0.0000000   0.0000000   0.0000000   0.0000000   0.0000000   0.0000000   0.0000000   0.0000000   0.0000000
 NMagM=    2.7928460   2.7928460   2.7928460   2.7928460   2.7928460   2.7928460   2.7928460   2.7928460   2.7928460   2.7928460
 AtZNuc=   1.0000000   1.0000000   1.0000000   1.0000000   1.0000000   1.0000000   1.0000000   1.0000000   1.0000000   1.0000000

  Atom        81          82          83          84          85          86          87          88          89          90
 IAtWgt=           1           1           1           1           1           1           1           1           1           1
 AtmWgt=   1.0078250   1.0078250   1.0078250   1.0078250   1.0078250   1.0078250   1.0078250   1.0078250   1.0078250   1.0078250
 NucSpn=           1           1           1           1           1           1           1           1           1           1
 AtZEff=  -0.0000000  -0.0000000  -0.0000000  -0.0000000  -0.0000000  -0.0000000  -0.0000000  -0.0000000  -0.0000000  -0.0000000
 NQMom=    0.0000000   0.0000000   0.0000000   0.0000000   0.0000000   0.0000000   0.0000000   0.0000000   0.0000000   0.0000000
 NMagM=    2.7928460   2.7928460   2.7928460   2.7928460   2.7928460   2.7928460   2.7928460   2.7928460   2.7928460   2.7928460
 AtZNuc=   1.0000000   1.0000000   1.0000000   1.0000000   1.0000000   1.0000000   1.0000000   1.0000000   1.0000000   1.0000000

  Atom        91          92          93          94          95          96          97          98          99         100
 IAtWgt=           1           1           1           1           1           1           1           1           1           1
 AtmWgt=   1.0078250   1.0078250   1.0078250   1.0078250   1.0078250   1.0078250   1.0078250   1.0078250   1.0078250   1.0078250
 NucSpn=           1           1           1           1           1           1           1           1           1           1
 AtZEff=  -0.0000000  -0.0000000  -0.0000000  -0.0000000  -0.0000000  -0.0000000  -0.0000000  -0.0000000  -0.0000000  -0.0000000
 NQMom=    0.0000000   0.0000000   0.0000000   0.0000000   0.0000000   0.0000000   0.0000000   0.0000000   0.0000000   0.0000000
 NMagM=    2.7928460   2.7928460   2.7928460   2.7928460   2.7928460   2.7928460   2.7928460   2.7928460   2.7928460   2.7928460
 AtZNuc=   1.0000000   1.0000000   1.0000000   1.0000000   1.0000000   1.0000000   1.0000000   1.0000000   1.0000000   1.0000000

  Atom       101         102         103         104         105         106         107         108         109         110
 IAtWgt=           1           1           1           1           1           1           1           1           1           1
 AtmWgt=   1.0078250   1.0078250   1.0078250   1.0078250   1.0078250   1.0078250   1.0078250   1.0078250   1.0078250   1.0078250
 NucSpn=           1           1           1           1           1           1           1           1           1           1
 AtZEff=  -0.0000000  -0.0000000  -0.0000000  -0.0000000  -0.0000000  -0.0000000  -0.0000000  -0.0000000  -0.0000000  -0.0000000
 NQMom=    0.0000000   0.0000000   0.0000000   0.0000000   0.0000000   0.0000000   0.0000000   0.0000000   0.0000000   0.0000000
 NMagM=    2.7928460   2.7928460   2.7928460   2.7928460   2.7928460   2.7928460   2.7928460   2.7928460   2.7928460   2.7928460
 AtZNuc=   1.0000000   1.0000000   1.0000000   1.0000000   1.0000000   1.0000000   1.0000000   1.0000000   1.0000000   1.0000000

  Atom       111         112         113         114         115         116         117         118         119         120
 IAtWgt=           1           1           1           1           1           1           1           1           1           1
 AtmWgt=   1.0078250   1.0078250   1.0078250   1.0078250   1.0078250   1.0078250   1.0078250   1.0078250   1.0078250   1.0078250
 NucSpn=           1           1           1           1           1           1           1           1           1           1
 AtZEff=  -0.0000000  -0.0000000  -0.0000000  -0.0000000  -0.0000000  -0.0000000  -0.0000000  -0.0000000  -0.0000000  -0.0000000
 NQMom=    0.0000000   0.0000000   0.0000000   0.0000000   0.0000000   0.0000000   0.0000000   0.0000000   0.0000000   0.0000000
 NMagM=    2.7928460   2.7928460   2.7928460   2.7928460   2.7928460   2.7928460   2.7928460   2.7928460   2.7928460   2.7928460
 AtZNuc=   1.0000000   1.0000000   1.0000000   1.0000000   1.0000000   1.0000000   1.0000000   1.0000000   1.0000000   1.0000000

  Atom       121         122         123         124         125         126         127         128         129         130
 IAtWgt=           1           1           1           1           1           1           1           1           1           1
 AtmWgt=   1.0078250   1.0078250   1.0078250   1.0078250   1.0078250   1.0078250   1.0078250   1.0078250   1.0078250   1.0078250
 NucSpn=           1           1           1           1           1           1           1           1           1           1
 AtZEff=  -0.0000000  -0.0000000  -0.0000000  -0.0000000  -0.0000000  -0.0000000  -0.0000000  -0.0000000  -0.0000000  -0.0000000
 NQMom=    0.0000000   0.0000000   0.0000000   0.0000000   0.0000000   0.0000000   0.0000000   0.0000000   0.0000000   0.0000000
 NMagM=    2.7928460   2.7928460   2.7928460   2.7928460   2.7928460   2.7928460   2.7928460   2.7928460   2.7928460   2.7928460
 AtZNuc=   1.0000000   1.0000000   1.0000000   1.0000000   1.0000000   1.0000000   1.0000000   1.0000000   1.0000000   1.0000000

  Atom       131         132         133         134         135         136         137         138         139         140
 IAtWgt=           1           1           1           1           1           1           1           1           1           1
 AtmWgt=   1.0078250   1.0078250   1.0078250   1.0078250   1.0078250   1.0078250   1.0078250   1.0078250   1.0078250   1.0078250
 NucSpn=           1           1           1           1           1           1           1           1           1           1
 AtZEff=  -0.0000000  -0.0000000  -0.0000000  -0.0000000  -0.0000000  -0.0000000  -0.0000000  -0.0000000  -0.0000000  -0.0000000
 NQMom=    0.0000000   0.0000000   0.0000000   0.0000000   0.0000000   0.0000000   0.0000000   0.0000000   0.0000000   0.0000000
 NMagM=    2.7928460   2.7928460   2.7928460   2.7928460   2.7928460   2.7928460   2.7928460   2.7928460   2.7928460   2.7928460
 AtZNuc=   1.0000000   1.0000000   1.0000000   1.0000000   1.0000000   1.0000000   1.0000000   1.0000000   1.0000000   1.0000000
 Leave Link  101 at Wed May  4 09:05:07 2022, MaxMem= 10066329600 cpu:               3.3 elap:               0.2
 (Enter /sw/apps/gaussian-16.0/g16/l202.exe)
 Stoichiometry    C55H74MgN4O6
 Framework group  C1[X(C55H74MgN4O6)]
 Deg. of freedom   414
 Full point group                 C1      NOp   1
 Largest Abelian subgroup         C1      NOp   1
 Largest concise Abelian subgroup C1      NOp   1
                         Standard orientation:                         
 ---------------------------------------------------------------------
 Center     Atomic      Atomic             Coordinates (Angstroms)
 Number     Number       Type             X           Y           Z
 ---------------------------------------------------------------------
      1         12           0       -4.248883    0.438237   -0.236271
      2          6           0       -2.870741   -2.663117    0.721183
      3          6           0       -1.106366    1.661901   -0.359085
      4          6           0       -5.649695    3.170588   -1.265051
      5          6           0       -7.430682   -0.970293    0.588929
      6          7           0       -2.180733   -0.504293    0.208002
      7          6           0       -1.886853   -1.787758    0.369202
      8          6           0       -0.443125   -2.076926    0.231262
      9          6           0        0.175902   -0.637705    0.077112
     10          6           0       -1.072534    0.238836   -0.105297
     11          6           0        0.990769   -0.078846    1.232056
     12          6           0       -0.045980   -3.063042   -0.858890
     13          6           0        1.227284   -3.849642   -0.622129
     14          6           0        2.189833   -3.960750   -1.816327
     15          8           0        1.859728   -3.872690   -2.982907
     16          8           0        3.448264   -4.235508   -1.333490
     17          7           0       -3.443054    2.222284   -0.741575
     18          6           0       -2.113637    2.526335   -0.738079
     19          6           0       -1.983687    3.887721   -1.303995
     20          6           0       -3.284377    4.291316   -1.659266
     21          6           0       -4.195008    3.250864   -1.218459
     22          6           0       -0.665070    4.608258   -1.586025
     23          6           0       -3.724723    5.559510   -2.340590
     24          8           0       -4.874232    5.716328   -2.842537
     25          6           0       -2.882817    6.706652   -2.519060
     26          7           0       -6.264667    1.006765   -0.216389
     27          6           0       -6.556800    2.209975   -0.775386
     28          6           0       -8.136184    2.382838   -0.733988
     29          6           0       -8.697748    1.014258   -0.223942
     30          6           0       -7.392813    0.307930    0.096458
     31          6           0       -8.604703    3.637010    0.087857
     32          6           0       -9.588496    0.299491   -1.263996
     33          6           0      -10.638459    1.038527   -2.069790
     34          7           0       -5.016219   -1.338333    0.613116
     35          6           0       -6.316849   -1.795598    0.887243
     36          6           0       -6.320761   -3.078236    1.417615
     37          6           0       -4.980087   -3.468838    1.321139
     38          6           0       -4.240050   -2.384802    0.816777
     39          6           0       -7.519102   -3.826447    1.958892
     40          6           0       -4.164211   -4.637026    1.380035
     41          8           0       -4.446919   -5.821204    1.605441
     42          6           0       -2.724021   -4.122624    1.006152
     43          6           0       -1.866768   -4.315236    2.163925
     44          8           0       -1.768677   -3.683274    3.238163
     45          8           0       -1.207096   -5.517864    1.944595
     46          6           0       -0.665672   -6.244094    3.120170
     47          6           0        4.515117   -4.200679   -2.369340
     48          6           0        5.854282   -3.891055   -1.749371
     49          6           0        7.049740   -3.713674   -2.389254
     50          6           0        7.159387   -3.610961   -3.876303
     51          6           0        8.411891   -3.508441   -1.655022
     52          6           0        9.216560   -2.257820   -2.032242
     53          6           0       10.044251   -1.741371   -0.846867
     54          6           0       10.439569   -0.238075   -0.876103
     55          6           0       11.945527   -0.119567   -1.080384
     56          6           0        9.968546    0.486367    0.460285
     57          6           0        9.443226    1.912855    0.178330
     58          6           0        8.923743    2.500924    1.550535
     59          6           0        7.980804    3.625157    1.415508
     60          6           0        8.701151    4.857128    0.905176
     61          6           0        7.149002    3.939483    2.696549
     62          6           0        5.778609    4.679846    2.498391
     63          6           0        4.651680    3.845659    3.016041
     64          6           0        3.271703    4.531681    2.924730
     65          6           0        2.676484    4.812035    1.522489
     66          6           0        3.193470    5.759026    3.779152
     67          1           0       -0.138774    2.152643   -0.478446
     68          1           0       -6.181937    4.032632   -1.673358
     69          1           0       -8.406609   -1.344407    0.907863
     70          1           0       -0.099911   -2.511879    1.170811
     71          1           0        0.803301   -0.559913   -0.810874
     72          1           0        0.353424    0.657421    1.721302
     73          1           0        1.897233    0.414367    0.879759
     74          1           0        1.244072   -0.750216    2.051352
     75          1           0        0.092829   -2.460261   -1.756832
     76          1           0       -0.866597   -3.756831   -1.039294
     77          1           0        1.106757   -4.897504   -0.346073
     78          1           0        1.668699   -3.404710    0.269476
     79          1           0       -0.352677    5.424045   -0.933483
     80          1           0       -0.495287    4.954276   -2.605240
     81          1           0        0.181055    3.943302   -1.415271
     82          1           0       -2.380078    6.904378   -1.571829
     83          1           0       -3.413980    7.587809   -2.880778
     84          1           0       -2.207123    6.483977   -3.345131
     85          1           0       -8.296017    2.462760   -1.809562
     86          1           0       -9.236363    0.954641    0.721758
     87          1           0       -7.878532    4.444197    0.185721
     88          1           0       -8.895709    3.257086    1.067723
     89          1           0       -9.405765    4.110046   -0.480663
     90          1           0      -10.050634   -0.554282   -0.768685
     91          1           0       -8.904043   -0.116531   -2.003182
     92          1           0      -10.850755    1.977893   -1.559427
     93          1           0      -11.570536    0.472643   -2.075934
     94          1           0      -10.341217    1.195131   -3.107192
     95          1           0       -7.300133   -4.887810    1.845327
     96          1           0       -8.393931   -3.598876    1.348110
     97          1           0       -7.606097   -3.447735    2.976848
     98          1           0       -2.347289   -4.718704    0.175577
     99          1           0        0.401247   -6.327472    2.914388
    100          1           0       -1.323863   -7.109091    3.029916
    101          1           0       -0.868552   -5.746792    4.068012
    102          1           0        4.334660   -3.399190   -3.086004
    103          1           0        4.556496   -5.122453   -2.949374
    104          1           0        5.904929   -4.015568   -0.667550
    105          1           0        7.744581   -4.428641   -4.298704
    106          1           0        7.662727   -2.661442   -4.059254
    107          1           0        6.241924   -3.676099   -4.462007
    108          1           0        8.990707   -4.399455   -1.898037
    109          1           0        8.232560   -3.438692   -0.582147
    110          1           0        8.492015   -1.535657   -2.409535
    111          1           0        9.932131   -2.573565   -2.791585
    112          1           0       10.972355   -2.307029   -0.935170
    113          1           0        9.639643   -2.015010    0.127980
    114          1           0        9.982649    0.208059   -1.759545
    115          1           0       12.556267   -0.692617   -0.382548
    116          1           0       12.162608    0.946914   -1.137827
    117          1           0       12.267187   -0.491562   -2.052611
    118          1           0       10.772833    0.476050    1.195062
    119          1           0        9.112997   -0.000066    0.929230
    120          1           0        8.602278    1.824067   -0.508761
    121          1           0       10.207703    2.547043   -0.270304
    122          1           0        9.843690    2.811663    2.045472
    123          1           0        8.407272    1.741097    2.136577
    124          1           0        7.318450    3.404448    0.578633
    125          1           0        9.754978    4.603263    0.791658
    126          1           0        8.498353    5.731082    1.524447
    127          1           0        8.401051    5.151788   -0.100873
    128          1           0        7.601190    4.591342    3.443346
    129          1           0        7.047960    2.994223    3.229338
    130          1           0        5.703904    4.988396    1.455261
    131          1           0        5.933932    5.660746    2.948390
    132          1           0        4.943678    3.676303    4.052652
    133          1           0        4.658498    2.902213    2.470254
    134          1           0        2.530678    3.870840    3.372572
    135          1           0        3.554920    5.048748    0.921734
    136          1           0        1.944858    5.618517    1.473020
    137          1           0        2.196044    3.931983    1.094711
    138          1           0        2.901010    6.641438    3.209650
    139          1           0        4.071521    6.034840    4.364233
    140          1           0        2.470258    5.468370    4.540299
 ---------------------------------------------------------------------
 Rotational constants (GHZ):           0.0360289           0.0147362           0.0118347
 Leave Link  202 at Wed May  4 09:05:07 2022, MaxMem= 10066329600 cpu:               0.2 elap:               0.0
 (Enter /sw/apps/gaussian-16.0/g16/l301.exe)
 Standard basis: def2SVP (5D, 7F)
 Ernie: Thresh=  0.10000D-02 Tol=  0.10000D-05 Strict=F.
 There are  1364 symmetry adapted cartesian basis functions of A   symmetry.
 There are  1298 symmetry adapted basis functions of A   symmetry.
  1298 basis functions,  2180 primitive gaussians,  1364 cartesian basis functions
   246 alpha electrons      246 beta electrons
       nuclear repulsion energy      9818.3284066940 Hartrees.
 IExCor= 4639 DFT=T Ex+Corr=wB97XD ExCW=0 ScaHFX=  1.000000
 ScaDFX=  1.000000  1.000000  1.000000  1.000000 ScalE2=  1.000000  1.000000
 IRadAn=      5 IRanWt=     -1 IRanGd=            0 ICorTp=0 IEmpDi=121
 HFx  wShort=  0.000000 wLong=  0.200000 cFull=  0.222036 cShort=  0.000000 cLong=  0.777964
 DFx  wShort=  0.000000 wLong=  0.200000 cFull=  0.000000 cShort=  0.000000 cLong=  1.000000
 NAtoms=  140 NActive=  140 NUniq=  140 SFac= 1.00D+00 NAtFMM=   60 NAOKFM=T Big=T
 Integral buffers will be    131072 words long.
 Raffenetti 1 integral format.
 Two-electron integral symmetry is turned on.
 R6Disp:  Grimme-D2 Dispersion energy=       -0.1330987884 Hartrees.
 Nuclear repulsion after empirical dispersion term =     9818.1953079056 Hartrees.
 Leave Link  301 at Wed May  4 09:05:07 2022, MaxMem= 10066329600 cpu:               1.4 elap:               0.1
 (Enter /sw/apps/gaussian-16.0/g16/l302.exe)
 NPDir=0 NMtPBC=     1 NCelOv=     1 NCel=       1 NClECP=     1 NCelD=      1
         NCelK=      1 NCelE2=     1 NClLst=     1 CellRange=     0.0.
 One-electron integrals computed using PRISM.
 One-electron integral symmetry used in STVInt
   1 Symmetry operations used in ECPInt.
 ECPInt:  NShTT=  192510 NPrTT=  683786 LenC2=  103470 LenP2D=  221209.
 LDataN:  DoStor=T MaxTD1= 4 Len=   56
 NBasis=  1298 RedAO= T EigKep=  2.65D-04  NBF=  1298
 NBsUse=  1298 1.00D-06 EigRej= -1.00D+00 NBFU=  1298
 Precomputing XC quadrature grid using
 IXCGrd= 4 IRadAn=           5 IRanWt=          -1 IRanGd=           0 AccXCQ= 0.00D+00.
 Generated NRdTot=       0 NPtTot=           0 NUsed=           0 NTot=          32
 NSgBfM=  1190  1187  1187  1190  1190 MxSgAt=   140 MxSgA2=   140.
 Leave Link  302 at Wed May  4 09:05:11 2022, MaxMem= 10066329600 cpu:              82.4 elap:               3.5
 (Enter /sw/apps/gaussian-16.0/g16/l303.exe)
 DipDrv:  MaxL=1.
 Leave Link  303 at Wed May  4 09:05:11 2022, MaxMem= 10066329600 cpu:               7.4 elap:               0.3
 (Enter /sw/apps/gaussian-16.0/g16/l308.exe)
 Leave Link  308 at Wed May  4 09:05:11 2022, MaxMem= 10066329600 cpu:               9.6 elap:               0.5
 (Enter /sw/apps/gaussian-16.0/g16/l401.exe)
 ExpMin= 3.36D-02 ExpMax= 4.95D+03 ExpMxC= 7.45D+02 IAcc=3 IRadAn=         5 AccDes= 0.00D+00
 Harris functional with IExCor= 4639 and IRadAn=       5 diagonalized for initial guess.
 HarFok:  IExCor= 4639 AccDes= 0.00D+00 IRadAn=         5 IDoV= 1 UseB2=F ITyADJ=14
 ICtDFT=  3500011 ScaDFX=  1.000000  1.000000  1.000000  1.000000
 FoFCou: FMM=F IPFlag=           0 FMFlag=      100000 FMFlg1=        2001
         NFxFlg=           0 DoJE=T BraDBF=F KetDBF=T FulRan=T
         wScrn=  0.000000 ICntrl=       500 IOpCl=  0 I1Cent=   200000004 NGrid=           0
         NMat0=    1 NMatS0=      1 NMatT0=    0 NMatD0=    1 NMtDS0=    0 NMtDT0=    0
 Petite list used in FoFCou.
 Harris En= -2877.99868018374    
 JPrj=0 DoOrth=F DoCkMO=F.
 Leave Link  401 at Wed May  4 09:05:17 2022, MaxMem= 10066329600 cpu:             139.0 elap:               5.8
 (Enter /sw/apps/gaussian-16.0/g16/l502.exe)
 Integral symmetry usage will be decided dynamically.
 Closed shell SCF:
 Using DIIS extrapolation, IDIIS=  1040.
 NGot= 10066329600 LenX= 10062561258 LenY= 10060699398
 Requested convergence on RMS density matrix=1.00D-08 within 128 cycles.
 Requested convergence on MAX density matrix=1.00D-06.
 Requested convergence on             energy=1.00D-06.
 No special actions if energy rises.
 Fock matrices will be formed incrementally for  20 cycles.

 Cycle   1  Pass 1  IDiag  1:
 FoFJK:  IHMeth= 1 ICntrl=       0 DoSepK=T KAlg= 0 I1Cent=           0 FoldK=F
 IRaf=         1 NMat=       1 IRICut=       1 DoRegI=T DoRafI=F ISym2E= 0 IDoP0=0 IntGTp=1.
 FoFCou: FMM=T IPFlag=           0 FMFlag=      100000 FMFlg1=        2001
         NFxFlg=           0 DoJE=T BraDBF=F KetDBF=F FulRan=T
         wScrn=  0.000000 ICntrl=       500 IOpCl=  0 I1Cent=           0 NGrid=           0
         NMat0=    1 NMatS0=      1 NMatT0=    0 NMatD0=    1 NMtDS0=    0 NMtDT0=    0
 Symmetry not used in FoFCou.
 FMM levels:  10  Number of levels for PrismC:   9
 E= -3007.23017452555    
 DIIS: error= 2.68D-02 at cycle   1 NSaved=   1.
 NSaved= 1 IEnMin= 1 EnMin= -3007.23017452555     IErMin= 1 ErrMin= 2.68D-02
 ErrMax= 2.68D-02  0.00D+00 EMaxC= 1.00D-01 BMatC= 1.48D+00 BMatP= 1.48D+00
 IDIUse=3 WtCom= 7.32D-01 WtEn= 2.68D-01
 Coeff-Com:  0.100D+01
 Coeff-En:   0.100D+01
 Coeff:      0.100D+01
 Gap=     0.148 Goal=   None    Shift=    0.000
 GapD=    0.148 DampG=1.000 DampE=0.500 DampFc=0.5000 IDamp=-1.
 Damping current iteration by 5.00D-01
 RMSDP=1.61D-03 MaxDP=2.44D-01              OVMax= 2.39D-01

 Cycle   2  Pass 1  IDiag  1:
 RMSU=  7.91D-04    CP:  9.84D-01
 E= -3007.54955563646     Delta-E=       -0.319381110912 Rises=F Damp=T
 DIIS: error= 1.26D-02 at cycle   2 NSaved=   2.
 NSaved= 2 IEnMin= 2 EnMin= -3007.54955563646     IErMin= 2 ErrMin= 1.26D-02
 ErrMax= 1.26D-02  0.00D+00 EMaxC= 1.00D-01 BMatC= 2.88D-01 BMatP= 1.48D+00
 IDIUse=3 WtCom= 8.74D-01 WtEn= 1.26D-01
 Coeff-Com: -0.356D+00 0.136D+01
 Coeff-En:   0.000D+00 0.100D+01
 Coeff:     -0.312D+00 0.131D+01
 Gap=     0.176 Goal=   None    Shift=    0.000
 RMSDP=7.36D-04 MaxDP=7.32D-02 DE=-3.19D-01 OVMax= 2.03D-01

 Cycle   3  Pass 1  IDiag  1:
 RMSU=  6.95D-04    CP:  9.75D-01  1.29D+00
 E= -3007.77909442659     Delta-E=       -0.229538790129 Rises=F Damp=F
 DIIS: error= 1.27D-02 at cycle   3 NSaved=   3.
 NSaved= 3 IEnMin= 3 EnMin= -3007.77909442659     IErMin= 2 ErrMin= 1.26D-02
 ErrMax= 1.27D-02  0.00D+00 EMaxC= 1.00D-01 BMatC= 1.39D-01 BMatP= 2.88D-01
 IDIUse=3 WtCom= 8.73D-01 WtEn= 1.27D-01
 Coeff-Com: -0.313D+00 0.693D+00 0.620D+00
 Coeff-En:   0.000D+00 0.000D+00 0.100D+01
 Coeff:     -0.273D+00 0.605D+00 0.668D+00
 Gap=     0.160 Goal=   None    Shift=    0.000
 RMSDP=4.80D-04 MaxDP=6.84D-02 DE=-2.30D-01 OVMax= 1.34D-01

 Cycle   4  Pass 1  IDiag  1:
 RMSU=  2.41D-04    CP:  9.69D-01  1.62D+00  5.41D-01
 E= -3007.88285990267     Delta-E=       -0.103765476078 Rises=F Damp=F
 DIIS: error= 4.79D-03 at cycle   4 NSaved=   4.
 NSaved= 4 IEnMin= 4 EnMin= -3007.88285990267     IErMin= 4 ErrMin= 4.79D-03
 ErrMax= 4.79D-03  0.00D+00 EMaxC= 1.00D-01 BMatC= 2.04D-02 BMatP= 1.39D-01
 IDIUse=3 WtCom= 9.52D-01 WtEn= 4.79D-02
 Coeff-Com: -0.119D+00 0.239D+00 0.369D+00 0.511D+00
 Coeff-En:   0.000D+00 0.000D+00 0.989D-01 0.901D+00
 Coeff:     -0.113D+00 0.228D+00 0.356D+00 0.529D+00
 Gap=     0.160 Goal=   None    Shift=    0.000
 RMSDP=1.53D-04 MaxDP=1.60D-02 DE=-1.04D-01 OVMax= 3.99D-02

 Cycle   5  Pass 1  IDiag  1:
 RMSU=  6.79D-05    CP:  9.70D-01  1.57D+00  6.84D-01  6.40D-01
 E= -3007.90026472451     Delta-E=       -0.017404821836 Rises=F Damp=F
 DIIS: error= 6.63D-04 at cycle   5 NSaved=   5.
 NSaved= 5 IEnMin= 5 EnMin= -3007.90026472451     IErMin= 5 ErrMin= 6.63D-04
 ErrMax= 6.63D-04  0.00D+00 EMaxC= 1.00D-01 BMatC= 5.16D-04 BMatP= 2.04D-02
 IDIUse=3 WtCom= 9.93D-01 WtEn= 6.63D-03
 Coeff-Com: -0.340D-01 0.651D-01 0.129D+00 0.241D+00 0.599D+00
 Coeff-En:   0.000D+00 0.000D+00 0.000D+00 0.000D+00 0.100D+01
 Coeff:     -0.338D-01 0.646D-01 0.128D+00 0.240D+00 0.601D+00
 Gap=     0.160 Goal=   None    Shift=    0.000
 RMSDP=3.16D-05 MaxDP=7.52D-03 DE=-1.74D-02 OVMax= 5.38D-03

 Cycle   6  Pass 1  IDiag  1:
 RMSU=  2.44D-05    CP:  9.70D-01  1.58D+00  6.81D-01  7.05D-01  8.48D-01
 E= -3007.90067849160     Delta-E=       -0.000413767095 Rises=F Damp=F
 DIIS: error= 2.08D-04 at cycle   6 NSaved=   6.
 NSaved= 6 IEnMin= 6 EnMin= -3007.90067849160     IErMin= 6 ErrMin= 2.08D-04
 ErrMax= 2.08D-04  0.00D+00 EMaxC= 1.00D-01 BMatC= 7.06D-05 BMatP= 5.16D-04
 IDIUse=3 WtCom= 9.98D-01 WtEn= 2.08D-03
 Coeff-Com:  0.974D-02-0.210D-01-0.164D-01 0.700D-03 0.275D+00 0.752D+00
 Coeff-En:   0.000D+00 0.000D+00 0.000D+00 0.000D+00 0.000D+00 0.100D+01
 Coeff:      0.972D-02-0.209D-01-0.163D-01 0.699D-03 0.275D+00 0.752D+00
 Gap=     0.161 Goal=   None    Shift=    0.000
 RMSDP=1.28D-05 MaxDP=1.79D-03 DE=-4.14D-04 OVMax= 4.55D-03

 Cycle   7  Pass 1  IDiag  1:
 RMSU=  8.59D-06    CP:  9.70D-01  1.58D+00  6.87D-01  7.14D-01  9.62D-01
                    CP:  9.12D-01
 E= -3007.90075937393     Delta-E=       -0.000080882330 Rises=F Damp=F
 DIIS: error= 6.41D-05 at cycle   7 NSaved=   7.
 NSaved= 7 IEnMin= 7 EnMin= -3007.90075937393     IErMin= 7 ErrMin= 6.41D-05
 ErrMax= 6.41D-05  0.00D+00 EMaxC= 1.00D-01 BMatC= 7.27D-06 BMatP= 7.06D-05
 IDIUse=1 WtCom= 1.00D+00 WtEn= 0.00D+00
 Coeff-Com:  0.679D-02-0.138D-01-0.172D-01-0.221D-01 0.512D-01 0.307D+00
 Coeff-Com:  0.688D+00
 Coeff:      0.679D-02-0.138D-01-0.172D-01-0.221D-01 0.512D-01 0.307D+00
 Coeff:      0.688D+00
 Gap=     0.161 Goal=   None    Shift=    0.000
 RMSDP=5.30D-06 MaxDP=1.73D-03 DE=-8.09D-05 OVMax= 1.04D-03

 Cycle   8  Pass 1  IDiag  1:
 RMSU=  3.52D-06    CP:  9.69D-01  1.58D+00  6.88D-01  7.21D-01  9.78D-01
                    CP:  1.04D+00  9.76D-01
 E= -3007.90076920484     Delta-E=       -0.000009830906 Rises=F Damp=F
 DIIS: error= 3.49D-05 at cycle   8 NSaved=   8.
 NSaved= 8 IEnMin= 8 EnMin= -3007.90076920484     IErMin= 8 ErrMin= 3.49D-05
 ErrMax= 3.49D-05  0.00D+00 EMaxC= 1.00D-01 BMatC= 1.46D-06 BMatP= 7.27D-06
 IDIUse=1 WtCom= 1.00D+00 WtEn= 0.00D+00
 Coeff-Com:  0.172D-02-0.324D-02-0.584D-02-0.122D-01-0.283D-01 0.136D-01
 Coeff-Com:  0.326D+00 0.708D+00
 Coeff:      0.172D-02-0.324D-02-0.584D-02-0.122D-01-0.283D-01 0.136D-01
 Coeff:      0.326D+00 0.708D+00
 Gap=     0.161 Goal=   None    Shift=    0.000
 RMSDP=2.22D-06 MaxDP=1.86D-04 DE=-9.83D-06 OVMax= 1.06D-03

 Cycle   9  Pass 1  IDiag  1:
 RMSU=  1.38D-06    CP:  9.69D-01  1.58D+00  6.89D-01  7.22D-01  9.91D-01
                    CP:  1.07D+00  1.12D+00  1.01D+00
 E= -3007.90077181567     Delta-E=       -0.000002610830 Rises=F Damp=F
 DIIS: error= 1.17D-05 at cycle   9 NSaved=   9.
 NSaved= 9 IEnMin= 9 EnMin= -3007.90077181567     IErMin= 9 ErrMin= 1.17D-05
 ErrMax= 1.17D-05  0.00D+00 EMaxC= 1.00D-01 BMatC= 2.16D-07 BMatP= 1.46D-06
 IDIUse=1 WtCom= 1.00D+00 WtEn= 0.00D+00
 Coeff-Com: -0.380D-03 0.854D-03 0.366D-03-0.143D-02-0.191D-01-0.396D-01
 Coeff-Com:  0.195D-01 0.282D+00 0.758D+00
 Coeff:     -0.380D-03 0.854D-03 0.366D-03-0.143D-02-0.191D-01-0.396D-01
 Coeff:      0.195D-01 0.282D+00 0.758D+00
 Gap=     0.161 Goal=   None    Shift=    0.000
 RMSDP=1.18D-06 MaxDP=2.92D-04 DE=-2.61D-06 OVMax= 4.84D-04

 Cycle  10  Pass 1  IDiag  1:
 RMSU=  6.55D-07    CP:  9.69D-01  1.58D+00  6.89D-01  7.22D-01  9.92D-01
                    CP:  1.09D+00  1.17D+00  1.21D+00  1.16D+00
 E= -3007.90077238593     Delta-E=       -0.000000570260 Rises=F Damp=F
 DIIS: error= 8.33D-06 at cycle  10 NSaved=  10.
 NSaved=10 IEnMin=10 EnMin= -3007.90077238593     IErMin=10 ErrMin= 8.33D-06
 ErrMax= 8.33D-06  0.00D+00 EMaxC= 1.00D-01 BMatC= 4.59D-08 BMatP= 2.16D-07
 IDIUse=1 WtCom= 1.00D+00 WtEn= 0.00D+00
 Coeff-Com: -0.581D-03 0.115D-02 0.154D-02 0.235D-02-0.151D-02-0.196D-01
 Coeff-Com: -0.746D-01-0.454D-01 0.301D+00 0.836D+00
 Coeff:     -0.581D-03 0.115D-02 0.154D-02 0.235D-02-0.151D-02-0.196D-01
 Coeff:     -0.746D-01-0.454D-01 0.301D+00 0.836D+00
 Gap=     0.161 Goal=   None    Shift=    0.000
 RMSDP=6.96D-07 MaxDP=8.38D-05 DE=-5.70D-07 OVMax= 4.07D-04

 Cycle  11  Pass 1  IDiag  1:
 RMSU=  3.59D-07    CP:  9.69D-01  1.58D+00  6.89D-01  7.23D-01  9.93D-01
                    CP:  1.10D+00  1.19D+00  1.29D+00  1.44D+00  1.22D+00
 E= -3007.90077259567     Delta-E=       -0.000000209744 Rises=F Damp=F
 DIIS: error= 4.52D-06 at cycle  11 NSaved=  11.
 NSaved=11 IEnMin=11 EnMin= -3007.90077259567     IErMin=11 ErrMin= 4.52D-06
 ErrMax= 4.52D-06  0.00D+00 EMaxC= 1.00D-01 BMatC= 1.76D-08 BMatP= 4.59D-08
 IDIUse=1 WtCom= 1.00D+00 WtEn= 0.00D+00
 Coeff-Com: -0.203D-03 0.389D-03 0.623D-03 0.138D-02 0.255D-02-0.141D-02
 Coeff-Com: -0.400D-01-0.680D-01-0.615D-02 0.424D+00 0.687D+00
 Coeff:     -0.203D-03 0.389D-03 0.623D-03 0.138D-02 0.255D-02-0.141D-02
 Coeff:     -0.400D-01-0.680D-01-0.615D-02 0.424D+00 0.687D+00
 Gap=     0.161 Goal=   None    Shift=    0.000
 RMSDP=3.50D-07 MaxDP=4.53D-05 DE=-2.10D-07 OVMax= 1.99D-04

 Cycle  12  Pass 1  IDiag  1:
 RMSU=  1.71D-07    CP:  9.69D-01  1.58D+00  6.89D-01  7.23D-01  9.93D-01
                    CP:  1.11D+00  1.20D+00  1.33D+00  1.53D+00  1.51D+00
                    CP:  1.32D+00
 E= -3007.90077266835     Delta-E=       -0.000000072676 Rises=F Damp=F
 DIIS: error= 2.64D-06 at cycle  12 NSaved=  12.
 NSaved=12 IEnMin=12 EnMin= -3007.90077266835     IErMin=12 ErrMin= 2.64D-06
 ErrMax= 2.64D-06  0.00D+00 EMaxC= 1.00D-01 BMatC= 4.19D-09 BMatP= 1.76D-08
 IDIUse=1 WtCom= 1.00D+00 WtEn= 0.00D+00
 Coeff-Com:  0.127D-03-0.255D-03-0.357D-03-0.359D-03 0.669D-03 0.585D-02
 Coeff-Com:  0.137D-01 0.559D-02-0.960D-01-0.160D+00 0.396D-01 0.119D+01
 Coeff:      0.127D-03-0.255D-03-0.357D-03-0.359D-03 0.669D-03 0.585D-02
 Coeff:      0.137D-01 0.559D-02-0.960D-01-0.160D+00 0.396D-01 0.119D+01
 Gap=     0.161 Goal=   None    Shift=    0.000
 RMSDP=3.80D-07 MaxDP=2.64D-05 DE=-7.27D-08 OVMax= 2.56D-04

 Cycle  13  Pass 1  IDiag  1:
 RMSU=  1.12D-07    CP:  9.69D-01  1.58D+00  6.89D-01  7.23D-01  9.93D-01
                    CP:  1.11D+00  1.20D+00  1.34D+00  1.63D+00  1.78D+00
                    CP:  2.00D+00  1.88D+00
 E= -3007.90077271991     Delta-E=       -0.000000051561 Rises=F Damp=F
 DIIS: error= 1.74D-06 at cycle  13 NSaved=  13.
 NSaved=13 IEnMin=13 EnMin= -3007.90077271991     IErMin=13 ErrMin= 1.74D-06
 ErrMax= 1.74D-06  0.00D+00 EMaxC= 1.00D-01 BMatC= 2.32D-09 BMatP= 4.19D-09
 IDIUse=1 WtCom= 1.00D+00 WtEn= 0.00D+00
 Coeff-Com:  0.153D-03-0.299D-03-0.472D-03-0.767D-03-0.958D-03 0.324D-02
 Coeff-Com:  0.238D-01 0.355D-01-0.380D-01-0.257D+00-0.348D+00 0.592D+00
 Coeff-Com:  0.990D+00
 Coeff:      0.153D-03-0.299D-03-0.472D-03-0.767D-03-0.958D-03 0.324D-02
 Coeff:      0.238D-01 0.355D-01-0.380D-01-0.257D+00-0.348D+00 0.592D+00
 Coeff:      0.990D+00
 Gap=     0.161 Goal=   None    Shift=    0.000
 RMSDP=3.24D-07 MaxDP=2.19D-05 DE=-5.16D-08 OVMax= 2.11D-04

 Cycle  14  Pass 1  IDiag  1:
 RMSU=  6.05D-08    CP:  9.69D-01  1.58D+00  6.89D-01  7.23D-01  9.93D-01
                    CP:  1.11D+00  1.20D+00  1.34D+00  1.70D+00  1.99D+00
                    CP:  2.57D+00  2.84D+00  1.57D+00
 E= -3007.90077274489     Delta-E=       -0.000000024980 Rises=F Damp=F
 DIIS: error= 8.56D-07 at cycle  14 NSaved=  14.
 NSaved=14 IEnMin=14 EnMin= -3007.90077274489     IErMin=14 ErrMin= 8.56D-07
 ErrMax= 8.56D-07  0.00D+00 EMaxC= 1.00D-01 BMatC= 5.90D-10 BMatP= 2.32D-09
 IDIUse=1 WtCom= 1.00D+00 WtEn= 0.00D+00
 Coeff-Com:  0.247D-04-0.457D-04-0.977D-04-0.216D-03-0.717D-03-0.716D-03
 Coeff-Com:  0.578D-02 0.151D-01 0.192D-01-0.579D-01-0.191D+00-0.123D+00
 Coeff-Com:  0.394D+00 0.939D+00
 Coeff:      0.247D-04-0.457D-04-0.977D-04-0.216D-03-0.717D-03-0.716D-03
 Coeff:      0.578D-02 0.151D-01 0.192D-01-0.579D-01-0.191D+00-0.123D+00
 Coeff:      0.394D+00 0.939D+00
 Gap=     0.161 Goal=   None    Shift=    0.000
 RMSDP=1.90D-07 MaxDP=1.91D-05 DE=-2.50D-08 OVMax= 1.28D-04

 Cycle  15  Pass 1  IDiag  1:
 RMSU=  7.56D-08    CP:  9.69D-01  1.58D+00  6.89D-01  7.23D-01  9.93D-01
                    CP:  1.11D+00  1.20D+00  1.34D+00  1.72D+00  2.09D+00
                    CP:  2.91D+00  3.00D+00  2.15D+00  1.41D+00
 E= -3007.90077275158     Delta-E=       -0.000000006696 Rises=F Damp=F
 DIIS: error= 3.92D-07 at cycle  15 NSaved=  15.
 NSaved=15 IEnMin=15 EnMin= -3007.90077275158     IErMin=15 ErrMin= 3.92D-07
 ErrMax= 3.92D-07  0.00D+00 EMaxC= 1.00D-01 BMatC= 1.97D-10 BMatP= 5.90D-10
 IDIUse=1 WtCom= 1.00D+00 WtEn= 0.00D+00
 Coeff-Com: -0.402D-04 0.802D-04 0.112D-03 0.159D-03-0.341D-04-0.150D-02
 Coeff-Com: -0.545D-02-0.527D-02 0.214D-01 0.575D-01 0.221D-01-0.236D+00
 Coeff-Com: -0.180D+00 0.491D+00 0.836D+00
 Coeff:     -0.402D-04 0.802D-04 0.112D-03 0.159D-03-0.341D-04-0.150D-02
 Coeff:     -0.545D-02-0.527D-02 0.214D-01 0.575D-01 0.221D-01-0.236D+00
 Coeff:     -0.180D+00 0.491D+00 0.836D+00
 Gap=     0.161 Goal=   None    Shift=    0.000
 RMSDP=9.12D-08 MaxDP=8.16D-06 DE=-6.70D-09 OVMax= 5.92D-05

 Cycle  16  Pass 1  IDiag  1:
 RMSU=  3.21D-08    CP:  9.69D-01  1.58D+00  6.89D-01  7.23D-01  9.93D-01
                    CP:  1.11D+00  1.21D+00  1.34D+00  1.74D+00  2.13D+00
                    CP:  3.00D+00  3.00D+00  2.44D+00  1.83D+00  1.58D+00
 E= -3007.90077275285     Delta-E=       -0.000000001262 Rises=F Damp=F
 DIIS: error= 1.09D-07 at cycle  16 NSaved=  16.
 NSaved=16 IEnMin=16 EnMin= -3007.90077275285     IErMin=16 ErrMin= 1.09D-07
 ErrMax= 1.09D-07  0.00D+00 EMaxC= 1.00D-01 BMatC= 2.59D-11 BMatP= 1.97D-10
 IDIUse=1 WtCom= 1.00D+00 WtEn= 0.00D+00
 Coeff-Com: -0.187D-04 0.366D-04 0.566D-04 0.910D-04 0.995D-04-0.442D-03
 Coeff-Com: -0.290D-02-0.439D-02 0.616D-02 0.313D-01 0.374D-01-0.663D-01
 Coeff-Com: -0.148D+00 0.470D-01 0.309D+00 0.791D+00
 Coeff:     -0.187D-04 0.366D-04 0.566D-04 0.910D-04 0.995D-04-0.442D-03
 Coeff:     -0.290D-02-0.439D-02 0.616D-02 0.313D-01 0.374D-01-0.663D-01
 Coeff:     -0.148D+00 0.470D-01 0.309D+00 0.791D+00
 Gap=     0.161 Goal=   None    Shift=    0.000
 RMSDP=2.63D-08 MaxDP=5.30D-06 DE=-1.26D-09 OVMax= 1.61D-05

 Cycle  17  Pass 1  IDiag  1:
 RMSU=  1.15D-08    CP:  9.69D-01  1.58D+00  6.89D-01  7.23D-01  9.93D-01
                    CP:  1.11D+00  1.21D+00  1.34D+00  1.74D+00  2.14D+00
                    CP:  3.00D+00  3.00D+00  2.53D+00  1.98D+00  1.76D+00
                    CP:  1.33D+00
 E= -3007.90077275308     Delta-E=       -0.000000000229 Rises=F Damp=F
 DIIS: error= 6.47D-08 at cycle  17 NSaved=  17.
 NSaved=17 IEnMin=17 EnMin= -3007.90077275308     IErMin=17 ErrMin= 6.47D-08
 ErrMax= 6.47D-08  0.00D+00 EMaxC= 1.00D-01 BMatC= 5.82D-12 BMatP= 2.59D-11
 IDIUse=1 WtCom= 1.00D+00 WtEn= 0.00D+00
 Coeff-Com:  0.165D-05-0.355D-05-0.338D-05-0.170D-05 0.465D-04 0.159D-03
 Coeff-Com:  0.120D-03-0.540D-03-0.198D-02-0.135D-02 0.773D-02 0.293D-01
 Coeff-Com: -0.220D-01-0.719D-01-0.638D-01 0.284D+00 0.841D+00
 Coeff:      0.165D-05-0.355D-05-0.338D-05-0.170D-05 0.465D-04 0.159D-03
 Coeff:      0.120D-03-0.540D-03-0.198D-02-0.135D-02 0.773D-02 0.293D-01
 Coeff:     -0.220D-01-0.719D-01-0.638D-01 0.284D+00 0.841D+00
 Gap=     0.161 Goal=   None    Shift=    0.000
 RMSDP=8.95D-09 MaxDP=1.30D-06 DE=-2.29D-10 OVMax= 4.66D-06

 Cycle  18  Pass 1  IDiag  1:
 RMSU=  5.48D-09    CP:  9.69D-01  1.58D+00  6.89D-01  7.23D-01  9.93D-01
                    CP:  1.11D+00  1.21D+00  1.34D+00  1.74D+00  2.14D+00
                    CP:  3.00D+00  3.00D+00  2.55D+00  2.03D+00  1.80D+00
                    CP:  1.44D+00  1.24D+00
 E= -3007.90077275301     Delta-E=        0.000000000064 Rises=F Damp=F
 DIIS: error= 5.51D-08 at cycle  18 NSaved=  18.
 NSaved=18 IEnMin=17 EnMin= -3007.90077275308     IErMin=18 ErrMin= 5.51D-08
 ErrMax= 5.51D-08  0.00D+00 EMaxC= 1.00D-01 BMatC= 1.72D-12 BMatP= 5.82D-12
 IDIUse=1 WtCom= 1.00D+00 WtEn= 0.00D+00
 Coeff-Com:  0.482D-05-0.953D-05-0.146D-04-0.220D-04-0.383D-05 0.159D-03
 Coeff-Com:  0.713D-03 0.801D-03-0.200D-02-0.805D-02-0.604D-02 0.286D-01
 Coeff-Com:  0.230D-01-0.321D-01-0.996D-01-0.784D-01 0.317D+00 0.856D+00
 Coeff:      0.482D-05-0.953D-05-0.146D-04-0.220D-04-0.383D-05 0.159D-03
 Coeff:      0.713D-03 0.801D-03-0.200D-02-0.805D-02-0.604D-02 0.286D-01
 Coeff:      0.230D-01-0.321D-01-0.996D-01-0.784D-01 0.317D+00 0.856D+00
 Gap=     0.161 Goal=   None    Shift=    0.000
 RMSDP=5.63D-09 MaxDP=7.06D-07 DE= 6.37D-11 OVMax= 2.77D-06

 SCF Done:  E(RwB97XD) =  -3007.90077275     A.U. after   18 cycles
            NFock= 18  Conv=0.56D-08     -V/T= 2.0106
 KE= 2.976431545043D+03 PE=-2.662938204554D+04 EE= 1.082685441984D+04
 Leave Link  502 at Wed May  4 09:11:54 2022, MaxMem= 10066329600 cpu:            9103.9 elap:             396.7
 (Enter /sw/apps/gaussian-16.0/g16/l801.exe)
 DoSCS=F DFT=T ScalE2(SS,OS)=  1.000000  1.000000
 ExpMin= 3.36D-02 ExpMax= 4.95D+03 ExpMxC= 7.45D+02 IAcc=3 IRadAn=         5 AccDes= 0.00D+00
 HarFok:  IExCor=  205 AccDes= 0.00D+00 IRadAn=         5 IDoV=-2 UseB2=F ITyADJ=14
 ICtDFT= 12500011 ScaDFX=  1.000000  1.000000  1.000000  1.000000
 GSVD:  LWork=       -5460 too small for GESVD, short by       25550 words or       25550 for optimal perf.
 Largest valence mixing into a core orbital is  1.72D-04
 Largest core mixing into a valence orbital is  5.38D-05
 Range of M.O.s used for correlation:    71  1298
 NBasis=  1298 NAE=   246 NBE=   246 NFC=    70 NFV=     0
 NROrb=   1228 NOA=   176 NOB=   176 NVA=  1052 NVB=  1052
 Leave Link  801 at Wed May  4 09:11:54 2022, MaxMem= 10066329600 cpu:               6.1 elap:               0.3
 (Enter /sw/apps/gaussian-16.0/g16/l914.exe)
 RHF ground state
 Two-electron integrals replicated using symmetry.
 MDV= 10066329600 DFT=T DoStab=F Mixed=T DoRPA=T DoScal=F NonHer=T
 Making orbital integer symmetry assigments:
 Orbital symmetries:
       Occupied  (A) (A) (A) (A) (A) (A) (A) (A) (A) (A) (A) (A)
                 (A) (A) (A) (A) (A) (A) (A) (A) (A) (A) (A) (A)
                 (A) (A) (A) (A) (A) (A) (A) (A) (A) (A) (A) (A)
                 (A) (A) (A) (A) (A) (A) (A) (A) (A) (A) (A) (A)
                 (A) (A) (A) (A) (A) (A) (A) (A) (A) (A) (A) (A)
                 (A) (A) (A) (A) (A) (A) (A) (A) (A) (A) (A) (A)
                 (A) (A) (A) (A) (A) (A) (A) (A) (A) (A) (A) (A)
                 (A) (A) (A) (A) (A) (A) (A) (A) (A) (A) (A) (A)
                 (A) (A) (A) (A) (A) (A) (A) (A) (A) (A) (A) (A)
                 (A) (A) (A) (A) (A) (A) (A) (A) (A) (A) (A) (A)
                 (A) (A) (A) (A) (A) (A) (A) (A) (A) (A) (A) (A)
                 (A) (A) (A) (A) (A) (A) (A) (A) (A) (A) (A) (A)
                 (A) (A) (A) (A) (A) (A) (A) (A) (A) (A) (A) (A)
                 (A) (A) (A) (A) (A) (A) (A) (A) (A) (A) (A) (A)
                 (A) (A) (A) (A) (A) (A) (A) (A) (A) (A) (A) (A)
                 (A) (A) (A) (A) (A) (A) (A) (A) (A) (A) (A) (A)
                 (A) (A) (A) (A) (A) (A) (A) (A) (A) (A) (A) (A)
                 (A) (A) (A) (A) (A) (A) (A) (A) (A) (A) (A) (A)
                 (A) (A) (A) (A) (A) (A) (A) (A) (A) (A) (A) (A)
                 (A) (A) (A) (A) (A) (A) (A) (A) (A) (A) (A) (A)
                 (A) (A) (A) (A) (A) (A)
       Virtual   (A) (A) (A) (A) (A) (A) (A) (A) (A) (A) (A) (A)
                 (A) (A) (A) (A) (A) (A) (A) (A) (A) (A) (A) (A)
                 (A) (A) (A) (A) (A) (A) (A) (A) (A) (A) (A) (A)
                 (A) (A) (A) (A) (A) (A) (A) (A) (A) (A) (A) (A)
                 (A) (A) (A) (A) (A) (A) (A) (A) (A) (A) (A) (A)
                 (A) (A) (A) (A) (A) (A) (A) (A) (A) (A) (A) (A)
                 (A) (A) (A) (A) (A) (A) (A) (A) (A) (A) (A) (A)
                 (A) (A) (A) (A) (A) (A) (A) (A) (A) (A) (A) (A)
                 (A) (A) (A) (A) (A) (A) (A) (A) (A) (A) (A) (A)
                 (A) (A) (A) (A) (A) (A) (A) (A) (A) (A) (A) (A)
                 (A) (A) (A) (A) (A) (A) (A) (A) (A) (A) (A) (A)
                 (A) (A) (A) (A) (A) (A) (A) (A) (A) (A) (A) (A)
                 (A) (A) (A) (A) (A) (A) (A) (A) (A) (A) (A) (A)
                 (A) (A) (A) (A) (A) (A) (A) (A) (A) (A) (A) (A)
                 (A) (A) (A) (A) (A) (A) (A) (A) (A) (A) (A) (A)
                 (A) (A) (A) (A) (A) (A) (A) (A) (A) (A) (A) (A)
                 (A) (A) (A) (A) (A) (A) (A) (A) (A) (A) (A) (A)
                 (A) (A) (A) (A) (A) (A) (A) (A) (A) (A) (A) (A)
                 (A) (A) (A) (A) (A) (A) (A) (A) (A) (A) (A) (A)
                 (A) (A) (A) (A) (A) (A) (A) (A) (A) (A) (A) (A)
                 (A) (A) (A) (A) (A) (A) (A) (A) (A) (A) (A) (A)
                 (A) (A) (A) (A) (A) (A) (A) (A) (A) (A) (A) (A)
                 (A) (A) (A) (A) (A) (A) (A) (A) (A) (A) (A) (A)
                 (A) (A) (A) (A) (A) (A) (A) (A) (A) (A) (A) (A)
                 (A) (A) (A) (A) (A) (A) (A) (A) (A) (A) (A) (A)
                 (A) (A) (A) (A) (A) (A) (A) (A) (A) (A) (A) (A)
                 (A) (A) (A) (A) (A) (A) (A) (A) (A) (A) (A) (A)
                 (A) (A) (A) (A) (A) (A) (A) (A) (A) (A) (A) (A)
                 (A) (A) (A) (A) (A) (A) (A) (A) (A) (A) (A) (A)
                 (A) (A) (A) (A) (A) (A) (A) (A) (A) (A) (A) (A)
                 (A) (A) (A) (A) (A) (A) (A) (A) (A) (A) (A) (A)
                 (A) (A) (A) (A) (A) (A) (A) (A) (A) (A) (A) (A)
                 (A) (A) (A) (A) (A) (A) (A) (A) (A) (A) (A) (A)
                 (A) (A) (A) (A) (A) (A) (A) (A) (A) (A) (A) (A)
                 (A) (A) (A) (A) (A) (A) (A) (A) (A) (A) (A) (A)
                 (A) (A) (A) (A) (A) (A) (A) (A) (A) (A) (A) (A)
                 (A) (A) (A) (A) (A) (A) (A) (A) (A) (A) (A) (A)
                 (A) (A) (A) (A) (A) (A) (A) (A) (A) (A) (A) (A)
                 (A) (A) (A) (A) (A) (A) (A) (A) (A) (A) (A) (A)
                 (A) (A) (A) (A) (A) (A) (A) (A) (A) (A) (A) (A)
                 (A) (A) (A) (A) (A) (A) (A) (A) (A) (A) (A) (A)
                 (A) (A) (A) (A) (A) (A) (A) (A) (A) (A) (A) (A)
                 (A) (A) (A) (A) (A) (A) (A) (A) (A) (A) (A) (A)
                 (A) (A) (A) (A) (A) (A) (A) (A) (A) (A) (A) (A)
                 (A) (A) (A) (A) (A) (A) (A) (A) (A) (A) (A) (A)
                 (A) (A) (A) (A) (A) (A) (A) (A) (A) (A) (A) (A)
                 (A) (A) (A) (A) (A) (A) (A) (A) (A) (A) (A) (A)
                 (A) (A) (A) (A) (A) (A) (A) (A) (A) (A) (A) (A)
                 (A) (A) (A) (A) (A) (A) (A) (A) (A) (A) (A) (A)
                 (A) (A) (A) (A) (A) (A) (A) (A) (A) (A) (A) (A)
                 (A) (A) (A) (A) (A) (A) (A) (A) (A) (A) (A) (A)
                 (A) (A) (A) (A) (A) (A) (A) (A) (A) (A) (A) (A)
                 (A) (A) (A) (A) (A) (A) (A) (A) (A) (A) (A) (A)
                 (A) (A) (A) (A) (A) (A) (A) (A) (A) (A) (A) (A)
                 (A) (A) (A) (A) (A) (A) (A) (A) (A) (A) (A) (A)
                 (A) (A) (A) (A) (A) (A) (A) (A) (A) (A) (A) (A)
                 (A) (A) (A) (A) (A) (A) (A) (A) (A) (A) (A) (A)
                 (A) (A) (A) (A) (A) (A) (A) (A) (A) (A) (A) (A)
                 (A) (A) (A) (A) (A) (A) (A) (A) (A) (A) (A) (A)
                 (A) (A) (A) (A) (A) (A) (A) (A) (A) (A) (A) (A)
                 (A) (A) (A) (A) (A) (A) (A) (A) (A) (A) (A) (A)
                 (A) (A) (A) (A) (A) (A) (A) (A) (A) (A) (A) (A)
                 (A) (A) (A) (A) (A) (A) (A) (A) (A) (A) (A) (A)
                 (A) (A) (A) (A) (A) (A) (A) (A) (A) (A) (A) (A)
                 (A) (A) (A) (A) (A) (A) (A) (A) (A) (A) (A) (A)
                 (A) (A) (A) (A) (A) (A) (A) (A) (A) (A) (A) (A)
                 (A) (A) (A) (A) (A) (A) (A) (A) (A) (A) (A) (A)
                 (A) (A) (A) (A) (A) (A) (A) (A) (A) (A) (A) (A)
                 (A) (A) (A) (A) (A) (A) (A) (A) (A) (A) (A) (A)
                 (A) (A) (A) (A) (A) (A) (A) (A) (A) (A) (A) (A)
                 (A) (A) (A) (A) (A) (A) (A) (A) (A) (A) (A) (A)
                 (A) (A) (A) (A) (A) (A) (A) (A) (A) (A) (A) (A)
                 (A) (A) (A) (A) (A) (A) (A) (A) (A) (A) (A) (A)
                 (A) (A) (A) (A) (A) (A) (A) (A) (A) (A) (A) (A)
                 (A) (A) (A) (A) (A) (A) (A) (A) (A) (A) (A) (A)
                 (A) (A) (A) (A) (A) (A) (A) (A) (A) (A) (A) (A)
                 (A) (A) (A) (A) (A) (A) (A) (A) (A) (A) (A) (A)
                 (A) (A) (A) (A) (A) (A) (A) (A) (A) (A) (A) (A)
                 (A) (A) (A) (A) (A) (A) (A) (A) (A) (A) (A) (A)
                 (A) (A) (A) (A) (A) (A) (A) (A) (A) (A) (A) (A)
                 (A) (A) (A) (A) (A) (A) (A) (A) (A) (A) (A) (A)
                 (A) (A) (A) (A) (A) (A) (A) (A) (A) (A) (A) (A)
                 (A) (A) (A) (A) (A) (A) (A) (A) (A) (A) (A) (A)
                 (A) (A) (A) (A) (A) (A) (A) (A) (A) (A) (A) (A)
                 (A) (A) (A) (A) (A) (A) (A) (A) (A) (A) (A) (A)
                 (A) (A) (A) (A) (A) (A) (A) (A) (A) (A) (A) (A)
                 (A) (A) (A) (A) (A) (A) (A) (A) (A) (A) (A) (A)
                 (A) (A) (A) (A) (A) (A) (A) (A)
    20 initial guesses have been made.
 Convergence on wavefunction:    0.001000000000000
 Davidson Disk Diagonalization:  ConvIn= 1.00D-03 SkipCon=T Conv= 1.00D-03.
 Max sub-space:  2000 roots to seek:    20 dimension of matrix:       370304
 Iteration     1 Dimension    20 NMult     0 NNew     20
 CISAX will form    20 AO SS matrices at one time.
 NMat=    20 NSing=    20 JSym2X= 0.
 FoFJK:  IHMeth= 1 ICntrl=       0 DoSepK=T KAlg= 0 I1Cent=           0 FoldK=F
 IRaf=         1 NMat=      40 IRICut=       1 DoRegI=T DoRafI=F ISym2E= 0 IDoP0=3 IntGTp=3.
 FoFCou: FMM=T IPFlag=           0 FMFlag=      100000 FMFlg1=        2001
         NFxFlg=           0 DoJE=F BraDBF=F KetDBF=F FulRan=T
         wScrn=  0.000000 ICntrl=       500 IOpCl=  0 I1Cent=           0 NGrid=           0
         NMat0=   20 NMatS0=     20 NMatT0=    0 NMatD0=   20 NMtDS0=    0 NMtDT0=    0
 Symmetry not used in FoFCou.
 FMM levels:  10  Number of levels for PrismC:   9
 New state      3 was old state      4
 New state      4 was old state      7
 New state      5 was old state      9
 Excitation Energies [eV] at current iteration:
 Root      1 :     2.235124760388741
 Root      2 :     2.643196702540472
 Root      3 :     3.830723654293830
 Root      4 :     4.145084984931618
 Root      5 :     4.162647018346026
 Root      6 :     4.212004087020110
 Root      7 :     4.424340993103680
 Root      8 :     4.546141561399658
 Root      9 :     4.563996591450456
 Root     10 :     4.615260456973718
 Root     11 :     4.664049585224332
 Root     12 :     4.903525251907657
 Root     13 :     5.058259203862428
 Root     14 :     5.175431286040170
 Root     15 :     5.291959044035281
 Root     16 :     5.427877625302371
 Root     17 :     5.490724453546732
 Root     18 :     6.233047631830665
 Root     19 :     6.561744092881841
 Root     20 :     7.000305355913683
 Iteration     2 Dimension    30 NMult    20 NNew     10
 CISAX will form    10 AO SS matrices at one time.
 NMat=    10 NSing=    10 JSym2X= 0.
 Root      1 not converged, maximum delta is    0.073435721886417
 Root      2 not converged, maximum delta is    0.060257283418933
 Root      3 not converged, maximum delta is    0.071805778376167
 New state      4 was old state      5
 Root      4 not converged, maximum delta is    0.395782518470872
 New state      5 was old state      4
 Root      5 not converged, maximum delta is    0.256057922892044
 Excitation Energies [eV] at current iteration:
 Root      1 :     1.743981590929018   Change is   -0.491143169459723
 Root      2 :     2.216192734998995   Change is   -0.427003967541477
 Root      3 :     3.474680724946849   Change is   -0.356042929346981
 Root      4 :     3.687894595247856   Change is   -0.474752423098170
 Root      5 :     3.724338437216113   Change is   -0.420746547715505
 Iteration     3 Dimension    40 NMult    30 NNew     10
 CISAX will form    10 AO SS matrices at one time.
 NMat=    10 NSing=    10 JSym2X= 0.
 Root      1 not converged, maximum delta is    0.017987915419987
 Root      2 not converged, maximum delta is    0.018637080402892
 Root      3 not converged, maximum delta is    0.017693641600701
 New state      4 was old state      5
 Root      4 not converged, maximum delta is    0.132323340942040
 New state      5 was old state      4
 Root      5 not converged, maximum delta is    0.091808858380160
 Excitation Energies [eV] at current iteration:
 Root      1 :     1.706319627306295   Change is   -0.037661963622723
 Root      2 :     2.192281494018788   Change is   -0.023911240980207
 Root      3 :     3.459453872555081   Change is   -0.015226852391768
 Root      4 :     3.561035787831110   Change is   -0.163302649385003
 Root      5 :     3.636898678859594   Change is   -0.050995916388262
 Iteration     4 Dimension    50 NMult    40 NNew     10
 CISAX will form    10 AO SS matrices at one time.
 NMat=    10 NSing=    10 JSym2X= 0.
 Root      1 not converged, maximum delta is    0.005751490167420
 Root      2 not converged, maximum delta is    0.003553645847615
 Root      3 not converged, maximum delta is    0.007168447212340
 Root      4 not converged, maximum delta is    0.024665638648893
 Root      5 not converged, maximum delta is    0.075840601009713
 Excitation Energies [eV] at current iteration:
 Root      1 :     1.702064318977356   Change is   -0.004255308328939
 Root      2 :     2.189509893696640   Change is   -0.002771600322149
 Root      3 :     3.455537360278032   Change is   -0.003916512277049
 Root      4 :     3.532863548061831   Change is   -0.028172239769279
 Root      5 :     3.614380053505647   Change is   -0.022518625353947
 Iteration     5 Dimension    60 NMult    50 NNew     10
 CISAX will form    10 AO SS matrices at one time.
 NMat=    10 NSing=    10 JSym2X= 0.
 Root      1 not converged, maximum delta is    0.001289180220175
 Root      2 not converged, maximum delta is    0.001055592288976
 Root      3 not converged, maximum delta is    0.008455919018131
 Root      4 not converged, maximum delta is    0.013977927169775
 Root      5 not converged, maximum delta is    0.045510373871395
 Excitation Energies [eV] at current iteration:
 Root      1 :     1.701674116169207   Change is   -0.000390202808149
 Root      2 :     2.189262588372111   Change is   -0.000247305324529
 Root      3 :     3.454840576442471   Change is   -0.000696783835561
 Root      4 :     3.529314501576919   Change is   -0.003549046484912
 Root      5 :     3.607064280458042   Change is   -0.007315773047606
 Iteration     6 Dimension    70 NMult    60 NNew     10
 CISAX will form    10 AO SS matrices at one time.
 NMat=    10 NSing=    10 JSym2X= 0.
 Root      1 has converged.
 Root      2 has converged.
 Root      3 not converged, maximum delta is    0.073757772683231
 Root      4 not converged, maximum delta is    0.348059709297606
 Root      5 not converged, maximum delta is    0.475926159051048
 Excitation Energies [eV] at current iteration:
 Root      1 :     1.701642200532518   Change is   -0.000031915636689
 Root      2 :     2.189237637317982   Change is   -0.000024951054129
 Root      3 :     3.453136755604719   Change is   -0.001703820837752
 Root      4 :     3.507662101639638   Change is   -0.021652399937280
 Root      5 :     3.537618982964641   Change is   -0.069445297493401
 Iteration     7 Dimension    76 NMult    70 NNew      6
 CISAX will form     6 AO SS matrices at one time.
 NMat=     6 NSing=     6 JSym2X= 0.
 Root      1 has converged.
 Root      2 has converged.
 New state      3 was old state      4
 Root      3 not converged, maximum delta is    0.375844845903695
 New state      4 was old state      3
 Root      4 not converged, maximum delta is    0.286098722214603
 Root      5 not converged, maximum delta is    0.197557371677851
 Excitation Energies [eV] at current iteration:
 Root      1 :     1.701641906368579   Change is   -0.000000294163938
 Root      2 :     2.189237176162539   Change is   -0.000000461155443
 Root      3 :     3.432395795502426   Change is   -0.075266306137212
 Root      4 :     3.459403176775134   Change is    0.006266421170415
 Root      5 :     3.530974573419977   Change is   -0.006644409544663
 Iteration     8 Dimension    82 NMult    76 NNew      6
 CISAX will form     6 AO SS matrices at one time.
 NMat=     6 NSing=     6 JSym2X= 0.
 Root      1 has converged.
 Root      2 has converged.
 Root      3 not converged, maximum delta is    0.053563708799142
 Root      4 not converged, maximum delta is    0.041518072692293
 Root      5 not converged, maximum delta is    0.006087286222112
 Excitation Energies [eV] at current iteration:
 Root      1 :     1.701641851267855   Change is   -0.000000055100724
 Root      2 :     2.189237011240429   Change is   -0.000000164922110
 Root      3 :     3.425843401602218   Change is   -0.006552393900208
 Root      4 :     3.458381847372990   Change is   -0.001021329402144
 Root      5 :     3.530789502786692   Change is   -0.000185070633285
 Iteration     9 Dimension    88 NMult    82 NNew      6
 CISAX will form     6 AO SS matrices at one time.
 NMat=     6 NSing=     6 JSym2X= 0.
 Root      1 has converged.
 Root      2 has converged.
 Root      3 not converged, maximum delta is    0.004519223499898
 Root      4 not converged, maximum delta is    0.003509188883010
 Root      5 has converged.
 Excitation Energies [eV] at current iteration:
 Root      1 :     1.701641836431058   Change is   -0.000000014836797
 Root      2 :     2.189236907949248   Change is   -0.000000103291181
 Root      3 :     3.425173765005050   Change is   -0.000669636597168
 Root      4 :     3.458300680984250   Change is   -0.000081166388739
 Root      5 :     3.530769828295418   Change is   -0.000019674491274
 Iteration    10 Dimension    92 NMult    88 NNew      4
 CISAX will form     4 AO SS matrices at one time.
 NMat=     4 NSing=     4 JSym2X= 0.
 Root      1 has converged.
 Root      2 has converged.
 Root      3 has converged.
 Root      4 has converged.
 Root      5 has converged.
 Excitation Energies [eV] at current iteration:
 Root      1 :     1.701641823438329   Change is   -0.000000012992729
 Root      2 :     2.189236894261131   Change is   -0.000000013688117
 Root      3 :     3.425103279973832   Change is   -0.000070485031218
 Root      4 :     3.458291920305212   Change is   -0.000008760679039
 Root      5 :     3.530768152119647   Change is   -0.000001676175771
 Convergence achieved on expansion vectors.
 ***********************************************************************
 Excited states from <AA,BB:AA,BB> singles matrix:
 ***********************************************************************
 
 1PDM for each excited state written to RWF  633
 Ground to excited state transition densities written to RWF  633
 Ground to excited state transition electric dipole moments (Au):
       state          X           Y           Z        Dip. S.      Osc.
         1        -1.3576     -2.5956      0.9133      9.4144      0.3925
         2        -1.3226      0.8465     -0.3082      2.5609      0.1374
         3         0.0575     -0.0165      0.0139      0.0038      0.0003
         4         0.1116     -0.0720     -0.0205      0.0181      0.0015
         5        -0.0450      0.0436     -0.0622      0.0078      0.0007
 Ground to excited state transition velocity dipole moments (Au):
       state          X           Y           Z        Dip. S.      Osc.
         1         0.0813      0.1579     -0.0549      0.0346      0.3684
         2         0.1010     -0.0652      0.0231      0.0150      0.1242
         3        -0.0107      0.0013      0.0010      0.0001      0.0006
         4        -0.0171      0.0092      0.0025      0.0004      0.0020
         5         0.0041     -0.0063      0.0054      0.0001      0.0004
 Ground to excited state transition magnetic dipole moments (Au):
       state          X           Y           Z
         1        -0.0169     -0.4439     -1.2580
         2         0.0339     -0.0156     -0.0024
         3        -0.6759      0.0738     -0.6152
         4         0.1235     -0.3413     -0.8860
         5        -0.1047     -0.6336      0.3518
 Ground to excited state transition velocity quadrupole moments (Au):
       state          XX          YY          ZZ          XY          XZ          YZ
         1        -1.2353      0.1981      0.0235     -1.1160      0.4700     -0.0513
         2        -1.5544      0.1216      0.0095      0.5576     -0.1921      0.0176
         3         0.2422     -0.2148     -0.0024     -0.0078     -0.0445      0.0485
         4         0.4629     -0.4414     -0.0232      0.0058     -0.1482      0.1451
         5        -0.0602      0.0820      0.0331     -0.0322      0.0255     -0.0641
 <0|del|b> * <b|rxdel|0> + <0|del|b> * <b|delr+rdel|0>
 Rotatory Strengths (R) in cgs (10**-40 erg-esu-cm/Gauss)
       state          XX          YY          ZZ    R(velocity)    E-M Angle
         1       -79.2967     12.6704     39.0783     -9.1827       90.56
         2         5.7149    -33.9124     66.7742     12.8589       16.58
         3        -1.3077     17.0737     21.7989     12.5216       47.48
         4       -11.0568    -18.9665    -11.5540    -13.8591      113.44
         5        16.0129      3.7533     10.0068      9.9243       36.09
 1/2[<0|r|b>*<b|rxdel|0> + (<0|rxdel|b>*<b|r|0>)*]
 Rotatory Strengths (R) in cgs (10**-40 erg-esu-cm/Gauss)
       state          XX          YY          ZZ     R(length)
         1       -16.2421   -814.7850    812.4810     -6.1820
         2        31.7004      9.3573     -0.5158     13.5140
         3        27.4900      0.8620      6.0312     11.4610
         4        -9.7451    -17.3915    -12.8340    -13.3235
         5        -3.3308     19.5562     15.4703     10.5652
  1/2[<0|del|b>*<b|r|0> + (<0|r|b>*<b|del|0>)*] (Au)
       state          X           Y           Z        Dip. S.   Osc.(frdel)
         1        -0.1104     -0.4098     -0.0501      0.5703      0.3802
         2        -0.1336     -0.0552     -0.0071      0.1959      0.1306
         3        -0.0006     -0.0000      0.0000      0.0006      0.0004
         4        -0.0019     -0.0007     -0.0001      0.0026      0.0018
         5        -0.0002     -0.0003     -0.0003      0.0008      0.0005

 Excitation energies and oscillator strengths:
 
 Excited State   1:      Singlet-A      1.7016 eV  728.62 nm  f=0.3925  <S**2>=0.000
     245 -> 248        0.19059
[...]
 Alpha virt. eigenvalues --    1.31359   1.31942   1.32189   1.33481   1.33562
 Alpha virt. eigenvalues --    1.33949   1.34140   1.34844   1.35062   1.35284
 Alpha virt. eigenvalues --    1.36147   1.36667   1.36793   1.37052   1.37977
 Alpha virt. eigenvalues --    1.38355   1.38613   1.40066   1.40114   1.40362
 Alpha virt. eigenvalues --    1.40592   1.41086   1.41275   1.41752   1.42044
 Alpha virt. eigenvalues --    1.42087   1.42659   1.42837   1.43117   1.43669
 Alpha virt. eigenvalues --    1.44246   1.44382   1.44724   1.45059   1.45217
 Alpha virt. eigenvalues --    1.45642   1.46069   1.46360   1.46501   1.46744
 Alpha virt. eigenvalues --    1.47372   1.47476   1.48655   1.48869   1.49007
 Alpha virt. eigenvalues --    1.49466   1.49912   1.50193   1.50657   1.51010
 Alpha virt. eigenvalues --    1.51312   1.51965   1.52614   1.52788   1.53070
 Alpha virt. eigenvalues --    1.53690   1.53937   1.54599   1.55651   1.55965
 Alpha virt. eigenvalues --    1.56330   1.56965   1.57439   1.58399   1.58763
 Alpha virt. eigenvalues --    1.59150   1.59205   1.59563   1.59759   1.60205
 Alpha virt. eigenvalues --    1.60285   1.60433   1.60877   1.61144   1.61401
 Alpha virt. eigenvalues --    1.61623   1.62070   1.62462   1.62548   1.62814
 Alpha virt. eigenvalues --    1.62983   1.63259   1.63491   1.63739   1.64091
 Alpha virt. eigenvalues --    1.64380   1.64808   1.64965   1.65233   1.65415
 Alpha virt. eigenvalues --    1.65861   1.65974   1.66212   1.66615   1.66720
 Alpha virt. eigenvalues --    1.67221   1.67621   1.68227   1.68451   1.68723
 Alpha virt. eigenvalues --    1.69181   1.69866   1.70537   1.71214   1.71379
 Alpha virt. eigenvalues --    1.71478   1.72386   1.72989   1.73389   1.73576
 Alpha virt. eigenvalues --    1.74027   1.74083   1.75094   1.75746   1.76192
 Alpha virt. eigenvalues --    1.76416   1.76649   1.77291   1.77471   1.77561
 Alpha virt. eigenvalues --    1.77711   1.78219   1.78315   1.79009   1.79268
 Alpha virt. eigenvalues --    1.79732   1.80506   1.80815   1.81157   1.81376
 Alpha virt. eigenvalues --    1.81605   1.81722   1.81833   1.82424   1.82564
 Alpha virt. eigenvalues --    1.82651   1.82743   1.82928   1.83128   1.83433
 Alpha virt. eigenvalues --    1.83643   1.83863   1.84022   1.84214   1.84300
 Alpha virt. eigenvalues --    1.84534   1.84817   1.84997   1.85363   1.85729
 Alpha virt. eigenvalues --    1.85915   1.86101   1.86208   1.86323   1.86542
 Alpha virt. eigenvalues --    1.86859   1.86998   1.87180   1.87309   1.87512
 Alpha virt. eigenvalues --    1.87735   1.88033   1.88087   1.88168   1.88381
 Alpha virt. eigenvalues --    1.88532   1.88660   1.89190   1.89269   1.89544
 Alpha virt. eigenvalues --    1.89685   1.89871   1.90045   1.90480   1.90968
 Alpha virt. eigenvalues --    1.91082   1.91331   1.91650   1.91871   1.92090
 Alpha virt. eigenvalues --    1.92172   1.92464   1.92652   1.92954   1.93000
 Alpha virt. eigenvalues --    1.93083   1.93210   1.93345   1.93425   1.93764
 Alpha virt. eigenvalues --    1.93801   1.93931   1.94075   1.94343   1.94507
 Alpha virt. eigenvalues --    1.94638   1.94893   1.95062   1.95244   1.95425
 Alpha virt. eigenvalues --    1.96035   1.96314   1.96353   1.96887   1.96961
 Alpha virt. eigenvalues --    1.97241   1.97497   1.97868   1.98131   1.98212
 Alpha virt. eigenvalues --    1.98407   1.98601   1.98759   1.98903   1.98970
 Alpha virt. eigenvalues --    1.99594   1.99707   1.99880   2.00292   2.00556
 Alpha virt. eigenvalues --    2.00921   2.01003   2.01524   2.01676   2.01893
 Alpha virt. eigenvalues --    2.02292   2.02471   2.03155   2.03333   2.03401
 Alpha virt. eigenvalues --    2.03549   2.03853   2.04088   2.04683   2.05122
 Alpha virt. eigenvalues --    2.05243   2.05702   2.05958   2.06244   2.06369
 Alpha virt. eigenvalues --    2.06529   2.06751   2.06929   2.07545   2.07623
 Alpha virt. eigenvalues --    2.07987   2.08145   2.08429   2.08535   2.08681
 Alpha virt. eigenvalues --    2.09217   2.09382   2.09992   2.10351   2.10600
 Alpha virt. eigenvalues --    2.10698   2.11001   2.11098   2.11370   2.12010
 Alpha virt. eigenvalues --    2.12330   2.12464   2.12681   2.12752   2.13756
 Alpha virt. eigenvalues --    2.13823   2.13977   2.14453   2.14527   2.14799
 Alpha virt. eigenvalues --    2.15145   2.15289   2.15664   2.16133   2.16336
 Alpha virt. eigenvalues --    2.16540   2.17045   2.17198   2.17560   2.17990
 Alpha virt. eigenvalues --    2.18116   2.18330   2.18764   2.19084   2.19133
 Alpha virt. eigenvalues --    2.19236   2.19458   2.20060   2.20414   2.20768
 Alpha virt. eigenvalues --    2.21537   2.21889   2.22322   2.22361   2.22738
 Alpha virt. eigenvalues --    2.22989   2.23220   2.23592   2.23981   2.24353
 Alpha virt. eigenvalues --    2.25061   2.25133   2.25293   2.25625   2.26374
 Alpha virt. eigenvalues --    2.26543   2.26711   2.26869   2.27116   2.28123
 Alpha virt. eigenvalues --    2.28562   2.29068   2.29578   2.30632   2.30908
 Alpha virt. eigenvalues --    2.31230   2.31336   2.32242   2.32869   2.33432
 Alpha virt. eigenvalues --    2.33484   2.34468   2.34612   2.34871   2.35142
 Alpha virt. eigenvalues --    2.35632   2.36097   2.36170   2.36666   2.36932
 Alpha virt. eigenvalues --    2.37042   2.37467   2.37667   2.38291   2.38678
 Alpha virt. eigenvalues --    2.39402   2.39562   2.40098   2.40398   2.40741
 Alpha virt. eigenvalues --    2.40826   2.41759   2.42031   2.42379   2.43169
 Alpha virt. eigenvalues --    2.43402   2.43591   2.43844   2.44637   2.44901
 Alpha virt. eigenvalues --    2.45005   2.45607   2.45743   2.45828   2.46261
 Alpha virt. eigenvalues --    2.46308   2.46971   2.47060   2.47664   2.47966
 Alpha virt. eigenvalues --    2.48166   2.48419   2.48717   2.49374   2.49683
 Alpha virt. eigenvalues --    2.49932   2.49944   2.50133   2.50745   2.51111
 Alpha virt. eigenvalues --    2.51622   2.52171   2.52857   2.53028   2.53425
 Alpha virt. eigenvalues --    2.53821   2.53996   2.54124   2.54437   2.54748
 Alpha virt. eigenvalues --    2.56268   2.56580   2.56836   2.57036   2.57289
 Alpha virt. eigenvalues --    2.58258   2.58721   2.58893   2.59182   2.59965
 Alpha virt. eigenvalues --    2.60165   2.60914   2.62125   2.62488   2.62709
 Alpha virt. eigenvalues --    2.63066   2.63304   2.63428   2.63965   2.64223
 Alpha virt. eigenvalues --    2.65063   2.65586   2.65898   2.66069   2.66148
 Alpha virt. eigenvalues --    2.66499   2.67175   2.67329   2.67657   2.67922
 Alpha virt. eigenvalues --    2.68277   2.68702   2.68988   2.69820   2.69962
 Alpha virt. eigenvalues --    2.70767   2.71244   2.71398   2.71904   2.72112
 Alpha virt. eigenvalues --    2.72590   2.72647   2.73019   2.73344   2.73891
 Alpha virt. eigenvalues --    2.74074   2.74415   2.74463   2.74629   2.74985
 Alpha virt. eigenvalues --    2.75527   2.75951   2.76208   2.76325   2.77677
 Alpha virt. eigenvalues --    2.78148   2.78302   2.78471   2.78996   2.79984
 Alpha virt. eigenvalues --    2.80252   2.80637   2.80915   2.81101   2.81258
 Alpha virt. eigenvalues --    2.81860   2.82153   2.82480   2.82817   2.82971
 Alpha virt. eigenvalues --    2.83320   2.83635   2.83978   2.84907   2.85449
 Alpha virt. eigenvalues --    2.86886   2.87697   2.87975   2.88097   2.88555
 Alpha virt. eigenvalues --    2.89364   2.89594   2.89941   2.90369   2.90789
 Alpha virt. eigenvalues --    2.91532   2.91730   2.92430   2.93643   2.93684
 Alpha virt. eigenvalues --    2.94062   2.94960   2.95384   2.95669   2.96177
 Alpha virt. eigenvalues --    2.96444   2.96609   2.97329   2.97421   2.98126
 Alpha virt. eigenvalues --    2.98456   2.98946   2.99058   2.99523   2.99830
 Alpha virt. eigenvalues --    3.00298   3.00821   3.00996   3.01160   3.01655
 Alpha virt. eigenvalues --    3.01845   3.01985   3.02457   3.02756   3.03032
 Alpha virt. eigenvalues --    3.03376   3.03464   3.03747   3.04246   3.04499
 Alpha virt. eigenvalues --    3.04762   3.04881   3.05062   3.05288   3.06240
 Alpha virt. eigenvalues --    3.06310   3.06620   3.06665   3.06780   3.07292
 Alpha virt. eigenvalues --    3.07429   3.07728   3.07937   3.08247   3.08494
 Alpha virt. eigenvalues --    3.08606   3.09063   3.09349   3.10158   3.11193
 Alpha virt. eigenvalues --    3.11331   3.11608   3.11859   3.12308   3.12503
 Alpha virt. eigenvalues --    3.13077   3.14150   3.14690   3.15012   3.15278
 Alpha virt. eigenvalues --    3.15469   3.16101   3.16676   3.16760   3.16807
 Alpha virt. eigenvalues --    3.17215   3.17383   3.18285   3.18418   3.18560
 Alpha virt. eigenvalues --    3.19210   3.20364   3.20745   3.20993   3.22439
 Alpha virt. eigenvalues --    3.22991   3.23547   3.24471   3.24872   3.27023
 Alpha virt. eigenvalues --    3.27317   3.27992   3.28970   3.29835   3.31355
 Alpha virt. eigenvalues --    3.32385   3.35705   3.44840   3.47096   3.47658
 Alpha virt. eigenvalues --    3.50002   3.52091   3.55444   3.56023   3.59590
 Alpha virt. eigenvalues --    3.65238   3.67563   3.68707   3.68994   3.72617
 Alpha virt. eigenvalues --    3.73300   3.75735
          Condensed to atoms (all electrons):
 Mulliken charges:
               1
     1  Mg   0.963774
     2  C    0.003002
     3  C   -0.061133
     4  C   -0.063916
     5  C   -0.105626
     6  N   -0.298170
     7  C   -0.040431
     8  C   -0.066147
     9  C   -0.098998
    10  C    0.043089
    11  C    0.025526
    12  C    0.058730
    13  C   -0.018460
    14  C    0.216006
    15  O   -0.251342
    16  O   -0.373672
    17  N   -0.500130
    18  C    0.145994
    19  C   -0.122159
    20  C   -0.049493
    21  C    0.156218
    22  C    0.043889
    23  C    0.033374
    24  O   -0.278134
    25  C    0.024176
    26  N   -0.380695
    27  C    0.056677
    28  C   -0.071517
    29  C   -0.071681
    30  C    0.065037
    31  C    0.029162
    32  C   -0.039225
    33  C   -0.030801
    34  N   -0.405655
    35  C    0.126261
    36  C   -0.200841
    37  C   -0.050694
    38  C    0.171901
    39  C    0.098493
    40  C    0.112121
    41  O   -0.223638
    42  C   -0.098941
    43  C    0.273940
    44  O   -0.274299
    45  O   -0.395707
    46  C    0.123800
    47  C    0.249591
    48  C   -0.144916
    49  C   -0.215407
    50  C    0.021541
    51  C    0.047639
    52  C   -0.063928
    53  C    0.016633
    54  C   -0.150726
    55  C   -0.004418
    56  C   -0.000461
    57  C   -0.048718
    58  C   -0.005228
    59  C   -0.148742
    60  C    0.007493
    61  C    0.005531
    62  C   -0.047207
    63  C    0.020601
    64  C   -0.174046
    65  C   -0.012866
    66  C   -0.019568
    67  H   -0.013905
    68  H    0.021460
    69  H   -0.007496
    70  H    0.045512
    71  H    0.035225
    72  H    0.039326
    73  H    0.041074
    74  H    0.045767
    75  H    0.038267
    76  H    0.033380
    77  H    0.072146
    78  H    0.047130
    79  H    0.053604
    80  H    0.051201
    81  H    0.019046
    82  H    0.050096
    83  H    0.055667
    84  H    0.055394
    85  H    0.044020
    86  H    0.034926
    87  H    0.043748
    88  H    0.043447
    89  H    0.041339
    90  H    0.025618
    91  H    0.025165
    92  H    0.030488
    93  H    0.036181
    94  H    0.045618
    95  H    0.063001
    96  H    0.037262
    97  H    0.065669
    98  H    0.079463
    99  H    0.061745
   100  H    0.075506
   101  H    0.069362
   102  H    0.056561
   103  H    0.061526
   104  H    0.027615
   105  H    0.040525
   106  H    0.043797
   107  H    0.029655
   108  H    0.035924
   109  H    0.018403
   110  H    0.041223
   111  H    0.030905
   112  H    0.005176
   113  H    0.017017
   114  H    0.016824
   115  H    0.036088
   116  H    0.023821
   117  H    0.019842
   118  H    0.021810
   119  H    0.019315
   120  H    0.018055
   121  H    0.026064
   122  H    0.020156
   123  H    0.011136
   124  H    0.009866
   125  H    0.019659
   126  H    0.026916
   127  H    0.018029
   128  H    0.017504
   129  H    0.003651
   130  H    0.007109
   131  H    0.011188
   132  H    0.027168
   133  H    0.021674
   134  H    0.019643
   135  H    0.019154
   136  H    0.034723
   137  H    0.022726
   138  H    0.028104
   139  H    0.024331
   140  H    0.029203
 Sum of Mulliken charges =  -0.00000
 Mulliken charges with hydrogens summed into heavy atoms:
               1
     1  Mg   0.963774
     2  C    0.003002
     3  C   -0.075038
     4  C   -0.042457
     5  C   -0.113122
     6  N   -0.298170
     7  C   -0.040431
     8  C   -0.020636
     9  C   -0.063773
    10  C    0.043089
    11  C    0.151692
    12  C    0.130377
    13  C    0.100817
    14  C    0.216006
    15  O   -0.251342
    16  O   -0.373672
    17  N   -0.500130
    18  C    0.145994
    19  C   -0.122159
    20  C   -0.049493
    21  C    0.156218
    22  C    0.167740
    23  C    0.033374
    24  O   -0.278134
    25  C    0.185334
    26  N   -0.380695
    27  C    0.056677
    28  C   -0.027497
    29  C   -0.036755
    30  C    0.065037
    31  C    0.157697
    32  C    0.011559
    33  C    0.081485
    34  N   -0.405655
    35  C    0.126261
    36  C   -0.200841
    37  C   -0.050694
    38  C    0.171901
    39  C    0.264425
    40  C    0.112121
    41  O   -0.223638
    42  C   -0.019478
    43  C    0.273940
    44  O   -0.274299
    45  O   -0.395707
    46  C    0.330413
    47  C    0.367679
    48  C   -0.117301
    49  C   -0.215407
    50  C    0.135517
    51  C    0.101966
    52  C    0.008201
    53  C    0.038826
    54  C   -0.133902
    55  C    0.075332
    56  C    0.040664
    57  C   -0.004599
    58  C    0.026064
    59  C   -0.138876
    60  C    0.072098
    61  C    0.026686
    62  C   -0.028911
    63  C    0.069442
    64  C   -0.154403
    65  C    0.063736
    66  C    0.062070
 Electronic spatial extent (au):  <R**2>=          91366.4105
 Charge=             -0.0000 electrons
 Dipole moment (field-independent basis, Debye):
    X=              4.7518    Y=              2.9610    Z=             -1.0601  Tot=              5.6983
 Quadrupole moment (field-independent basis, Debye-Ang):
   XX=           -359.2095   YY=           -416.5264   ZZ=           -413.0203
   XY=            -12.6813   XZ=             -6.7696   YZ=              6.1856
 Traceless Quadrupole moment (field-independent basis, Debye-Ang):
   XX=             37.0426   YY=            -20.2743   ZZ=            -16.7683
   XY=            -12.6813   XZ=             -6.7696   YZ=              6.1856
 Octapole moment (field-independent basis, Debye-Ang**2):
  XXX=           -163.1507  YYY=             31.7946  ZZZ=             10.2675  XYY=            232.9496
  XXY=           -121.7310  XXZ=            -57.3507  XZZ=             79.4329  YZZ=            -35.2361
  YYZ=             23.7265  XYZ=            -62.4784
 Hexadecapole moment (field-independent basis, Debye-Ang**3):
 XXXX=         -81318.9024 YYYY=         -30288.4707 ZZZZ=          -8082.1525 XXXY=           -730.0716
 XXXZ=          -1058.6673 YYYX=           -636.2745 YYYZ=           -161.2071 ZZZX=           -162.7664
 ZZZY=           -103.0077 XXYY=         -20521.5162 XXZZ=         -15781.8931 YYZZ=          -6315.3020
 XXYZ=            733.4686 YYXZ=           -268.5078 ZZXY=             10.7629
 N-N= 9.818195307906D+03 E-N=-2.662938203899D+04  KE= 2.976431545043D+03
 Leave Link  601 at Wed May  4 09:32:57 2022, MaxMem= 10066329600 cpu:              11.9 elap:               0.6
 (Enter /sw/apps/gaussian-16.0/g16/l9999.exe)
 1\1\GINC-BP1-COMPUTE102\SP\RwB97XD TD-FC\def2SVP\C55H74Mg1N4O6\OF15641
 \04-May-2022\0\\#p wB97XD/Def2SVP td=(nstates=5)\\step_1551_chromophor
 e_12 TDDFT with wB97XD functional\\0,1\Mg,0,47.958,14.614,27.756\C,0,4
 5.995,14.497,30.683\C,0,49.839,16.981,29.255\C,0,49.761,14.489,25.069\
 C,0,45.432,12.583,26.245\N,0,47.827,15.642,29.827\C,0,47.094,15.281,30
 .872\C,0,47.545,15.894,32.14\C,0,48.681,16.871,31.657\C,0,48.867,16.45
 8,30.189\C,0,48.411,18.366,31.705\C,0,47.955,14.938,33.252\C,0,47.787,
 15.445,34.67\C,0,48.962,15.187,35.628\O,0,49.772,14.289,35.505\O,0,48.
 889,16.097,36.657\N,0,49.616,15.646,27.233\C,0,50.251,16.577,28.001\C,
 0,51.481,16.965,27.275\C,0,51.515,16.176,26.11\C,0,50.283,15.41,26.071
 \C,0,52.559,17.913,27.801\C,0,52.579,16.11,25.047\O,0,52.639,15.193,24
 .179\C,0,53.649,17.057,24.925\N,0,47.55,13.729,25.902\C,0,48.538,13.79
 6,24.972\C,0,48.047,12.984,23.697\C,0,46.703,12.304,24.121\C,0,46.528,
 12.923,25.496\C,0,47.963,13.859,22.395\C,0,46.773,10.761,24.104\C,0,47
 .421,9.996,22.967\N,0,46.059,13.829,28.25\C,0,45.14,13.017,27.563\C,0,
 44.025,12.719,28.334\C,0,44.352,13.248,29.588\C,0,45.596,13.895,29.483
 \C,0,42.779,11.994,27.875\C,0,43.944,13.184,30.953\O,0,43.015,12.576,3
 1.501\C,0,45.019,14.042,31.719\C,0,44.343,15.191,32.298\O,0,43.922,16.
 251,31.786\O,0,44.07,14.84,33.614\C,0,42.972,15.551,34.315\C,0,50.063,
 16.074,37.57\C,0,50.241,17.409,38.248\C,0,51.242,17.786,39.1\C,0,52.45
 6,16.947,39.337\C,0,51.284,19.156,39.847\C,0,52.548,20.005,39.659\C,0,
 52.236,21.506,39.74\C,0,53.235,22.464,39.032\C,0,53.985,23.273,40.084\
 C,0,52.468,23.405,38.003\C,0,53.29,23.624,36.712\C,0,52.403,24.492,35.
 733\C,0,52.799,24.411,34.316\C,0,54.123,25.116,34.099\C,0,51.718,24.90
 2,33.305\C,0,51.797,24.34,31.841\C,0,50.546,23.599,31.495\C,0,50.511,2
 3.073,30.044\C,0,51.512,21.964,29.635\C,0,50.525,24.184,29.04\H,0,50.5
 43,17.714,29.653\H,0,50.361,14.343,24.168\H,0,44.64,12.031,25.733\H,0,
 46.717,16.482,32.538\H,0,49.613,16.707,32.198\H,0,48.229,18.672,30.675
 \H,0,49.27,18.915,32.092\H,0,47.51,18.707,32.213\H,0,49.015,14.742,33.
 088\H,0,47.415,13.998,33.142\H,0,46.953,15.032,35.238\H,0,47.52,16.496
 ,34.561\H,0,52.633,18.919,27.387\H,0,53.578,17.53,27.849\H,0,52.358,18
 .188,28.836\H,0,53.224,18.057,25.017\H,0,54.225,16.951,24.005\H,0,54.3
 84,16.812,25.692\H,0,48.844,12.24,23.69\H,0,45.769,12.566,23.624\H,0,4
 8.595,14.747,22.373\H,0,46.912,14.129,22.287\H,0,48.372,13.26,21.581\H
 ,0,45.762,10.385,24.26\H,0,47.338,10.481,24.993\H,0,47.486,10.665,22.1
 09\H,0,46.782,9.166,22.664\H,0,48.393,9.582,23.237\H,0,42.35,11.523,28
 .759\H,0,43.057,11.203,27.177\H,0,42.194,12.784,27.405\H,0,45.444,13.4
 34,32.517\H,0,43.456,16.002,35.181\H,0,42.326,14.679,34.424\H,0,42.465
 ,16.287,33.692\H,0,50.985,15.906,37.013\H,0,50.,15.269,38.302\H,0,49.3
 76,18.071,38.204\H,0,52.524,16.613,40.373\H,0,53.3,17.595,39.1\H,0,52.
 537,16.002,38.799\H,0,51.174,18.897,40.9\H,0,50.453,19.774,39.507\H,0,
 52.979,19.697,38.706\H,0,53.195,19.78,40.507\H,0,52.314,21.712,40.808\
 H,0,51.208,21.759,39.479\H,0,53.987,21.851,38.535\H,0,53.356,23.794,40
 .806\H,0,54.699,23.892,39.541\H,0,54.622,22.653,40.714\H,0,52.193,24.3
 42,38.486\H,0,51.543,22.964,37.631\H,0,53.461,22.647,36.261\H,0,54.25,
 24.098,36.916\H,0,52.528,25.502,36.123\H,0,51.357,24.189,35.773\H,0,53
 .072,23.377,34.106\H,0,54.438,25.534,35.055\H,0,54.073,25.828,33.275\H
 ,0,54.938,24.441,33.836\H,0,51.679,25.969,33.088\H,0,50.755,24.716,33.
 78\H,0,52.727,23.78,31.739\H,0,52.06,25.206,31.233\H,0,49.775,24.351,3
 1.664\H,0,50.433,22.785,32.211\H,0,49.545,22.599,29.875\H,0,52.405,22.
 21,30.21\H,0,51.741,21.904,28.571\H,0,51.174,20.972,29.935\H,0,51.342,
 24.085,28.325\H,0,50.548,25.21,29.409\H,0,49.536,24.105,28.59\\Version
 =ES64L-G16RevA.03\State=1-A\HF=-3007.9007728\RMSD=5.627e-09\PG=C01 [X(
 C55H74Mg1N4O6)]\\@


 CHILDREN YOU ARE VERY LITTLE,
 AND YOUR BONES ARE VERY BRITTLE;
 IF YOU WOULD GROW GREAT AND STATELY
 YOU MUST TRY TO WALK SEDATELY.
 YOU MUST STILL BE BRIGHT AND QUIET,
 AND CONTENT WITH SIMPLE DIET;
 AND REMAIN, THROUGH ALL BEWILD'RING
 INNOCENT AND HONEST CHILDREN.
     -- A CHILD'S GARDEN OF VERSE,
        ROBERT LOUIS STEVENSON
 Job cpu time:       0 days 10 hours 56 minutes 10.3 seconds.
 Elapsed time:       0 days  0 hours 27 minutes 50.0 seconds.
 File lengths (MBytes):  RWF=   8929 Int=      0 D2E=      0 Chk=    390 Scr=      1
 Normal termination of Gaussian 16 at Wed May  4 09:32:57 2022.
