 Entering Gaussian System, Link 0=g16
 Initial command:
 /sw/apps/gaussian-16.0/g16/l1.exe "/tmp/Gau-190939.inp" -scrdir="/tmp/"
 Entering Link 1 = /sw/apps/gaussian-16.0/g16/l1.exe PID=    190940.
  
 Copyright (c) 1988,1990,1992,1993,1995,1998,2003,2009,2016,
            Gaussian, Inc.  All Rights Reserved.
  
 This is part of the Gaussian(R) 16 program.  It is based on
 the Gaussian(R) 09 system (copyright 2009, Gaussian, Inc.),
 the Gaussian(R) 03 system (copyright 2003, Gaussian, Inc.),
 the Gaussian(R) 98 system (copyright 1998, Gaussian, Inc.),
 the Gaussian(R) 94 system (copyright 1995, Gaussian, Inc.),
 the Gaussian 92(TM) system (copyright 1992, Gaussian, Inc.),
 the Gaussian 90(TM) system (copyright 1990, Gaussian, Inc.),
 the Gaussian 88(TM) system (copyright 1988, Gaussian, Inc.),
 the Gaussian 86(TM) system (copyright 1986, Carnegie Mellon
 University), and the Gaussian 82(TM) system (copyright 1983,
 Carnegie Mellon University). Gaussian is a federally registered
 trademark of Gaussian, Inc.
  
 This software contains proprietary and confidential information,
 including trade secrets, belonging to Gaussian, Inc.
  
 This software is provided under written license and may be
 used, copied, transmitted, or stored only in accord with that
 written license.
  
 The following legend is applicable only to US Government
 contracts under FAR:
  
                    RESTRICTED RIGHTS LEGEND
  
 Use, reproduction and disclosure by the US Government is
 subject to restrictions as set forth in subparagraphs (a)
 and (c) of the Commercial Computer Software - Restricted
 Rights clause in FAR 52.227-19.
  
 Gaussian, Inc.
 340 Quinnipiac St., Bldg. 40, Wallingford CT 06492
  
  
 ---------------------------------------------------------------
 Warning -- This program may not be used in any manner that
 competes with the business of Gaussian, Inc. or will provide
 assistance to any competitor of Gaussian, Inc.  The licensee
 of this program is prohibited from giving any competitor of
 Gaussian, Inc. access to this program.  By using this program,
 the user acknowledges that Gaussian, Inc. is engaged in the
 business of creating and licensing software in the field of
 computational chemistry and represents and warrants to the
 licensee that it is not a competitor of Gaussian, Inc. and that
 it will not use this program in any manner prohibited above.
 ---------------------------------------------------------------
  

 Cite this work as:
 Gaussian 16, Revision A.03,
 M. J. Frisch, G. W. Trucks, H. B. Schlegel, G. E. Scuseria, 
 M. A. Robb, J. R. Cheeseman, G. Scalmani, V. Barone, 
 G. A. Petersson, H. Nakatsuji, X. Li, M. Caricato, A. V. Marenich, 
 J. Bloino, B. G. Janesko, R. Gomperts, B. Mennucci, H. P. Hratchian, 
 J. V. Ortiz, A. F. Izmaylov, J. L. Sonnenberg, D. Williams-Young, 
 F. Ding, F. Lipparini, F. Egidi, J. Goings, B. Peng, A. Petrone, 
 T. Henderson, D. Ranasinghe, V. G. Zakrzewski, J. Gao, N. Rega, 
 G. Zheng, W. Liang, M. Hada, M. Ehara, K. Toyota, R. Fukuda, 
 J. Hasegawa, M. Ishida, T. Nakajima, Y. Honda, O. Kitao, H. Nakai, 
 T. Vreven, K. Throssell, J. A. Montgomery, Jr., J. E. Peralta, 
 F. Ogliaro, M. J. Bearpark, J. J. Heyd, E. N. Brothers, K. N. Kudin, 
 V. N. Staroverov, T. A. Keith, R. Kobayashi, J. Normand, 
 K. Raghavachari, A. P. Rendell, J. C. Burant, S. S. Iyengar, 
 J. Tomasi, M. Cossi, J. M. Millam, M. Klene, C. Adamo, R. Cammi, 
 J. W. Ochterski, R. L. Martin, K. Morokuma, O. Farkas, 
 J. B. Foresman, and D. J. Fox, Gaussian, Inc., Wallingford CT, 2016.
 
 ******************************************
 Gaussian 16:  ES64L-G16RevA.03 25-Dec-2016
                 4-May-2022 
 ******************************************
 %nproc=24
 Will use up to   24 processors via shared memory.
 %mem=50gb
 --------------------
 #p ZINDO=(nstates=5)
 --------------------
 1/38=1,172=1/1;
 2/12=2,17=6,18=5,40=1/2;
 3/5=2,25=1,41=400000/1,2,3,8;
 4/5=3,35=1/1;
 5/5=2,35=1,38=5/2;
 8/6=1,108=5/1;
 9/41=5,42=1,49=10/14;
 6/7=2,8=2,9=2,10=2/1;
 99/5=1,9=1/99;
 Leave Link    1 at Wed May  4 09:44:34 2022, MaxMem=  6710886400 cpu:               0.8 elap:               0.0
 (Enter /sw/apps/gaussian-16.0/g16/l101.exe)
 ------------------------------
 step_1551_chromophore_12 ZINDO
 ------------------------------
 Symbolic Z-matrix:
 Charge =  0 Multiplicity = 1
 Mg                    47.958    14.614    27.756 
 C                     45.995    14.497    30.683 
 C                     49.839    16.981    29.255 
 C                     49.761    14.489    25.069 
 C                     45.432    12.583    26.245 
 N                     47.827    15.642    29.827 
 C                     47.094    15.281    30.872 
 C                     47.545    15.894    32.14 
 C                     48.681    16.871    31.657 
 C                     48.867    16.458    30.189 
 C                     48.411    18.366    31.705 
 C                     47.955    14.938    33.252 
 C                     47.787    15.445    34.67 
 C                     48.962    15.187    35.628 
 O                     49.772    14.289    35.505 
 O                     48.889    16.097    36.657 
 N                     49.616    15.646    27.233 
 C                     50.251    16.577    28.001 
 C                     51.481    16.965    27.275 
 C                     51.515    16.176    26.11 
 C                     50.283    15.41     26.071 
 C                     52.559    17.913    27.801 
 C                     52.579    16.11     25.047 
 O                     52.639    15.193    24.179 
 C                     53.649    17.057    24.925 
 N                     47.55     13.729    25.902 
 C                     48.538    13.796    24.972 
 C                     48.047    12.984    23.697 
 C                     46.703    12.304    24.121 
 C                     46.528    12.923    25.496 
 C                     47.963    13.859    22.395 
 C                     46.773    10.761    24.104 
 C                     47.421    9.996     22.967 
 N                     46.059    13.829    28.25 
 C                     45.14     13.017    27.563 
 C                     44.025    12.719    28.334 
 C                     44.352    13.248    29.588 
 C                     45.596    13.895    29.483 
 C                     42.779    11.994    27.875 
 C                     43.944    13.184    30.953 
 O                     43.015    12.576    31.501 
 C                     45.019    14.042    31.719 
 C                     44.343    15.191    32.298 
 O                     43.922    16.251    31.786 
 O                     44.07     14.84     33.614 
 C                     42.972    15.551    34.315 
 C                     50.063    16.074    37.57 
 C                     50.241    17.409    38.248 
 C                     51.242    17.786    39.1 
 C                     52.456    16.947    39.337 
 C                     51.284    19.156    39.847 
 C                     52.548    20.005    39.659 
 C                     52.236    21.506    39.74 
 C                     53.235    22.464    39.032 
 C                     53.985    23.273    40.084 
 C                     52.468    23.405    38.003 
 C                     53.29     23.624    36.712 
 C                     52.403    24.492    35.733 
 C                     52.799    24.411    34.316 
 C                     54.123    25.116    34.099 
 C                     51.718    24.902    33.305 
 C                     51.797    24.34     31.841 
 C                     50.546    23.599    31.495 
 C                     50.511    23.073    30.044 
 C                     51.512    21.964    29.635 
 C                     50.525    24.184    29.04 
 H                     50.543    17.714    29.653 
 H                     50.361    14.343    24.168 
 H                     44.64     12.031    25.733 
 H                     46.717    16.482    32.538 
 H                     49.613    16.707    32.198 
 H                     48.229    18.672    30.675 
 H                     49.27     18.915    32.092 
 H                     47.51     18.707    32.213 
 H                     49.015    14.742    33.088 
 H                     47.415    13.998    33.142 
 H                     46.953    15.032    35.238 
 H                     47.52     16.496    34.561 
 H                     52.633    18.919    27.387 
 H                     53.578    17.53     27.849 
 H                     52.358    18.188    28.836 
 H                     53.224    18.057    25.017 
 H                     54.225    16.951    24.005 
 H                     54.384    16.812    25.692 
 H                     48.844    12.24     23.69 
 H                     45.769    12.566    23.624 
 H                     48.595    14.747    22.373 
 H                     46.912    14.129    22.287 
 H                     48.372    13.26     21.581 
 H                     45.762    10.385    24.26 
 H                     47.338    10.481    24.993 
 H                     47.486    10.665    22.109 
 H                     46.782    9.166     22.664 
 H                     48.393    9.582     23.237 
 H                     42.35     11.523    28.759 
 H                     43.057    11.203    27.177 
 H                     42.194    12.784    27.405 
 H                     45.444    13.434    32.517 
 H                     43.456    16.002    35.181 
 H                     42.326    14.679    34.424 
 H                     42.465    16.287    33.692 
 H                     50.985    15.906    37.013 
 H                     50.       15.269    38.302 
 H                     49.376    18.071    38.204 
 H                     52.524    16.613    40.373 
 H                     53.3      17.595    39.1 
 H                     52.537    16.002    38.799 
 H                     51.174    18.897    40.9 
 H                     50.453    19.774    39.507 
 H                     52.979    19.697    38.706 
 H                     53.195    19.78     40.507 
 H                     52.314    21.712    40.808 
 H                     51.208    21.759    39.479 
 H                     53.987    21.851    38.535 
 H                     53.356    23.794    40.806 
 H                     54.699    23.892    39.541 
 H                     54.622    22.653    40.714 
 H                     52.193    24.342    38.486 
 H                     51.543    22.964    37.631 
 H                     53.461    22.647    36.261 
 H                     54.25     24.098    36.916 
 H                     52.528    25.502    36.123 
 H                     51.357    24.189    35.773 
 H                     53.072    23.377    34.106 
 H                     54.438    25.534    35.055 
 H                     54.073    25.828    33.275 
 H                     54.938    24.441    33.836 
 H                     51.679    25.969    33.088 
 H                     50.755    24.716    33.78 
 H                     52.727    23.78     31.739 
 H                     52.06     25.206    31.233 
 H                     49.775    24.351    31.664 
 H                     50.433    22.785    32.211 
 H                     49.545    22.599    29.875 
 H                     52.405    22.21     30.21 
 H                     51.741    21.904    28.571 
 H                     51.174    20.972    29.935 
 H                     51.342    24.085    28.325 
 H                     50.548    25.21     29.409 
 H                     49.536    24.105    28.59 
 
 ITRead=  0  0  0  0  0  0  0  0  0  0  0  0  0  0  0  0  0  0  0  0
 ITRead=  0  0  0  0  0  0  0  0  0  0  0  0  0  0  0  0  0  0  0  0
 ITRead=  0  0  0  0  0  0  0  0  0  0  0  0  0  0  0  0  0  0  0  0
 ITRead=  0  0  0  0  0  0  0  0  0  0  0  0  0  0  0  0  0  0  0  0
 ITRead=  0  0  0  0  0  0  0  0  0  0  0  0  0  0  0  0  0  0  0  0
 ITRead=  0  0  0  0  0  0  0  0  0  0  0  0  0  0  0  0  0  0  0  0
 ITRead=  0  0  0  0  0  0  0  0  0  0  0  0  0  0  0  0  0  0  0  0
 MicOpt= -1 -1 -1 -1 -1 -1 -1 -1 -1 -1 -1 -1 -1 -1 -1 -1 -1 -1 -1 -1
 MicOpt= -1 -1 -1 -1 -1 -1 -1 -1 -1 -1 -1 -1 -1 -1 -1 -1 -1 -1 -1 -1
 MicOpt= -1 -1 -1 -1 -1 -1 -1 -1 -1 -1 -1 -1 -1 -1 -1 -1 -1 -1 -1 -1
 MicOpt= -1 -1 -1 -1 -1 -1 -1 -1 -1 -1 -1 -1 -1 -1 -1 -1 -1 -1 -1 -1
 MicOpt= -1 -1 -1 -1 -1 -1 -1 -1 -1 -1 -1 -1 -1 -1 -1 -1 -1 -1 -1 -1
 MicOpt= -1 -1 -1 -1 -1 -1 -1 -1 -1 -1 -1 -1 -1 -1 -1 -1 -1 -1 -1 -1
 MicOpt= -1 -1 -1 -1 -1 -1 -1 -1 -1 -1 -1 -1 -1 -1 -1 -1 -1 -1 -1 -1
 NAtoms=    140 NQM=      140 NQMF=       0 NMMI=      0 NMMIF=      0
                NMic=       0 NMicF=      0.
                    Isotopes and Nuclear Properties:
 (Nuclear quadrupole moments (NQMom) in fm**2, nuclear magnetic moments (NMagM)
  in nuclear magnetons)

  Atom         1           2           3           4           5           6           7           8           9          10
 IAtWgt=          24          12          12          12          12          14          12          12          12          12
 AtmWgt=  23.9850450  12.0000000  12.0000000  12.0000000  12.0000000  14.0030740  12.0000000  12.0000000  12.0000000  12.0000000
 NucSpn=           0           0           0           0           0           2           0           0           0           0
 AtZEff=  -0.0000000  -0.0000000  -0.0000000  -0.0000000  -0.0000000  -0.0000000  -0.0000000  -0.0000000  -0.0000000  -0.0000000
 NQMom=    0.0000000   0.0000000   0.0000000   0.0000000   0.0000000   2.0440000   0.0000000   0.0000000   0.0000000   0.0000000
 NMagM=    0.0000000   0.0000000   0.0000000   0.0000000   0.0000000   0.4037610   0.0000000   0.0000000   0.0000000   0.0000000
 AtZNuc=  12.0000000   6.0000000   6.0000000   6.0000000   6.0000000   7.0000000   6.0000000   6.0000000   6.0000000   6.0000000

  Atom        11          12          13          14          15          16          17          18          19          20
 IAtWgt=          12          12          12          12          16          16          14          12          12          12
 AtmWgt=  12.0000000  12.0000000  12.0000000  12.0000000  15.9949146  15.9949146  14.0030740  12.0000000  12.0000000  12.0000000
 NucSpn=           0           0           0           0           0           0           2           0           0           0
 AtZEff=  -0.0000000  -0.0000000  -0.0000000  -0.0000000  -0.0000000  -0.0000000  -0.0000000  -0.0000000  -0.0000000  -0.0000000
 NQMom=    0.0000000   0.0000000   0.0000000   0.0000000   0.0000000   0.0000000   2.0440000   0.0000000   0.0000000   0.0000000
 NMagM=    0.0000000   0.0000000   0.0000000   0.0000000   0.0000000   0.0000000   0.4037610   0.0000000   0.0000000   0.0000000
 AtZNuc=   6.0000000   6.0000000   6.0000000   6.0000000   8.0000000   8.0000000   7.0000000   6.0000000   6.0000000   6.0000000

  Atom        21          22          23          24          25          26          27          28          29          30
 IAtWgt=          12          12          12          16          12          14          12          12          12          12
 AtmWgt=  12.0000000  12.0000000  12.0000000  15.9949146  12.0000000  14.0030740  12.0000000  12.0000000  12.0000000  12.0000000
 NucSpn=           0           0           0           0           0           2           0           0           0           0
 AtZEff=  -0.0000000  -0.0000000  -0.0000000  -0.0000000  -0.0000000  -0.0000000  -0.0000000  -0.0000000  -0.0000000  -0.0000000
 NQMom=    0.0000000   0.0000000   0.0000000   0.0000000   0.0000000   2.0440000   0.0000000   0.0000000   0.0000000   0.0000000
 NMagM=    0.0000000   0.0000000   0.0000000   0.0000000   0.0000000   0.4037610   0.0000000   0.0000000   0.0000000   0.0000000
 AtZNuc=   6.0000000   6.0000000   6.0000000   8.0000000   6.0000000   7.0000000   6.0000000   6.0000000   6.0000000   6.0000000

  Atom        31          32          33          34          35          36          37          38          39          40
 IAtWgt=          12          12          12          14          12          12          12          12          12          12
 AtmWgt=  12.0000000  12.0000000  12.0000000  14.0030740  12.0000000  12.0000000  12.0000000  12.0000000  12.0000000  12.0000000
 NucSpn=           0           0           0           2           0           0           0           0           0           0
 AtZEff=  -0.0000000  -0.0000000  -0.0000000  -0.0000000  -0.0000000  -0.0000000  -0.0000000  -0.0000000  -0.0000000  -0.0000000
 NQMom=    0.0000000   0.0000000   0.0000000   2.0440000   0.0000000   0.0000000   0.0000000   0.0000000   0.0000000   0.0000000
 NMagM=    0.0000000   0.0000000   0.0000000   0.4037610   0.0000000   0.0000000   0.0000000   0.0000000   0.0000000   0.0000000
 AtZNuc=   6.0000000   6.0000000   6.0000000   7.0000000   6.0000000   6.0000000   6.0000000   6.0000000   6.0000000   6.0000000

  Atom        41          42          43          44          45          46          47          48          49          50
 IAtWgt=          16          12          12          16          16          12          12          12          12          12
 AtmWgt=  15.9949146  12.0000000  12.0000000  15.9949146  15.9949146  12.0000000  12.0000000  12.0000000  12.0000000  12.0000000
 NucSpn=           0           0           0           0           0           0           0           0           0           0
 AtZEff=  -0.0000000  -0.0000000  -0.0000000  -0.0000000  -0.0000000  -0.0000000  -0.0000000  -0.0000000  -0.0000000  -0.0000000
 NQMom=    0.0000000   0.0000000   0.0000000   0.0000000   0.0000000   0.0000000   0.0000000   0.0000000   0.0000000   0.0000000
 NMagM=    0.0000000   0.0000000   0.0000000   0.0000000   0.0000000   0.0000000   0.0000000   0.0000000   0.0000000   0.0000000
 AtZNuc=   8.0000000   6.0000000   6.0000000   8.0000000   8.0000000   6.0000000   6.0000000   6.0000000   6.0000000   6.0000000

  Atom        51          52          53          54          55          56          57          58          59          60
 IAtWgt=          12          12          12          12          12          12          12          12          12          12
 AtmWgt=  12.0000000  12.0000000  12.0000000  12.0000000  12.0000000  12.0000000  12.0000000  12.0000000  12.0000000  12.0000000
 NucSpn=           0           0           0           0           0           0           0           0           0           0
 AtZEff=  -0.0000000  -0.0000000  -0.0000000  -0.0000000  -0.0000000  -0.0000000  -0.0000000  -0.0000000  -0.0000000  -0.0000000
 NQMom=    0.0000000   0.0000000   0.0000000   0.0000000   0.0000000   0.0000000   0.0000000   0.0000000   0.0000000   0.0000000
 NMagM=    0.0000000   0.0000000   0.0000000   0.0000000   0.0000000   0.0000000   0.0000000   0.0000000   0.0000000   0.0000000
 AtZNuc=   6.0000000   6.0000000   6.0000000   6.0000000   6.0000000   6.0000000   6.0000000   6.0000000   6.0000000   6.0000000

  Atom        61          62          63          64          65          66          67          68          69          70
 IAtWgt=          12          12          12          12          12          12           1           1           1           1
 AtmWgt=  12.0000000  12.0000000  12.0000000  12.0000000  12.0000000  12.0000000   1.0078250   1.0078250   1.0078250   1.0078250
 NucSpn=           0           0           0           0           0           0           1           1           1           1
 AtZEff=  -0.0000000  -0.0000000  -0.0000000  -0.0000000  -0.0000000  -0.0000000  -0.0000000  -0.0000000  -0.0000000  -0.0000000
 NQMom=    0.0000000   0.0000000   0.0000000   0.0000000   0.0000000   0.0000000   0.0000000   0.0000000   0.0000000   0.0000000
 NMagM=    0.0000000   0.0000000   0.0000000   0.0000000   0.0000000   0.0000000   2.7928460   2.7928460   2.7928460   2.7928460
 AtZNuc=   6.0000000   6.0000000   6.0000000   6.0000000   6.0000000   6.0000000   1.0000000   1.0000000   1.0000000   1.0000000

  Atom        71          72          73          74          75          76          77          78          79          80
 IAtWgt=           1           1           1           1           1           1           1           1           1           1
 AtmWgt=   1.0078250   1.0078250   1.0078250   1.0078250   1.0078250   1.0078250   1.0078250   1.0078250   1.0078250   1.0078250
 NucSpn=           1           1           1           1           1           1           1           1           1           1
 AtZEff=  -0.0000000  -0.0000000  -0.0000000  -0.0000000  -0.0000000  -0.0000000  -0.0000000  -0.0000000  -0.0000000  -0.0000000
 NQMom=    0.0000000   0.0000000   0.0000000   0.0000000   0.0000000   0.0000000   0.0000000   0.0000000   0.0000000   0.0000000
 NMagM=    2.7928460   2.7928460   2.7928460   2.7928460   2.7928460   2.7928460   2.7928460   2.7928460   2.7928460   2.7928460
 AtZNuc=   1.0000000   1.0000000   1.0000000   1.0000000   1.0000000   1.0000000   1.0000000   1.0000000   1.0000000   1.0000000

  Atom        81          82          83          84          85          86          87          88          89          90
 IAtWgt=           1           1           1           1           1           1           1           1           1           1
 AtmWgt=   1.0078250   1.0078250   1.0078250   1.0078250   1.0078250   1.0078250   1.0078250   1.0078250   1.0078250   1.0078250
 NucSpn=           1           1           1           1           1           1           1           1           1           1
 AtZEff=  -0.0000000  -0.0000000  -0.0000000  -0.0000000  -0.0000000  -0.0000000  -0.0000000  -0.0000000  -0.0000000  -0.0000000
 NQMom=    0.0000000   0.0000000   0.0000000   0.0000000   0.0000000   0.0000000   0.0000000   0.0000000   0.0000000   0.0000000
 NMagM=    2.7928460   2.7928460   2.7928460   2.7928460   2.7928460   2.7928460   2.7928460   2.7928460   2.7928460   2.7928460
 AtZNuc=   1.0000000   1.0000000   1.0000000   1.0000000   1.0000000   1.0000000   1.0000000   1.0000000   1.0000000   1.0000000

  Atom        91          92          93          94          95          96          97          98          99         100
 IAtWgt=           1           1           1           1           1           1           1           1           1           1
 AtmWgt=   1.0078250   1.0078250   1.0078250   1.0078250   1.0078250   1.0078250   1.0078250   1.0078250   1.0078250   1.0078250
 NucSpn=           1           1           1           1           1           1           1           1           1           1
 AtZEff=  -0.0000000  -0.0000000  -0.0000000  -0.0000000  -0.0000000  -0.0000000  -0.0000000  -0.0000000  -0.0000000  -0.0000000
 NQMom=    0.0000000   0.0000000   0.0000000   0.0000000   0.0000000   0.0000000   0.0000000   0.0000000   0.0000000   0.0000000
 NMagM=    2.7928460   2.7928460   2.7928460   2.7928460   2.7928460   2.7928460   2.7928460   2.7928460   2.7928460   2.7928460
 AtZNuc=   1.0000000   1.0000000   1.0000000   1.0000000   1.0000000   1.0000000   1.0000000   1.0000000   1.0000000   1.0000000

  Atom       101         102         103         104         105         106         107         108         109         110
 IAtWgt=           1           1           1           1           1           1           1           1           1           1
 AtmWgt=   1.0078250   1.0078250   1.0078250   1.0078250   1.0078250   1.0078250   1.0078250   1.0078250   1.0078250   1.0078250
 NucSpn=           1           1           1           1           1           1           1           1           1           1
 AtZEff=  -0.0000000  -0.0000000  -0.0000000  -0.0000000  -0.0000000  -0.0000000  -0.0000000  -0.0000000  -0.0000000  -0.0000000
 NQMom=    0.0000000   0.0000000   0.0000000   0.0000000   0.0000000   0.0000000   0.0000000   0.0000000   0.0000000   0.0000000
 NMagM=    2.7928460   2.7928460   2.7928460   2.7928460   2.7928460   2.7928460   2.7928460   2.7928460   2.7928460   2.7928460
 AtZNuc=   1.0000000   1.0000000   1.0000000   1.0000000   1.0000000   1.0000000   1.0000000   1.0000000   1.0000000   1.0000000

  Atom       111         112         113         114         115         116         117         118         119         120
 IAtWgt=           1           1           1           1           1           1           1           1           1           1
 AtmWgt=   1.0078250   1.0078250   1.0078250   1.0078250   1.0078250   1.0078250   1.0078250   1.0078250   1.0078250   1.0078250
 NucSpn=           1           1           1           1           1           1           1           1           1           1
 AtZEff=  -0.0000000  -0.0000000  -0.0000000  -0.0000000  -0.0000000  -0.0000000  -0.0000000  -0.0000000  -0.0000000  -0.0000000
 NQMom=    0.0000000   0.0000000   0.0000000   0.0000000   0.0000000   0.0000000   0.0000000   0.0000000   0.0000000   0.0000000
 NMagM=    2.7928460   2.7928460   2.7928460   2.7928460   2.7928460   2.7928460   2.7928460   2.7928460   2.7928460   2.7928460
 AtZNuc=   1.0000000   1.0000000   1.0000000   1.0000000   1.0000000   1.0000000   1.0000000   1.0000000   1.0000000   1.0000000

  Atom       121         122         123         124         125         126         127         128         129         130
 IAtWgt=           1           1           1           1           1           1           1           1           1           1
 AtmWgt=   1.0078250   1.0078250   1.0078250   1.0078250   1.0078250   1.0078250   1.0078250   1.0078250   1.0078250   1.0078250
 NucSpn=           1           1           1           1           1           1           1           1           1           1
 AtZEff=  -0.0000000  -0.0000000  -0.0000000  -0.0000000  -0.0000000  -0.0000000  -0.0000000  -0.0000000  -0.0000000  -0.0000000
 NQMom=    0.0000000   0.0000000   0.0000000   0.0000000   0.0000000   0.0000000   0.0000000   0.0000000   0.0000000   0.0000000
 NMagM=    2.7928460   2.7928460   2.7928460   2.7928460   2.7928460   2.7928460   2.7928460   2.7928460   2.7928460   2.7928460
 AtZNuc=   1.0000000   1.0000000   1.0000000   1.0000000   1.0000000   1.0000000   1.0000000   1.0000000   1.0000000   1.0000000

  Atom       131         132         133         134         135         136         137         138         139         140
 IAtWgt=           1           1           1           1           1           1           1           1           1           1
 AtmWgt=   1.0078250   1.0078250   1.0078250   1.0078250   1.0078250   1.0078250   1.0078250   1.0078250   1.0078250   1.0078250
 NucSpn=           1           1           1           1           1           1           1           1           1           1
 AtZEff=  -0.0000000  -0.0000000  -0.0000000  -0.0000000  -0.0000000  -0.0000000  -0.0000000  -0.0000000  -0.0000000  -0.0000000
 NQMom=    0.0000000   0.0000000   0.0000000   0.0000000   0.0000000   0.0000000   0.0000000   0.0000000   0.0000000   0.0000000
 NMagM=    2.7928460   2.7928460   2.7928460   2.7928460   2.7928460   2.7928460   2.7928460   2.7928460   2.7928460   2.7928460
 AtZNuc=   1.0000000   1.0000000   1.0000000   1.0000000   1.0000000   1.0000000   1.0000000   1.0000000   1.0000000   1.0000000
 Leave Link  101 at Wed May  4 09:44:34 2022, MaxMem=  6710886400 cpu:               3.0 elap:               0.2
 (Enter /sw/apps/gaussian-16.0/g16/l202.exe)
 Stoichiometry    C55H74MgN4O6
 Framework group  C1[X(C55H74MgN4O6)]
 Deg. of freedom   414
 Full point group                 C1      NOp   1
 Largest Abelian subgroup         C1      NOp   1
 Largest concise Abelian subgroup C1      NOp   1
                         Standard orientation:                         
 ---------------------------------------------------------------------
 Center     Atomic      Atomic             Coordinates (Angstroms)
 Number     Number       Type             X           Y           Z
 ---------------------------------------------------------------------
      1         12           0       -4.248883    0.438237   -0.236271
      2          6           0       -2.870741   -2.663117    0.721183
      3          6           0       -1.106366    1.661901   -0.359085
      4          6           0       -5.649695    3.170588   -1.265051
      5          6           0       -7.430682   -0.970293    0.588929
      6          7           0       -2.180733   -0.504293    0.208002
      7          6           0       -1.886853   -1.787758    0.369202
      8          6           0       -0.443125   -2.076926    0.231262
      9          6           0        0.175902   -0.637705    0.077112
     10          6           0       -1.072534    0.238836   -0.105297
     11          6           0        0.990769   -0.078846    1.232056
     12          6           0       -0.045980   -3.063042   -0.858890
     13          6           0        1.227284   -3.849642   -0.622129
     14          6           0        2.189833   -3.960750   -1.816327
     15          8           0        1.859728   -3.872690   -2.982907
     16          8           0        3.448264   -4.235508   -1.333490
     17          7           0       -3.443054    2.222284   -0.741575
     18          6           0       -2.113637    2.526335   -0.738079
     19          6           0       -1.983687    3.887721   -1.303995
     20          6           0       -3.284377    4.291316   -1.659266
     21          6           0       -4.195008    3.250864   -1.218459
     22          6           0       -0.665070    4.608258   -1.586025
     23          6           0       -3.724723    5.559510   -2.340590
     24          8           0       -4.874232    5.716328   -2.842537
     25          6           0       -2.882817    6.706652   -2.519060
     26          7           0       -6.264667    1.006765   -0.216389
     27          6           0       -6.556800    2.209975   -0.775386
     28          6           0       -8.136184    2.382838   -0.733988
     29          6           0       -8.697748    1.014258   -0.223942
     30          6           0       -7.392813    0.307930    0.096458
     31          6           0       -8.604703    3.637010    0.087857
     32          6           0       -9.588496    0.299491   -1.263996
     33          6           0      -10.638459    1.038527   -2.069790
     34          7           0       -5.016219   -1.338333    0.613116
     35          6           0       -6.316849   -1.795598    0.887243
     36          6           0       -6.320761   -3.078236    1.417615
     37          6           0       -4.980087   -3.468838    1.321139
     38          6           0       -4.240050   -2.384802    0.816777
     39          6           0       -7.519102   -3.826447    1.958892
     40          6           0       -4.164211   -4.637026    1.380035
     41          8           0       -4.446919   -5.821204    1.605441
     42          6           0       -2.724021   -4.122624    1.006152
     43          6           0       -1.866768   -4.315236    2.163925
     44          8           0       -1.768677   -3.683274    3.238163
     45          8           0       -1.207096   -5.517864    1.944595
     46          6           0       -0.665672   -6.244094    3.120170
     47          6           0        4.515117   -4.200679   -2.369340
     48          6           0        5.854282   -3.891055   -1.749371
     49          6           0        7.049740   -3.713674   -2.389254
     50          6           0        7.159387   -3.610961   -3.876303
     51          6           0        8.411891   -3.508441   -1.655022
     52          6           0        9.216560   -2.257820   -2.032242
     53          6           0       10.044251   -1.741371   -0.846867
     54          6           0       10.439569   -0.238075   -0.876103
     55          6           0       11.945527   -0.119567   -1.080384
     56          6           0        9.968546    0.486367    0.460285
     57          6           0        9.443226    1.912855    0.178330
     58          6           0        8.923743    2.500924    1.550535
     59          6           0        7.980804    3.625157    1.415508
     60          6           0        8.701151    4.857128    0.905176
     61          6           0        7.149002    3.939483    2.696549
     62          6           0        5.778609    4.679846    2.498391
     63          6           0        4.651680    3.845659    3.016041
     64          6           0        3.271703    4.531681    2.924730
     65          6           0        2.676484    4.812035    1.522489
     66          6           0        3.193470    5.759026    3.779152
     67          1           0       -0.138774    2.152643   -0.478446
     68          1           0       -6.181937    4.032632   -1.673358
     69          1           0       -8.406609   -1.344407    0.907863
     70          1           0       -0.099911   -2.511879    1.170811
     71          1           0        0.803301   -0.559913   -0.810874
     72          1           0        0.353424    0.657421    1.721302
     73          1           0        1.897233    0.414367    0.879759
     74          1           0        1.244072   -0.750216    2.051352
     75          1           0        0.092829   -2.460261   -1.756832
     76          1           0       -0.866597   -3.756831   -1.039294
     77          1           0        1.106757   -4.897504   -0.346073
     78          1           0        1.668699   -3.404710    0.269476
     79          1           0       -0.352677    5.424045   -0.933483
     80          1           0       -0.495287    4.954276   -2.605240
     81          1           0        0.181055    3.943302   -1.415271
     82          1           0       -2.380078    6.904378   -1.571829
     83          1           0       -3.413980    7.587809   -2.880778
     84          1           0       -2.207123    6.483977   -3.345131
     85          1           0       -8.296017    2.462760   -1.809562
     86          1           0       -9.236363    0.954641    0.721758
     87          1           0       -7.878532    4.444197    0.185721
     88          1           0       -8.895709    3.257086    1.067723
     89          1           0       -9.405765    4.110046   -0.480663
     90          1           0      -10.050634   -0.554282   -0.768685
     91          1           0       -8.904043   -0.116531   -2.003182
     92          1           0      -10.850755    1.977893   -1.559427
     93          1           0      -11.570536    0.472643   -2.075934
     94          1           0      -10.341217    1.195131   -3.107192
     95          1           0       -7.300133   -4.887810    1.845327
     96          1           0       -8.393931   -3.598876    1.348110
     97          1           0       -7.606097   -3.447735    2.976848
     98          1           0       -2.347289   -4.718704    0.175577
     99          1           0        0.401247   -6.327472    2.914388
    100          1           0       -1.323863   -7.109091    3.029916
    101          1           0       -0.868552   -5.746792    4.068012
    102          1           0        4.334660   -3.399190   -3.086004
    103          1           0        4.556496   -5.122453   -2.949374
    104          1           0        5.904929   -4.015568   -0.667550
    105          1           0        7.744581   -4.428641   -4.298704
    106          1           0        7.662727   -2.661442   -4.059254
    107          1           0        6.241924   -3.676099   -4.462007
    108          1           0        8.990707   -4.399455   -1.898037
    109          1           0        8.232560   -3.438692   -0.582147
    110          1           0        8.492015   -1.535657   -2.409535
    111          1           0        9.932131   -2.573565   -2.791585
    112          1           0       10.972355   -2.307029   -0.935170
    113          1           0        9.639643   -2.015010    0.127980
    114          1           0        9.982649    0.208059   -1.759545
    115          1           0       12.556267   -0.692617   -0.382548
    116          1           0       12.162608    0.946914   -1.137827
    117          1           0       12.267187   -0.491562   -2.052611
    118          1           0       10.772833    0.476050    1.195062
    119          1           0        9.112997   -0.000066    0.929230
    120          1           0        8.602278    1.824067   -0.508761
    121          1           0       10.207703    2.547043   -0.270304
    122          1           0        9.843690    2.811663    2.045472
    123          1           0        8.407272    1.741097    2.136577
    124          1           0        7.318450    3.404448    0.578633
    125          1           0        9.754978    4.603263    0.791658
    126          1           0        8.498353    5.731082    1.524447
    127          1           0        8.401051    5.151788   -0.100873
    128          1           0        7.601190    4.591342    3.443346
    129          1           0        7.047960    2.994223    3.229338
    130          1           0        5.703904    4.988396    1.455261
    131          1           0        5.933932    5.660746    2.948390
    132          1           0        4.943678    3.676303    4.052652
    133          1           0        4.658498    2.902213    2.470254
    134          1           0        2.530678    3.870840    3.372572
    135          1           0        3.554920    5.048748    0.921734
    136          1           0        1.944858    5.618517    1.473020
    137          1           0        2.196044    3.931983    1.094711
    138          1           0        2.901010    6.641438    3.209650
    139          1           0        4.071521    6.034840    4.364233
    140          1           0        2.470258    5.468370    4.540299
 ---------------------------------------------------------------------
 Rotational constants (GHZ):           0.0360289           0.0147362           0.0118347
 Leave Link  202 at Wed May  4 09:44:34 2022, MaxMem=  6710886400 cpu:               0.2 elap:               0.0
 (Enter /sw/apps/gaussian-16.0/g16/l301.exe)
 Standard basis: VSTO-6G (5D, 7F)
 Ernie: Thresh=  0.10000D-02 Tol=  0.10000D-05 Strict=F.
 There are   338 symmetry adapted cartesian basis functions of A   symmetry.
 There are   338 symmetry adapted basis functions of A   symmetry.
   338 basis functions,  2028 primitive gaussians,   338 cartesian basis functions
   176 alpha electrons      176 beta electrons
       nuclear repulsion energy      4938.6076415634 Hartrees.
 IExCor=    0 DFT=F Ex=HF Corr=None ExCW=0 ScaHFX=  1.000000
 ScaDFX=  1.000000  1.000000  1.000000  1.000000 ScalE2=  1.000000  1.000000
 IRadAn=      5 IRanWt=     -1 IRanGd=            0 ICorTp=0 IEmpDi=  4
 Integral buffers will be    131072 words long.
 Regular integral format.
 Two-electron integral symmetry is turned off.
 Leave Link  301 at Wed May  4 09:44:34 2022, MaxMem=  6710886400 cpu:               1.2 elap:               0.1
 (Enter /sw/apps/gaussian-16.0/g16/l302.exe)
 Do NDO integrals.
 NPDir=0 NMtPBC=     1 NCelOv=     1 NCel=       1 NClECP=     1 NCelD=      1
         NCelK=      1 NCelE2=     1 NClLst=     1 CellRange=     0.0.
 One-electron integrals computed using PRISM.
 Generate ZINDO/S integrals.
 NDO Nuclear repulsion=  4455.281363868220 Hartrees.
 NBasis=   338 RedAO= F EigKep=  0.00D+00  NBF=   338
 NBsUse=   338 1.00D-04 EigRej=  0.00D+00 NBFU=   338
 Leave Link  302 at Wed May  4 09:44:34 2022, MaxMem=  6710886400 cpu:               9.8 elap:               0.4
 (Enter /sw/apps/gaussian-16.0/g16/l303.exe)
 DipDrv:  MaxL=1.
 DipDrv:  will hold  3 matrices at once.
 Leave Link  303 at Wed May  4 09:44:34 2022, MaxMem=  6710886400 cpu:               0.5 elap:               0.0
 (Enter /sw/apps/gaussian-16.0/g16/l308.exe)
 Leave Link  308 at Wed May  4 09:44:35 2022, MaxMem=  6710886400 cpu:               4.7 elap:               0.2
 (Enter /sw/apps/gaussian-16.0/g16/l401.exe)
 Simple Huckel Guess.
 JPrj=0 DoOrth=F DoCkMO=F.
 Leave Link  401 at Wed May  4 09:44:35 2022, MaxMem=  6710886400 cpu:               3.1 elap:               0.2
 (Enter /sw/apps/gaussian-16.0/g16/l502.exe)
 Two-electron integral symmetry not used.
 Closed shell SCF:
 Using DIIS extrapolation, IDIIS=  1040.
 Overlap will be assumed to be unity.
 NGot=  6710886400 LenX=  6710643598 LenY=  6710528913
 Requested convergence on RMS density matrix=1.00D-08 within 128 cycles.
 Requested convergence on MAX density matrix=1.00D-06.
 Requested convergence on             energy=1.00D-06.
 No special actions if energy rises.
 Fock matrices will be formed incrementally for  20 cycles.

 Cycle   1  Pass 1  IDiag  1:
 E= -472.706704931973    
 DIIS: error= 5.90D-02 at cycle   1 NSaved=   1.
 NSaved= 1 IEnMin= 1 EnMin= -472.706704931973     IErMin= 1 ErrMin= 5.90D-02
 ErrMax= 5.90D-02  0.00D+00 EMaxC= 1.00D-01 BMatC= 8.32D-01 BMatP= 8.32D-01
 IDIUse=3 WtCom= 4.10D-01 WtEn= 5.90D-01
 Coeff-Com:  0.100D+01
 Coeff-En:   0.100D+01
 Coeff:      0.100D+01
 GapD=    2.000 DampG=2.000 DampE=0.500 DampFc=1.0000 IDamp=-1.
 RMSDP=4.03D-03 MaxDP=1.68D-01              OVMax= 0.00D+00

 Cycle   2  Pass 1  IDiag  1:
 RMSU=  4.02D-03    CP:  9.95D-01
 E= -474.542132941503     Delta-E=       -1.835428009530 Rises=F Damp=F
 DIIS: error= 2.14D-02 at cycle   2 NSaved=   2.
 NSaved= 2 IEnMin= 2 EnMin= -474.542132941503     IErMin= 2 ErrMin= 2.14D-02
 ErrMax= 2.14D-02  0.00D+00 EMaxC= 1.00D-01 BMatC= 5.26D-02 BMatP= 8.32D-01
 IDIUse=3 WtCom= 7.86D-01 WtEn= 2.14D-01
 Coeff-Com: -0.671D-01 0.107D+01
 Coeff-En:   0.000D+00 0.100D+01
 Coeff:     -0.527D-01 0.105D+01
 RMSDP=1.12D-03 MaxDP=5.89D-02 DE=-1.84D+00 OVMax= 0.00D+00

 Cycle   3  Pass 1  IDiag  1:
 RMSU=  1.06D-03    CP:  9.93D-01  1.09D+00
 E= -474.644522139371     Delta-E=       -0.102389197868 Rises=F Damp=F
 DIIS: error= 9.88D-03 at cycle   3 NSaved=   3.
 NSaved= 3 IEnMin= 3 EnMin= -474.644522139371     IErMin= 3 ErrMin= 9.88D-03
 ErrMax= 9.88D-03  0.00D+00 EMaxC= 1.00D-01 BMatC= 7.27D-03 BMatP= 5.26D-02
 IDIUse=3 WtCom= 9.01D-01 WtEn= 9.88D-02
 Coeff-Com: -0.676D-01 0.237D+00 0.830D+00
 Coeff-En:   0.000D+00 0.000D+00 0.100D+01
 Coeff:     -0.609D-01 0.214D+00 0.847D+00
 RMSDP=3.78D-04 MaxDP=1.86D-02 DE=-1.02D-01 OVMax= 0.00D+00

 Cycle   4  Pass 1  IDiag  1:
 RMSU=  2.46D-04    CP:  9.93D-01  1.16D+00  9.26D-01
 E= -474.657498956742     Delta-E=       -0.012976817371 Rises=F Damp=F
 DIIS: error= 1.50D-03 at cycle   4 NSaved=   4.
 NSaved= 4 IEnMin= 4 EnMin= -474.657498956742     IErMin= 4 ErrMin= 1.50D-03
 ErrMax= 1.50D-03  0.00D+00 EMaxC= 1.00D-01 BMatC= 3.07D-04 BMatP= 7.27D-03
 IDIUse=3 WtCom= 9.85D-01 WtEn= 1.50D-02
 Coeff-Com: -0.272D-03-0.336D-01 0.294D-01 0.100D+01
 Coeff-En:   0.000D+00 0.000D+00 0.000D+00 0.100D+01
 Coeff:     -0.268D-03-0.331D-01 0.289D-01 0.100D+01
 RMSDP=1.47D-04 MaxDP=7.92D-03 DE=-1.30D-02 OVMax= 0.00D+00

 Cycle   5  Pass 1  IDiag  1:
 RMSU=  1.02D-04    CP:  9.92D-01  1.16D+00  1.03D+00  1.01D+00
 E= -474.658556890086     Delta-E=       -0.001057933345 Rises=F Damp=F
 DIIS: error= 7.13D-04 at cycle   5 NSaved=   5.
 NSaved= 5 IEnMin= 5 EnMin= -474.658556890086     IErMin= 5 ErrMin= 7.13D-04
 ErrMax= 7.13D-04  0.00D+00 EMaxC= 1.00D-01 BMatC= 7.63D-05 BMatP= 3.07D-04
 IDIUse=3 WtCom= 9.93D-01 WtEn= 7.13D-03
 Coeff-Com:  0.663D-02-0.286D-01-0.100D+00 0.254D+00 0.869D+00
 Coeff-En:   0.000D+00 0.000D+00 0.000D+00 0.000D+00 0.100D+01
 Coeff:      0.658D-02-0.284D-01-0.998D-01 0.252D+00 0.870D+00
 RMSDP=5.83D-05 MaxDP=2.64D-03 DE=-1.06D-03 OVMax= 0.00D+00

 Cycle   6  Pass 1  IDiag  1:
 RMSU=  3.30D-05    CP:  9.92D-01  1.16D+00  1.04D+00  1.19D+00  1.05D+00
 E= -474.658782096294     Delta-E=       -0.000225206208 Rises=F Damp=F
 DIIS: error= 2.75D-04 at cycle   6 NSaved=   6.
 NSaved= 6 IEnMin= 6 EnMin= -474.658782096294     IErMin= 6 ErrMin= 2.75D-04
 ErrMax= 2.75D-04  0.00D+00 EMaxC= 1.00D-01 BMatC= 7.32D-06 BMatP= 7.63D-05
 IDIUse=3 WtCom= 9.97D-01 WtEn= 2.75D-03
 Coeff-Com:  0.741D-04 0.484D-02-0.179D-01-0.856D-01-0.723D-02 0.111D+01
 Coeff-En:   0.000D+00 0.000D+00 0.000D+00 0.000D+00 0.000D+00 0.100D+01
 Coeff:      0.739D-04 0.483D-02-0.179D-01-0.853D-01-0.721D-02 0.111D+01
 RMSDP=3.98D-05 MaxDP=2.26D-03 DE=-2.25D-04 OVMax= 0.00D+00

 Cycle   7  Pass 1  IDiag  1:
 RMSU=  1.96D-05    CP:  9.92D-01  1.16D+00  1.05D+00  1.21D+00  1.34D+00
                    CP:  1.35D+00
 E= -474.658832886367     Delta-E=       -0.000050790073 Rises=F Damp=F
 DIIS: error= 1.06D-04 at cycle   7 NSaved=   7.
 NSaved= 7 IEnMin= 7 EnMin= -474.658832886367     IErMin= 7 ErrMin= 1.06D-04
 ErrMax= 1.06D-04  0.00D+00 EMaxC= 1.00D-01 BMatC= 2.58D-06 BMatP= 7.32D-06
 IDIUse=3 WtCom= 9.99D-01 WtEn= 1.06D-03
 Coeff-Com: -0.829D-03 0.432D-02 0.809D-02-0.265D-01-0.166D+00 0.242D+00
 Coeff-Com:  0.939D+00
 Coeff-En:   0.000D+00 0.000D+00 0.000D+00 0.000D+00 0.000D+00 0.000D+00
 Coeff-En:   0.100D+01
 Coeff:     -0.828D-03 0.432D-02 0.808D-02-0.264D-01-0.166D+00 0.241D+00
 Coeff:      0.939D+00
 RMSDP=2.22D-05 MaxDP=1.16D-03 DE=-5.08D-05 OVMax= 0.00D+00

 Cycle   8  Pass 1  IDiag  1:
 RMSU=  6.89D-06    CP:  9.92D-01  1.16D+00  1.06D+00  1.22D+00  1.45D+00
                    CP:  1.70D+00  1.63D+00
 E= -474.658853351131     Delta-E=       -0.000020464764 Rises=F Damp=F
 DIIS: error= 6.32D-05 at cycle   8 NSaved=   8.
 NSaved= 8 IEnMin= 8 EnMin= -474.658853351131     IErMin= 8 ErrMin= 6.32D-05
 ErrMax= 6.32D-05  0.00D+00 EMaxC= 1.00D-01 BMatC= 1.08D-06 BMatP= 2.58D-06
 IDIUse=1 WtCom= 1.00D+00 WtEn= 0.00D+00
 Coeff-Com:  0.847D-04-0.160D-02 0.270D-02 0.335D-01-0.414D-01-0.122D+00
 Coeff-Com: -0.400D+00 0.153D+01
 Coeff:      0.847D-04-0.160D-02 0.270D-02 0.335D-01-0.414D-01-0.122D+00
 Coeff:     -0.400D+00 0.153D+01
 RMSDP=2.94D-05 MaxDP=1.35D-03 DE=-2.05D-05 OVMax= 0.00D+00

 Cycle   9  Pass 1  IDiag  1:
 RMSU=  4.37D-06    CP:  9.92D-01  1.16D+00  1.06D+00  1.21D+00  1.60D+00
                    CP:  2.04D+00  2.67D+00  2.17D+00
 E= -474.658871930584     Delta-E=       -0.000018579452 Rises=F Damp=F
 DIIS: error= 4.84D-05 at cycle   9 NSaved=   9.
 NSaved= 9 IEnMin= 9 EnMin= -474.658871930584     IErMin= 9 ErrMin= 4.84D-05
 ErrMax= 4.84D-05  0.00D+00 EMaxC= 1.00D-01 BMatC= 6.52D-07 BMatP= 1.08D-06
 IDIUse=1 WtCom= 1.00D+00 WtEn= 0.00D+00
 Coeff-Com:  0.383D-03-0.152D-02-0.549D-02 0.713D-02 0.466D-01 0.918D-01
 Coeff-Com: -0.794D+00-0.165D+00 0.182D+01
 Coeff:      0.383D-03-0.152D-02-0.549D-02 0.713D-02 0.466D-01 0.918D-01
 Coeff:     -0.794D+00-0.165D+00 0.182D+01
 RMSDP=4.06D-05 MaxDP=1.72D-03 DE=-1.86D-05 OVMax= 0.00D+00

 Cycle  10  Pass 1  IDiag  1:
 RMSU=  2.34D-05    CP:  9.92D-01  1.16D+00  1.07D+00  1.20D+00  1.78D+00
                    CP:  2.48D+00  3.00D+00  3.00D+00  2.59D+00
 E= -474.658889104910     Delta-E=       -0.000017174327 Rises=F Damp=F
 DIIS: error= 2.77D-05 at cycle  10 NSaved=  10.
 NSaved=10 IEnMin=10 EnMin= -474.658889104910     IErMin=10 ErrMin= 2.77D-05
 ErrMax= 2.77D-05  0.00D+00 EMaxC= 1.00D-01 BMatC= 1.79D-07 BMatP= 6.52D-07
 IDIUse=1 WtCom= 1.00D+00 WtEn= 0.00D+00
 Coeff-Com: -0.117D-03 0.118D-02-0.815D-03-0.176D-01-0.314D-02 0.138D+00
 Coeff-Com:  0.132D+00-0.465D+00-0.510D+00 0.172D+01
 Coeff:     -0.117D-03 0.118D-02-0.815D-03-0.176D-01-0.314D-02 0.138D+00
 Coeff:      0.132D+00-0.465D+00-0.510D+00 0.172D+01
 RMSDP=3.10D-05 MaxDP=1.30D-03 DE=-1.72D-05 OVMax= 0.00D+00

 Cycle  11  Pass 1  IDiag  1:
 RMSU=  6.65D-06    CP:  9.92D-01  1.16D+00  1.07D+00  1.19D+00  1.92D+00
                    CP:  2.77D+00  3.00D+00  3.00D+00  3.00D+00  2.04D+00
 E= -474.658895465735     Delta-E=       -0.000006360824 Rises=F Damp=F
 DIIS: error= 1.38D-05 at cycle  11 NSaved=  11.
 NSaved=11 IEnMin=11 EnMin= -474.658895465735     IErMin=11 ErrMin= 1.38D-05
 ErrMax= 1.38D-05  0.00D+00 EMaxC= 1.00D-01 BMatC= 3.35D-08 BMatP= 1.79D-07
 IDIUse=1 WtCom= 1.00D+00 WtEn= 0.00D+00
 Coeff-Com: -0.913D-04 0.392D-03 0.142D-02-0.296D-02-0.124D-01-0.947D-02
 Coeff-Com:  0.146D+00 0.116D+00-0.578D+00 0.327D-01 0.131D+01
 Coeff:     -0.913D-04 0.392D-03 0.142D-02-0.296D-02-0.124D-01-0.947D-02
 Coeff:      0.146D+00 0.116D+00-0.578D+00 0.327D-01 0.131D+01
 RMSDP=1.52D-05 MaxDP=6.37D-04 DE=-6.36D-06 OVMax= 0.00D+00

 Cycle  12  Pass 1  IDiag  1:
 RMSU=  1.10D-06    CP:  9.92D-01  1.16D+00  1.07D+00  1.19D+00  1.98D+00
                    CP:  2.91D+00  3.00D+00  3.00D+00  3.00D+00  2.55D+00
                    CP:  1.68D+00
 E= -474.658896484568     Delta-E=       -0.000001018833 Rises=F Damp=F
 DIIS: error= 6.40D-06 at cycle  12 NSaved=  12.
 NSaved=12 IEnMin=12 EnMin= -474.658896484568     IErMin=12 ErrMin= 6.40D-06
 ErrMax= 6.40D-06  0.00D+00 EMaxC= 1.00D-01 BMatC= 3.80D-09 BMatP= 3.35D-08
 IDIUse=1 WtCom= 1.00D+00 WtEn= 0.00D+00
 Coeff-Com:  0.307D-04-0.255D-03 0.106D-03 0.330D-02 0.177D-02-0.227D-01
 Coeff-Com: -0.505D-01 0.125D+00 0.125D+00-0.354D+00-0.614D-01 0.123D+01
 Coeff:      0.307D-04-0.255D-03 0.106D-03 0.330D-02 0.177D-02-0.227D-01
 Coeff:     -0.505D-01 0.125D+00 0.125D+00-0.354D+00-0.614D-01 0.123D+01
 RMSDP=2.06D-06 MaxDP=9.28D-05 DE=-1.02D-06 OVMax= 0.00D+00

 Cycle  13  Pass 1  IDiag  1:
 RMSU=  4.88D-07    CP:  9.92D-01  1.16D+00  1.07D+00  1.19D+00  1.99D+00
                    CP:  2.92D+00  3.00D+00  3.00D+00  3.00D+00  2.61D+00
                    CP:  1.84D+00  1.51D+00
 E= -474.658896527650     Delta-E=       -0.000000043082 Rises=F Damp=F
 DIIS: error= 1.81D-06 at cycle  13 NSaved=  13.
 NSaved=13 IEnMin=13 EnMin= -474.658896527650     IErMin=13 ErrMin= 1.81D-06
 ErrMax= 1.81D-06  0.00D+00 EMaxC= 1.00D-01 BMatC= 4.15D-10 BMatP= 3.80D-09
 IDIUse=1 WtCom= 1.00D+00 WtEn= 0.00D+00
 Coeff-Com:  0.120D-04-0.611D-04-0.161D-03 0.597D-03 0.174D-02-0.689D-03
 Coeff-Com: -0.242D-01-0.249D-03 0.662D-01-0.305D-01-0.128D+00 0.692D-01
 Coeff-Com:  0.105D+01
 Coeff:      0.120D-04-0.611D-04-0.161D-03 0.597D-03 0.174D-02-0.689D-03
 Coeff:     -0.242D-01-0.249D-03 0.662D-01-0.305D-01-0.128D+00 0.692D-01
 Coeff:      0.105D+01
 RMSDP=7.96D-07 MaxDP=3.61D-05 DE=-4.31D-08 OVMax= 0.00D+00

 Cycle  14  Pass 1  IDiag  1:
 RMSU=  1.55D-07    CP:  9.92D-01  1.16D+00  1.07D+00  1.19D+00  1.99D+00
                    CP:  2.93D+00  3.00D+00  3.00D+00  3.00D+00  2.63D+00
                    CP:  1.87D+00  1.68D+00  1.33D+00
 E= -474.658896532775     Delta-E=       -0.000000005125 Rises=F Damp=F
 DIIS: error= 9.45D-07 at cycle  14 NSaved=  14.
 NSaved=14 IEnMin=14 EnMin= -474.658896532775     IErMin=14 ErrMin= 9.45D-07
 ErrMax= 9.45D-07  0.00D+00 EMaxC= 1.00D-01 BMatC= 1.10D-10 BMatP= 4.15D-10
 IDIUse=1 WtCom= 1.00D+00 WtEn= 0.00D+00
 Coeff-Com: -0.740D-05 0.521D-04 0.165D-05-0.570D-03-0.772D-03 0.394D-02
 Coeff-Com:  0.109D-01-0.190D-01-0.260D-01 0.537D-01 0.376D-01-0.223D+00
 Coeff-Com: -0.130D+00 0.129D+01
 Coeff:     -0.740D-05 0.521D-04 0.165D-05-0.570D-03-0.772D-03 0.394D-02
 Coeff:      0.109D-01-0.190D-01-0.260D-01 0.537D-01 0.376D-01-0.223D+00
 Coeff:     -0.130D+00 0.129D+01
 RMSDP=2.34D-07 MaxDP=1.15D-05 DE=-5.13D-09 OVMax= 0.00D+00

 Cycle  15  Pass 1  IDiag  1:
 RMSU=  7.56D-08    CP:  9.92D-01  1.16D+00  1.07D+00  1.19D+00  1.99D+00
                    CP:  2.93D+00  3.00D+00  3.00D+00  3.00D+00  2.63D+00
                    CP:  1.88D+00  1.76D+00  1.61D+00  1.91D+00
 E= -474.658896534200     Delta-E=       -0.000000001425 Rises=F Damp=F
 DIIS: error= 4.80D-07 at cycle  15 NSaved=  15.
 NSaved=15 IEnMin=15 EnMin= -474.658896534200     IErMin=15 ErrMin= 4.80D-07
 ErrMax= 4.80D-07  0.00D+00 EMaxC= 1.00D-01 BMatC= 4.43D-11 BMatP= 1.10D-10
 IDIUse=1 WtCom= 1.00D+00 WtEn= 0.00D+00
 Coeff-Com: -0.338D-05 0.165D-04 0.516D-04-0.120D-03-0.741D-03 0.433D-03
 Coeff-Com:  0.725D-02-0.172D-02-0.149D-01 0.125D-02 0.449D-01-0.224D-01
 Coeff-Com: -0.285D+00 0.698D-01 0.120D+01
 Coeff:     -0.338D-05 0.165D-04 0.516D-04-0.120D-03-0.741D-03 0.433D-03
 Coeff:      0.725D-02-0.172D-02-0.149D-01 0.125D-02 0.449D-01-0.224D-01
 Coeff:     -0.285D+00 0.698D-01 0.120D+01
 RMSDP=1.63D-07 MaxDP=6.86D-06 DE=-1.43D-09 OVMax= 0.00D+00

 Cycle  16  Pass 1  IDiag  1:
 RMSU=  3.16D-08    CP:  9.92D-01  1.16D+00  1.07D+00  1.19D+00  1.99D+00
                    CP:  2.93D+00  3.00D+00  3.00D+00  3.00D+00  2.63D+00
                    CP:  1.88D+00  1.81D+00  1.77D+00  2.62D+00  1.78D+00
 E= -474.658896534838     Delta-E=       -0.000000000638 Rises=F Damp=F
 DIIS: error= 3.62D-07 at cycle  16 NSaved=  16.
 NSaved=16 IEnMin=16 EnMin= -474.658896534838     IErMin=16 ErrMin= 3.62D-07
 ErrMax= 3.62D-07  0.00D+00 EMaxC= 1.00D-01 BMatC= 1.65D-11 BMatP= 4.43D-11
 IDIUse=1 WtCom= 1.00D+00 WtEn= 0.00D+00
 Coeff-Com:  0.404D-05-0.275D-04-0.417D-05 0.319D-03 0.224D-03-0.155D-02
 Coeff-Com: -0.604D-02 0.655D-02 0.186D-01-0.298D-01-0.169D-01 0.977D-01
 Coeff-Com:  0.858D-01-0.508D+00-0.452D+00 0.181D+01
 Coeff:      0.404D-05-0.275D-04-0.417D-05 0.319D-03 0.224D-03-0.155D-02
 Coeff:     -0.604D-02 0.655D-02 0.186D-01-0.298D-01-0.169D-01 0.977D-01
 Coeff:      0.858D-01-0.508D+00-0.452D+00 0.181D+01
 RMSDP=1.80D-07 MaxDP=7.07D-06 DE=-6.38D-10 OVMax= 0.00D+00

 Cycle  17  Pass 1  IDiag  1:
 RMSU=  6.18D-08    CP:  9.92D-01  1.16D+00  1.07D+00  1.19D+00  1.99D+00
                    CP:  2.93D+00  3.00D+00  3.00D+00  3.00D+00  2.64D+00
                    CP:  1.88D+00  1.85D+00  1.93D+00  3.00D+00  2.88D+00
                    CP:  2.32D+00
 E= -474.658896535160     Delta-E=       -0.000000000322 Rises=F Damp=F
 DIIS: error= 1.52D-07 at cycle  17 NSaved=  17.
 NSaved=17 IEnMin=17 EnMin= -474.658896535160     IErMin=17 ErrMin= 1.52D-07
 ErrMax= 1.52D-07  0.00D+00 EMaxC= 1.00D-01 BMatC= 2.78D-12 BMatP= 1.65D-11
 IDIUse=1 WtCom= 1.00D+00 WtEn= 0.00D+00
 Coeff-Com:  0.432D-06-0.195D-05-0.115D-04 0.230D-04 0.622D-04 0.969D-04
 Coeff-Com: -0.114D-02-0.409D-03 0.337D-02-0.905D-03-0.519D-02-0.326D-02
 Coeff-Com:  0.422D-01 0.539D-01-0.280D+00-0.282D-01 0.122D+01
 Coeff:      0.432D-06-0.195D-05-0.115D-04 0.230D-04 0.622D-04 0.969D-04
 Coeff:     -0.114D-02-0.409D-03 0.337D-02-0.905D-03-0.519D-02-0.326D-02
 Coeff:      0.422D-01 0.539D-01-0.280D+00-0.282D-01 0.122D+01
 RMSDP=5.63D-08 MaxDP=2.35D-06 DE=-3.22D-10 OVMax= 0.00D+00

 Cycle  18  Pass 1  IDiag  1:
 RMSU=  2.05D-08    CP:  9.92D-01  1.16D+00  1.07D+00  1.19D+00  1.99D+00
                    CP:  2.93D+00  3.00D+00  3.00D+00  3.00D+00  2.64D+00
                    CP:  1.89D+00  1.87D+00  1.97D+00  3.00D+00  3.00D+00
                    CP:  2.99D+00  1.56D+00
 E= -474.658896535196     Delta-E=       -0.000000000035 Rises=F Damp=F
 DIIS: error= 8.31D-08 at cycle  18 NSaved=  18.
 NSaved=18 IEnMin=18 EnMin= -474.658896535196     IErMin=18 ErrMin= 8.31D-08
 ErrMax= 8.31D-08  0.00D+00 EMaxC= 1.00D-01 BMatC= 5.98D-13 BMatP= 2.78D-12
 IDIUse=1 WtCom= 1.00D+00 WtEn= 0.00D+00
 Coeff-Com: -0.113D-05 0.763D-05 0.897D-06-0.829D-04-0.776D-04 0.428D-03
 Coeff-Com:  0.163D-02-0.197D-02-0.447D-02 0.685D-02 0.594D-02-0.259D-01
 Coeff-Com: -0.267D-01 0.141D+00 0.103D+00-0.454D+00-0.907D-01 0.135D+01
 Coeff:     -0.113D-05 0.763D-05 0.897D-06-0.829D-04-0.776D-04 0.428D-03
 Coeff:      0.163D-02-0.197D-02-0.447D-02 0.685D-02 0.594D-02-0.259D-01
 Coeff:     -0.267D-01 0.141D+00 0.103D+00-0.454D+00-0.907D-01 0.135D+01
 RMSDP=3.04D-08 MaxDP=1.36D-06 DE=-3.55D-11 OVMax= 0.00D+00

 Cycle  19  Pass 1  IDiag  1:
 RMSU=  1.29D-08    CP:  9.92D-01  1.16D+00  1.07D+00  1.19D+00  1.99D+00
                    CP:  2.93D+00  3.00D+00  3.00D+00  3.00D+00  2.64D+00
                    CP:  1.89D+00  1.87D+00  1.99D+00  3.00D+00  3.00D+00
                    CP:  3.00D+00  1.84D+00  1.75D+00
 E= -474.658896535208     Delta-E=       -0.000000000012 Rises=F Damp=F
 DIIS: error= 5.53D-08 at cycle  19 NSaved=  19.
 NSaved=19 IEnMin=19 EnMin= -474.658896535208     IErMin=19 ErrMin= 5.53D-08
 ErrMax= 5.53D-08  0.00D+00 EMaxC= 1.00D-01 BMatC= 7.91D-14 BMatP= 5.98D-13
 IDIUse=1 WtCom= 1.00D+00 WtEn= 0.00D+00
 Coeff-Com:  0.688D-07-0.590D-06 0.216D-05 0.661D-05-0.284D-05-0.712D-04
 Coeff-Com: -0.186D-04 0.227D-03 0.249D-03-0.972D-03 0.401D-03 0.392D-02
 Coeff-Com: -0.321D-02-0.311D-01 0.284D-01 0.886D-01-0.208D+00-0.178D+00
 Coeff-Com:  0.130D+01
 Coeff:      0.688D-07-0.590D-06 0.216D-05 0.661D-05-0.284D-05-0.712D-04
 Coeff:     -0.186D-04 0.227D-03 0.249D-03-0.972D-03 0.401D-03 0.392D-02
 Coeff:     -0.321D-02-0.311D-01 0.284D-01 0.886D-01-0.208D+00-0.178D+00
 Coeff:      0.130D+01
 RMSDP=7.84D-09 MaxDP=4.66D-07 DE=-1.18D-11 OVMax= 0.00D+00

 SCF Done:  E(RZINDO/S) =  -474.658896535     A.U. after   19 cycles
            NFock= 19  Conv=0.78D-08     -V/T= 0.9505
 KE=-9.584985245409D+03 PE=-1.268104824703D-06 EE= 4.655044986274D+03
 Leave Link  502 at Wed May  4 09:44:36 2022, MaxMem=  6710886400 cpu:              21.2 elap:               0.9
 (Enter /sw/apps/gaussian-16.0/g16/l801.exe)
 Range of M.O.s used for correlation:     1   338
 NBasis=   338 NAE=   176 NBE=   176 NFC=     0 NFV=     0
 NROrb=    338 NOA=   176 NOB=   176 NVA=   162 NVB=   162
 Leave Link  801 at Wed May  4 09:44:36 2022, MaxMem=  6710886400 cpu:               0.5 elap:               0.0
 (Enter /sw/apps/gaussian-16.0/g16/l914.exe)
 RHF ground state
 Two-electron integral symmetry not used.
 MDV=  6710886400 DFT=F DoStab=F Mixed=F DoRPA=F DoScal=F NonHer=F
 Making orbital integer symmetry assigments:
 Orbital symmetries:
       Occupied  (A) (A) (A) (A) (A) (A) (A) (A) (A) (A) (A) (A)
                 (A) (A) (A) (A) (A) (A) (A) (A) (A) (A) (A) (A)
                 (A) (A) (A) (A) (A) (A) (A) (A) (A) (A) (A) (A)
                 (A) (A) (A) (A) (A) (A) (A) (A) (A) (A) (A) (A)
                 (A) (A) (A) (A) (A) (A) (A) (A) (A) (A) (A) (A)
                 (A) (A) (A) (A) (A) (A) (A) (A) (A) (A) (A) (A)
                 (A) (A) (A) (A) (A) (A) (A) (A) (A) (A) (A) (A)
                 (A) (A) (A) (A) (A) (A) (A) (A) (A) (A) (A) (A)
                 (A) (A) (A) (A) (A) (A) (A) (A) (A) (A) (A) (A)
                 (A) (A) (A) (A) (A) (A) (A) (A) (A) (A) (A) (A)
                 (A) (A) (A) (A) (A) (A) (A) (A) (A) (A) (A) (A)
                 (A) (A) (A) (A) (A) (A) (A) (A) (A) (A) (A) (A)
                 (A) (A) (A) (A) (A) (A) (A) (A) (A) (A) (A) (A)
                 (A) (A) (A) (A) (A) (A) (A) (A) (A) (A) (A) (A)
                 (A) (A) (A) (A) (A) (A) (A) (A)
       Virtual   (A) (A) (A) (A) (A) (A) (A) (A) (A) (A) (A) (A)
                 (A) (A) (A) (A) (A) (A) (A) (A) (A) (A) (A) (A)
                 (A) (A) (A) (A) (A) (A) (A) (A) (A) (A) (A) (A)
                 (A) (A) (A) (A) (A) (A) (A) (A) (A) (A) (A) (A)
                 (A) (A) (A) (A) (A) (A) (A) (A) (A) (A) (A) (A)
                 (A) (A) (A) (A) (A) (A) (A) (A) (A) (A) (A) (A)
                 (A) (A) (A) (A) (A) (A) (A) (A) (A) (A) (A) (A)
                 (A) (A) (A) (A) (A) (A) (A) (A) (A) (A) (A) (A)
                 (A) (A) (A) (A) (A) (A) (A) (A) (A) (A) (A) (A)
                 (A) (A) (A) (A) (A) (A) (A) (A) (A) (A) (A) (A)
                 (A) (A) (A) (A) (A) (A) (A) (A) (A) (A) (A) (A)
                 (A) (A) (A) (A) (A) (A) (A) (A) (A) (A) (A) (A)
                 (A) (A) (A) (A) (A) (A) (A) (A) (A) (A) (A) (A)
                 (A) (A) (A) (A) (A) (A)
    20 initial guesses have been made.
 Convergence on wavefunction:    0.001000000000000
 Davidson Disk Diagonalization:  ConvIn= 1.00D-03 SkipCon=T Conv= 1.00D-03.
 Max sub-space:  2000 roots to seek:    20 dimension of matrix:        57024
 Iteration     1 Dimension    20 NMult     0 NNew     20
 CISAX will form    20 AO SS matrices at one time.
 NMat=    20 NSing=    20 JSym2X= 0.
 New state      3 was old state      4
 New state      4 was old state      3
 New state      5 was old state      6
 Excitation Energies [eV] at current iteration:
 Root      1 :     1.628034038977368
 Root      2 :     2.155059945120764
 Root      3 :     3.280138528310353
 Root      4 :     3.425378174066703
 Root      5 :     3.479074855926919
 Root      6 :     3.570138326483981
 Root      7 :     3.639400073882028
 Root      8 :     3.786094875897242
 Root      9 :     3.971272137176079
 Root     10 :     4.041006683326033
 Root     11 :     4.150524213995923
 Root     12 :     4.233576040593049
 Root     13 :     4.349286214207832
 Root     14 :     4.415282688086962
 Root     15 :     4.490203911626184
 Root     16 :     4.538152951227219
 Root     17 :     4.642821574390523
 Root     18 :     4.709012568294845
 Root     19 :     5.124227319925728
 Root     20 :     5.840813283985524
 Iteration     2 Dimension    40 NMult    20 NNew     20
 CISAX will form    20 AO SS matrices at one time.
 NMat=    20 NSing=    20 JSym2X= 0.
 Root      1 not converged, maximum delta is    0.038400810545007
 Root      2 not converged, maximum delta is    0.023716054579353
 Root      3 not converged, maximum delta is    0.254722096732644
 Root      4 not converged, maximum delta is    0.216073704696169
 Root      5 not converged, maximum delta is    0.103754139014272
 Excitation Energies [eV] at current iteration:
 Root      1 :     1.289315770171565   Change is   -0.338718268805803
 Root      2 :     1.953869514604482   Change is   -0.201190430516282
 Root      3 :     2.983770173282216   Change is   -0.296368355028137
 Root      4 :     3.157492999653700   Change is   -0.267885174413003
 Root      5 :     3.307228579345399   Change is   -0.171846276581520
 Root      6 :     3.441525040466863   Change is   -0.197875033415165
 Root      7 :     3.497174142559922   Change is   -0.072964183924059
 Root      8 :     3.581713511644461   Change is   -0.204381364252781
 Root      9 :     3.589613987124086   Change is   -0.759672227083745
 Root     10 :     3.623133493386225   Change is   -0.867070418239959
 Root     11 :     3.688096833713577   Change is   -0.283175303462502
 Root     12 :     3.782613687574554   Change is   -0.258392995751479
 Root     13 :     3.794708335935619   Change is   -0.355815878060304
 Root     14 :     4.004620119216561   Change is   -0.228955921376488
 Root     15 :     4.152985731538838   Change is   -0.262296956548124
 Root     16 :     4.216811584946125   Change is   -0.321341366281094
 Root     17 :     4.494140548458893   Change is   -0.214872019835951
 Root     18 :     4.604500701706969   Change is   -0.038320872683555
 Root     19 :     5.118602295374762   Change is   -0.005625024550966
 Root     20 :     5.621638451914130
 Iteration     3 Dimension    45 NMult    40 NNew      5
 CISAX will form     5 AO SS matrices at one time.
 NMat=     5 NSing=     5 JSym2X= 0.
 Root      1 not converged, maximum delta is    0.010538231163848
 Root      2 not converged, maximum delta is    0.018209361046780
 Root      3 not converged, maximum delta is    0.019205059570784
 Root      4 not converged, maximum delta is    0.018595988007323
 Root      5 not converged, maximum delta is    0.025426216615524
 Excitation Energies [eV] at current iteration:
 Root      1 :     1.273453374211949   Change is   -0.015862395959616
 Root      2 :     1.928035502990892   Change is   -0.025834011613590
 Root      3 :     2.961676992724168   Change is   -0.022093180558048
 Root      4 :     3.132806918888537   Change is   -0.024686080765163
 Root      5 :     3.280302619847045   Change is   -0.026925959498354
 Iteration     4 Dimension    50 NMult    45 NNew      5
 CISAX will form     5 AO SS matrices at one time.
 NMat=     5 NSing=     5 JSym2X= 0.
 Root      1 not converged, maximum delta is    0.001963436721735
 Root      2 not converged, maximum delta is    0.002290299879388
 Root      3 not converged, maximum delta is    0.005945611457539
 Root      4 not converged, maximum delta is    0.009051736954959
 Root      5 not converged, maximum delta is    0.073693908133140
 Excitation Energies [eV] at current iteration:
 Root      1 :     1.272680095877749   Change is   -0.000773278334200
 Root      2 :     1.927392427173744   Change is   -0.000643075817148
 Root      3 :     2.959338216171669   Change is   -0.002338776552500
 Root      4 :     3.130443855952336   Change is   -0.002363062936201
 Root      5 :     3.272397471685577   Change is   -0.007905148161468
 Iteration     5 Dimension    55 NMult    50 NNew      5
 CISAX will form     5 AO SS matrices at one time.
 NMat=     5 NSing=     5 JSym2X= 0.
 Root      1 has converged.
 Root      2 has converged.
 New state      3 was old state      5
 Root      3 not converged, maximum delta is    0.466338059245101
 New state      4 was old state      3
 Root      4 not converged, maximum delta is    0.067134531011240
 New state      5 was old state      4
 Root      5 not converged, maximum delta is    0.028081476199771
 Excitation Energies [eV] at current iteration:
 Root      1 :     1.272631493765914   Change is   -0.000048602111834
 Root      2 :     1.927355147595104   Change is   -0.000037279578640
 Root      3 :     2.915081569309534   Change is   -0.357315902376043
 Root      4 :     2.959921189816905   Change is    0.000582973645236
 Root      5 :     3.130655268027637   Change is    0.000211412075301
 Iteration     6 Dimension    58 NMult    55 NNew      3
 CISAX will form     3 AO SS matrices at one time.
 NMat=     3 NSing=     3 JSym2X= 0.
 Root      1 has converged.
 Root      2 has converged.
 Root      3 not converged, maximum delta is    0.050776979788868
 Root      4 not converged, maximum delta is    0.040402595632033
 Root      5 not converged, maximum delta is    0.004696304804729
 Excitation Energies [eV] at current iteration:
 Root      1 :     1.272630948918179   Change is   -0.000000544847736
 Root      2 :     1.927354729359375   Change is   -0.000000418235730
 Root      3 :     2.834420753212139   Change is   -0.080660816097395
 Root      4 :     2.959231163191075   Change is   -0.000690026625830
 Root      5 :     3.130495428171057   Change is   -0.000159839856581
 Iteration     7 Dimension    61 NMult    58 NNew      3
 CISAX will form     3 AO SS matrices at one time.
 NMat=     3 NSing=     3 JSym2X= 0.
 Root      1 has converged.
 Root      2 has converged.
 Root      3 not converged, maximum delta is    0.039322401625849
 Root      4 not converged, maximum delta is    0.003241841783105
 Root      5 not converged, maximum delta is    0.003085058826315
 Excitation Energies [eV] at current iteration:
 Root      1 :     1.272630703502806   Change is   -0.000000245415373
 Root      2 :     1.927354222782737   Change is   -0.000000506576638
 Root      3 :     2.814989719261976   Change is   -0.019431033950163
 Root      4 :     2.959104245470041   Change is   -0.000126917721034
 Root      5 :     3.130436786652283   Change is   -0.000058641518774
 Iteration     8 Dimension    64 NMult    61 NNew      3
 CISAX will form     3 AO SS matrices at one time.
 NMat=     3 NSing=     3 JSym2X= 0.
 Root      1 has converged.
 Root      2 has converged.
 Root      3 not converged, maximum delta is    0.037278879114839
 Root      4 not converged, maximum delta is    0.007783728661239
 No map to state      5
 Excitation Energies [eV] at current iteration:
 Root      1 :     1.272630604528677   Change is   -0.000000098974128
 Root      2 :     1.927353682798918   Change is   -0.000000539983818
 Root      3 :     2.806905623974632   Change is   -0.008084095287344
 Root      4 :     2.958997408681938   Change is   -0.000106836788103
 Root      5 :     3.083239464117087
 Iteration     9 Dimension    67 NMult    64 NNew      3
 CISAX will form     3 AO SS matrices at one time.
 NMat=     3 NSing=     3 JSym2X= 0.
 Root      1 has converged.
 Root      2 has converged.
 Root      3 not converged, maximum delta is    0.015991927307320
 Root      4 not converged, maximum delta is    0.010228425247338
 Root      5 not converged, maximum delta is    0.025697216163892
 Excitation Energies [eV] at current iteration:
 Root      1 :     1.272630575603268   Change is   -0.000000028925410
 Root      2 :     1.927353439487613   Change is   -0.000000243311306
 Root      3 :     2.804607485647213   Change is   -0.002298138327420
 Root      4 :     2.958892168390591   Change is   -0.000105240291347
 Root      5 :     3.018214351892708   Change is   -0.065025112224379
 Iteration    10 Dimension    70 NMult    67 NNew      3
 CISAX will form     3 AO SS matrices at one time.
 NMat=     3 NSing=     3 JSym2X= 0.
 Root      1 has converged.
 Root      2 has converged.
 Root      3 not converged, maximum delta is    0.001885787659370
 Root      4 not converged, maximum delta is    0.002487615429278
 Root      5 not converged, maximum delta is    0.007386356444600
 Excitation Energies [eV] at current iteration:
 Root      1 :     1.272630554177358   Change is   -0.000000021425910
 Root      2 :     1.927353399436796   Change is   -0.000000040050817
 Root      3 :     2.804315358792579   Change is   -0.000292126854634
 Root      4 :     2.958866326456764   Change is   -0.000025841933827
 Root      5 :     3.011131731077876   Change is   -0.007082620814832
 Iteration    11 Dimension    73 NMult    70 NNew      3
 CISAX will form     3 AO SS matrices at one time.
 NMat=     3 NSing=     3 JSym2X= 0.
 Root      1 has converged.
 Root      2 has converged.
 Root      3 has converged.
 Root      4 has converged.
 Root      5 not converged, maximum delta is    0.002717971507376
 Excitation Energies [eV] at current iteration:
 Root      1 :     1.272630536919214   Change is   -0.000000017258144
 Root      2 :     1.927353283391226   Change is   -0.000000116045570
 Root      3 :     2.804283968884946   Change is   -0.000031389907633
 Root      4 :     2.958863007338296   Change is   -0.000003319118468
 Root      5 :     3.010304102503823   Change is   -0.000827628574053
 Iteration    12 Dimension    74 NMult    73 NNew      1
 CISAX will form     1 AO SS matrices at one time.
 NMat=     1 NSing=     1 JSym2X= 0.
 Root      1 has converged.
 Root      2 has converged.
 Root      3 has converged.
 Root      4 has converged.
 Root      5 not converged, maximum delta is    0.001089670171935
 Excitation Energies [eV] at current iteration:
 Root      1 :     1.272630536514704   Change is   -0.000000000404509
 Root      2 :     1.927353227774675   Change is   -0.000000055616551
 Root      3 :     2.804280872254982   Change is   -0.000003096629964
 Root      4 :     2.958862643289407   Change is   -0.000000364048889
 Root      5 :     3.010199946425581   Change is   -0.000104156078242
 Iteration    13 Dimension    75 NMult    74 NNew      1
 CISAX will form     1 AO SS matrices at one time.
 NMat=     1 NSing=     1 JSym2X= 0.
 Root      1 has converged.
 Root      2 has converged.
 Root      3 has converged.
 Root      4 has converged.
 Root      5 has converged.
 Excitation Energies [eV] at current iteration:
 Root      1 :     1.272630535299358   Change is   -0.000000001215346
 Root      2 :     1.927353194530089   Change is   -0.000000033244586
 Root      3 :     2.804280409817400   Change is   -0.000000462437582
 Root      4 :     2.958862597445772   Change is   -0.000000045843635
 Root      5 :     3.010184883904769   Change is   -0.000015062520811
 Convergence achieved on expansion vectors.
 ***********************************************************************
 Excited states from <AA,BB:AA,BB> singles matrix:
 ***********************************************************************
 
 1PDM for each excited state written to RWF  633
 Ground to excited state transition densities written to RWF  633
 Ground to excited state transition electric dipole moments (Au):
       state          X           Y           Z        Dip. S.      Osc.
         1        -2.0583     -3.6281      1.3620     19.2550      0.6003
         2         0.9827     -0.6102      0.3462      1.4578      0.0688
         3         0.0395     -0.0077     -0.0377      0.0030      0.0002
         4         2.6785     -1.1164      0.2183      8.4683      0.6139
         5         0.2092     -0.0329      0.0689      0.0496      0.0037
 Ground to excited state transition velocity dipole moments (Au):
       state          X           Y           Z        Dip. S.      Osc.
         1        -0.0481     -0.0320      0.0212      0.0038      0.0539
         2        -0.0134      0.0087     -0.0076      0.0003      0.0029
         3        -0.0039     -0.0034     -0.0003      0.0000      0.0002
         4        -0.0852      0.0411     -0.0022      0.0089      0.0549
         5        -0.0095      0.0055      0.0016      0.0001      0.0007
 Ground to excited state transition magnetic dipole moments (Au):
       state          X           Y           Z
         1        -0.0312      0.1911      0.1045
         2         0.0532      0.1903      0.6016
         3         0.6528     -0.1854      0.3793
         4        -0.0081      0.0510      0.1376
         5         0.0686      0.7330     -0.1694
 Ground to excited state transition velocity quadrupole moments (Au):
       state          XX          YY          ZZ          XY          XZ          YZ
         1         0.8631      0.1024      0.0384      0.4022     -0.1540     -0.0531
         2         0.2083     -0.0375     -0.0275     -0.0505      0.0600      0.0217
         3         0.0719     -0.0975      0.0107      0.0044     -0.0134     -0.0155
         4         0.5893      0.1167     -0.0414     -0.0761      0.1549     -0.1932
         5         0.0837      0.0166      0.0135      0.0378      0.0116     -0.0693
 <0|del|b> * <b|rxdel|0> + <0|del|b> * <b|delr+rdel|0>
 Rotatory Strengths (R) in cgs (10**-40 erg-esu-cm/Gauss)
       state          XX          YY          ZZ    R(velocity)    E-M Angle
         1        -2.3457    -17.0294    -16.9466    -12.1072      100.23
         2       -15.1962    -29.6788      8.7272    -12.0493      108.87
         3         1.6811     -8.8453     -6.5656     -4.5766      119.66
         4       -14.3398     54.1796    -23.7482      5.3639       79.75
         5        11.9243     -1.0424      8.8193      6.5671       68.39
 1/2[<0|r|b>*<b|rxdel|0> + (<0|rxdel|b>*<b|r|0>)*]
 Rotatory Strengths (R) in cgs (10**-40 erg-esu-cm/Gauss)
       state          XX          YY          ZZ     R(length)
         1       -45.3795    490.2590   -100.6288    114.7502
         2       -36.9782     82.1344   -147.2570    -34.0336
         3       -18.2311     -1.0080     10.1093     -3.0432
         4        15.2578     40.2589    -21.2318     11.4283
         5       -10.1464     17.0568      8.2558      5.0554
  1/2[<0|del|b>*<b|r|0> + (<0|r|b>*<b|del|0>)*] (Au)
       state          X           Y           Z        Dip. S.   Osc.(frdel)
         1         0.0989      0.1161      0.0288     -0.2438     -0.1625
         2        -0.0132     -0.0053     -0.0026      0.0211      0.0141
         3        -0.0002      0.0000      0.0000      0.0001      0.0001
         4        -0.2281     -0.0459     -0.0005      0.2745      0.1830
         5        -0.0020     -0.0002      0.0001      0.0021      0.0014

 Excitation energies and oscillator strengths:
 
 Excited State   1:      Singlet-A      1.2726 eV  974.24 nm  f=0.6003  <S**2>=0.000
     175 ->178         0.18077
     176 ->177         0.66537
 This state for optimization and/or second-order correction.
 Total Energy, E(CIS/TDA) =  -474.612128224    
 Copying the excited state density for this state as the 1-particle RhoCI density.
 
 Excited State   2:      Singlet-A      1.9274 eV  643.29 nm  f=0.0688  <S**2>=0.000
     175 ->177         0.56234
     176 ->178        -0.39244
 
 Excited State   3:      Singlet-A      2.8043 eV  442.12 nm  f=0.0002  <S**2>=0.000
     168 ->177         0.30104
     168 ->179        -0.47253
     168 ->180         0.24051
     168 ->184        -0.16811
     168 ->186         0.19943
 
 Excited State   4:      Singlet-A      2.9589 eV  419.03 nm  f=0.6139  <S**2>=0.000
     175 ->177         0.30397
     176 ->178         0.51187
     176 ->179        -0.26521
     176 ->180        -0.17402
 
 Excited State   5:      Singlet-A      3.0102 eV  411.88 nm  f=0.0037  <S**2>=0.000
     170 ->180         0.10537
     171 ->177         0.34115
     171 ->178        -0.20217
     171 ->179         0.23345
     171 ->180         0.32975
     171 ->183         0.12474
     171 ->186        -0.16795
     171 ->188        -0.13931
 SavETr:  write IOETrn=   770 NScale= 10 NData=  16 NLR=1 NState=    5 LETran=     100.
 Leave Link  914 at Wed May  4 09:44:40 2022, MaxMem=  6710886400 cpu:             111.0 elap:               4.7
 (Enter /sw/apps/gaussian-16.0/g16/l601.exe)
 Copying SCF densities to generalized density rwf, IOpCl= 0 IROHF=0.

 **********************************************************************

            Population analysis using the SCF density.

 **********************************************************************

 Orbital symmetries:
       Occupied  (A) (A) (A) (A) (A) (A) (A) (A) (A) (A) (A) (A)
                 (A) (A) (A) (A) (A) (A) (A) (A) (A) (A) (A) (A)
                 (A) (A) (A) (A) (A) (A) (A) (A) (A) (A) (A) (A)
                 (A) (A) (A) (A) (A) (A) (A) (A) (A) (A) (A) (A)
                 (A) (A) (A) (A) (A) (A) (A) (A) (A) (A) (A) (A)
                 (A) (A) (A) (A) (A) (A) (A) (A) (A) (A) (A) (A)
                 (A) (A) (A) (A) (A) (A) (A) (A) (A) (A) (A) (A)
                 (A) (A) (A) (A) (A) (A) (A) (A) (A) (A) (A) (A)
                 (A) (A) (A) (A) (A) (A) (A) (A) (A) (A) (A) (A)
                 (A) (A) (A) (A) (A) (A) (A) (A) (A) (A) (A) (A)
                 (A) (A) (A) (A) (A) (A) (A) (A) (A) (A) (A) (A)
                 (A) (A) (A) (A) (A) (A) (A) (A) (A) (A) (A) (A)
                 (A) (A) (A) (A) (A) (A) (A) (A) (A) (A) (A) (A)
                 (A) (A) (A) (A) (A) (A) (A) (A) (A) (A) (A) (A)
                 (A) (A) (A) (A) (A) (A) (A) (A)
       Virtual   (A) (A) (A) (A) (A) (A) (A) (A) (A) (A) (A) (A)
                 (A) (A) (A) (A) (A) (A) (A) (A) (A) (A) (A) (A)
                 (A) (A) (A) (A) (A) (A) (A) (A) (A) (A) (A) (A)
                 (A) (A) (A) (A) (A) (A) (A) (A) (A) (A) (A) (A)
                 (A) (A) (A) (A) (A) (A) (A) (A) (A) (A) (A) (A)
                 (A) (A) (A) (A) (A) (A) (A) (A) (A) (A) (A) (A)
                 (A) (A) (A) (A) (A) (A) (A) (A) (A) (A) (A) (A)
                 (A) (A) (A) (A) (A) (A) (A) (A) (A) (A) (A) (A)
                 (A) (A) (A) (A) (A) (A) (A) (A) (A) (A) (A) (A)
                 (A) (A) (A) (A) (A) (A) (A) (A) (A) (A) (A) (A)
                 (A) (A) (A) (A) (A) (A) (A) (A) (A) (A) (A) (A)
                 (A) (A) (A) (A) (A) (A) (A) (A) (A) (A) (A) (A)
                 (A) (A) (A) (A) (A) (A) (A) (A) (A) (A) (A) (A)
                 (A) (A) (A) (A) (A) (A)
 The electronic state is 1-A.
 Alpha  occ. eigenvalues --   -1.86473  -1.82116  -1.80970  -1.73311  -1.71935
 Alpha  occ. eigenvalues --   -1.71240  -1.66352  -1.61900  -1.59537  -1.57833
 Alpha  occ. eigenvalues --   -1.57500  -1.52797  -1.50169  -1.48571  -1.47480
 Alpha  occ. eigenvalues --   -1.44826  -1.42404  -1.40685  -1.39662  -1.38951
 Alpha  occ. eigenvalues --   -1.35860  -1.34766  -1.34014  -1.32530  -1.28602
 Alpha  occ. eigenvalues --   -1.28165  -1.24593  -1.22650  -1.21715  -1.19453
 Alpha  occ. eigenvalues --   -1.18471  -1.16087  -1.15994  -1.14633  -1.13176
 Alpha  occ. eigenvalues --   -1.12871  -1.12015  -1.11618  -1.05375  -1.03606
 Alpha  occ. eigenvalues --   -1.02533  -1.02145  -1.00573  -0.97644  -0.97193
 Alpha  occ. eigenvalues --   -0.95785  -0.94267  -0.93710  -0.91476  -0.91313
 Alpha  occ. eigenvalues --   -0.91013  -0.89486  -0.89215  -0.87968  -0.86360
 Alpha  occ. eigenvalues --   -0.85683  -0.84728  -0.83513  -0.82902  -0.80856
 Alpha  occ. eigenvalues --   -0.80031  -0.78594  -0.77715  -0.77140  -0.76568
 Alpha  occ. eigenvalues --   -0.76359  -0.75705  -0.75281  -0.74557  -0.73960
 Alpha  occ. eigenvalues --   -0.73465  -0.73270  -0.72766  -0.71698  -0.70826
 Alpha  occ. eigenvalues --   -0.70223  -0.69598  -0.68844  -0.68379  -0.68206
 Alpha  occ. eigenvalues --   -0.68022  -0.67384  -0.67298  -0.66668  -0.66125
 Alpha  occ. eigenvalues --   -0.65814  -0.65482  -0.64340  -0.63998  -0.63875
 Alpha  occ. eigenvalues --   -0.63561  -0.62943  -0.62731  -0.62174  -0.61845
 Alpha  occ. eigenvalues --   -0.61535  -0.61317  -0.60667  -0.60211  -0.59895
 Alpha  occ. eigenvalues --   -0.59335  -0.59208  -0.58767  -0.58459  -0.58252
 Alpha  occ. eigenvalues --   -0.57767  -0.57378  -0.57283  -0.56729  -0.56689
 Alpha  occ. eigenvalues --   -0.56111  -0.55489  -0.55051  -0.55014  -0.54925
 Alpha  occ. eigenvalues --   -0.54351  -0.54253  -0.53978  -0.53732  -0.53022
 Alpha  occ. eigenvalues --   -0.52490  -0.51999  -0.51586  -0.51410  -0.51225
 Alpha  occ. eigenvalues --   -0.50831  -0.50577  -0.50429  -0.50251  -0.50008
 Alpha  occ. eigenvalues --   -0.49799  -0.49670  -0.49378  -0.49197  -0.49118
 Alpha  occ. eigenvalues --   -0.48743  -0.48344  -0.47913  -0.47685  -0.47405
 Alpha  occ. eigenvalues --   -0.47307  -0.47207  -0.47200  -0.47146  -0.46593
 Alpha  occ. eigenvalues --   -0.46250  -0.45963  -0.45799  -0.45406  -0.45370
 Alpha  occ. eigenvalues --   -0.45199  -0.45138  -0.44494  -0.44249  -0.44165
 Alpha  occ. eigenvalues --   -0.43897  -0.42993  -0.42726  -0.42715  -0.42047
 Alpha  occ. eigenvalues --   -0.41860  -0.41780  -0.40701  -0.39393  -0.38851
 Alpha  occ. eigenvalues --   -0.38230  -0.36494  -0.35397  -0.34969  -0.34307
 Alpha  occ. eigenvalues --   -0.33988  -0.32265  -0.32220  -0.31877  -0.26532
 Alpha  occ. eigenvalues --   -0.21844
 Alpha virt. eigenvalues --   -0.08549  -0.02007  -0.00686   0.00897   0.01860
 Alpha virt. eigenvalues --    0.02608   0.03010   0.03336   0.04381   0.05009
 Alpha virt. eigenvalues --    0.06129   0.07009   0.07127   0.07723   0.08032
 Alpha virt. eigenvalues --    0.08596   0.08762   0.09012   0.09299   0.09685
 Alpha virt. eigenvalues --    0.10089   0.10300   0.10437   0.10671   0.10818
 Alpha virt. eigenvalues --    0.10996   0.11415   0.11532   0.11988   0.12552
 Alpha virt. eigenvalues --    0.12698   0.12914   0.12996   0.13380   0.13428
 Alpha virt. eigenvalues --    0.13749   0.13986   0.14392   0.14565   0.14912
 Alpha virt. eigenvalues --    0.15206   0.15400   0.15469   0.15558   0.15657
 Alpha virt. eigenvalues --    0.15690   0.16089   0.16739   0.16903   0.17103
 Alpha virt. eigenvalues --    0.17227   0.17333   0.17754   0.17773   0.18001
 Alpha virt. eigenvalues --    0.18314   0.18506   0.18889   0.19072   0.19533
 Alpha virt. eigenvalues --    0.19678   0.19796   0.20033   0.20639   0.21348
 Alpha virt. eigenvalues --    0.21426   0.21533   0.22627   0.22761   0.23339
 Alpha virt. eigenvalues --    0.23574   0.23738   0.24002   0.24030   0.24180
 Alpha virt. eigenvalues --    0.24258   0.24291   0.24318   0.24377   0.24499
 Alpha virt. eigenvalues --    0.24577   0.24630   0.24700   0.24721   0.24754
 Alpha virt. eigenvalues --    0.24911   0.24959   0.25084   0.25129   0.25288
 Alpha virt. eigenvalues --    0.25427   0.25452   0.25538   0.25688   0.25699
 Alpha virt. eigenvalues --    0.25712   0.25758   0.25779   0.25916   0.26184
 Alpha virt. eigenvalues --    0.26202   0.26372   0.26462   0.26472   0.26523
 Alpha virt. eigenvalues --    0.26555   0.26692   0.26785   0.27008   0.27026
 Alpha virt. eigenvalues --    0.27255   0.27356   0.27788   0.27874   0.28013
 Alpha virt. eigenvalues --    0.28110   0.28227   0.28366   0.28997   0.29539
 Alpha virt. eigenvalues --    0.29815   0.30342   0.30472   0.30541   0.31339
 Alpha virt. eigenvalues --    0.32048   0.32620   0.32704   0.33099   0.34621
 Alpha virt. eigenvalues --    0.35237   0.35572   0.35770   0.36134   0.36334
 Alpha virt. eigenvalues --    0.36354   0.36484   0.36850   0.37700   0.38457
 Alpha virt. eigenvalues --    0.39124   0.39554   0.39628   0.40151   0.40361
 Alpha virt. eigenvalues --    0.40635   0.41721   0.42510   0.42868   0.43133
 Alpha virt. eigenvalues --    0.44464   0.44709   0.45214   0.46169   0.47121
 Alpha virt. eigenvalues --    0.47477   0.47833   0.48406   0.51238   0.53716
 Alpha virt. eigenvalues --    0.54654   0.57679
          Condensed to atoms (all electrons):
 Mulliken charges:
               1
     1  Mg   0.434011
     2  C   -0.030649
     3  C   -0.073102
     4  C   -0.083192
     5  C   -0.070160
     6  N   -0.275697
     7  C    0.121903
     8  C    0.008745
     9  C    0.013225
    10  C    0.147603
    11  C   -0.048390
    12  C   -0.018744
    13  C    0.003065
    14  C    0.469632
    15  O   -0.513961
    16  O   -0.271609
    17  N   -0.323385
    18  C    0.127048
    19  C    0.022298
    20  C   -0.024154
    21  C    0.154960
    22  C   -0.047117
    23  C    0.332634
    24  O   -0.547789
    25  C   -0.018225
    26  N   -0.274434
    27  C    0.151657
    28  C    0.005129
    29  C    0.002165
    30  C    0.106007
    31  C   -0.050797
    32  C   -0.027248
    33  C   -0.053392
    34  N   -0.328101
    35  C    0.073085
    36  C    0.022596
    37  C   -0.062821
    38  C    0.118025
    39  C   -0.040770
    40  C    0.328078
    41  O   -0.542294
    42  C    0.060757
    43  C    0.488952
    44  O   -0.543288
    45  O   -0.294109
    46  C    0.067133
    47  C    0.108160
    48  C   -0.095606
    49  C   -0.013180
    50  C   -0.045086
    51  C   -0.024025
    52  C   -0.028836
    53  C   -0.040241
    54  C   -0.014584
    55  C   -0.053746
    56  C   -0.037550
    57  C   -0.040815
    58  C   -0.029726
    59  C   -0.003323
    60  C   -0.060041
    61  C   -0.046333
    62  C   -0.035313
    63  C   -0.014660
    64  C   -0.007766
    65  C   -0.056255
    66  C   -0.055218
    67  H    0.018872
    68  H    0.040677
    69  H    0.022983
    70  H    0.034449
    71  H    0.028450
    72  H    0.021866
    73  H    0.020301
    74  H    0.027682
    75  H    0.029366
    76  H    0.026493
    77  H    0.049407
    78  H    0.035741
    79  H    0.034332
    80  H    0.031851
    81  H    0.014596
    82  H    0.029713
    83  H    0.040580
    84  H    0.044100
    85  H    0.036165
    86  H    0.035747
    87  H    0.027594
    88  H    0.028174
    89  H    0.021294
    90  H    0.015967
    91  H    0.014647
    92  H    0.017390
    93  H    0.016657
    94  H    0.025341
    95  H    0.037909
    96  H    0.024332
    97  H    0.041972
    98  H    0.059174
    99  H    0.041638
   100  H    0.049490
   101  H    0.054920
   102  H    0.049028
   103  H    0.053997
   104  H    0.027700
   105  H    0.025719
   106  H    0.028516
   107  H    0.020869
   108  H    0.027432
   109  H    0.021624
   110  H    0.025985
   111  H    0.021527
   112  H    0.010444
   113  H    0.022898
   114  H    0.022930
   115  H    0.026074
   116  H    0.012532
   117  H    0.008345
   118  H    0.023459
   119  H    0.018022
   120  H    0.018381
   121  H    0.025260
   122  H    0.018466
   123  H    0.015709
   124  H    0.017229
   125  H    0.019308
   126  H    0.020047
   127  H    0.009118
   128  H    0.017620
   129  H    0.011300
   130  H    0.014002
   131  H    0.016918
   132  H    0.022111
   133  H    0.017838
   134  H    0.006062
   135  H    0.017506
   136  H    0.023046
   137  H    0.011518
   138  H    0.020019
   139  H    0.015953
   140  H    0.014478
 Sum of Mulliken charges =  -0.00000
 Mulliken charges with hydrogens summed into heavy atoms:
               1
     1  Mg   0.434011
     2  C   -0.030649
     3  C   -0.054230
     4  C   -0.042515
     5  C   -0.047176
     6  N   -0.275697
     7  C    0.121903
     8  C    0.043194
     9  C    0.041675
    10  C    0.147603
    11  C    0.021460
    12  C    0.037116
    13  C    0.088213
    14  C    0.469632
    15  O   -0.513961
    16  O   -0.271609
    17  N   -0.323385
    18  C    0.127048
    19  C    0.022298
    20  C   -0.024154
    21  C    0.154960
    22  C    0.033663
    23  C    0.332634
    24  O   -0.547789
    25  C    0.096169
    26  N   -0.274434
    27  C    0.151657
    28  C    0.041294
    29  C    0.037912
    30  C    0.106007
    31  C    0.026264
    32  C    0.003366
    33  C    0.005996
    34  N   -0.328101
    35  C    0.073085
    36  C    0.022596
    37  C   -0.062821
    38  C    0.118025
    39  C    0.063443
    40  C    0.328078
    41  O   -0.542294
    42  C    0.119932
    43  C    0.488952
    44  O   -0.543288
    45  O   -0.294109
    46  C    0.213181
    47  C    0.211185
    48  C   -0.067906
    49  C   -0.013180
    50  C    0.030018
    51  C    0.025031
    52  C    0.018676
    53  C   -0.006899
    54  C    0.008346
    55  C   -0.006796
    56  C    0.003931
    57  C    0.002826
    58  C    0.004450
    59  C    0.013906
    60  C   -0.011568
    61  C   -0.017413
    62  C   -0.004393
    63  C    0.025289
    64  C   -0.001703
    65  C   -0.004186
    66  C   -0.004768
 Charge=              0.0000 electrons
 Dipole moment (field-independent basis, Debye):
    X=              7.7620    Y=              5.5242    Z=             -2.1808  Tot=              9.7736
 N-N= 4.455281363868D+03 E-N= 0.000000000000D+00  KE=-9.584985245409D+03
 Leave Link  601 at Wed May  4 09:44:40 2022, MaxMem=  6710886400 cpu:               0.8 elap:               0.0
 (Enter /sw/apps/gaussian-16.0/g16/l9999.exe)
 1\1\GINC-BP1-COMPUTE102\SP\RZINDO CIS\STO-3G\C55H74Mg1N4O6\OF15641\04-
 May-2022\0\\#p ZINDO=(nstates=5)\\step_1551_chromophore_12 ZINDO\\0,1\
 Mg,0,47.958,14.614,27.756\C,0,45.995,14.497,30.683\C,0,49.839,16.981,2
 9.255\C,0,49.761,14.489,25.069\C,0,45.432,12.583,26.245\N,0,47.827,15.
 642,29.827\C,0,47.094,15.281,30.872\C,0,47.545,15.894,32.14\C,0,48.681
 ,16.871,31.657\C,0,48.867,16.458,30.189\C,0,48.411,18.366,31.705\C,0,4
 7.955,14.938,33.252\C,0,47.787,15.445,34.67\C,0,48.962,15.187,35.628\O
 ,0,49.772,14.289,35.505\O,0,48.889,16.097,36.657\N,0,49.616,15.646,27.
 233\C,0,50.251,16.577,28.001\C,0,51.481,16.965,27.275\C,0,51.515,16.17
 6,26.11\C,0,50.283,15.41,26.071\C,0,52.559,17.913,27.801\C,0,52.579,16
 .11,25.047\O,0,52.639,15.193,24.179\C,0,53.649,17.057,24.925\N,0,47.55
 ,13.729,25.902\C,0,48.538,13.796,24.972\C,0,48.047,12.984,23.697\C,0,4
 6.703,12.304,24.121\C,0,46.528,12.923,25.496\C,0,47.963,13.859,22.395\
 C,0,46.773,10.761,24.104\C,0,47.421,9.996,22.967\N,0,46.059,13.829,28.
 25\C,0,45.14,13.017,27.563\C,0,44.025,12.719,28.334\C,0,44.352,13.248,
 29.588\C,0,45.596,13.895,29.483\C,0,42.779,11.994,27.875\C,0,43.944,13
 .184,30.953\O,0,43.015,12.576,31.501\C,0,45.019,14.042,31.719\C,0,44.3
 43,15.191,32.298\O,0,43.922,16.251,31.786\O,0,44.07,14.84,33.614\C,0,4
 2.972,15.551,34.315\C,0,50.063,16.074,37.57\C,0,50.241,17.409,38.248\C
 ,0,51.242,17.786,39.1\C,0,52.456,16.947,39.337\C,0,51.284,19.156,39.84
 7\C,0,52.548,20.005,39.659\C,0,52.236,21.506,39.74\C,0,53.235,22.464,3
 9.032\C,0,53.985,23.273,40.084\C,0,52.468,23.405,38.003\C,0,53.29,23.6
 24,36.712\C,0,52.403,24.492,35.733\C,0,52.799,24.411,34.316\C,0,54.123
 ,25.116,34.099\C,0,51.718,24.902,33.305\C,0,51.797,24.34,31.841\C,0,50
 .546,23.599,31.495\C,0,50.511,23.073,30.044\C,0,51.512,21.964,29.635\C
 ,0,50.525,24.184,29.04\H,0,50.543,17.714,29.653\H,0,50.361,14.343,24.1
 68\H,0,44.64,12.031,25.733\H,0,46.717,16.482,32.538\H,0,49.613,16.707,
 32.198\H,0,48.229,18.672,30.675\H,0,49.27,18.915,32.092\H,0,47.51,18.7
 07,32.213\H,0,49.015,14.742,33.088\H,0,47.415,13.998,33.142\H,0,46.953
 ,15.032,35.238\H,0,47.52,16.496,34.561\H,0,52.633,18.919,27.387\H,0,53
 .578,17.53,27.849\H,0,52.358,18.188,28.836\H,0,53.224,18.057,25.017\H,
 0,54.225,16.951,24.005\H,0,54.384,16.812,25.692\H,0,48.844,12.24,23.69
 \H,0,45.769,12.566,23.624\H,0,48.595,14.747,22.373\H,0,46.912,14.129,2
 2.287\H,0,48.372,13.26,21.581\H,0,45.762,10.385,24.26\H,0,47.338,10.48
 1,24.993\H,0,47.486,10.665,22.109\H,0,46.782,9.166,22.664\H,0,48.393,9
 .582,23.237\H,0,42.35,11.523,28.759\H,0,43.057,11.203,27.177\H,0,42.19
 4,12.784,27.405\H,0,45.444,13.434,32.517\H,0,43.456,16.002,35.181\H,0,
 42.326,14.679,34.424\H,0,42.465,16.287,33.692\H,0,50.985,15.906,37.013
 \H,0,50.,15.269,38.302\H,0,49.376,18.071,38.204\H,0,52.524,16.613,40.3
 73\H,0,53.3,17.595,39.1\H,0,52.537,16.002,38.799\H,0,51.174,18.897,40.
 9\H,0,50.453,19.774,39.507\H,0,52.979,19.697,38.706\H,0,53.195,19.78,4
 0.507\H,0,52.314,21.712,40.808\H,0,51.208,21.759,39.479\H,0,53.987,21.
 851,38.535\H,0,53.356,23.794,40.806\H,0,54.699,23.892,39.541\H,0,54.62
 2,22.653,40.714\H,0,52.193,24.342,38.486\H,0,51.543,22.964,37.631\H,0,
 53.461,22.647,36.261\H,0,54.25,24.098,36.916\H,0,52.528,25.502,36.123\
 H,0,51.357,24.189,35.773\H,0,53.072,23.377,34.106\H,0,54.438,25.534,35
 .055\H,0,54.073,25.828,33.275\H,0,54.938,24.441,33.836\H,0,51.679,25.9
 69,33.088\H,0,50.755,24.716,33.78\H,0,52.727,23.78,31.739\H,0,52.06,25
 .206,31.233\H,0,49.775,24.351,31.664\H,0,50.433,22.785,32.211\H,0,49.5
 45,22.599,29.875\H,0,52.405,22.21,30.21\H,0,51.741,21.904,28.571\H,0,5
 1.174,20.972,29.935\H,0,51.342,24.085,28.325\H,0,50.548,25.21,29.409\H
 ,0,49.536,24.105,28.59\\Version=ES64L-G16RevA.03\State=1-A\HF=-474.658
 8965\RMSD=7.835e-09\PG=C01 [X(C55H74Mg1N4O6)]\\@


 Everything starts as somebody's daydream.
                           -- Larry Niven
 Job cpu time:       0 days  0 hours  2 minutes 38.3 seconds.
 Elapsed time:       0 days  0 hours  0 minutes  6.9 seconds.
 File lengths (MBytes):  RWF=   1273 Int=      0 D2E=      0 Chk=     38 Scr=      1
 Normal termination of Gaussian 16 at Wed May  4 09:44:41 2022.
