 Entering Gaussian System, Link 0=g16
 Initial command:
 /sw/apps/gaussian-16.0/g16/l1.exe "/tmp/Gau-34938.inp" -scrdir="/tmp/"
 Entering Link 1 = /sw/apps/gaussian-16.0/g16/l1.exe PID=     34939.
  
 Copyright (c) 1988,1990,1992,1993,1995,1998,2003,2009,2016,
            Gaussian, Inc.  All Rights Reserved.
  
 This is part of the Gaussian(R) 16 program.  It is based on
 the Gaussian(R) 09 system (copyright 2009, Gaussian, Inc.),
 the Gaussian(R) 03 system (copyright 2003, Gaussian, Inc.),
 the Gaussian(R) 98 system (copyright 1998, Gaussian, Inc.),
 the Gaussian(R) 94 system (copyright 1995, Gaussian, Inc.),
 the Gaussian 92(TM) system (copyright 1992, Gaussian, Inc.),
 the Gaussian 90(TM) system (copyright 1990, Gaussian, Inc.),
 the Gaussian 88(TM) system (copyright 1988, Gaussian, Inc.),
 the Gaussian 86(TM) system (copyright 1986, Carnegie Mellon
 University), and the Gaussian 82(TM) system (copyright 1983,
 Carnegie Mellon University). Gaussian is a federally registered
 trademark of Gaussian, Inc.
  
 This software contains proprietary and confidential information,
 including trade secrets, belonging to Gaussian, Inc.
  
 This software is provided under written license and may be
 used, copied, transmitted, or stored only in accord with that
 written license.
  
 The following legend is applicable only to US Government
 contracts under FAR:
  
                    RESTRICTED RIGHTS LEGEND
  
 Use, reproduction and disclosure by the US Government is
 subject to restrictions as set forth in subparagraphs (a)
 and (c) of the Commercial Computer Software - Restricted
 Rights clause in FAR 52.227-19.
  
 Gaussian, Inc.
 340 Quinnipiac St., Bldg. 40, Wallingford CT 06492
  
  
 ---------------------------------------------------------------
 Warning -- This program may not be used in any manner that
 competes with the business of Gaussian, Inc. or will provide
 assistance to any competitor of Gaussian, Inc.  The licensee
 of this program is prohibited from giving any competitor of
 Gaussian, Inc. access to this program.  By using this program,
 the user acknowledges that Gaussian, Inc. is engaged in the
 business of creating and licensing software in the field of
 computational chemistry and represents and warrants to the
 licensee that it is not a competitor of Gaussian, Inc. and that
 it will not use this program in any manner prohibited above.
 ---------------------------------------------------------------
  

 Cite this work as:
 Gaussian 16, Revision A.03,
 M. J. Frisch, G. W. Trucks, H. B. Schlegel, G. E. Scuseria, 
 M. A. Robb, J. R. Cheeseman, G. Scalmani, V. Barone, 
 G. A. Petersson, H. Nakatsuji, X. Li, M. Caricato, A. V. Marenich, 
 J. Bloino, B. G. Janesko, R. Gomperts, B. Mennucci, H. P. Hratchian, 
 J. V. Ortiz, A. F. Izmaylov, J. L. Sonnenberg, D. Williams-Young, 
 F. Ding, F. Lipparini, F. Egidi, J. Goings, B. Peng, A. Petrone, 
 T. Henderson, D. Ranasinghe, V. G. Zakrzewski, J. Gao, N. Rega, 
 G. Zheng, W. Liang, M. Hada, M. Ehara, K. Toyota, R. Fukuda, 
 J. Hasegawa, M. Ishida, T. Nakajima, Y. Honda, O. Kitao, H. Nakai, 
 T. Vreven, K. Throssell, J. A. Montgomery, Jr., J. E. Peralta, 
 F. Ogliaro, M. J. Bearpark, J. J. Heyd, E. N. Brothers, K. N. Kudin, 
 V. N. Staroverov, T. A. Keith, R. Kobayashi, J. Normand, 
 K. Raghavachari, A. P. Rendell, J. C. Burant, S. S. Iyengar, 
 J. Tomasi, M. Cossi, J. M. Millam, M. Klene, C. Adamo, R. Cammi, 
 J. W. Ochterski, R. L. Martin, K. Morokuma, O. Farkas, 
 J. B. Foresman, and D. J. Fox, Gaussian, Inc., Wallingford CT, 2016.
 
 ******************************************
 Gaussian 16:  ES64L-G16RevA.03 25-Dec-2016
                 5-May-2022 
 ******************************************
 %nproc=24
 Will use up to   24 processors via shared memory.
 %mem=50gb
 --------------------
 #p ZINDO=(nstates=5)
 --------------------
 1/38=1,172=1/1;
 2/12=2,17=6,18=5,40=1/2;
 3/5=2,25=1,41=400000/1,2,3,8;
 4/5=3,35=1/1;
 5/5=2,35=1,38=5/2;
 8/6=1,108=5/1;
 9/41=5,42=1,49=10/14;
 6/7=2,8=2,9=2,10=2/1;
 99/5=1,9=1/99;
 Leave Link    1 at Thu May  5 06:10:17 2022, MaxMem=  6710886400 cpu:               1.2 elap:               0.1
 (Enter /sw/apps/gaussian-16.0/g16/l101.exe)
 -----------------------------
 step_651_chromophore_19 ZINDO
 -----------------------------
 Symbolic Z-matrix:
 Charge =  0 Multiplicity = 1
 Mg                    25.793    50.72     25.745 
 C                     23.572    51.681    28.411 
 C                     27.935    49.461    27.956 
 C                     27.863    49.988    23.115 
 C                     23.414    51.897    23.516 
 N                     25.736    50.735    27.981 
 C                     24.756    51.068    28.848 
 C                     25.069    50.526    30.326 
 C                     26.564    49.9      30.112 
 C                     26.772    49.99     28.59 
 C                     27.728    50.657    30.882 
 C                     23.975    49.563    30.824 
 C                     23.358    49.773    32.206 
 C                     24.215    50.399    33.354 
 O                     24.847    51.437    33.18 
 O                     24.027    49.756    34.578 
 N                     27.691    49.824    25.565 
 C                     28.383    49.358    26.626 
 C                     29.588    48.802    26.152 
 C                     29.596    49.015    24.722 
 C                     28.377    49.616    24.439 
 C                     30.685    48.205    27.077 
 C                     30.576    48.658    23.715 
 O                     30.451    48.994    22.553 
 C                     31.943    48.235    24.08 
 N                     25.795    51.091    23.719 
 C                     26.727    50.712    22.823 
 C                     26.274    50.938    21.36 
 C                     24.78     51.291    21.479 
 C                     24.647    51.517    23.021 
 C                     27.145    51.947    20.647 
 C                     23.823    50.209    20.888 
 C                     23.143    50.551    19.596 
 N                     23.924    51.61     25.898 
 C                     23.087    52.081    24.872 
 C                     21.876    52.594    25.416 
 C                     22.018    52.439    26.769 
 C                     23.255    51.855    27.048 
 C                     20.743    53.374    24.722 
 C                     21.444    52.714    28.09 
 O                     20.411    53.371    28.374 
 C                     22.337    52.111    29.194 
 C                     22.654    53.118    30.136 
 O                     23.655    53.819    30.147 
 O                     21.805    52.928    31.205 
 C                     22.08     53.578    32.507 
 C                     24.611    50.549    35.667 
 C                     24.449    49.666    36.912 
 C                     24.971    49.992    38.113 
 C                     25.822    51.244    38.411 
 C                     24.702    48.943    39.256 
 C                     25.932    48.141    39.851 
 C                     25.782    46.629    39.693 
 C                     26.584    45.823    40.707 
 C                     27.201    44.584    40.08 
 C                     25.689    45.392    41.923 
 C                     26.281    45.423    43.38 
 C                     25.508    46.508    44.215 
 C                     26.508    47.221    45.112 
 C                     25.959    47.422    46.531 
 C                     26.842    48.656    44.439 
 C                     28.005    49.516    45.139 
 C                     27.556    50.873    45.783 
 C                     27.674    52.08     44.867 
 C                     28.72     53.142    45.3 
 C                     26.417    52.779    44.443 
 H                     28.58     48.879    28.617 
 H                     28.431    49.881    22.188 
 H                     22.623    52.06     22.781 
 H                     25.056    51.432    30.932 
 H                     26.636    48.858    30.426 
 H                     28.125    50.094    31.726 
 H                     27.495    51.632    31.311 
 H                     28.608    50.9      30.286 
 H                     24.497    48.606    30.811 
 H                     23.212    49.581    30.045 
 H                     22.875    48.891    32.627 
 H                     22.504    50.44     32.091 
 H                     30.348    47.99     28.091 
 H                     31.483    48.947    27.045 
 H                     30.89     47.29     26.522 
 H                     31.932    47.236    24.517 
 H                     32.225    49.021    24.781 
 H                     32.579    48.289    23.196 
 H                     26.495    49.979    20.892 
 H                     24.604    52.288    21.075 
 H                     27.447    51.479    19.71 
 H                     28.139    52.089    21.071 
 H                     26.655    52.905    20.471 
 H                     23.051    50.034    21.638 
 H                     24.371    49.269    20.833 
 H                     23.393    49.74     18.911 
 H                     23.455    51.52     19.206 
 H                     22.071    50.409    19.736 
 H                     20.781    53.173    23.651 
 H                     20.758    54.454    24.867 
 H                     19.777    53.015    25.077 
 H                     21.775    51.255    29.567 
 H                     22.4      54.593    32.273 
 H                     22.794    53.043    33.134 
 H                     21.149    53.701    33.06 
 H                     24.106    51.514    35.695 
 H                     25.687    50.648    35.521 
 H                     23.8      48.794    36.831 
 H                     25.887    51.446    39.48 
 H                     25.385    52.032    37.797 
 H                     26.8      51.074    37.961 
 H                     23.855    48.279    39.086 
 H                     24.382    49.557    40.098 
 H                     26.222    48.514    40.833 
 H                     26.758    48.427    39.199 
 H                     26.243    46.43     38.726 
 H                     24.758    46.263    39.622 
 H                     27.317    46.421    41.249 
 H                     27.603    43.937    40.86 
 H                     27.937    44.783    39.301 
 H                     26.39     44.057    39.578 
 H                     25.358    44.363    41.788 
 H                     24.733    45.916    41.914 
 H                     27.353    45.594    43.29 
 H                     26.211    44.427    43.818 
 H                     24.78     45.895    44.748 
 H                     25.078    47.291    43.591 
 H                     27.41     46.633    45.281 
 H                     26.21     48.412    46.911 
 H                     26.417    46.733    47.241 
 H                     24.89     47.245    46.651 
 H                     25.923    49.241    44.482 
 H                     26.994    48.469    43.376 
 H                     28.827    49.765    44.468 
 H                     28.436    48.919    45.943 
 H                     27.994    51.088    46.758 
 H                     26.485    50.885    45.983 
 H                     28.102    51.656    43.959 
 H                     29.455    53.103    44.496 
 H                     29.147    53.049    46.299 
 H                     28.269    54.134    45.3 
 H                     25.671    52.045    44.138 
 H                     26.496    53.38     43.537 
 H                     25.972    53.337    45.267 
 
 ITRead=  0  0  0  0  0  0  0  0  0  0  0  0  0  0  0  0  0  0  0  0
 ITRead=  0  0  0  0  0  0  0  0  0  0  0  0  0  0  0  0  0  0  0  0
 ITRead=  0  0  0  0  0  0  0  0  0  0  0  0  0  0  0  0  0  0  0  0
 ITRead=  0  0  0  0  0  0  0  0  0  0  0  0  0  0  0  0  0  0  0  0
 ITRead=  0  0  0  0  0  0  0  0  0  0  0  0  0  0  0  0  0  0  0  0
 ITRead=  0  0  0  0  0  0  0  0  0  0  0  0  0  0  0  0  0  0  0  0
 ITRead=  0  0  0  0  0  0  0  0  0  0  0  0  0  0  0  0  0  0  0  0
 MicOpt= -1 -1 -1 -1 -1 -1 -1 -1 -1 -1 -1 -1 -1 -1 -1 -1 -1 -1 -1 -1
 MicOpt= -1 -1 -1 -1 -1 -1 -1 -1 -1 -1 -1 -1 -1 -1 -1 -1 -1 -1 -1 -1
 MicOpt= -1 -1 -1 -1 -1 -1 -1 -1 -1 -1 -1 -1 -1 -1 -1 -1 -1 -1 -1 -1
 MicOpt= -1 -1 -1 -1 -1 -1 -1 -1 -1 -1 -1 -1 -1 -1 -1 -1 -1 -1 -1 -1
 MicOpt= -1 -1 -1 -1 -1 -1 -1 -1 -1 -1 -1 -1 -1 -1 -1 -1 -1 -1 -1 -1
 MicOpt= -1 -1 -1 -1 -1 -1 -1 -1 -1 -1 -1 -1 -1 -1 -1 -1 -1 -1 -1 -1
 MicOpt= -1 -1 -1 -1 -1 -1 -1 -1 -1 -1 -1 -1 -1 -1 -1 -1 -1 -1 -1 -1
 NAtoms=    140 NQM=      140 NQMF=       0 NMMI=      0 NMMIF=      0
                NMic=       0 NMicF=      0.
                    Isotopes and Nuclear Properties:
 (Nuclear quadrupole moments (NQMom) in fm**2, nuclear magnetic moments (NMagM)
  in nuclear magnetons)

  Atom         1           2           3           4           5           6           7           8           9          10
 IAtWgt=          24          12          12          12          12          14          12          12          12          12
 AtmWgt=  23.9850450  12.0000000  12.0000000  12.0000000  12.0000000  14.0030740  12.0000000  12.0000000  12.0000000  12.0000000
 NucSpn=           0           0           0           0           0           2           0           0           0           0
 AtZEff=  -0.0000000  -0.0000000  -0.0000000  -0.0000000  -0.0000000  -0.0000000  -0.0000000  -0.0000000  -0.0000000  -0.0000000
 NQMom=    0.0000000   0.0000000   0.0000000   0.0000000   0.0000000   2.0440000   0.0000000   0.0000000   0.0000000   0.0000000
 NMagM=    0.0000000   0.0000000   0.0000000   0.0000000   0.0000000   0.4037610   0.0000000   0.0000000   0.0000000   0.0000000
 AtZNuc=  12.0000000   6.0000000   6.0000000   6.0000000   6.0000000   7.0000000   6.0000000   6.0000000   6.0000000   6.0000000

  Atom        11          12          13          14          15          16          17          18          19          20
 IAtWgt=          12          12          12          12          16          16          14          12          12          12
 AtmWgt=  12.0000000  12.0000000  12.0000000  12.0000000  15.9949146  15.9949146  14.0030740  12.0000000  12.0000000  12.0000000
 NucSpn=           0           0           0           0           0           0           2           0           0           0
 AtZEff=  -0.0000000  -0.0000000  -0.0000000  -0.0000000  -0.0000000  -0.0000000  -0.0000000  -0.0000000  -0.0000000  -0.0000000
 NQMom=    0.0000000   0.0000000   0.0000000   0.0000000   0.0000000   0.0000000   2.0440000   0.0000000   0.0000000   0.0000000
 NMagM=    0.0000000   0.0000000   0.0000000   0.0000000   0.0000000   0.0000000   0.4037610   0.0000000   0.0000000   0.0000000
 AtZNuc=   6.0000000   6.0000000   6.0000000   6.0000000   8.0000000   8.0000000   7.0000000   6.0000000   6.0000000   6.0000000

  Atom        21          22          23          24          25          26          27          28          29          30
 IAtWgt=          12          12          12          16          12          14          12          12          12          12
 AtmWgt=  12.0000000  12.0000000  12.0000000  15.9949146  12.0000000  14.0030740  12.0000000  12.0000000  12.0000000  12.0000000
 NucSpn=           0           0           0           0           0           2           0           0           0           0
 AtZEff=  -0.0000000  -0.0000000  -0.0000000  -0.0000000  -0.0000000  -0.0000000  -0.0000000  -0.0000000  -0.0000000  -0.0000000
 NQMom=    0.0000000   0.0000000   0.0000000   0.0000000   0.0000000   2.0440000   0.0000000   0.0000000   0.0000000   0.0000000
 NMagM=    0.0000000   0.0000000   0.0000000   0.0000000   0.0000000   0.4037610   0.0000000   0.0000000   0.0000000   0.0000000
 AtZNuc=   6.0000000   6.0000000   6.0000000   8.0000000   6.0000000   7.0000000   6.0000000   6.0000000   6.0000000   6.0000000

  Atom        31          32          33          34          35          36          37          38          39          40
 IAtWgt=          12          12          12          14          12          12          12          12          12          12
 AtmWgt=  12.0000000  12.0000000  12.0000000  14.0030740  12.0000000  12.0000000  12.0000000  12.0000000  12.0000000  12.0000000
 NucSpn=           0           0           0           2           0           0           0           0           0           0
 AtZEff=  -0.0000000  -0.0000000  -0.0000000  -0.0000000  -0.0000000  -0.0000000  -0.0000000  -0.0000000  -0.0000000  -0.0000000
 NQMom=    0.0000000   0.0000000   0.0000000   2.0440000   0.0000000   0.0000000   0.0000000   0.0000000   0.0000000   0.0000000
 NMagM=    0.0000000   0.0000000   0.0000000   0.4037610   0.0000000   0.0000000   0.0000000   0.0000000   0.0000000   0.0000000
 AtZNuc=   6.0000000   6.0000000   6.0000000   7.0000000   6.0000000   6.0000000   6.0000000   6.0000000   6.0000000   6.0000000

  Atom        41          42          43          44          45          46          47          48          49          50
 IAtWgt=          16          12          12          16          16          12          12          12          12          12
 AtmWgt=  15.9949146  12.0000000  12.0000000  15.9949146  15.9949146  12.0000000  12.0000000  12.0000000  12.0000000  12.0000000
 NucSpn=           0           0           0           0           0           0           0           0           0           0
 AtZEff=  -0.0000000  -0.0000000  -0.0000000  -0.0000000  -0.0000000  -0.0000000  -0.0000000  -0.0000000  -0.0000000  -0.0000000
 NQMom=    0.0000000   0.0000000   0.0000000   0.0000000   0.0000000   0.0000000   0.0000000   0.0000000   0.0000000   0.0000000
 NMagM=    0.0000000   0.0000000   0.0000000   0.0000000   0.0000000   0.0000000   0.0000000   0.0000000   0.0000000   0.0000000
 AtZNuc=   8.0000000   6.0000000   6.0000000   8.0000000   8.0000000   6.0000000   6.0000000   6.0000000   6.0000000   6.0000000

  Atom        51          52          53          54          55          56          57          58          59          60
 IAtWgt=          12          12          12          12          12          12          12          12          12          12
 AtmWgt=  12.0000000  12.0000000  12.0000000  12.0000000  12.0000000  12.0000000  12.0000000  12.0000000  12.0000000  12.0000000
 NucSpn=           0           0           0           0           0           0           0           0           0           0
 AtZEff=  -0.0000000  -0.0000000  -0.0000000  -0.0000000  -0.0000000  -0.0000000  -0.0000000  -0.0000000  -0.0000000  -0.0000000
 NQMom=    0.0000000   0.0000000   0.0000000   0.0000000   0.0000000   0.0000000   0.0000000   0.0000000   0.0000000   0.0000000
 NMagM=    0.0000000   0.0000000   0.0000000   0.0000000   0.0000000   0.0000000   0.0000000   0.0000000   0.0000000   0.0000000
 AtZNuc=   6.0000000   6.0000000   6.0000000   6.0000000   6.0000000   6.0000000   6.0000000   6.0000000   6.0000000   6.0000000

  Atom        61          62          63          64          65          66          67          68          69          70
 IAtWgt=          12          12          12          12          12          12           1           1           1           1
 AtmWgt=  12.0000000  12.0000000  12.0000000  12.0000000  12.0000000  12.0000000   1.0078250   1.0078250   1.0078250   1.0078250
 NucSpn=           0           0           0           0           0           0           1           1           1           1
 AtZEff=  -0.0000000  -0.0000000  -0.0000000  -0.0000000  -0.0000000  -0.0000000  -0.0000000  -0.0000000  -0.0000000  -0.0000000
 NQMom=    0.0000000   0.0000000   0.0000000   0.0000000   0.0000000   0.0000000   0.0000000   0.0000000   0.0000000   0.0000000
 NMagM=    0.0000000   0.0000000   0.0000000   0.0000000   0.0000000   0.0000000   2.7928460   2.7928460   2.7928460   2.7928460
 AtZNuc=   6.0000000   6.0000000   6.0000000   6.0000000   6.0000000   6.0000000   1.0000000   1.0000000   1.0000000   1.0000000

  Atom        71          72          73          74          75          76          77          78          79          80
 IAtWgt=           1           1           1           1           1           1           1           1           1           1
 AtmWgt=   1.0078250   1.0078250   1.0078250   1.0078250   1.0078250   1.0078250   1.0078250   1.0078250   1.0078250   1.0078250
 NucSpn=           1           1           1           1           1           1           1           1           1           1
 AtZEff=  -0.0000000  -0.0000000  -0.0000000  -0.0000000  -0.0000000  -0.0000000  -0.0000000  -0.0000000  -0.0000000  -0.0000000
 NQMom=    0.0000000   0.0000000   0.0000000   0.0000000   0.0000000   0.0000000   0.0000000   0.0000000   0.0000000   0.0000000
 NMagM=    2.7928460   2.7928460   2.7928460   2.7928460   2.7928460   2.7928460   2.7928460   2.7928460   2.7928460   2.7928460
 AtZNuc=   1.0000000   1.0000000   1.0000000   1.0000000   1.0000000   1.0000000   1.0000000   1.0000000   1.0000000   1.0000000

  Atom        81          82          83          84          85          86          87          88          89          90
 IAtWgt=           1           1           1           1           1           1           1           1           1           1
 AtmWgt=   1.0078250   1.0078250   1.0078250   1.0078250   1.0078250   1.0078250   1.0078250   1.0078250   1.0078250   1.0078250
 NucSpn=           1           1           1           1           1           1           1           1           1           1
 AtZEff=  -0.0000000  -0.0000000  -0.0000000  -0.0000000  -0.0000000  -0.0000000  -0.0000000  -0.0000000  -0.0000000  -0.0000000
 NQMom=    0.0000000   0.0000000   0.0000000   0.0000000   0.0000000   0.0000000   0.0000000   0.0000000   0.0000000   0.0000000
 NMagM=    2.7928460   2.7928460   2.7928460   2.7928460   2.7928460   2.7928460   2.7928460   2.7928460   2.7928460   2.7928460
 AtZNuc=   1.0000000   1.0000000   1.0000000   1.0000000   1.0000000   1.0000000   1.0000000   1.0000000   1.0000000   1.0000000

  Atom        91          92          93          94          95          96          97          98          99         100
 IAtWgt=           1           1           1           1           1           1           1           1           1           1
 AtmWgt=   1.0078250   1.0078250   1.0078250   1.0078250   1.0078250   1.0078250   1.0078250   1.0078250   1.0078250   1.0078250
 NucSpn=           1           1           1           1           1           1           1           1           1           1
 AtZEff=  -0.0000000  -0.0000000  -0.0000000  -0.0000000  -0.0000000  -0.0000000  -0.0000000  -0.0000000  -0.0000000  -0.0000000
 NQMom=    0.0000000   0.0000000   0.0000000   0.0000000   0.0000000   0.0000000   0.0000000   0.0000000   0.0000000   0.0000000
 NMagM=    2.7928460   2.7928460   2.7928460   2.7928460   2.7928460   2.7928460   2.7928460   2.7928460   2.7928460   2.7928460
 AtZNuc=   1.0000000   1.0000000   1.0000000   1.0000000   1.0000000   1.0000000   1.0000000   1.0000000   1.0000000   1.0000000

  Atom       101         102         103         104         105         106         107         108         109         110
 IAtWgt=           1           1           1           1           1           1           1           1           1           1
 AtmWgt=   1.0078250   1.0078250   1.0078250   1.0078250   1.0078250   1.0078250   1.0078250   1.0078250   1.0078250   1.0078250
 NucSpn=           1           1           1           1           1           1           1           1           1           1
 AtZEff=  -0.0000000  -0.0000000  -0.0000000  -0.0000000  -0.0000000  -0.0000000  -0.0000000  -0.0000000  -0.0000000  -0.0000000
 NQMom=    0.0000000   0.0000000   0.0000000   0.0000000   0.0000000   0.0000000   0.0000000   0.0000000   0.0000000   0.0000000
 NMagM=    2.7928460   2.7928460   2.7928460   2.7928460   2.7928460   2.7928460   2.7928460   2.7928460   2.7928460   2.7928460
 AtZNuc=   1.0000000   1.0000000   1.0000000   1.0000000   1.0000000   1.0000000   1.0000000   1.0000000   1.0000000   1.0000000

  Atom       111         112         113         114         115         116         117         118         119         120
 IAtWgt=           1           1           1           1           1           1           1           1           1           1
 AtmWgt=   1.0078250   1.0078250   1.0078250   1.0078250   1.0078250   1.0078250   1.0078250   1.0078250   1.0078250   1.0078250
 NucSpn=           1           1           1           1           1           1           1           1           1           1
 AtZEff=  -0.0000000  -0.0000000  -0.0000000  -0.0000000  -0.0000000  -0.0000000  -0.0000000  -0.0000000  -0.0000000  -0.0000000
 NQMom=    0.0000000   0.0000000   0.0000000   0.0000000   0.0000000   0.0000000   0.0000000   0.0000000   0.0000000   0.0000000
 NMagM=    2.7928460   2.7928460   2.7928460   2.7928460   2.7928460   2.7928460   2.7928460   2.7928460   2.7928460   2.7928460
 AtZNuc=   1.0000000   1.0000000   1.0000000   1.0000000   1.0000000   1.0000000   1.0000000   1.0000000   1.0000000   1.0000000

  Atom       121         122         123         124         125         126         127         128         129         130
 IAtWgt=           1           1           1           1           1           1           1           1           1           1
 AtmWgt=   1.0078250   1.0078250   1.0078250   1.0078250   1.0078250   1.0078250   1.0078250   1.0078250   1.0078250   1.0078250
 NucSpn=           1           1           1           1           1           1           1           1           1           1
 AtZEff=  -0.0000000  -0.0000000  -0.0000000  -0.0000000  -0.0000000  -0.0000000  -0.0000000  -0.0000000  -0.0000000  -0.0000000
 NQMom=    0.0000000   0.0000000   0.0000000   0.0000000   0.0000000   0.0000000   0.0000000   0.0000000   0.0000000   0.0000000
 NMagM=    2.7928460   2.7928460   2.7928460   2.7928460   2.7928460   2.7928460   2.7928460   2.7928460   2.7928460   2.7928460
 AtZNuc=   1.0000000   1.0000000   1.0000000   1.0000000   1.0000000   1.0000000   1.0000000   1.0000000   1.0000000   1.0000000

  Atom       131         132         133         134         135         136         137         138         139         140
 IAtWgt=           1           1           1           1           1           1           1           1           1           1
 AtmWgt=   1.0078250   1.0078250   1.0078250   1.0078250   1.0078250   1.0078250   1.0078250   1.0078250   1.0078250   1.0078250
 NucSpn=           1           1           1           1           1           1           1           1           1           1
 AtZEff=  -0.0000000  -0.0000000  -0.0000000  -0.0000000  -0.0000000  -0.0000000  -0.0000000  -0.0000000  -0.0000000  -0.0000000
 NQMom=    0.0000000   0.0000000   0.0000000   0.0000000   0.0000000   0.0000000   0.0000000   0.0000000   0.0000000   0.0000000
 NMagM=    2.7928460   2.7928460   2.7928460   2.7928460   2.7928460   2.7928460   2.7928460   2.7928460   2.7928460   2.7928460
 AtZNuc=   1.0000000   1.0000000   1.0000000   1.0000000   1.0000000   1.0000000   1.0000000   1.0000000   1.0000000   1.0000000
 Leave Link  101 at Thu May  5 06:10:17 2022, MaxMem=  6710886400 cpu:               3.1 elap:               0.1
 (Enter /sw/apps/gaussian-16.0/g16/l202.exe)
 Stoichiometry    C55H74MgN4O6
 Framework group  C1[X(C55H74MgN4O6)]
 Deg. of freedom   414
 Full point group                 C1      NOp   1
 Largest Abelian subgroup         C1      NOp   1
 Largest concise Abelian subgroup C1      NOp   1
                         Standard orientation:                         
 ---------------------------------------------------------------------
 Center     Atomic      Atomic             Coordinates (Angstroms)
 Number     Number       Type             X           Y           Z
 ---------------------------------------------------------------------
      1         12           0       -6.003972    0.393709    0.089951
      2          6           0       -3.540354   -2.224213   -0.112494
      3          6           0       -3.592985    2.670977    0.340863
      4          6           0       -8.461880    2.759398    0.405902
      5          6           0       -8.432928   -2.037812   -0.358699
      6          7           0       -3.786021    0.139304    0.228307
      7          6           0       -2.996626   -0.939913    0.040890
      8          6           0       -1.458604   -0.519018   -0.142282
      9          6           0       -1.548729    1.091781    0.122103
     10          6           0       -3.062829    1.354032    0.203187
     11          6           0       -0.821046    1.600274    1.438445
     12          6           0       -0.901824   -0.971434   -1.505192
     13          6           0        0.425923   -1.725289   -1.564392
     14          6           0        1.531720   -1.439031   -0.496919
     15          8           0        1.271644   -1.444219    0.702864
     16          8           0        2.809474   -1.363569   -1.052454
     17          7           0       -6.016489    2.484497    0.346995
     18          6           0       -4.886779    3.220981    0.402549
     19          6           0       -5.253514    4.573459    0.551363
     20          6           0       -6.696780    4.593694    0.634475
     21          6           0       -7.087518    3.272652    0.462943
     22          6           0       -4.229863    5.732695    0.705481
     23          6           0       -7.622717    5.698114    0.791943
     24          8           0       -8.817779    5.517115    0.925476
     25          6           0       -7.163980    7.041695    1.198380
     26          7           0       -8.056500    0.377663    0.260806
     27          6           0       -8.871590    1.443538    0.381720
     28          6           0      -10.366212    1.071704    0.225200
     29          6           0      -10.341315   -0.384472   -0.274539
     30          6           0       -8.838263   -0.753606   -0.048484
     31          6           0      -11.149834    1.330984    1.491613
     32          6           0      -10.848756   -0.561557   -1.739803
     33          6           0      -12.194310   -1.201419   -1.909185
     34          7           0       -6.016561   -1.667075   -0.158406
     35          6           0       -7.117433   -2.531391   -0.285392
     36          6           0       -6.676782   -3.872237   -0.468647
     37          6           0       -5.310620   -3.790247   -0.427671
     38          6           0       -4.925000   -2.462749   -0.232450
     39          6           0       -7.491779   -5.179712   -0.472317
     40          6           0       -4.048815   -4.537098   -0.413402
     41          8           0       -3.875228   -5.781697   -0.398079
     42          6           0       -2.854273   -3.562283   -0.361648
     43          6           0       -2.013930   -3.915176    0.720569
     44          8           0       -2.040485   -3.446726    1.849007
     45          8           0       -0.963149   -4.623585    0.178649
     46          6           0        0.271411   -4.853708    0.963656
     47          6           0        3.828657   -1.390806    0.004120
     48          6           0        5.153851   -1.167539   -0.737480
     49          6           0        6.331830   -1.008266   -0.098607
     50          6           0        6.526060   -0.984922    1.431830
     51          6           0        7.569400   -0.777638   -1.044357
     52          6           0        8.291994    0.631992   -1.013856
     53          6           0        8.290731    1.324765   -2.375352
     54          6           0        9.414116    2.339044   -2.549361
     55          6           0        8.946316    3.573759   -3.301413
     56          6           0       10.634954    1.707180   -3.308140
     57          6           0       12.101376    2.059726   -2.861381
     58          6           0       12.786459    0.757223   -2.308096
     59          6           0       13.638911    1.139814   -1.108126
     60          6           0       15.006915    0.444711   -1.135678
     61          6           0       12.829570    0.716679    0.229646
     62          6           0       13.476676    1.175702    1.627044
     63          6           0       13.955038    0.018077    2.569838
     64          6           0       12.920529   -0.443932    3.582838
     65          6           0       13.276433   -0.167255    5.068176
     66          6           0       12.377823   -1.836627    3.463270
     67          1           0       -2.850088    3.465156    0.245711
     68          1           0       -9.350357    3.376785    0.557045
     69          1           0       -9.210089   -2.725244   -0.699189
     70          1           0       -0.953632   -1.066117    0.653914
     71          1           0       -1.122886    1.679311   -0.692152
     72          1           0        0.092410    2.159327    1.238510
     73          1           0       -0.507500    0.846947    2.161732
     74          1           0       -1.406357    2.264584    2.074660
     75          1           0       -0.793184   -0.021325   -2.028634
     76          1           0       -1.706189   -1.554189   -1.955444
     77          1           0        0.920326   -1.699650   -2.535661
     78          1           0        0.208671   -2.789118   -1.472202
     79          1           0       -3.211980    5.473487    0.414422
     80          1           0       -4.311081    6.012245    1.756028
     81          1           0       -4.676046    6.441688    0.008685
     82          1           0       -6.623606    7.525544    0.384145
     83          1           0       -6.540819    6.798391    2.059307
     84          1           0       -8.024375    7.626789    1.524345
     85          1           0      -10.720662    1.809871   -0.493841
     86          1           0      -10.855656   -1.027603    0.439629
     87          1           0      -12.019645    1.917541    1.195679
     88          1           0      -10.706655    2.054515    2.175771
     89          1           0      -11.445177    0.424054    2.019902
     90          1           0      -10.113662   -1.184822   -2.249985
     91          1           0      -10.782692    0.405116   -2.237909
     92          1           0      -12.779079   -0.498380   -2.503514
     93          1           0      -12.673566   -1.420080   -0.954771
     94          1           0      -12.080009   -2.040663   -2.595881
     95          1           0       -8.533057   -4.945660   -0.695578
     96          1           0       -7.462374   -5.754970    0.452812
     97          1           0       -7.136753   -5.833269   -1.269112
     98          1           0       -2.413281   -3.612730   -1.356982
     99          1           0       -0.057455   -5.103971    1.971920
    100          1           0        0.978083   -4.023451    0.942748
    101          1           0        0.773048   -5.752001    0.604311
    102          1           0        3.734701   -2.332195    0.544484
    103          1           0        3.713131   -0.524767    0.656443
    104          1           0        5.142216   -1.242414   -1.824864
    105          1           0        7.569083   -1.132623    1.711255
    106          1           0        5.815636   -1.717854    1.815258
    107          1           0        6.133529   -0.031181    1.784223
    108          1           0        7.439765   -1.122039   -2.069924
    109          1           0        8.328572   -1.448650   -0.642163
    110          1           0        9.238715    0.590376   -0.475767
    111          1           0        7.644441    1.232919   -0.374529
    112          1           0        7.368338    1.904611   -2.361880
    113          1           0        8.221071    0.663916   -3.239064
    114          1           0        9.916161    2.589604   -1.614574
    115          1           0        9.805330    4.187424   -3.573671
    116          1           0        8.178505    4.156514   -2.792493
    117          1           0        8.473533    3.216185   -4.215783
    118          1           0       10.598267    1.988384   -4.359903
    119          1           0       10.534478    0.624216   -3.383539
    120          1           0       12.033660    2.879093   -2.146834
    121          1           0       12.640224    2.492222   -3.704796
    122          1           0       13.354314    0.423456   -3.177568
    123          1           0       12.066893    0.033733   -1.925797
    124          1           0       13.903178    2.197196   -1.104352
    125          1           0       15.288212    0.095184   -0.142600
    126          1           0       15.802945    1.134091   -1.417948
    127          1           0       15.105191   -0.371598   -1.851549
    128          1           0       12.775631   -0.372232    0.229032
    129          1           0       11.798996    1.038534    0.080087
    130          1           0       12.814043    1.794648    2.231817
    131          1           0       14.355281    1.785028    1.414068
    132          1           0       14.917177    0.185794    3.054455
    133          1           0       14.112562   -0.907643    2.017197
    134          1           0       12.079534    0.222693    3.393729
    135          1           0       12.509137    0.543594    5.374954
    136          1           0       14.294869    0.153058    5.289913
    137          1           0       13.153789   -1.075077    5.658332
    138          1           0       12.125285   -2.046754    2.423863
    139          1           0       11.416450   -2.009706    3.947093
    140          1           0       13.120426   -2.581453    3.749870
 ---------------------------------------------------------------------
 Rotational constants (GHZ):           0.0538444           0.0084955           0.0078231
 Leave Link  202 at Thu May  5 06:10:17 2022, MaxMem=  6710886400 cpu:               0.2 elap:               0.0
 (Enter /sw/apps/gaussian-16.0/g16/l301.exe)
 Standard basis: VSTO-6G (5D, 7F)
 Ernie: Thresh=  0.10000D-02 Tol=  0.10000D-05 Strict=F.
 There are   338 symmetry adapted cartesian basis functions of A   symmetry.
 There are   338 symmetry adapted basis functions of A   symmetry.
   338 basis functions,  2028 primitive gaussians,   338 cartesian basis functions
   176 alpha electrons      176 beta electrons
       nuclear repulsion energy      4741.1882344605 Hartrees.
 IExCor=    0 DFT=F Ex=HF Corr=None ExCW=0 ScaHFX=  1.000000
 ScaDFX=  1.000000  1.000000  1.000000  1.000000 ScalE2=  1.000000  1.000000
 IRadAn=      5 IRanWt=     -1 IRanGd=            0 ICorTp=0 IEmpDi=  4
 Integral buffers will be    131072 words long.
 Regular integral format.
 Two-electron integral symmetry is turned off.
 Leave Link  301 at Thu May  5 06:10:17 2022, MaxMem=  6710886400 cpu:               2.1 elap:               0.1
 (Enter /sw/apps/gaussian-16.0/g16/l302.exe)
 Do NDO integrals.
 NPDir=0 NMtPBC=     1 NCelOv=     1 NCel=       1 NClECP=     1 NCelD=      1
         NCelK=      1 NCelE2=     1 NClLst=     1 CellRange=     0.0.
 One-electron integrals computed using PRISM.
 Generate ZINDO/S integrals.
 NDO Nuclear repulsion=  4257.215709113684 Hartrees.
 NBasis=   338 RedAO= F EigKep=  0.00D+00  NBF=   338
 NBsUse=   338 1.00D-04 EigRej=  0.00D+00 NBFU=   338
 Leave Link  302 at Thu May  5 06:10:18 2022, MaxMem=  6710886400 cpu:               8.6 elap:               0.4
 (Enter /sw/apps/gaussian-16.0/g16/l303.exe)
 DipDrv:  MaxL=1.
 DipDrv:  will hold  3 matrices at once.
 Leave Link  303 at Thu May  5 06:10:18 2022, MaxMem=  6710886400 cpu:               1.2 elap:               0.1
 (Enter /sw/apps/gaussian-16.0/g16/l308.exe)
 Leave Link  308 at Thu May  5 06:10:18 2022, MaxMem=  6710886400 cpu:               5.8 elap:               0.3
 (Enter /sw/apps/gaussian-16.0/g16/l401.exe)
 Simple Huckel Guess.
 JPrj=0 DoOrth=F DoCkMO=F.
 Leave Link  401 at Thu May  5 06:10:18 2022, MaxMem=  6710886400 cpu:               2.8 elap:               0.1
 (Enter /sw/apps/gaussian-16.0/g16/l502.exe)
 Two-electron integral symmetry not used.
 Closed shell SCF:
 Using DIIS extrapolation, IDIIS=  1040.
 Overlap will be assumed to be unity.
 NGot=  6710886400 LenX=  6710643598 LenY=  6710528913
 Requested convergence on RMS density matrix=1.00D-08 within 128 cycles.
 Requested convergence on MAX density matrix=1.00D-06.
 Requested convergence on             energy=1.00D-06.
 No special actions if energy rises.
 Fock matrices will be formed incrementally for  20 cycles.

 Cycle   1  Pass 1  IDiag  1:
 E= -472.354529645765    
 DIIS: error= 6.41D-02 at cycle   1 NSaved=   1.
 NSaved= 1 IEnMin= 1 EnMin= -472.354529645765     IErMin= 1 ErrMin= 6.41D-02
 ErrMax= 6.41D-02  0.00D+00 EMaxC= 1.00D-01 BMatC= 8.31D-01 BMatP= 8.31D-01
 IDIUse=3 WtCom= 3.59D-01 WtEn= 6.41D-01
 Coeff-Com:  0.100D+01
 Coeff-En:   0.100D+01
 Coeff:      0.100D+01
 GapD=    2.000 DampG=2.000 DampE=0.500 DampFc=1.0000 IDamp=-1.
 RMSDP=4.02D-03 MaxDP=1.80D-01              OVMax= 0.00D+00

 Cycle   2  Pass 1  IDiag  1:
 RMSU=  4.01D-03    CP:  9.95D-01
 E= -474.188331207371     Delta-E=       -1.833801561605 Rises=F Damp=F
 DIIS: error= 2.28D-02 at cycle   2 NSaved=   2.
 NSaved= 2 IEnMin= 2 EnMin= -474.188331207371     IErMin= 2 ErrMin= 2.28D-02
 ErrMax= 2.28D-02  0.00D+00 EMaxC= 1.00D-01 BMatC= 5.27D-02 BMatP= 8.31D-01
 IDIUse=3 WtCom= 7.72D-01 WtEn= 2.28D-01
 Coeff-Com: -0.681D-01 0.107D+01
 Coeff-En:   0.000D+00 0.100D+01
 Coeff:     -0.526D-01 0.105D+01
 RMSDP=1.11D-03 MaxDP=6.96D-02 DE=-1.83D+00 OVMax= 0.00D+00

 Cycle   3  Pass 1  IDiag  1:
 RMSU=  1.05D-03    CP:  9.93D-01  1.09D+00
 E= -474.290324453338     Delta-E=       -0.101993245968 Rises=F Damp=F
 DIIS: error= 1.17D-02 at cycle   3 NSaved=   3.
 NSaved= 3 IEnMin= 3 EnMin= -474.290324453338     IErMin= 3 ErrMin= 1.17D-02
 ErrMax= 1.17D-02  0.00D+00 EMaxC= 1.00D-01 BMatC= 7.26D-03 BMatP= 5.27D-02
 IDIUse=3 WtCom= 8.83D-01 WtEn= 1.17D-01
 Coeff-Com: -0.680D-01 0.238D+00 0.830D+00
 Coeff-En:   0.000D+00 0.000D+00 0.100D+01
 Coeff:     -0.601D-01 0.210D+00 0.850D+00
 RMSDP=3.68D-04 MaxDP=2.29D-02 DE=-1.02D-01 OVMax= 0.00D+00

 Cycle   4  Pass 1  IDiag  1:
 RMSU=  2.33D-04    CP:  9.93D-01  1.16D+00  9.25D-01
 E= -474.303163354426     Delta-E=       -0.012838901088 Rises=F Damp=F
 DIIS: error= 1.95D-03 at cycle   4 NSaved=   4.
 NSaved= 4 IEnMin= 4 EnMin= -474.303163354426     IErMin= 4 ErrMin= 1.95D-03
 ErrMax= 1.95D-03  0.00D+00 EMaxC= 1.00D-01 BMatC= 2.90D-04 BMatP= 7.26D-03
 IDIUse=3 WtCom= 9.81D-01 WtEn= 1.95D-02
 Coeff-Com:  0.971D-03-0.385D-01 0.206D-01 0.102D+01
 Coeff-En:   0.000D+00 0.000D+00 0.000D+00 0.100D+01
 Coeff:      0.952D-03-0.378D-01 0.202D-01 0.102D+01
 RMSDP=1.41D-04 MaxDP=9.52D-03 DE=-1.28D-02 OVMax= 0.00D+00

 Cycle   5  Pass 1  IDiag  1:
 RMSU=  9.46D-05    CP:  9.93D-01  1.16D+00  1.02D+00  1.04D+00
 E= -474.304183798062     Delta-E=       -0.001020443636 Rises=F Damp=F
 DIIS: error= 8.57D-04 at cycle   5 NSaved=   5.
 NSaved= 5 IEnMin= 5 EnMin= -474.304183798062     IErMin= 5 ErrMin= 8.57D-04
 ErrMax= 8.57D-04  0.00D+00 EMaxC= 1.00D-01 BMatC= 6.55D-05 BMatP= 2.90D-04
 IDIUse=3 WtCom= 9.91D-01 WtEn= 8.57D-03
 Coeff-Com:  0.636D-02-0.269D-01-0.961D-01 0.231D+00 0.885D+00
 Coeff-En:   0.000D+00 0.000D+00 0.000D+00 0.000D+00 0.100D+01
 Coeff:      0.630D-02-0.266D-01-0.953D-01 0.229D+00 0.886D+00
 RMSDP=5.43D-05 MaxDP=3.02D-03 DE=-1.02D-03 OVMax= 0.00D+00

 Cycle   6  Pass 1  IDiag  1:
 RMSU=  3.17D-05    CP:  9.92D-01  1.16D+00  1.04D+00  1.21D+00  1.07D+00
 E= -474.304382262751     Delta-E=       -0.000198464689 Rises=F Damp=F
 DIIS: error= 2.53D-04 at cycle   6 NSaved=   6.
 NSaved= 6 IEnMin= 6 EnMin= -474.304382262751     IErMin= 6 ErrMin= 2.53D-04
 ErrMax= 2.53D-04  0.00D+00 EMaxC= 1.00D-01 BMatC= 6.88D-06 BMatP= 6.55D-05
 IDIUse=3 WtCom= 9.97D-01 WtEn= 2.53D-03
 Coeff-Com: -0.491D-04 0.542D-02-0.166D-01-0.933D-01 0.649D-02 0.110D+01
 Coeff-En:   0.000D+00 0.000D+00 0.000D+00 0.000D+00 0.000D+00 0.100D+01
 Coeff:     -0.489D-04 0.541D-02-0.165D-01-0.931D-01 0.647D-02 0.110D+01
 RMSDP=3.78D-05 MaxDP=2.04D-03 DE=-1.98D-04 OVMax= 0.00D+00

 Cycle   7  Pass 1  IDiag  1:
 RMSU=  1.89D-05    CP:  9.92D-01  1.16D+00  1.05D+00  1.24D+00  1.37D+00
                    CP:  1.35D+00
 E= -474.304428731338     Delta-E=       -0.000046468587 Rises=F Damp=F
 DIIS: error= 9.63D-05 at cycle   7 NSaved=   7.
 NSaved= 7 IEnMin= 7 EnMin= -474.304428731338     IErMin= 7 ErrMin= 9.63D-05
 ErrMax= 9.63D-05  0.00D+00 EMaxC= 1.00D-01 BMatC= 2.22D-06 BMatP= 6.88D-06
 IDIUse=1 WtCom= 1.00D+00 WtEn= 0.00D+00
 Coeff-Com: -0.790D-03 0.420D-02 0.749D-02-0.298D-01-0.149D+00 0.244D+00
 Coeff-Com:  0.923D+00
 Coeff:     -0.790D-03 0.420D-02 0.749D-02-0.298D-01-0.149D+00 0.244D+00
 Coeff:      0.923D+00
 RMSDP=2.04D-05 MaxDP=1.11D-03 DE=-4.65D-05 OVMax= 0.00D+00

 Cycle   8  Pass 1  IDiag  1:
 RMSU=  6.16D-06    CP:  9.92D-01  1.16D+00  1.05D+00  1.25D+00  1.48D+00
                    CP:  1.69D+00  1.61D+00
 E= -474.304446734855     Delta-E=       -0.000018003517 Rises=F Damp=F
 DIIS: error= 6.19D-05 at cycle   8 NSaved=   8.
 NSaved= 8 IEnMin= 8 EnMin= -474.304446734855     IErMin= 8 ErrMin= 6.19D-05
 ErrMax= 6.19D-05  0.00D+00 EMaxC= 1.00D-01 BMatC= 8.83D-07 BMatP= 2.22D-06
 IDIUse=1 WtCom= 1.00D+00 WtEn= 0.00D+00
 Coeff-Com:  0.133D-03-0.188D-02 0.266D-02 0.329D-01-0.290D-01-0.146D+00
 Coeff-Com: -0.499D+00 0.164D+01
 Coeff:      0.133D-03-0.188D-02 0.266D-02 0.329D-01-0.290D-01-0.146D+00
 Coeff:     -0.499D+00 0.164D+01
 RMSDP=3.02D-05 MaxDP=1.29D-03 DE=-1.80D-05 OVMax= 0.00D+00

 Cycle   9  Pass 1  IDiag  1:
 RMSU=  5.16D-06    CP:  9.92D-01  1.16D+00  1.06D+00  1.25D+00  1.64D+00
                    CP:  2.05D+00  2.74D+00  2.20D+00
 E= -474.304464464247     Delta-E=       -0.000017729392 Rises=F Damp=F
 DIIS: error= 4.63D-05 at cycle   9 NSaved=   9.
 NSaved= 9 IEnMin= 9 EnMin= -474.304464464247     IErMin= 9 ErrMin= 4.63D-05
 ErrMax= 4.63D-05  0.00D+00 EMaxC= 1.00D-01 BMatC= 6.30D-07 BMatP= 8.83D-07
 IDIUse=1 WtCom= 1.00D+00 WtEn= 0.00D+00
 Coeff-Com:  0.403D-03-0.170D-02-0.519D-02 0.873D-02 0.533D-01 0.749D-01
 Coeff-Com: -0.935D+00 0.333D+00 0.147D+01
 Coeff:      0.403D-03-0.170D-02-0.519D-02 0.873D-02 0.533D-01 0.749D-01
 Coeff:     -0.935D+00 0.333D+00 0.147D+01
 RMSDP=3.33D-05 MaxDP=1.40D-03 DE=-1.77D-05 OVMax= 0.00D+00

 Cycle  10  Pass 1  IDiag  1:
 RMSU=  1.99D-05    CP:  9.92D-01  1.16D+00  1.06D+00  1.24D+00  1.80D+00
                    CP:  2.42D+00  3.00D+00  3.00D+00  2.29D+00
 E= -474.304478417513     Delta-E=       -0.000013953266 Rises=F Damp=F
 DIIS: error= 3.15D-05 at cycle  10 NSaved=  10.
 NSaved=10 IEnMin=10 EnMin= -474.304478417513     IErMin=10 ErrMin= 3.15D-05
 ErrMax= 3.15D-05  0.00D+00 EMaxC= 1.00D-01 BMatC= 2.26D-07 BMatP= 6.30D-07
 IDIUse=1 WtCom= 1.00D+00 WtEn= 0.00D+00
 Coeff-Com: -0.123D-03 0.119D-02-0.771D-03-0.179D-01 0.487D-03 0.143D+00
 Coeff-Com:  0.624D-01-0.258D+00-0.906D+00 0.198D+01
 Coeff:     -0.123D-03 0.119D-02-0.771D-03-0.179D-01 0.487D-03 0.143D+00
 Coeff:      0.624D-01-0.258D+00-0.906D+00 0.198D+01
 RMSDP=3.22D-05 MaxDP=1.36D-03 DE=-1.40D-05 OVMax= 0.00D+00

 Cycle  11  Pass 1  IDiag  1:
 RMSU=  6.69D-06    CP:  9.92D-01  1.16D+00  1.06D+00  1.24D+00  1.94D+00
                    CP:  2.73D+00  3.00D+00  3.00D+00  3.00D+00  2.28D+00
 E= -474.304485841515     Delta-E=       -0.000007424002 Rises=F Damp=F
 DIIS: error= 1.86D-05 at cycle  11 NSaved=  11.
 NSaved=11 IEnMin=11 EnMin= -474.304485841515     IErMin=11 ErrMin= 1.86D-05
 ErrMax= 1.86D-05  0.00D+00 EMaxC= 1.00D-01 BMatC= 5.73D-08 BMatP= 2.26D-07
 IDIUse=1 WtCom= 1.00D+00 WtEn= 0.00D+00
 Coeff-Com: -0.971D-04 0.369D-03 0.169D-02-0.235D-02-0.148D-01-0.187D-01
 Coeff-Com:  0.159D+00 0.158D+00-0.732D+00 0.486D-01 0.140D+01
 Coeff:     -0.971D-04 0.369D-03 0.169D-02-0.235D-02-0.148D-01-0.187D-01
 Coeff:      0.159D+00 0.158D+00-0.732D+00 0.486D-01 0.140D+01
 RMSDP=1.91D-05 MaxDP=8.07D-04 DE=-7.42D-06 OVMax= 0.00D+00

 Cycle  12  Pass 1  IDiag  1:
 RMSU=  1.82D-06    CP:  9.92D-01  1.16D+00  1.06D+00  1.24D+00  2.03D+00
                    CP:  2.91D+00  3.00D+00  3.00D+00  3.00D+00  3.00D+00
                    CP:  1.96D+00
 E= -474.304487511336     Delta-E=       -0.000001669821 Rises=F Damp=F
 DIIS: error= 6.46D-06 at cycle  12 NSaved=  12.
 NSaved=12 IEnMin=12 EnMin= -474.304487511336     IErMin=12 ErrMin= 6.46D-06
 ErrMax= 6.46D-06  0.00D+00 EMaxC= 1.00D-01 BMatC= 6.21D-09 BMatP= 5.73D-08
 IDIUse=1 WtCom= 1.00D+00 WtEn= 0.00D+00
 Coeff-Com:  0.326D-04-0.283D-03 0.191D-03 0.374D-02 0.137D-02-0.283D-01
 Coeff-Com: -0.431D-01 0.140D+00 0.144D+00-0.431D+00-0.267D-01 0.124D+01
 Coeff:      0.326D-04-0.283D-03 0.191D-03 0.374D-02 0.137D-02-0.283D-01
 Coeff:     -0.431D-01 0.140D+00 0.144D+00-0.431D+00-0.267D-01 0.124D+01
 RMSDP=4.08D-06 MaxDP=2.03D-04 DE=-1.67D-06 OVMax= 0.00D+00

 Cycle  13  Pass 1  IDiag  1:
 RMSU=  2.71D-06    CP:  9.92D-01  1.16D+00  1.06D+00  1.24D+00  2.04D+00
                    CP:  2.94D+00  3.00D+00  3.00D+00  3.00D+00  3.00D+00
                    CP:  2.23D+00  1.93D+00
 E= -474.304487604069     Delta-E=       -0.000000092732 Rises=F Damp=F
 DIIS: error= 2.62D-06 at cycle  13 NSaved=  13.
 NSaved=13 IEnMin=13 EnMin= -474.304487604069     IErMin=13 ErrMin= 2.62D-06
 ErrMax= 2.62D-06  0.00D+00 EMaxC= 1.00D-01 BMatC= 5.54D-10 BMatP= 6.21D-09
 IDIUse=1 WtCom= 1.00D+00 WtEn= 0.00D+00
 Coeff-Com:  0.176D-04-0.969D-04-0.186D-03 0.929D-03 0.278D-02-0.405D-02
 Coeff-Com: -0.332D-01 0.151D-01 0.951D-01-0.651D-01-0.167D+00 0.231D+00
 Coeff-Com:  0.925D+00
 Coeff:      0.176D-04-0.969D-04-0.186D-03 0.929D-03 0.278D-02-0.405D-02
 Coeff:     -0.332D-01 0.151D-01 0.951D-01-0.651D-01-0.167D+00 0.231D+00
 Coeff:      0.925D+00
 RMSDP=9.11D-07 MaxDP=3.95D-05 DE=-9.27D-08 OVMax= 0.00D+00

 Cycle  14  Pass 1  IDiag  1:
 RMSU=  1.42D-07    CP:  9.92D-01  1.16D+00  1.06D+00  1.24D+00  2.05D+00
                    CP:  2.95D+00  3.00D+00  3.00D+00  3.00D+00  3.00D+00
                    CP:  2.28D+00  2.14D+00  1.22D+00
 E= -474.304487608477     Delta-E=       -0.000000004408 Rises=F Damp=F
 DIIS: error= 1.75D-06 at cycle  14 NSaved=  14.
 NSaved=14 IEnMin=14 EnMin= -474.304487608477     IErMin=14 ErrMin= 1.75D-06
 ErrMax= 1.75D-06  0.00D+00 EMaxC= 1.00D-01 BMatC= 7.92D-11 BMatP= 5.54D-10
 IDIUse=1 WtCom= 1.00D+00 WtEn= 0.00D+00
 Coeff-Com: -0.393D-05 0.347D-04-0.455D-04-0.449D-03 0.199D-03 0.308D-02
 Coeff-Com:  0.327D-02-0.127D-01-0.166D-01 0.573D-01-0.185D-01-0.122D+00
 Coeff-Com:  0.111D-01 0.110D+01
 Coeff:     -0.393D-05 0.347D-04-0.455D-04-0.449D-03 0.199D-03 0.308D-02
 Coeff:      0.327D-02-0.127D-01-0.166D-01 0.573D-01-0.185D-01-0.122D+00
 Coeff:      0.111D-01 0.110D+01
 RMSDP=1.52D-07 MaxDP=1.23D-05 DE=-4.41D-09 OVMax= 0.00D+00

 Cycle  15  Pass 1  IDiag  1:
 RMSU=  1.25D-07    CP:  9.92D-01  1.16D+00  1.06D+00  1.24D+00  2.05D+00
                    CP:  2.95D+00  3.00D+00  3.00D+00  3.00D+00  3.00D+00
                    CP:  2.28D+00  2.14D+00  1.20D+00  1.26D+00
 E= -474.304487609043     Delta-E=       -0.000000000566 Rises=F Damp=F
 DIIS: error= 1.01D-06 at cycle  15 NSaved=  15.
 NSaved=15 IEnMin=15 EnMin= -474.304487609043     IErMin=15 ErrMin= 1.01D-06
 ErrMax= 1.01D-06  0.00D+00 EMaxC= 1.00D-01 BMatC= 2.21D-11 BMatP= 7.92D-11
 IDIUse=1 WtCom= 1.00D+00 WtEn= 0.00D+00
 Coeff-Com: -0.313D-05 0.174D-04 0.323D-04-0.177D-03-0.413D-03 0.513D-03
 Coeff-Com:  0.646D-02-0.221D-02-0.195D-01 0.152D-01 0.199D-01-0.245D-01
 Coeff-Com: -0.188D+00 0.130D-01 0.118D+01
 Coeff:     -0.313D-05 0.174D-04 0.323D-04-0.177D-03-0.413D-03 0.513D-03
 Coeff:      0.646D-02-0.221D-02-0.195D-01 0.152D-01 0.199D-01-0.245D-01
 Coeff:     -0.188D+00 0.130D-01 0.118D+01
 RMSDP=1.12D-07 MaxDP=8.42D-06 DE=-5.66D-10 OVMax= 0.00D+00

 Cycle  16  Pass 1  IDiag  1:
 RMSU=  3.39D-08    CP:  9.92D-01  1.16D+00  1.06D+00  1.24D+00  2.05D+00
                    CP:  2.95D+00  3.00D+00  3.00D+00  3.00D+00  3.00D+00
                    CP:  2.29D+00  2.15D+00  1.22D+00  1.59D+00  1.43D+00
 E= -474.304487609318     Delta-E=       -0.000000000276 Rises=F Damp=F
 DIIS: error= 5.02D-07 at cycle  16 NSaved=  16.
 NSaved=16 IEnMin=16 EnMin= -474.304487609318     IErMin=16 ErrMin= 5.02D-07
 ErrMax= 5.02D-07  0.00D+00 EMaxC= 1.00D-01 BMatC= 6.29D-12 BMatP= 2.21D-11
 IDIUse=1 WtCom= 1.00D+00 WtEn= 0.00D+00
 Coeff-Com:  0.271D-05-0.186D-04 0.123D-05 0.203D-03 0.174D-03-0.119D-02
 Coeff-Com: -0.366D-02 0.503D-02 0.118D-01-0.185D-01-0.116D-01 0.592D-01
 Coeff-Com:  0.632D-01-0.320D+00-0.454D+00 0.167D+01
 Coeff:      0.271D-05-0.186D-04 0.123D-05 0.203D-03 0.174D-03-0.119D-02
 Coeff:     -0.366D-02 0.503D-02 0.118D-01-0.185D-01-0.116D-01 0.592D-01
 Coeff:      0.632D-01-0.320D+00-0.454D+00 0.167D+01
 RMSDP=7.74D-08 MaxDP=6.57D-06 DE=-2.76D-10 OVMax= 0.00D+00

 Cycle  17  Pass 1  IDiag  1:
 RMSU=  1.45D-08    CP:  9.92D-01  1.16D+00  1.06D+00  1.24D+00  2.05D+00
                    CP:  2.95D+00  3.00D+00  3.00D+00  3.00D+00  3.00D+00
                    CP:  2.29D+00  2.15D+00  1.22D+00  1.82D+00  1.87D+00
                    CP:  2.15D+00
 E= -474.304487609440     Delta-E=       -0.000000000122 Rises=F Damp=F
 DIIS: error= 9.82D-08 at cycle  17 NSaved=  17.
 NSaved=17 IEnMin=17 EnMin= -474.304487609440     IErMin=17 ErrMin= 9.82D-08
 ErrMax= 9.82D-08  0.00D+00 EMaxC= 1.00D-01 BMatC= 1.22D-12 BMatP= 6.29D-12
 IDIUse=1 WtCom= 1.00D+00 WtEn= 0.00D+00
 Coeff-Com:  0.667D-06-0.384D-05-0.729D-05 0.366D-04 0.104D-03-0.145D-03
 Coeff-Com: -0.131D-02 0.848D-03 0.334D-02-0.242D-02-0.630D-02 0.765D-02
 Coeff-Com:  0.334D-01-0.190D-01-0.183D+00-0.422D-01 0.121D+01
 Coeff:      0.667D-06-0.384D-05-0.729D-05 0.366D-04 0.104D-03-0.145D-03
 Coeff:     -0.131D-02 0.848D-03 0.334D-02-0.242D-02-0.630D-02 0.765D-02
 Coeff:      0.334D-01-0.190D-01-0.183D+00-0.422D-01 0.121D+01
 RMSDP=3.52D-08 MaxDP=2.00D-06 DE=-1.22D-10 OVMax= 0.00D+00

 Cycle  18  Pass 1  IDiag  1:
 RMSU=  6.25D-09    CP:  9.92D-01  1.16D+00  1.06D+00  1.24D+00  2.05D+00
                    CP:  2.95D+00  3.00D+00  3.00D+00  3.00D+00  3.00D+00
                    CP:  2.29D+00  2.15D+00  1.22D+00  1.91D+00  2.01D+00
                    CP:  2.76D+00  1.70D+00
 E= -474.304487609448     Delta-E=       -0.000000000008 Rises=F Damp=F
 DIIS: error= 6.29D-08 at cycle  18 NSaved=  18.
 NSaved=18 IEnMin=18 EnMin= -474.304487609448     IErMin=18 ErrMin= 6.29D-08
 ErrMax= 6.29D-08  0.00D+00 EMaxC= 1.00D-01 BMatC= 4.23D-13 BMatP= 1.22D-12
 IDIUse=1 WtCom= 1.00D+00 WtEn= 0.00D+00
 Coeff-Com: -0.812D-06 0.554D-05-0.592D-06-0.619D-04-0.327D-04 0.323D-03
 Coeff-Com:  0.101D-02-0.115D-02-0.408D-02 0.613D-02 0.263D-02-0.153D-01
 Coeff-Com: -0.190D-01 0.835D-01 0.177D+00-0.524D+00-0.601D-01 0.135D+01
 Coeff:     -0.812D-06 0.554D-05-0.592D-06-0.619D-04-0.327D-04 0.323D-03
 Coeff:      0.101D-02-0.115D-02-0.408D-02 0.613D-02 0.263D-02-0.153D-01
 Coeff:     -0.190D-01 0.835D-01 0.177D+00-0.524D+00-0.601D-01 0.135D+01
 RMSDP=2.05D-08 MaxDP=9.67D-07 DE=-8.19D-12 OVMax= 0.00D+00

 Cycle  19  Pass 1  IDiag  1:
 RMSU=  5.78D-09    CP:  9.92D-01  1.16D+00  1.06D+00  1.24D+00  2.05D+00
                    CP:  2.95D+00  3.00D+00  3.00D+00  3.00D+00  3.00D+00
                    CP:  2.29D+00  2.15D+00  1.22D+00  1.94D+00  2.09D+00
                    CP:  3.00D+00  2.39D+00  1.98D+00
 E= -474.304487609419     Delta-E=        0.000000000029 Rises=F Damp=F
 DIIS: error= 4.64D-08 at cycle  19 NSaved=  19.
 NSaved=19 IEnMin=18 EnMin= -474.304487609448     IErMin=19 ErrMin= 4.64D-08
 ErrMax= 4.64D-08  0.00D+00 EMaxC= 1.00D-01 BMatC= 1.20D-13 BMatP= 4.23D-13
 IDIUse=1 WtCom= 1.00D+00 WtEn= 0.00D+00
 Coeff-Com: -0.741D-07 0.380D-06 0.239D-05-0.455D-05-0.124D-04-0.223D-04
 Coeff-Com:  0.225D-03 0.418D-04-0.653D-03 0.245D-03 0.663D-03 0.930D-03
 Coeff-Com: -0.740D-02-0.143D-01 0.428D-01 0.852D-01-0.348D+00-0.188D+00
 Coeff-Com:  0.143D+01
 Coeff:     -0.741D-07 0.380D-06 0.239D-05-0.455D-05-0.124D-04-0.223D-04
 Coeff:      0.225D-03 0.418D-04-0.653D-03 0.245D-03 0.663D-03 0.930D-03
 Coeff:     -0.740D-02-0.143D-01 0.428D-01 0.852D-01-0.348D+00-0.188D+00
 Coeff:      0.143D+01
 RMSDP=1.22D-08 MaxDP=6.07D-07 DE= 2.91D-11 OVMax= 0.00D+00

 Cycle  20  Pass 1  IDiag  1:
 RMSU=  2.59D-09    CP:  9.92D-01  1.16D+00  1.06D+00  1.24D+00  2.05D+00
                    CP:  2.95D+00  3.00D+00  3.00D+00  3.00D+00  3.00D+00
                    CP:  2.29D+00  2.15D+00  1.22D+00  1.96D+00  2.12D+00
                    CP:  3.00D+00  2.81D+00  2.86D+00  2.22D+00
 E= -474.304487609445     Delta-E=       -0.000000000025 Rises=F Damp=F
 DIIS: error= 3.04D-08 at cycle  20 NSaved=  20.
 NSaved=20 IEnMin=18 EnMin= -474.304487609448     IErMin=20 ErrMin= 3.04D-08
 ErrMax= 3.04D-08  0.00D+00 EMaxC= 1.00D-01 BMatC= 3.28D-14 BMatP= 1.20D-13
 IDIUse=1 WtCom= 1.00D+00 WtEn= 0.00D+00
 Coeff-Com:  0.297D-06-0.200D-05 0.736D-07 0.210D-04 0.204D-04-0.124D-03
 Coeff-Com: -0.370D-03 0.475D-03 0.131D-02-0.191D-02-0.138D-02 0.588D-02
 Coeff-Com:  0.697D-02-0.292D-01-0.615D-01 0.175D+00 0.244D-01-0.424D+00
 Coeff-Com: -0.943D-01 0.140D+01
 Coeff:      0.297D-06-0.200D-05 0.736D-07 0.210D-04 0.204D-04-0.124D-03
 Coeff:     -0.370D-03 0.475D-03 0.131D-02-0.191D-02-0.138D-02 0.588D-02
 Coeff:      0.697D-02-0.292D-01-0.615D-01 0.175D+00 0.244D-01-0.424D+00
 Coeff:     -0.943D-01 0.140D+01
 RMSDP=7.22D-09 MaxDP=3.59D-07 DE=-2.55D-11 OVMax= 0.00D+00

 SCF Done:  E(RZINDO/S) =  -474.304487609     A.U. after   20 cycles
            NFock= 20  Conv=0.72D-08     -V/T= 0.9484
 KE=-9.189161877517D+03 PE= 1.067441189662D-06 EE= 4.457641679726D+03
 Leave Link  502 at Thu May  5 06:10:19 2022, MaxMem=  6710886400 cpu:              26.8 elap:               1.1
 (Enter /sw/apps/gaussian-16.0/g16/l801.exe)
 Range of M.O.s used for correlation:     1   338
 NBasis=   338 NAE=   176 NBE=   176 NFC=     0 NFV=     0
 NROrb=    338 NOA=   176 NOB=   176 NVA=   162 NVB=   162
 Leave Link  801 at Thu May  5 06:10:20 2022, MaxMem=  6710886400 cpu:               0.5 elap:               0.0
 (Enter /sw/apps/gaussian-16.0/g16/l914.exe)
 RHF ground state
 Two-electron integral symmetry not used.
 MDV=  6710886400 DFT=F DoStab=F Mixed=F DoRPA=F DoScal=F NonHer=F
 Making orbital integer symmetry assigments:
 Orbital symmetries:
       Occupied  (A) (A) (A) (A) (A) (A) (A) (A) (A) (A) (A) (A)
                 (A) (A) (A) (A) (A) (A) (A) (A) (A) (A) (A) (A)
                 (A) (A) (A) (A) (A) (A) (A) (A) (A) (A) (A) (A)
                 (A) (A) (A) (A) (A) (A) (A) (A) (A) (A) (A) (A)
                 (A) (A) (A) (A) (A) (A) (A) (A) (A) (A) (A) (A)
                 (A) (A) (A) (A) (A) (A) (A) (A) (A) (A) (A) (A)
                 (A) (A) (A) (A) (A) (A) (A) (A) (A) (A) (A) (A)
                 (A) (A) (A) (A) (A) (A) (A) (A) (A) (A) (A) (A)
                 (A) (A) (A) (A) (A) (A) (A) (A) (A) (A) (A) (A)
                 (A) (A) (A) (A) (A) (A) (A) (A) (A) (A) (A) (A)
                 (A) (A) (A) (A) (A) (A) (A) (A) (A) (A) (A) (A)
                 (A) (A) (A) (A) (A) (A) (A) (A) (A) (A) (A) (A)
                 (A) (A) (A) (A) (A) (A) (A) (A) (A) (A) (A) (A)
                 (A) (A) (A) (A) (A) (A) (A) (A) (A) (A) (A) (A)
                 (A) (A) (A) (A) (A) (A) (A) (A)
       Virtual   (A) (A) (A) (A) (A) (A) (A) (A) (A) (A) (A) (A)
                 (A) (A) (A) (A) (A) (A) (A) (A) (A) (A) (A) (A)
                 (A) (A) (A) (A) (A) (A) (A) (A) (A) (A) (A) (A)
                 (A) (A) (A) (A) (A) (A) (A) (A) (A) (A) (A) (A)
                 (A) (A) (A) (A) (A) (A) (A) (A) (A) (A) (A) (A)
                 (A) (A) (A) (A) (A) (A) (A) (A) (A) (A) (A) (A)
                 (A) (A) (A) (A) (A) (A) (A) (A) (A) (A) (A) (A)
                 (A) (A) (A) (A) (A) (A) (A) (A) (A) (A) (A) (A)
                 (A) (A) (A) (A) (A) (A) (A) (A) (A) (A) (A) (A)
                 (A) (A) (A) (A) (A) (A) (A) (A) (A) (A) (A) (A)
                 (A) (A) (A) (A) (A) (A) (A) (A) (A) (A) (A) (A)
                 (A) (A) (A) (A) (A) (A) (A) (A) (A) (A) (A) (A)
                 (A) (A) (A) (A) (A) (A) (A) (A) (A) (A) (A) (A)
                 (A) (A) (A) (A) (A) (A)
    20 initial guesses have been made.
 Convergence on wavefunction:    0.001000000000000
 Davidson Disk Diagonalization:  ConvIn= 1.00D-03 SkipCon=T Conv= 1.00D-03.
 Max sub-space:  2000 roots to seek:    20 dimension of matrix:        57024
 Iteration     1 Dimension    20 NMult     0 NNew     20
 CISAX will form    20 AO SS matrices at one time.
 NMat=    20 NSing=    20 JSym2X= 0.
 New state      3 was old state      5
 New state      4 was old state      3
 New state      5 was old state     13
 Excitation Energies [eV] at current iteration:
 Root      1 :     1.607761426917373
 Root      2 :     2.119861754334208
 Root      3 :     3.281286584391788
 Root      4 :     3.406052807007928
 Root      5 :     3.544416290553599
 Root      6 :     3.645752860226387
 Root      7 :     3.791353854457073
 Root      8 :     3.853444049912090
 Root      9 :     3.941640470211219
 Root     10 :     4.002623929327735
 Root     11 :     4.007976959265834
 Root     12 :     4.188464152756199
 Root     13 :     4.201580247399327
 Root     14 :     4.258972746258229
 Root     15 :     4.338513618636941
 Root     16 :     4.359860036010373
 Root     17 :     4.437171534772283
 Root     18 :     5.153630562702477
 Root     19 :     5.464107178807841
 Root     20 :     5.941338342401491
 Iteration     2 Dimension    40 NMult    20 NNew     20
 CISAX will form    20 AO SS matrices at one time.
 NMat=    20 NSing=    20 JSym2X= 0.
 Root      1 not converged, maximum delta is    0.039164257204853
 Root      2 not converged, maximum delta is    0.035571048947056
 New state      3 was old state      4
 Root      3 not converged, maximum delta is    0.390588659850692
 New state      4 was old state      3
 Root      4 not converged, maximum delta is    0.382619893240878
 Root      5 not converged, maximum delta is    0.157317432696659
 Excitation Energies [eV] at current iteration:
 Root      1 :     1.255432897450767   Change is   -0.352328529466606
 Root      2 :     1.892246449110359   Change is   -0.227615305223848
 Root      3 :     3.092821797204875   Change is   -0.313231009803053
 Root      4 :     3.110781541050339   Change is   -0.170505043341449
 Root      5 :     3.313373284173907   Change is   -0.231043006379691
 Root      6 :     3.359294573579188   Change is   -0.286458286647200
 Root      7 :     3.466654839552055   Change is   -0.792317906706175
 Root      8 :     3.521421235542227   Change is   -0.269932618914846
 Root      9 :     3.548062563266383   Change is   -0.454561366061352
 Root     10 :     3.620765886831696   Change is   -0.232678163080394
 Root     11 :     3.696145997066387   Change is   -0.311830962199447
 Root     12 :     3.860139518363187   Change is   -0.341440729036139
 Root     13 :     3.885616626202665   Change is   -0.056023844008554
 Root     14 :     4.033445846007795   Change is   -0.305067772629146
 Root     15 :     4.079767865503066   Change is   -0.108696287253132
 Root     16 :     4.132444039159266   Change is   -0.304727495613018
 Root     17 :     4.308774327477617   Change is   -0.051085708532755
 Root     18 :     5.148478129542006   Change is   -0.005152433160471
 Root     19 :     5.398024855994824   Change is   -0.066082322813018
 Root     20 :     5.464122930061058
 Iteration     3 Dimension    45 NMult    40 NNew      5
 CISAX will form     5 AO SS matrices at one time.
 NMat=     5 NSing=     5 JSym2X= 0.
 Root      1 not converged, maximum delta is    0.012637542147403
 Root      2 not converged, maximum delta is    0.017597836781517
 Root      3 not converged, maximum delta is    0.042288626170405
 Root      4 not converged, maximum delta is    0.044537543938458
 Root      5 not converged, maximum delta is    0.145808775440851
 Excitation Energies [eV] at current iteration:
 Root      1 :     1.239189212002174   Change is   -0.016243685448593
 Root      2 :     1.869097175206777   Change is   -0.023149273903582
 Root      3 :     3.063413707132002   Change is   -0.029408090072873
 Root      4 :     3.082472009249125   Change is   -0.028309531801214
 Root      5 :     3.235988811581791   Change is   -0.077384472592117
 Iteration     4 Dimension    50 NMult    45 NNew      5
 CISAX will form     5 AO SS matrices at one time.
 NMat=     5 NSing=     5 JSym2X= 0.
 Root      1 not converged, maximum delta is    0.001877758111081
 Root      2 not converged, maximum delta is    0.001474050626079
 New state      3 was old state      5
 Root      3 not converged, maximum delta is    0.271609617019050
 New state      4 was old state      3
 Root      4 not converged, maximum delta is    0.229685171923348
 New state      5 was old state      4
 Root      5 not converged, maximum delta is    0.183708794863206
 Excitation Energies [eV] at current iteration:
 Root      1 :     1.238432917496124   Change is   -0.000756294506050
 Root      2 :     1.868516503954420   Change is   -0.000580671252357
 Root      3 :     2.979586202612511   Change is   -0.256402608969280
 Root      4 :     3.068630186271154   Change is    0.005216479139151
 Root      5 :     3.077449380339302   Change is   -0.005022628909823
 Iteration     5 Dimension    55 NMult    50 NNew      5
 CISAX will form     5 AO SS matrices at one time.
 NMat=     5 NSing=     5 JSym2X= 0.
 Root      1 has converged.
 Root      2 has converged.
 Root      3 not converged, maximum delta is    0.313674476339469
 New state      4 was old state      5
 Root      4 not converged, maximum delta is    0.540227204405551
 New state      5 was old state      4
 Root      5 not converged, maximum delta is    0.220926783954785
 Excitation Energies [eV] at current iteration:
 Root      1 :     1.238386063062266   Change is   -0.000046854433858
 Root      2 :     1.868472223491405   Change is   -0.000044280463014
 Root      3 :     2.882097128403434   Change is   -0.097489074209077
 Root      4 :     2.892473675703163   Change is   -0.184975704636138
 Root      5 :     3.066116841822769   Change is   -0.002513344448384
 Iteration     6 Dimension    58 NMult    55 NNew      3
 CISAX will form     3 AO SS matrices at one time.
 NMat=     3 NSing=     3 JSym2X= 0.
 Root      1 has converged.
 Root      2 has converged.
 Root      3 not converged, maximum delta is    0.156740240944354
 Root      4 not converged, maximum delta is    0.153214518935751
 Root      5 not converged, maximum delta is    0.009270332878744
 Excitation Energies [eV] at current iteration:
 Root      1 :     1.238385694009893   Change is   -0.000000369052374
 Root      2 :     1.868470616445409   Change is   -0.000001607045997
 Root      3 :     2.765782069378537   Change is   -0.116315059024897
 Root      4 :     2.867802163943900   Change is   -0.024671511759264
 Root      5 :     3.065537495089776   Change is   -0.000579346732994
 Iteration     7 Dimension    61 NMult    58 NNew      3
 CISAX will form     3 AO SS matrices at one time.
 NMat=     3 NSing=     3 JSym2X= 0.
 Root      1 has converged.
 Root      2 has converged.
 Root      3 not converged, maximum delta is    0.010472876636918
 Root      4 not converged, maximum delta is    0.019904634939868
 Root      5 not converged, maximum delta is    0.003385641810872
 Excitation Energies [eV] at current iteration:
 Root      1 :     1.238385519169485   Change is   -0.000000174840408
 Root      2 :     1.868470357141987   Change is   -0.000000259303422
 Root      3 :     2.751699462238148   Change is   -0.014082607140390
 Root      4 :     2.862876339589044   Change is   -0.004925824354855
 Root      5 :     3.065409795719739   Change is   -0.000127699370037
 Iteration     8 Dimension    64 NMult    61 NNew      3
 CISAX will form     3 AO SS matrices at one time.
 NMat=     3 NSing=     3 JSym2X= 0.
 Root      1 has converged.
 Root      2 has converged.
 Root      3 not converged, maximum delta is    0.003956976649164
 Root      4 not converged, maximum delta is    0.003406021341297
 Root      5 has converged.
 Excitation Energies [eV] at current iteration:
 Root      1 :     1.238385306263134   Change is   -0.000000212906351
 Root      2 :     1.868469744714031   Change is   -0.000000612427956
 Root      3 :     2.750320420213052   Change is   -0.001379042025096
 Root      4 :     2.862360020933389   Change is   -0.000516318655655
 Root      5 :     3.065385181583591   Change is   -0.000024614136148
 Iteration     9 Dimension    66 NMult    64 NNew      2
 CISAX will form     2 AO SS matrices at one time.
 NMat=     2 NSing=     2 JSym2X= 0.
 Root      1 has converged.
 Root      2 has converged.
 Root      3 not converged, maximum delta is    0.001031132737539
 Root      4 has converged.
 Root      5 has converged.
 Excitation Energies [eV] at current iteration:
 Root      1 :     1.238385288075080   Change is   -0.000000018188054
 Root      2 :     1.868469731221712   Change is   -0.000000013492319
 Root      3 :     2.750197645821607   Change is   -0.000122774391445
 Root      4 :     2.862308912277430   Change is   -0.000051108655959
 Root      5 :     3.065384498507917   Change is   -0.000000683075674
 Iteration    10 Dimension    67 NMult    66 NNew      1
 CISAX will form     1 AO SS matrices at one time.
 NMat=     1 NSing=     1 JSym2X= 0.
 Root      1 has converged.
 Root      2 has converged.
 Root      3 has converged.
 Root      4 has converged.
 Root      5 has converged.
 Excitation Energies [eV] at current iteration:
 Root      1 :     1.238385287591413   Change is   -0.000000000483667
 Root      2 :     1.868469721272620   Change is   -0.000000009949092
 Root      3 :     2.750183476434767   Change is   -0.000014169386840
 Root      4 :     2.862308816705287   Change is   -0.000000095572143
 Root      5 :     3.065384491575919   Change is   -0.000000006931998
 Convergence achieved on expansion vectors.
 ***********************************************************************
 Excited states from <AA,BB:AA,BB> singles matrix:
 ***********************************************************************
 
 1PDM for each excited state written to RWF  633
 Ground to excited state transition densities written to RWF  633
 Ground to excited state transition electric dipole moments (Au):
       state          X           Y           Z        Dip. S.      Osc.
         1        -0.4228     -4.4882     -0.5520     20.6274      0.6258
         2        -1.8835      0.5325     -0.0918      3.8397      0.1758
         3        -0.0994      0.0952      0.0372      0.0203      0.0014
         4        -0.1728      0.0733     -0.0322      0.0363      0.0025
         5         2.4252     -0.6010     -0.0710      6.2478      0.4692
 Ground to excited state transition velocity dipole moments (Au):
       state          X           Y           Z        Dip. S.      Osc.
         1        -0.0386     -0.0619     -0.0043      0.0053      0.0782
         2         0.0183     -0.0038      0.0059      0.0004      0.0037
         3         0.0016     -0.0224      0.0015      0.0005      0.0033
         4         0.0065     -0.0033     -0.0032      0.0001      0.0004
         5        -0.0858      0.0362      0.0113      0.0088      0.0521
 Ground to excited state transition magnetic dipole moments (Au):
       state          X           Y           Z
         1         0.0517     -0.0112      0.7443
         2        -0.0320     -0.0076      0.4446
         3        -0.6968     -0.0321      0.4370
         4         0.2206     -0.7696      0.0063
         5         0.0221     -0.0365      0.2463
 Ground to excited state transition velocity quadrupole moments (Au):
       state          XX          YY          ZZ          XY          XZ          YZ
         1         0.6272      0.0824     -0.0153      0.7160     -0.0587      0.0841
         2        -0.2457      0.0624     -0.0045     -0.0750     -0.1242     -0.0326
         3         0.0034     -0.3775      0.0201      0.2996     -0.0181      0.0322
         4        -0.0576     -0.0426      0.0082      0.0146     -0.0276      0.0159
         5         1.0415      0.3508     -0.0219     -0.5938     -0.0268      0.0670
 <0|del|b> * <b|rxdel|0> + <0|del|b> * <b|delr+rdel|0>
 Rotatory Strengths (R) in cgs (10**-40 erg-esu-cm/Gauss)
       state          XX          YY          ZZ    R(velocity)    E-M Angle
         1       -71.1018    -41.6965     43.3259    -23.1575       94.70
         2         8.8820      9.5907      2.6258      7.0329       76.44
         3         4.9536     -2.9929     -0.1409      0.6066       89.19
         4         7.9782      5.2279     13.2633      8.8231       51.66
         5       -13.4395      5.8309      4.9024     -0.9020       91.05
 1/2[<0|r|b>*<b|rxdel|0> + (<0|rxdel|b>*<b|r|0>)*]
 Rotatory Strengths (R) in cgs (10**-40 erg-esu-cm/Gauss)
       state          XX          YY          ZZ     R(length)
         1        15.4575    -35.5955    290.5422     90.1347
         2       -42.5628      2.8555     28.8496     -3.6192
         3       -48.9841      2.1622    -11.5018    -19.4412
         4        26.9529     39.8921      0.1444     22.3298
         5       -37.8928    -15.5263     12.3695    -13.6832
  1/2[<0|del|b>*<b|r|0> + (<0|r|b>*<b|del|0>)*] (Au)
       state          X           Y           Z        Dip. S.   Osc.(frdel)
         1         0.0163      0.2777      0.0023     -0.2964     -0.1976
         2        -0.0345     -0.0020     -0.0005      0.0371      0.0247
         3        -0.0002     -0.0021      0.0001      0.0022      0.0015
         4        -0.0011     -0.0002      0.0001      0.0013      0.0008
         5        -0.2082     -0.0217     -0.0008      0.2307      0.1538

 Excitation energies and oscillator strengths:
 
 Excited State   1:      Singlet-A      1.2384 eV 1001.18 nm  f=0.6258  <S**2>=0.000
     175 ->178        -0.17097
     176 ->177         0.66505
 This state for optimization and/or second-order correction.
 Total Energy, E(CIS/TDA) =  -474.258977788    
 Copying the excited state density for this state as the 1-particle RhoCI density.
 
 Excited State   2:      Singlet-A      1.8685 eV  663.56 nm  f=0.1758  <S**2>=0.000
     175 ->177         0.60889
     176 ->178         0.30703
     176 ->179        -0.11723
 
 Excited State   3:      Singlet-A      2.7502 eV  450.82 nm  f=0.0014  <S**2>=0.000
     171 ->177         0.30657
     171 ->179         0.22014
     171 ->181         0.41250
     171 ->182        -0.23608
     171 ->186         0.14689
     171 ->187        -0.20921
     171 ->202         0.10994
 
 Excited State   4:      Singlet-A      2.8623 eV  433.16 nm  f=0.0025  <S**2>=0.000
     167 ->179         0.13980
     168 ->177         0.37120
     168 ->178        -0.22252
     168 ->179        -0.38211
     168 ->182        -0.16741
     168 ->186        -0.17424
 
 Excited State   5:      Singlet-A      3.0654 eV  404.47 nm  f=0.4692  <S**2>=0.000
     170 ->177         0.17446
     173 ->177         0.31449
     174 ->177         0.25686
     175 ->177        -0.19453
     176 ->178         0.44699
     176 ->179         0.17180
 SavETr:  write IOETrn=   770 NScale= 10 NData=  16 NLR=1 NState=    5 LETran=     100.
 Leave Link  914 at Thu May  5 06:10:24 2022, MaxMem=  6710886400 cpu:             105.7 elap:               4.5
 (Enter /sw/apps/gaussian-16.0/g16/l601.exe)
 Copying SCF densities to generalized density rwf, IOpCl= 0 IROHF=0.

 **********************************************************************

            Population analysis using the SCF density.

 **********************************************************************

 Orbital symmetries:
       Occupied  (A) (A) (A) (A) (A) (A) (A) (A) (A) (A) (A) (A)
                 (A) (A) (A) (A) (A) (A) (A) (A) (A) (A) (A) (A)
                 (A) (A) (A) (A) (A) (A) (A) (A) (A) (A) (A) (A)
                 (A) (A) (A) (A) (A) (A) (A) (A) (A) (A) (A) (A)
                 (A) (A) (A) (A) (A) (A) (A) (A) (A) (A) (A) (A)
                 (A) (A) (A) (A) (A) (A) (A) (A) (A) (A) (A) (A)
                 (A) (A) (A) (A) (A) (A) (A) (A) (A) (A) (A) (A)
                 (A) (A) (A) (A) (A) (A) (A) (A) (A) (A) (A) (A)
                 (A) (A) (A) (A) (A) (A) (A) (A) (A) (A) (A) (A)
                 (A) (A) (A) (A) (A) (A) (A) (A) (A) (A) (A) (A)
                 (A) (A) (A) (A) (A) (A) (A) (A) (A) (A) (A) (A)
                 (A) (A) (A) (A) (A) (A) (A) (A) (A) (A) (A) (A)
                 (A) (A) (A) (A) (A) (A) (A) (A) (A) (A) (A) (A)
                 (A) (A) (A) (A) (A) (A) (A) (A) (A) (A) (A) (A)
                 (A) (A) (A) (A) (A) (A) (A) (A)
       Virtual   (A) (A) (A) (A) (A) (A) (A) (A) (A) (A) (A) (A)
                 (A) (A) (A) (A) (A) (A) (A) (A) (A) (A) (A) (A)
                 (A) (A) (A) (A) (A) (A) (A) (A) (A) (A) (A) (A)
                 (A) (A) (A) (A) (A) (A) (A) (A) (A) (A) (A) (A)
                 (A) (A) (A) (A) (A) (A) (A) (A) (A) (A) (A) (A)
                 (A) (A) (A) (A) (A) (A) (A) (A) (A) (A) (A) (A)
                 (A) (A) (A) (A) (A) (A) (A) (A) (A) (A) (A) (A)
                 (A) (A) (A) (A) (A) (A) (A) (A) (A) (A) (A) (A)
                 (A) (A) (A) (A) (A) (A) (A) (A) (A) (A) (A) (A)
                 (A) (A) (A) (A) (A) (A) (A) (A) (A) (A) (A) (A)
                 (A) (A) (A) (A) (A) (A) (A) (A) (A) (A) (A) (A)
                 (A) (A) (A) (A) (A) (A) (A) (A) (A) (A) (A) (A)
                 (A) (A) (A) (A) (A) (A) (A) (A) (A) (A) (A) (A)
                 (A) (A) (A) (A) (A) (A)
 The electronic state is 1-A.
 Alpha  occ. eigenvalues --   -1.85180  -1.82913  -1.78397  -1.73237  -1.72270
 Alpha  occ. eigenvalues --   -1.69268  -1.64802  -1.61500  -1.60619  -1.58089
 Alpha  occ. eigenvalues --   -1.55388  -1.52412  -1.48821  -1.48545  -1.47430
 Alpha  occ. eigenvalues --   -1.43488  -1.41758  -1.40079  -1.38522  -1.38189
 Alpha  occ. eigenvalues --   -1.35928  -1.32978  -1.32546  -1.30746  -1.29424
 Alpha  occ. eigenvalues --   -1.27398  -1.24848  -1.21173  -1.20560  -1.18165
 Alpha  occ. eigenvalues --   -1.17768  -1.15437  -1.15315  -1.14767  -1.13630
 Alpha  occ. eigenvalues --   -1.12882  -1.10564  -1.09992  -1.05138  -1.04104
 Alpha  occ. eigenvalues --   -1.02831  -1.02179  -0.99409  -0.97804  -0.97028
 Alpha  occ. eigenvalues --   -0.94989  -0.94391  -0.93571  -0.92196  -0.91696
 Alpha  occ. eigenvalues --   -0.91647  -0.90509  -0.89639  -0.88406  -0.86600
 Alpha  occ. eigenvalues --   -0.85645  -0.84939  -0.83233  -0.81883  -0.79677
 Alpha  occ. eigenvalues --   -0.78861  -0.78550  -0.76985  -0.76154  -0.75765
 Alpha  occ. eigenvalues --   -0.75540  -0.74907  -0.73866  -0.73457  -0.72299
 Alpha  occ. eigenvalues --   -0.72157  -0.71803  -0.71277  -0.70537  -0.70063
 Alpha  occ. eigenvalues --   -0.69774  -0.69331  -0.68759  -0.68616  -0.68121
 Alpha  occ. eigenvalues --   -0.67705  -0.67200  -0.66659  -0.66537  -0.65923
 Alpha  occ. eigenvalues --   -0.65282  -0.65137  -0.64959  -0.63724  -0.63581
 Alpha  occ. eigenvalues --   -0.63001  -0.62795  -0.62420  -0.62029  -0.61514
 Alpha  occ. eigenvalues --   -0.61305  -0.61044  -0.60361  -0.59921  -0.59535
 Alpha  occ. eigenvalues --   -0.59308  -0.58967  -0.58801  -0.58664  -0.58299
 Alpha  occ. eigenvalues --   -0.57663  -0.57302  -0.57192  -0.56922  -0.56277
 Alpha  occ. eigenvalues --   -0.56093  -0.55755  -0.55504  -0.55273  -0.54726
 Alpha  occ. eigenvalues --   -0.54569  -0.53886  -0.53678  -0.53120  -0.53067
 Alpha  occ. eigenvalues --   -0.52849  -0.52461  -0.52102  -0.51902  -0.51663
 Alpha  occ. eigenvalues --   -0.51334  -0.51127  -0.50702  -0.50469  -0.50323
 Alpha  occ. eigenvalues --   -0.50193  -0.49378  -0.49138  -0.48959  -0.48879
 Alpha  occ. eigenvalues --   -0.48493  -0.48442  -0.48076  -0.47714  -0.47491
 Alpha  occ. eigenvalues --   -0.47281  -0.46784  -0.46538  -0.46482  -0.46375
 Alpha  occ. eigenvalues --   -0.46215  -0.45732  -0.45466  -0.45369  -0.45311
 Alpha  occ. eigenvalues --   -0.45053  -0.44905  -0.44343  -0.43986  -0.43903
 Alpha  occ. eigenvalues --   -0.43387  -0.43174  -0.42777  -0.42582  -0.42553
 Alpha  occ. eigenvalues --   -0.41833  -0.41699  -0.41314  -0.38926  -0.38616
 Alpha  occ. eigenvalues --   -0.38312  -0.36810  -0.35544  -0.34738  -0.33859
 Alpha  occ. eigenvalues --   -0.32948  -0.32686  -0.31983  -0.31545  -0.26076
 Alpha  occ. eigenvalues --   -0.22062
 Alpha virt. eigenvalues --   -0.08957  -0.01379  -0.00225   0.00936   0.01578
 Alpha virt. eigenvalues --    0.02238   0.03132   0.03671   0.04566   0.05145
 Alpha virt. eigenvalues --    0.06755   0.06863   0.07587   0.07785   0.08404
 Alpha virt. eigenvalues --    0.08682   0.08919   0.09272   0.09504   0.09679
 Alpha virt. eigenvalues --    0.09823   0.10184   0.10500   0.10788   0.10874
 Alpha virt. eigenvalues --    0.11280   0.11663   0.11865   0.12062   0.12460
 Alpha virt. eigenvalues --    0.12745   0.13248   0.13298   0.13383   0.13567
 Alpha virt. eigenvalues --    0.13831   0.14004   0.14072   0.14330   0.15035
 Alpha virt. eigenvalues --    0.15292   0.15509   0.15543   0.15637   0.15877
 Alpha virt. eigenvalues --    0.15884   0.16636   0.16746   0.16866   0.17072
 Alpha virt. eigenvalues --    0.17304   0.17501   0.17836   0.18010   0.18304
 Alpha virt. eigenvalues --    0.18332   0.18688   0.19172   0.19291   0.19608
 Alpha virt. eigenvalues --    0.19715   0.19822   0.19991   0.20769   0.21214
 Alpha virt. eigenvalues --    0.21361   0.22023   0.22458   0.23213   0.24079
 Alpha virt. eigenvalues --    0.24265   0.24310   0.24430   0.24490   0.24557
 Alpha virt. eigenvalues --    0.24558   0.24607   0.24788   0.24951   0.25015
 Alpha virt. eigenvalues --    0.25025   0.25080   0.25109   0.25187   0.25204
 Alpha virt. eigenvalues --    0.25254   0.25323   0.25384   0.25398   0.25516
 Alpha virt. eigenvalues --    0.25525   0.25552   0.25593   0.25680   0.25785
 Alpha virt. eigenvalues --    0.25885   0.25928   0.25946   0.26035   0.26079
 Alpha virt. eigenvalues --    0.26333   0.26383   0.26389   0.26516   0.26582
 Alpha virt. eigenvalues --    0.26610   0.26630   0.26672   0.26735   0.27017
 Alpha virt. eigenvalues --    0.27077   0.27200   0.27547   0.27827   0.27857
 Alpha virt. eigenvalues --    0.28039   0.28063   0.29051   0.29309   0.29654
 Alpha virt. eigenvalues --    0.30031   0.30185   0.30709   0.30822   0.31424
 Alpha virt. eigenvalues --    0.31834   0.32235   0.32281   0.33825   0.35027
 Alpha virt. eigenvalues --    0.35332   0.35598   0.35741   0.35869   0.36303
 Alpha virt. eigenvalues --    0.36436   0.36643   0.36780   0.37418   0.38601
 Alpha virt. eigenvalues --    0.39168   0.39428   0.40340   0.40748   0.40964
 Alpha virt. eigenvalues --    0.41082   0.41572   0.41724   0.42327   0.42881
 Alpha virt. eigenvalues --    0.43826   0.44090   0.44905   0.46362   0.46553
 Alpha virt. eigenvalues --    0.47676   0.47995   0.49152   0.51385   0.53200
 Alpha virt. eigenvalues --    0.55770   0.56096
          Condensed to atoms (all electrons):
 Mulliken charges:
               1
     1  Mg   0.420015
     2  C   -0.038145
     3  C   -0.055283
     4  C   -0.081863
     5  C   -0.068472
     6  N   -0.271287
     7  C    0.143264
     8  C   -0.002758
     9  C    0.011230
    10  C    0.094950
    11  C   -0.054551
    12  C   -0.014981
    13  C    0.007190
    14  C    0.457908
    15  O   -0.509440
    16  O   -0.269666
    17  N   -0.317782
    18  C    0.088963
    19  C   -0.013422
    20  C   -0.057037
    21  C    0.151156
    22  C   -0.053380
    23  C    0.322372
    24  O   -0.545585
    25  C   -0.030635
    26  N   -0.276711
    27  C    0.128139
    28  C    0.005912
    29  C    0.000041
    30  C    0.131103
    31  C   -0.051603
    32  C   -0.024323
    33  C   -0.055414
    34  N   -0.337575
    35  C    0.118932
    36  C    0.035417
    37  C   -0.033393
    38  C    0.119572
    39  C   -0.038232
    40  C    0.329612
    41  O   -0.531600
    42  C    0.068502
    43  C    0.507725
    44  O   -0.515202
    45  O   -0.284333
    46  C    0.070532
    47  C    0.102459
    48  C   -0.095994
    49  C   -0.017153
    50  C   -0.040347
    51  C   -0.036495
    52  C   -0.032571
    53  C   -0.023573
    54  C   -0.007551
    55  C   -0.050768
    56  C   -0.051033
    57  C   -0.043859
    58  C   -0.031664
    59  C   -0.012156
    60  C   -0.061936
    61  C   -0.039624
    62  C   -0.035241
    63  C   -0.032786
    64  C   -0.007828
    65  C   -0.062462
    66  C   -0.047351
    67  H    0.019762
    68  H    0.051040
    69  H    0.029819
    70  H    0.060286
    71  H    0.031090
    72  H    0.013996
    73  H    0.029232
    74  H    0.020625
    75  H    0.022006
    76  H    0.026391
    77  H    0.029493
    78  H    0.043471
    79  H    0.031412
    80  H    0.037625
    81  H    0.030034
    82  H    0.033348
    83  H    0.038289
    84  H    0.037476
    85  H    0.031386
    86  H    0.031199
    87  H    0.012709
    88  H    0.027660
    89  H    0.023706
    90  H    0.015225
    91  H    0.024160
    92  H    0.015633
    93  H    0.031252
    94  H    0.021245
    95  H    0.015832
    96  H    0.043434
    97  H    0.032193
    98  H    0.063400
    99  H    0.046938
   100  H    0.051603
   101  H    0.030736
   102  H    0.058047
   103  H    0.052772
   104  H    0.041916
   105  H    0.035093
   106  H    0.029655
   107  H    0.031766
   108  H    0.028585
   109  H    0.008665
   110  H    0.028142
   111  H    0.012861
   112  H    0.010682
   113  H    0.027951
   114  H    0.022811
   115  H    0.017521
   116  H    0.016958
   117  H    0.015416
   118  H    0.005889
   119  H    0.013059
   120  H    0.019154
   121  H    0.020003
   122  H    0.025313
   123  H    0.031614
   124  H    0.026113
   125  H    0.016422
   126  H    0.009699
   127  H    0.018692
   128  H    0.020150
   129  H    0.018557
   130  H    0.023542
   131  H    0.016090
   132  H    0.021999
   133  H    0.012677
   134  H    0.009108
   135  H    0.018882
   136  H    0.023626
   137  H    0.013534
   138  H    0.001781
   139  H    0.019103
   140  H    0.020521
 Sum of Mulliken charges =  -0.00000
 Mulliken charges with hydrogens summed into heavy atoms:
               1
     1  Mg   0.420015
     2  C   -0.038145
     3  C   -0.035521
     4  C   -0.030823
     5  C   -0.038653
     6  N   -0.271287
     7  C    0.143264
     8  C    0.057528
     9  C    0.042320
    10  C    0.094950
    11  C    0.009302
    12  C    0.033415
    13  C    0.080154
    14  C    0.457908
    15  O   -0.509440
    16  O   -0.269666
    17  N   -0.317782
    18  C    0.088963
    19  C   -0.013422
    20  C   -0.057037
    21  C    0.151156
    22  C    0.045692
    23  C    0.322372
    24  O   -0.545585
    25  C    0.078478
    26  N   -0.276711
    27  C    0.128139
    28  C    0.037298
    29  C    0.031239
    30  C    0.131103
    31  C    0.012471
    32  C    0.015062
    33  C    0.012716
    34  N   -0.337575
    35  C    0.118932
    36  C    0.035417
    37  C   -0.033393
    38  C    0.119572
    39  C    0.053228
    40  C    0.329612
    41  O   -0.531600
    42  C    0.131902
    43  C    0.507725
    44  O   -0.515202
    45  O   -0.284333
    46  C    0.199809
    47  C    0.213279
    48  C   -0.054079
    49  C   -0.017153
    50  C    0.056167
    51  C    0.000756
    52  C    0.008432
    53  C    0.015060
    54  C    0.015259
    55  C   -0.000874
    56  C   -0.032085
    57  C   -0.004701
    58  C    0.025262
    59  C    0.013957
    60  C   -0.017122
    61  C   -0.000917
    62  C    0.004390
    63  C    0.001889
    64  C    0.001280
    65  C   -0.006419
    66  C   -0.005946
 Charge=             -0.0000 electrons
 Dipole moment (field-independent basis, Debye):
    X=              5.0939    Y=              1.9109    Z=             -5.3568  Tot=              7.6351
 N-N= 4.257215709114D+03 E-N= 0.000000000000D+00  KE=-9.189161877517D+03
 Leave Link  601 at Thu May  5 06:10:24 2022, MaxMem=  6710886400 cpu:               0.7 elap:               0.0
 (Enter /sw/apps/gaussian-16.0/g16/l9999.exe)
 1\1\GINC-BP1-COMPUTE196\SP\RZINDO CIS\STO-3G\C55H74Mg1N4O6\OF15641\05-
 May-2022\0\\#p ZINDO=(nstates=5)\\step_651_chromophore_19 ZINDO\\0,1\M
 g,0,25.793,50.72,25.745\C,0,23.572,51.681,28.411\C,0,27.935,49.461,27.
 956\C,0,27.863,49.988,23.115\C,0,23.414,51.897,23.516\N,0,25.736,50.73
 5,27.981\C,0,24.756,51.068,28.848\C,0,25.069,50.526,30.326\C,0,26.564,
 49.9,30.112\C,0,26.772,49.99,28.59\C,0,27.728,50.657,30.882\C,0,23.975
 ,49.563,30.824\C,0,23.358,49.773,32.206\C,0,24.215,50.399,33.354\O,0,2
 4.847,51.437,33.18\O,0,24.027,49.756,34.578\N,0,27.691,49.824,25.565\C
 ,0,28.383,49.358,26.626\C,0,29.588,48.802,26.152\C,0,29.596,49.015,24.
 722\C,0,28.377,49.616,24.439\C,0,30.685,48.205,27.077\C,0,30.576,48.65
 8,23.715\O,0,30.451,48.994,22.553\C,0,31.943,48.235,24.08\N,0,25.795,5
 1.091,23.719\C,0,26.727,50.712,22.823\C,0,26.274,50.938,21.36\C,0,24.7
 8,51.291,21.479\C,0,24.647,51.517,23.021\C,0,27.145,51.947,20.647\C,0,
 23.823,50.209,20.888\C,0,23.143,50.551,19.596\N,0,23.924,51.61,25.898\
 C,0,23.087,52.081,24.872\C,0,21.876,52.594,25.416\C,0,22.018,52.439,26
 .769\C,0,23.255,51.855,27.048\C,0,20.743,53.374,24.722\C,0,21.444,52.7
 14,28.09\O,0,20.411,53.371,28.374\C,0,22.337,52.111,29.194\C,0,22.654,
 53.118,30.136\O,0,23.655,53.819,30.147\O,0,21.805,52.928,31.205\C,0,22
 .08,53.578,32.507\C,0,24.611,50.549,35.667\C,0,24.449,49.666,36.912\C,
 0,24.971,49.992,38.113\C,0,25.822,51.244,38.411\C,0,24.702,48.943,39.2
 56\C,0,25.932,48.141,39.851\C,0,25.782,46.629,39.693\C,0,26.584,45.823
 ,40.707\C,0,27.201,44.584,40.08\C,0,25.689,45.392,41.923\C,0,26.281,45
 .423,43.38\C,0,25.508,46.508,44.215\C,0,26.508,47.221,45.112\C,0,25.95
 9,47.422,46.531\C,0,26.842,48.656,44.439\C,0,28.005,49.516,45.139\C,0,
 27.556,50.873,45.783\C,0,27.674,52.08,44.867\C,0,28.72,53.142,45.3\C,0
 ,26.417,52.779,44.443\H,0,28.58,48.879,28.617\H,0,28.431,49.881,22.188
 \H,0,22.623,52.06,22.781\H,0,25.056,51.432,30.932\H,0,26.636,48.858,30
 .426\H,0,28.125,50.094,31.726\H,0,27.495,51.632,31.311\H,0,28.608,50.9
 ,30.286\H,0,24.497,48.606,30.811\H,0,23.212,49.581,30.045\H,0,22.875,4
 8.891,32.627\H,0,22.504,50.44,32.091\H,0,30.348,47.99,28.091\H,0,31.48
 3,48.947,27.045\H,0,30.89,47.29,26.522\H,0,31.932,47.236,24.517\H,0,32
 .225,49.021,24.781\H,0,32.579,48.289,23.196\H,0,26.495,49.979,20.892\H
 ,0,24.604,52.288,21.075\H,0,27.447,51.479,19.71\H,0,28.139,52.089,21.0
 71\H,0,26.655,52.905,20.471\H,0,23.051,50.034,21.638\H,0,24.371,49.269
 ,20.833\H,0,23.393,49.74,18.911\H,0,23.455,51.52,19.206\H,0,22.071,50.
 409,19.736\H,0,20.781,53.173,23.651\H,0,20.758,54.454,24.867\H,0,19.77
 7,53.015,25.077\H,0,21.775,51.255,29.567\H,0,22.4,54.593,32.273\H,0,22
 .794,53.043,33.134\H,0,21.149,53.701,33.06\H,0,24.106,51.514,35.695\H,
 0,25.687,50.648,35.521\H,0,23.8,48.794,36.831\H,0,25.887,51.446,39.48\
 H,0,25.385,52.032,37.797\H,0,26.8,51.074,37.961\H,0,23.855,48.279,39.0
 86\H,0,24.382,49.557,40.098\H,0,26.222,48.514,40.833\H,0,26.758,48.427
 ,39.199\H,0,26.243,46.43,38.726\H,0,24.758,46.263,39.622\H,0,27.317,46
 .421,41.249\H,0,27.603,43.937,40.86\H,0,27.937,44.783,39.301\H,0,26.39
 ,44.057,39.578\H,0,25.358,44.363,41.788\H,0,24.733,45.916,41.914\H,0,2
 7.353,45.594,43.29\H,0,26.211,44.427,43.818\H,0,24.78,45.895,44.748\H,
 0,25.078,47.291,43.591\H,0,27.41,46.633,45.281\H,0,26.21,48.412,46.911
 \H,0,26.417,46.733,47.241\H,0,24.89,47.245,46.651\H,0,25.923,49.241,44
 .482\H,0,26.994,48.469,43.376\H,0,28.827,49.765,44.468\H,0,28.436,48.9
 19,45.943\H,0,27.994,51.088,46.758\H,0,26.485,50.885,45.983\H,0,28.102
 ,51.656,43.959\H,0,29.455,53.103,44.496\H,0,29.147,53.049,46.299\H,0,2
 8.269,54.134,45.3\H,0,25.671,52.045,44.138\H,0,26.496,53.38,43.537\H,0
 ,25.972,53.337,45.267\\Version=ES64L-G16RevA.03\State=1-A\HF=-474.3044
 876\RMSD=7.215e-09\PG=C01 [X(C55H74Mg1N4O6)]\\@


 THERE IS MUCH PLEASURE TO BE GAINED FROM USELESS KNOWLEDGE

                                       -- BERTRAND RUSSELL
 Job cpu time:       0 days  0 hours  2 minutes 39.9 seconds.
 Elapsed time:       0 days  0 hours  0 minutes  6.9 seconds.
 File lengths (MBytes):  RWF=   1262 Int=      0 D2E=      0 Chk=     38 Scr=      1
 Normal termination of Gaussian 16 at Thu May  5 06:10:24 2022.
