 Entering Gaussian System, Link 0=g16
 Initial command:
 /sw/apps/gaussian-16.0/g16/l1.exe "/tmp/Gau-143619.inp" -scrdir="/tmp/"
 Entering Link 1 = /sw/apps/gaussian-16.0/g16/l1.exe PID=    143620.
  
 Copyright (c) 1988,1990,1992,1993,1995,1998,2003,2009,2016,
            Gaussian, Inc.  All Rights Reserved.
  
 This is part of the Gaussian(R) 16 program.  It is based on
 the Gaussian(R) 09 system (copyright 2009, Gaussian, Inc.),
 the Gaussian(R) 03 system (copyright 2003, Gaussian, Inc.),
 the Gaussian(R) 98 system (copyright 1998, Gaussian, Inc.),
 the Gaussian(R) 94 system (copyright 1995, Gaussian, Inc.),
 the Gaussian 92(TM) system (copyright 1992, Gaussian, Inc.),
 the Gaussian 90(TM) system (copyright 1990, Gaussian, Inc.),
 the Gaussian 88(TM) system (copyright 1988, Gaussian, Inc.),
 the Gaussian 86(TM) system (copyright 1986, Carnegie Mellon
 University), and the Gaussian 82(TM) system (copyright 1983,
 Carnegie Mellon University). Gaussian is a federally registered
 trademark of Gaussian, Inc.
  
 This software contains proprietary and confidential information,
 including trade secrets, belonging to Gaussian, Inc.
  
 This software is provided under written license and may be
 used, copied, transmitted, or stored only in accord with that
 written license.
  
 The following legend is applicable only to US Government
 contracts under FAR:
  
                    RESTRICTED RIGHTS LEGEND
  
 Use, reproduction and disclosure by the US Government is
 subject to restrictions as set forth in subparagraphs (a)
 and (c) of the Commercial Computer Software - Restricted
 Rights clause in FAR 52.227-19.
  
 Gaussian, Inc.
 340 Quinnipiac St., Bldg. 40, Wallingford CT 06492
  
  
 ---------------------------------------------------------------
 Warning -- This program may not be used in any manner that
 competes with the business of Gaussian, Inc. or will provide
 assistance to any competitor of Gaussian, Inc.  The licensee
 of this program is prohibited from giving any competitor of
 Gaussian, Inc. access to this program.  By using this program,
 the user acknowledges that Gaussian, Inc. is engaged in the
 business of creating and licensing software in the field of
 computational chemistry and represents and warrants to the
 licensee that it is not a competitor of Gaussian, Inc. and that
 it will not use this program in any manner prohibited above.
 ---------------------------------------------------------------
  

 Cite this work as:
 Gaussian 16, Revision A.03,
 M. J. Frisch, G. W. Trucks, H. B. Schlegel, G. E. Scuseria, 
 M. A. Robb, J. R. Cheeseman, G. Scalmani, V. Barone, 
 G. A. Petersson, H. Nakatsuji, X. Li, M. Caricato, A. V. Marenich, 
 J. Bloino, B. G. Janesko, R. Gomperts, B. Mennucci, H. P. Hratchian, 
 J. V. Ortiz, A. F. Izmaylov, J. L. Sonnenberg, D. Williams-Young, 
 F. Ding, F. Lipparini, F. Egidi, J. Goings, B. Peng, A. Petrone, 
 T. Henderson, D. Ranasinghe, V. G. Zakrzewski, J. Gao, N. Rega, 
 G. Zheng, W. Liang, M. Hada, M. Ehara, K. Toyota, R. Fukuda, 
 J. Hasegawa, M. Ishida, T. Nakajima, Y. Honda, O. Kitao, H. Nakai, 
 T. Vreven, K. Throssell, J. A. Montgomery, Jr., J. E. Peralta, 
 F. Ogliaro, M. J. Bearpark, J. J. Heyd, E. N. Brothers, K. N. Kudin, 
 V. N. Staroverov, T. A. Keith, R. Kobayashi, J. Normand, 
 K. Raghavachari, A. P. Rendell, J. C. Burant, S. S. Iyengar, 
 J. Tomasi, M. Cossi, J. M. Millam, M. Klene, C. Adamo, R. Cammi, 
 J. W. Ochterski, R. L. Martin, K. Morokuma, O. Farkas, 
 J. B. Foresman, and D. J. Fox, Gaussian, Inc., Wallingford CT, 2016.
 
 ******************************************
 Gaussian 16:  ES64L-G16RevA.03 25-Dec-2016
                 4-May-2022 
 ******************************************
 %nproc=24
 Will use up to   24 processors via shared memory.
 %mem=50gb
 --------------------
 #p ZINDO=(nstates=5)
 --------------------
 1/38=1,172=1/1;
 2/12=2,17=6,18=5,40=1/2;
 3/5=2,25=1,41=400000/1,2,3,8;
 4/5=3,35=1/1;
 5/5=2,35=1,38=5/2;
 8/6=1,108=5/1;
 9/41=5,42=1,49=10/14;
 6/7=2,8=2,9=2,10=2/1;
 99/5=1,9=1/99;
 Leave Link    1 at Wed May  4 09:12:13 2022, MaxMem=  6710886400 cpu:               0.8 elap:               0.0
 (Enter /sw/apps/gaussian-16.0/g16/l101.exe)
 -----------------------------
 step_151_chromophore_16 ZINDO
 -----------------------------
 Symbolic Z-matrix:
 Charge =  0 Multiplicity = 1
 Mg                    40.711    41.113    26.682 
 C                     39.836    43.512    29.264 
 C                     41.318    38.823    29.209 
 C                     41.674    39.087    24.429 
 C                     40.214    43.701    24.419 
 N                     40.617    41.273    29.028 
 C                     40.13     42.219    29.798 
 C                     40.078    41.804    31.272 
 C                     40.764    40.417    31.232 
 C                     40.94     40.085    29.734 
 C                     42.       40.231    32.245 
 C                     38.615    41.9      31.873 
 C                     38.351    41.274    33.215 
 C                     38.025    42.322    34.353 
 O                     37.083    43.111    34.427 
 O                     39.037    42.228    35.223 
 N                     41.461    39.256    26.821 
 C                     41.473    38.417    27.868 
 C                     41.983    37.127    27.426 
 C                     42.145    37.19     26.013 
 C                     41.801    38.583    25.735 
 C                     42.249    35.982    28.306 
 C                     42.584    36.093    25.007 
 O                     42.729    36.288    23.822 
 C                     42.795    34.677    25.433 
 N                     41.08     41.462    24.725 
 C                     41.363    40.327    23.97 
 C                     41.173    40.65     22.469 
 C                     40.574    42.1      22.47 
 C                     40.563    42.398    23.936 
 C                     42.357    40.456    21.552 
 C                     39.197    42.283    21.766 
 C                     37.855    42.217    22.58 
 N                     40.169    43.204    26.828 
 C                     40.013    44.131    25.808 
 C                     39.632    45.399    26.333 
 C                     39.583    45.214    27.732 
 C                     39.84     43.853    27.901 
 C                     39.512    46.598    25.524 
 C                     39.358    45.878    28.961 
 O                     39.217    47.057    29.304 
 C                     39.485    44.745    30.034 
 C                     40.627    45.06     30.895 
 O                     41.683    45.394    30.48 
 O                     40.265    45.016    32.264 
 C                     41.359    45.303    33.222 
 C                     39.077    43.227    36.323 
 C                     38.482    42.555    37.648 
 C                     37.636    43.099    38.592 
 C                     37.21     44.566    38.766 
 C                     37.014    42.231    39.558 
 C                     37.859    41.638    40.666 
 C                     37.441    40.259    41.147 
 C                     38.783    39.443    41.405 
 C                     38.885    38.38     40.296 
 C                     38.885    38.742    42.797 
 C                     39.076    39.841    43.853 
 C                     40.274    39.504    44.754 
 C                     39.812    38.952    46.145 
 C                     41.114    38.895    47.15 
 C                     39.034    37.639    46.11 
 C                     37.682    37.677    46.823 
 C                     36.455    36.929    46.173 
 C                     35.158    37.717    46.304 
 C                     34.18     37.357    45.148 
 C                     34.42     37.446    47.669 
 H                     41.444    38.064    29.983 
 H                     41.752    38.383    23.597 
 H                     40.2      44.547    23.729 
 H                     40.734    42.457    31.848 
 H                     40.043    39.667    31.555 
 H                     42.653    39.473    31.812 
 H                     41.758    39.807    33.22 
 H                     42.382    41.212    32.527 
 H                     38.055    41.489    31.032 
 H                     38.314    42.945    31.949 
 H                     39.214    40.745    33.62 
 H                     37.64     40.456    33.105 
 H                     43.289    35.674    28.198 
 H                     41.67     35.081    28.104 
 H                     42.055    36.028    29.377 
 H                     43.693    34.594    26.045 
 H                     42.86     34.06     24.537 
 H                     41.962    34.171    25.923 
 H                     40.358    40.005    22.14 
 H                     41.26     42.797    21.988 
 H                     43.236    40.25     22.163 
 H                     42.56     41.339    20.946 
 H                     42.179    39.66     20.829 
 H                     39.156    41.491    21.017 
 H                     39.165    43.222    21.213 
 H                     37.404    43.209    22.611 
 H                     38.164    41.949    23.591 
 H                     37.224    41.476    22.089 
 H                     40.012    46.578    24.556 
 H                     40.101    47.384    25.996 
 H                     38.435    46.746    25.434 
 H                     38.579    44.8      30.637 
 H                     41.381    46.386    33.343 
 H                     42.314    44.947    32.836 
 H                     41.244    44.732    34.143 
 H                     38.481    44.115    36.115 
 H                     40.098    43.56     36.506 
 H                     38.638    41.476    37.643 
 H                     37.4      44.817    39.81 
 H                     36.148    44.7      38.559 
 H                     37.625    45.322    38.1 
 H                     36.541    41.487    38.916 
 H                     36.047    42.596    39.905 
 H                     37.583    42.33     41.461 
 H                     38.907    41.865    40.473 
 H                     36.826    39.749    40.406 
 H                     36.929    40.333    42.107 
 H                     39.649    40.096    41.298 
 H                     38.724    37.38     40.697 
 H                     39.852    38.456    39.799 
 H                     38.158    38.453    39.487 
 H                     39.646    37.962    42.785 
 H                     38.041    38.093    43.029 
 H                     38.185    39.823    44.481 
 H                     39.286    40.855    43.513 
 H                     40.87     40.399    44.933 
 H                     40.936    38.786    44.27 
 H                     39.226    39.775    46.555 
 H                     40.868    39.307    48.129 
 H                     41.983    39.419    46.754 
 H                     41.386    37.846    47.269 
 H                     39.536    36.885    46.717 
 H                     38.943    37.357    45.061 
 H                     37.487    38.742    46.951 
 H                     38.049    37.34     47.792 
 H                     36.309    36.       46.724 
 H                     36.649    36.823    45.105 
 H                     35.345    38.778    46.14 
 H                     34.286    36.362    44.715 
 H                     34.541    37.997    44.342 
 H                     33.108    37.521    45.253 
 H                     34.402    38.38     48.231 
 H                     35.029    36.773    48.273 
 H                     33.459    36.942    47.561 
 
 ITRead=  0  0  0  0  0  0  0  0  0  0  0  0  0  0  0  0  0  0  0  0
 ITRead=  0  0  0  0  0  0  0  0  0  0  0  0  0  0  0  0  0  0  0  0
 ITRead=  0  0  0  0  0  0  0  0  0  0  0  0  0  0  0  0  0  0  0  0
 ITRead=  0  0  0  0  0  0  0  0  0  0  0  0  0  0  0  0  0  0  0  0
 ITRead=  0  0  0  0  0  0  0  0  0  0  0  0  0  0  0  0  0  0  0  0
 ITRead=  0  0  0  0  0  0  0  0  0  0  0  0  0  0  0  0  0  0  0  0
 ITRead=  0  0  0  0  0  0  0  0  0  0  0  0  0  0  0  0  0  0  0  0
 MicOpt= -1 -1 -1 -1 -1 -1 -1 -1 -1 -1 -1 -1 -1 -1 -1 -1 -1 -1 -1 -1
 MicOpt= -1 -1 -1 -1 -1 -1 -1 -1 -1 -1 -1 -1 -1 -1 -1 -1 -1 -1 -1 -1
 MicOpt= -1 -1 -1 -1 -1 -1 -1 -1 -1 -1 -1 -1 -1 -1 -1 -1 -1 -1 -1 -1
 MicOpt= -1 -1 -1 -1 -1 -1 -1 -1 -1 -1 -1 -1 -1 -1 -1 -1 -1 -1 -1 -1
 MicOpt= -1 -1 -1 -1 -1 -1 -1 -1 -1 -1 -1 -1 -1 -1 -1 -1 -1 -1 -1 -1
 MicOpt= -1 -1 -1 -1 -1 -1 -1 -1 -1 -1 -1 -1 -1 -1 -1 -1 -1 -1 -1 -1
 MicOpt= -1 -1 -1 -1 -1 -1 -1 -1 -1 -1 -1 -1 -1 -1 -1 -1 -1 -1 -1 -1
 NAtoms=    140 NQM=      140 NQMF=       0 NMMI=      0 NMMIF=      0
                NMic=       0 NMicF=      0.
                    Isotopes and Nuclear Properties:
 (Nuclear quadrupole moments (NQMom) in fm**2, nuclear magnetic moments (NMagM)
  in nuclear magnetons)

  Atom         1           2           3           4           5           6           7           8           9          10
 IAtWgt=          24          12          12          12          12          14          12          12          12          12
 AtmWgt=  23.9850450  12.0000000  12.0000000  12.0000000  12.0000000  14.0030740  12.0000000  12.0000000  12.0000000  12.0000000
 NucSpn=           0           0           0           0           0           2           0           0           0           0
 AtZEff=  -0.0000000  -0.0000000  -0.0000000  -0.0000000  -0.0000000  -0.0000000  -0.0000000  -0.0000000  -0.0000000  -0.0000000
 NQMom=    0.0000000   0.0000000   0.0000000   0.0000000   0.0000000   2.0440000   0.0000000   0.0000000   0.0000000   0.0000000
 NMagM=    0.0000000   0.0000000   0.0000000   0.0000000   0.0000000   0.4037610   0.0000000   0.0000000   0.0000000   0.0000000
 AtZNuc=  12.0000000   6.0000000   6.0000000   6.0000000   6.0000000   7.0000000   6.0000000   6.0000000   6.0000000   6.0000000

  Atom        11          12          13          14          15          16          17          18          19          20
 IAtWgt=          12          12          12          12          16          16          14          12          12          12
 AtmWgt=  12.0000000  12.0000000  12.0000000  12.0000000  15.9949146  15.9949146  14.0030740  12.0000000  12.0000000  12.0000000
 NucSpn=           0           0           0           0           0           0           2           0           0           0
 AtZEff=  -0.0000000  -0.0000000  -0.0000000  -0.0000000  -0.0000000  -0.0000000  -0.0000000  -0.0000000  -0.0000000  -0.0000000
 NQMom=    0.0000000   0.0000000   0.0000000   0.0000000   0.0000000   0.0000000   2.0440000   0.0000000   0.0000000   0.0000000
 NMagM=    0.0000000   0.0000000   0.0000000   0.0000000   0.0000000   0.0000000   0.4037610   0.0000000   0.0000000   0.0000000
 AtZNuc=   6.0000000   6.0000000   6.0000000   6.0000000   8.0000000   8.0000000   7.0000000   6.0000000   6.0000000   6.0000000

  Atom        21          22          23          24          25          26          27          28          29          30
 IAtWgt=          12          12          12          16          12          14          12          12          12          12
 AtmWgt=  12.0000000  12.0000000  12.0000000  15.9949146  12.0000000  14.0030740  12.0000000  12.0000000  12.0000000  12.0000000
 NucSpn=           0           0           0           0           0           2           0           0           0           0
 AtZEff=  -0.0000000  -0.0000000  -0.0000000  -0.0000000  -0.0000000  -0.0000000  -0.0000000  -0.0000000  -0.0000000  -0.0000000
 NQMom=    0.0000000   0.0000000   0.0000000   0.0000000   0.0000000   2.0440000   0.0000000   0.0000000   0.0000000   0.0000000
 NMagM=    0.0000000   0.0000000   0.0000000   0.0000000   0.0000000   0.4037610   0.0000000   0.0000000   0.0000000   0.0000000
 AtZNuc=   6.0000000   6.0000000   6.0000000   8.0000000   6.0000000   7.0000000   6.0000000   6.0000000   6.0000000   6.0000000

  Atom        31          32          33          34          35          36          37          38          39          40
 IAtWgt=          12          12          12          14          12          12          12          12          12          12
 AtmWgt=  12.0000000  12.0000000  12.0000000  14.0030740  12.0000000  12.0000000  12.0000000  12.0000000  12.0000000  12.0000000
 NucSpn=           0           0           0           2           0           0           0           0           0           0
 AtZEff=  -0.0000000  -0.0000000  -0.0000000  -0.0000000  -0.0000000  -0.0000000  -0.0000000  -0.0000000  -0.0000000  -0.0000000
 NQMom=    0.0000000   0.0000000   0.0000000   2.0440000   0.0000000   0.0000000   0.0000000   0.0000000   0.0000000   0.0000000
 NMagM=    0.0000000   0.0000000   0.0000000   0.4037610   0.0000000   0.0000000   0.0000000   0.0000000   0.0000000   0.0000000
 AtZNuc=   6.0000000   6.0000000   6.0000000   7.0000000   6.0000000   6.0000000   6.0000000   6.0000000   6.0000000   6.0000000

  Atom        41          42          43          44          45          46          47          48          49          50
 IAtWgt=          16          12          12          16          16          12          12          12          12          12
 AtmWgt=  15.9949146  12.0000000  12.0000000  15.9949146  15.9949146  12.0000000  12.0000000  12.0000000  12.0000000  12.0000000
 NucSpn=           0           0           0           0           0           0           0           0           0           0
 AtZEff=  -0.0000000  -0.0000000  -0.0000000  -0.0000000  -0.0000000  -0.0000000  -0.0000000  -0.0000000  -0.0000000  -0.0000000
 NQMom=    0.0000000   0.0000000   0.0000000   0.0000000   0.0000000   0.0000000   0.0000000   0.0000000   0.0000000   0.0000000
 NMagM=    0.0000000   0.0000000   0.0000000   0.0000000   0.0000000   0.0000000   0.0000000   0.0000000   0.0000000   0.0000000
 AtZNuc=   8.0000000   6.0000000   6.0000000   8.0000000   8.0000000   6.0000000   6.0000000   6.0000000   6.0000000   6.0000000

  Atom        51          52          53          54          55          56          57          58          59          60
 IAtWgt=          12          12          12          12          12          12          12          12          12          12
 AtmWgt=  12.0000000  12.0000000  12.0000000  12.0000000  12.0000000  12.0000000  12.0000000  12.0000000  12.0000000  12.0000000
 NucSpn=           0           0           0           0           0           0           0           0           0           0
 AtZEff=  -0.0000000  -0.0000000  -0.0000000  -0.0000000  -0.0000000  -0.0000000  -0.0000000  -0.0000000  -0.0000000  -0.0000000
 NQMom=    0.0000000   0.0000000   0.0000000   0.0000000   0.0000000   0.0000000   0.0000000   0.0000000   0.0000000   0.0000000
 NMagM=    0.0000000   0.0000000   0.0000000   0.0000000   0.0000000   0.0000000   0.0000000   0.0000000   0.0000000   0.0000000
 AtZNuc=   6.0000000   6.0000000   6.0000000   6.0000000   6.0000000   6.0000000   6.0000000   6.0000000   6.0000000   6.0000000

  Atom        61          62          63          64          65          66          67          68          69          70
 IAtWgt=          12          12          12          12          12          12           1           1           1           1
 AtmWgt=  12.0000000  12.0000000  12.0000000  12.0000000  12.0000000  12.0000000   1.0078250   1.0078250   1.0078250   1.0078250
 NucSpn=           0           0           0           0           0           0           1           1           1           1
 AtZEff=  -0.0000000  -0.0000000  -0.0000000  -0.0000000  -0.0000000  -0.0000000  -0.0000000  -0.0000000  -0.0000000  -0.0000000
 NQMom=    0.0000000   0.0000000   0.0000000   0.0000000   0.0000000   0.0000000   0.0000000   0.0000000   0.0000000   0.0000000
 NMagM=    0.0000000   0.0000000   0.0000000   0.0000000   0.0000000   0.0000000   2.7928460   2.7928460   2.7928460   2.7928460
 AtZNuc=   6.0000000   6.0000000   6.0000000   6.0000000   6.0000000   6.0000000   1.0000000   1.0000000   1.0000000   1.0000000

  Atom        71          72          73          74          75          76          77          78          79          80
 IAtWgt=           1           1           1           1           1           1           1           1           1           1
 AtmWgt=   1.0078250   1.0078250   1.0078250   1.0078250   1.0078250   1.0078250   1.0078250   1.0078250   1.0078250   1.0078250
 NucSpn=           1           1           1           1           1           1           1           1           1           1
 AtZEff=  -0.0000000  -0.0000000  -0.0000000  -0.0000000  -0.0000000  -0.0000000  -0.0000000  -0.0000000  -0.0000000  -0.0000000
 NQMom=    0.0000000   0.0000000   0.0000000   0.0000000   0.0000000   0.0000000   0.0000000   0.0000000   0.0000000   0.0000000
 NMagM=    2.7928460   2.7928460   2.7928460   2.7928460   2.7928460   2.7928460   2.7928460   2.7928460   2.7928460   2.7928460
 AtZNuc=   1.0000000   1.0000000   1.0000000   1.0000000   1.0000000   1.0000000   1.0000000   1.0000000   1.0000000   1.0000000

  Atom        81          82          83          84          85          86          87          88          89          90
 IAtWgt=           1           1           1           1           1           1           1           1           1           1
 AtmWgt=   1.0078250   1.0078250   1.0078250   1.0078250   1.0078250   1.0078250   1.0078250   1.0078250   1.0078250   1.0078250
 NucSpn=           1           1           1           1           1           1           1           1           1           1
 AtZEff=  -0.0000000  -0.0000000  -0.0000000  -0.0000000  -0.0000000  -0.0000000  -0.0000000  -0.0000000  -0.0000000  -0.0000000
 NQMom=    0.0000000   0.0000000   0.0000000   0.0000000   0.0000000   0.0000000   0.0000000   0.0000000   0.0000000   0.0000000
 NMagM=    2.7928460   2.7928460   2.7928460   2.7928460   2.7928460   2.7928460   2.7928460   2.7928460   2.7928460   2.7928460
 AtZNuc=   1.0000000   1.0000000   1.0000000   1.0000000   1.0000000   1.0000000   1.0000000   1.0000000   1.0000000   1.0000000

  Atom        91          92          93          94          95          96          97          98          99         100
 IAtWgt=           1           1           1           1           1           1           1           1           1           1
 AtmWgt=   1.0078250   1.0078250   1.0078250   1.0078250   1.0078250   1.0078250   1.0078250   1.0078250   1.0078250   1.0078250
 NucSpn=           1           1           1           1           1           1           1           1           1           1
 AtZEff=  -0.0000000  -0.0000000  -0.0000000  -0.0000000  -0.0000000  -0.0000000  -0.0000000  -0.0000000  -0.0000000  -0.0000000
 NQMom=    0.0000000   0.0000000   0.0000000   0.0000000   0.0000000   0.0000000   0.0000000   0.0000000   0.0000000   0.0000000
 NMagM=    2.7928460   2.7928460   2.7928460   2.7928460   2.7928460   2.7928460   2.7928460   2.7928460   2.7928460   2.7928460
 AtZNuc=   1.0000000   1.0000000   1.0000000   1.0000000   1.0000000   1.0000000   1.0000000   1.0000000   1.0000000   1.0000000

  Atom       101         102         103         104         105         106         107         108         109         110
 IAtWgt=           1           1           1           1           1           1           1           1           1           1
 AtmWgt=   1.0078250   1.0078250   1.0078250   1.0078250   1.0078250   1.0078250   1.0078250   1.0078250   1.0078250   1.0078250
 NucSpn=           1           1           1           1           1           1           1           1           1           1
 AtZEff=  -0.0000000  -0.0000000  -0.0000000  -0.0000000  -0.0000000  -0.0000000  -0.0000000  -0.0000000  -0.0000000  -0.0000000
 NQMom=    0.0000000   0.0000000   0.0000000   0.0000000   0.0000000   0.0000000   0.0000000   0.0000000   0.0000000   0.0000000
 NMagM=    2.7928460   2.7928460   2.7928460   2.7928460   2.7928460   2.7928460   2.7928460   2.7928460   2.7928460   2.7928460
 AtZNuc=   1.0000000   1.0000000   1.0000000   1.0000000   1.0000000   1.0000000   1.0000000   1.0000000   1.0000000   1.0000000

  Atom       111         112         113         114         115         116         117         118         119         120
 IAtWgt=           1           1           1           1           1           1           1           1           1           1
 AtmWgt=   1.0078250   1.0078250   1.0078250   1.0078250   1.0078250   1.0078250   1.0078250   1.0078250   1.0078250   1.0078250
 NucSpn=           1           1           1           1           1           1           1           1           1           1
 AtZEff=  -0.0000000  -0.0000000  -0.0000000  -0.0000000  -0.0000000  -0.0000000  -0.0000000  -0.0000000  -0.0000000  -0.0000000
 NQMom=    0.0000000   0.0000000   0.0000000   0.0000000   0.0000000   0.0000000   0.0000000   0.0000000   0.0000000   0.0000000
 NMagM=    2.7928460   2.7928460   2.7928460   2.7928460   2.7928460   2.7928460   2.7928460   2.7928460   2.7928460   2.7928460
 AtZNuc=   1.0000000   1.0000000   1.0000000   1.0000000   1.0000000   1.0000000   1.0000000   1.0000000   1.0000000   1.0000000

  Atom       121         122         123         124         125         126         127         128         129         130
 IAtWgt=           1           1           1           1           1           1           1           1           1           1
 AtmWgt=   1.0078250   1.0078250   1.0078250   1.0078250   1.0078250   1.0078250   1.0078250   1.0078250   1.0078250   1.0078250
 NucSpn=           1           1           1           1           1           1           1           1           1           1
 AtZEff=  -0.0000000  -0.0000000  -0.0000000  -0.0000000  -0.0000000  -0.0000000  -0.0000000  -0.0000000  -0.0000000  -0.0000000
 NQMom=    0.0000000   0.0000000   0.0000000   0.0000000   0.0000000   0.0000000   0.0000000   0.0000000   0.0000000   0.0000000
 NMagM=    2.7928460   2.7928460   2.7928460   2.7928460   2.7928460   2.7928460   2.7928460   2.7928460   2.7928460   2.7928460
 AtZNuc=   1.0000000   1.0000000   1.0000000   1.0000000   1.0000000   1.0000000   1.0000000   1.0000000   1.0000000   1.0000000

  Atom       131         132         133         134         135         136         137         138         139         140
 IAtWgt=           1           1           1           1           1           1           1           1           1           1
 AtmWgt=   1.0078250   1.0078250   1.0078250   1.0078250   1.0078250   1.0078250   1.0078250   1.0078250   1.0078250   1.0078250
 NucSpn=           1           1           1           1           1           1           1           1           1           1
 AtZEff=  -0.0000000  -0.0000000  -0.0000000  -0.0000000  -0.0000000  -0.0000000  -0.0000000  -0.0000000  -0.0000000  -0.0000000
 NQMom=    0.0000000   0.0000000   0.0000000   0.0000000   0.0000000   0.0000000   0.0000000   0.0000000   0.0000000   0.0000000
 NMagM=    2.7928460   2.7928460   2.7928460   2.7928460   2.7928460   2.7928460   2.7928460   2.7928460   2.7928460   2.7928460
 AtZNuc=   1.0000000   1.0000000   1.0000000   1.0000000   1.0000000   1.0000000   1.0000000   1.0000000   1.0000000   1.0000000
 Leave Link  101 at Wed May  4 09:12:13 2022, MaxMem=  6710886400 cpu:               2.8 elap:               0.1
 (Enter /sw/apps/gaussian-16.0/g16/l202.exe)
 Stoichiometry    C55H74MgN4O6
 Framework group  C1[X(C55H74MgN4O6)]
 Deg. of freedom   414
 Full point group                 C1      NOp   1
 Largest Abelian subgroup         C1      NOp   1
 Largest concise Abelian subgroup C1      NOp   1
                         Standard orientation:                         
 ---------------------------------------------------------------------
 Center     Atomic      Atomic             Coordinates (Angstroms)
 Number     Number       Type             X           Y           Z
 ---------------------------------------------------------------------
      1         12           0        6.132089    0.565371    0.086231
      2          6           0        3.717795   -2.141099   -0.097500
      3          6           0        3.502903    2.760973   -0.428541
      4          6           0        8.278104    2.910700    0.040359
      5          6           0        8.552190   -1.909115    0.379402
      6          7           0        3.832738    0.231548   -0.287532
      7          6           0        3.101345   -0.853941   -0.179087
      8          6           0        1.602036   -0.563290   -0.302378
      9          6           0        1.601562    0.948934   -0.632749
     10          6           0        3.063565    1.412799   -0.452242
     11          6           0        0.786349    1.364041   -1.956220
     12          6           0        0.787608   -1.054266    0.965074
     13          6           0       -0.639103   -0.602633    1.116926
     14          6           0       -1.694609   -1.771852    0.981057
     15          8           0       -1.833319   -2.770566    1.687237
     16          8           0       -2.395593   -1.491058   -0.123323
     17          7           0        5.915467    2.535981   -0.230059
     18          6           0        4.799501    3.280833   -0.239544
     19          6           0        5.175605    4.682884   -0.350735
     20          6           0        6.594686    4.755589   -0.262949
     21          6           0        6.962764    3.342435   -0.203089
     22          6           0        4.231216    5.797014   -0.502475
     23          6           0        7.533560    5.991086   -0.247902
     24          8           0        8.740503    5.916781   -0.215643
     25          6           0        6.996417    7.384086   -0.202249
     26          7           0        8.149069    0.448288    0.009464
     27          6           0        8.812511    1.665659    0.136713
     28          6           0       10.289453    1.406552    0.517417
     29          6           0       10.348988   -0.142719    0.757244
     30          6           0        8.941228   -0.531175    0.432597
     31          6           0       11.358441    1.945043   -0.403275
     32          6           0       10.838064   -0.609994    2.159988
     33          6           0        9.816605   -0.928817    3.310158
     34          7           0        6.127858   -1.599624    0.098082
     35          6           0        7.203702   -2.466644    0.220147
     36          6           0        6.764530   -3.821357    0.197937
     37          6           0        5.364157   -3.747458    0.032649
     38          6           0        5.092487   -2.379305    0.068467
     39          6           0        7.668577   -4.956702    0.184767
     40          6           0        4.194085   -4.526566   -0.128237
     41          8           0        3.962423   -5.724331   -0.326380
     42          6           0        3.039304   -3.470908   -0.184949
     43          6           0        2.412281   -3.553313   -1.505842
     44          8           0        3.025306   -3.590277   -2.516660
     45          8           0        1.006268   -3.690429   -1.398751
     46          6           0        0.273338   -3.763953   -2.684976
     47          6           0       -3.360278   -2.520755   -0.590986
     48          6           0       -4.828499   -2.104525   -0.108998
     49          6           0       -5.831785   -2.900621    0.403287
     50          6           0       -5.912322   -4.435493    0.442316
     51          6           0       -6.973348   -2.277533    1.021398
     52          6           0       -7.988636   -1.570774    0.147888
     53          6           0       -8.676856   -0.371201    0.776461
     54          6           0       -8.802468    0.729466   -0.366402
     55          6           0       -7.813047    1.856430   -0.018190
     56          6           0      -10.227503    1.339916   -0.556391
     57          6           0      -11.113931    0.253382   -1.183372
     58          6           0      -11.841706    0.812697   -2.415477
     59          6           0      -13.340317    1.141021   -2.100204
     60          6           0      -14.123121    1.448037   -3.514926
     61          6           0      -13.573054    2.222947   -1.048659
     62          6           0      -14.485787    1.807796    0.105588
     63          6           0      -14.126258    2.274195    1.568716
     64          6           0      -14.378068    1.185753    2.604187
     65          6           0      -13.440136    1.371456    3.832282
     66          6           0      -15.865153    1.176433    3.123609
     67          1           0        2.681743    3.474507   -0.515704
     68          1           0        9.030741    3.666107    0.278731
     69          1           0        9.318357   -2.684974    0.324226
     70          1           0        1.213034   -1.072654   -1.184277
     71          1           0        1.087661    1.476417    0.169957
     72          1           0        1.234148    2.285902   -2.327854
     73          1           0       -0.254934    1.650078   -1.804968
     74          1           0        0.677198    0.489886   -2.597896
     75          1           0        1.478194   -0.737858    1.747876
     76          1           0        0.777672   -2.143823    0.999253
     77          1           0       -0.954898    0.093386    0.339452
     78          1           0       -0.733956    0.021874    2.004472
     79          1           0        4.471056    6.356714   -1.406544
     80          1           0        4.238864    6.540239    0.294647
     81          1           0        3.154298    5.633789   -0.522439
     82          1           0        6.531405    7.643493   -1.153201
     83          1           0        7.819160    8.056413    0.040236
     84          1           0        6.327063    7.637024    0.621165
     85          1           0       10.411440    1.852826    1.504559
     86          1           0       11.007517   -0.616927    0.029100
     87          1           0       10.878054    2.318842   -1.307653
     88          1           0       12.081087    1.180929   -0.689712
     89          1           0       11.953038    2.719522    0.081148
     90          1           0       11.480626    0.195882    2.517232
     91          1           0       11.476991   -1.489330    2.075752
     92          1           0        9.820970   -2.000834    3.508110
     93          1           0        8.845456   -0.661187    2.892221
     94          1           0       10.116720   -0.333864    4.172878
     95          1           0        8.696453   -4.750570   -0.112562
     96          1           0        7.385216   -5.604200   -0.644662
     97          1           0        7.599733   -5.357523    1.196961
     98          1           0        2.308026   -3.786006    0.558971
     99          1           0        0.275291   -4.814191   -2.976544
    100          1           0        0.767053   -3.160140   -3.446167
    101          1           0       -0.710449   -3.301043   -2.611598
    102          1           0       -3.156001   -3.511774   -0.187033
    103          1           0       -3.339656   -2.605095   -1.676933
    104          1           0       -4.915206   -1.022298   -0.009653
    105          1           0       -6.878847   -4.701213    0.013063
    106          1           0       -5.865485   -4.811318    1.464672
    107          1           0       -5.110465   -5.020873   -0.006765
    108          1           0       -6.500017   -1.630956    1.761213
    109          1           0       -7.429758   -2.890395    1.799095
    110          1           0       -8.738103   -2.360582    0.108320
    111          1           0       -7.606262   -1.520962   -0.871127
    112          1           0       -8.103924    0.020853    1.616371
    113          1           0       -9.692973   -0.631973    1.074329
    114          1           0       -8.487653    0.316939   -1.324800
    115          1           0       -8.340479    2.757635    0.292243
    116          1           0       -7.161786    2.052695   -0.869784
    117          1           0       -7.128359    1.661660    0.807405
    118          1           0      -10.177743    2.281493   -1.102855
    119          1           0      -10.660980    1.745645    0.357306
    120          1           0      -11.875219    0.010905   -0.441593
    121          1           0      -10.636952   -0.653427   -1.554969
    122          1           0      -11.824706    0.080967   -3.223291
    123          1           0      -11.338102    1.701461   -2.795614
    124          1           0      -13.747751    0.174218   -1.803362
    125          1           0      -15.078560    0.924174   -3.552412
    126          1           0      -13.538251    1.180247   -4.393999
    127          1           0      -14.309584    2.521394   -3.555945
    128          1           0      -14.169390    3.034797   -1.466092
    129          1           0      -12.589060    2.543220   -0.706041
    130          1           0      -14.527534    0.721383    0.024362
    131          1           0      -15.413869    2.159160   -0.344329
    132          1           0      -14.790757    3.100416    1.821217
    133          1           0      -13.058772    2.495257    1.601901
    134          1           0      -14.072368    0.216145    2.211767
    135          1           0      -13.105907    2.388659    4.038047
    136          1           0      -12.522159    0.894374    3.486929
    137          1           0      -13.697750    0.943411    4.800537
    138          1           0      -16.318387    0.231197    2.824225
    139          1           0      -16.432585    1.936327    2.585827
    140          1           0      -15.968202    1.435879    4.177777
 ---------------------------------------------------------------------
 Rotational constants (GHZ):           0.0539325           0.0085382           0.0077429
 Leave Link  202 at Wed May  4 09:12:13 2022, MaxMem=  6710886400 cpu:               0.2 elap:               0.0
 (Enter /sw/apps/gaussian-16.0/g16/l301.exe)
 Standard basis: VSTO-6G (5D, 7F)
 Ernie: Thresh=  0.10000D-02 Tol=  0.10000D-05 Strict=F.
 There are   338 symmetry adapted cartesian basis functions of A   symmetry.
 There are   338 symmetry adapted basis functions of A   symmetry.
   338 basis functions,  2028 primitive gaussians,   338 cartesian basis functions
   176 alpha electrons      176 beta electrons
       nuclear repulsion energy      4760.8400583503 Hartrees.
 IExCor=    0 DFT=F Ex=HF Corr=None ExCW=0 ScaHFX=  1.000000
 ScaDFX=  1.000000  1.000000  1.000000  1.000000 ScalE2=  1.000000  1.000000
 IRadAn=      5 IRanWt=     -1 IRanGd=            0 ICorTp=0 IEmpDi=  4
 Integral buffers will be    131072 words long.
 Regular integral format.
 Two-electron integral symmetry is turned off.
 Leave Link  301 at Wed May  4 09:12:14 2022, MaxMem=  6710886400 cpu:               1.2 elap:               0.1
 (Enter /sw/apps/gaussian-16.0/g16/l302.exe)
 Do NDO integrals.
 NPDir=0 NMtPBC=     1 NCelOv=     1 NCel=       1 NClECP=     1 NCelD=      1
         NCelK=      1 NCelE2=     1 NClLst=     1 CellRange=     0.0.
 One-electron integrals computed using PRISM.
 Generate ZINDO/S integrals.
 NDO Nuclear repulsion=  4272.942746617357 Hartrees.
 NBasis=   338 RedAO= F EigKep=  0.00D+00  NBF=   338
 NBsUse=   338 1.00D-04 EigRej=  0.00D+00 NBFU=   338
 Leave Link  302 at Wed May  4 09:12:14 2022, MaxMem=  6710886400 cpu:               7.9 elap:               0.3
 (Enter /sw/apps/gaussian-16.0/g16/l303.exe)
 DipDrv:  MaxL=1.
 DipDrv:  will hold  3 matrices at once.
 Leave Link  303 at Wed May  4 09:12:14 2022, MaxMem=  6710886400 cpu:               0.5 elap:               0.0
 (Enter /sw/apps/gaussian-16.0/g16/l308.exe)
 Leave Link  308 at Wed May  4 09:12:14 2022, MaxMem=  6710886400 cpu:               5.6 elap:               0.3
 (Enter /sw/apps/gaussian-16.0/g16/l401.exe)
 Simple Huckel Guess.
 JPrj=0 DoOrth=F DoCkMO=F.
 Leave Link  401 at Wed May  4 09:12:14 2022, MaxMem=  6710886400 cpu:               2.5 elap:               0.1
 (Enter /sw/apps/gaussian-16.0/g16/l502.exe)
 Two-electron integral symmetry not used.
 Closed shell SCF:
 Using DIIS extrapolation, IDIIS=  1040.
 Overlap will be assumed to be unity.
 NGot=  6710886400 LenX=  6710643598 LenY=  6710528913
 Requested convergence on RMS density matrix=1.00D-08 within 128 cycles.
 Requested convergence on MAX density matrix=1.00D-06.
 Requested convergence on             energy=1.00D-06.
 No special actions if energy rises.
 Fock matrices will be formed incrementally for  20 cycles.

 Cycle   1  Pass 1  IDiag  1:
 E= -472.518651008789    
 DIIS: error= 5.99D-02 at cycle   1 NSaved=   1.
 NSaved= 1 IEnMin= 1 EnMin= -472.518651008789     IErMin= 1 ErrMin= 5.99D-02
 ErrMax= 5.99D-02  0.00D+00 EMaxC= 1.00D-01 BMatC= 8.34D-01 BMatP= 8.34D-01
 IDIUse=3 WtCom= 4.01D-01 WtEn= 5.99D-01
 Coeff-Com:  0.100D+01
 Coeff-En:   0.100D+01
 Coeff:      0.100D+01
 GapD=    2.000 DampG=2.000 DampE=0.500 DampFc=1.0000 IDamp=-1.
 RMSDP=4.01D-03 MaxDP=1.69D-01              OVMax= 0.00D+00

 Cycle   2  Pass 1  IDiag  1:
 RMSU=  4.00D-03    CP:  9.95D-01
 E= -474.358731547697     Delta-E=       -1.840080538908 Rises=F Damp=F
 DIIS: error= 2.12D-02 at cycle   2 NSaved=   2.
 NSaved= 2 IEnMin= 2 EnMin= -474.358731547697     IErMin= 2 ErrMin= 2.12D-02
 ErrMax= 2.12D-02  0.00D+00 EMaxC= 1.00D-01 BMatC= 5.11D-02 BMatP= 8.34D-01
 IDIUse=3 WtCom= 7.88D-01 WtEn= 2.12D-01
 Coeff-Com: -0.787D-01 0.108D+01
 Coeff-En:   0.000D+00 0.100D+01
 Coeff:     -0.620D-01 0.106D+01
 RMSDP=1.10D-03 MaxDP=5.26D-02 DE=-1.84D+00 OVMax= 0.00D+00

 Cycle   3  Pass 1  IDiag  1:
 RMSU=  1.02D-03    CP:  9.93D-01  1.10D+00
 E= -474.461183667171     Delta-E=       -0.102452119474 Rises=F Damp=F
 DIIS: error= 8.87D-03 at cycle   3 NSaved=   3.
 NSaved= 3 IEnMin= 3 EnMin= -474.461183667171     IErMin= 3 ErrMin= 8.87D-03
 ErrMax= 8.87D-03  0.00D+00 EMaxC= 1.00D-01 BMatC= 6.66D-03 BMatP= 5.11D-02
 IDIUse=3 WtCom= 9.11D-01 WtEn= 8.87D-02
 Coeff-Com: -0.667D-01 0.233D+00 0.834D+00
 Coeff-En:   0.000D+00 0.000D+00 0.100D+01
 Coeff:     -0.608D-01 0.212D+00 0.848D+00
 RMSDP=3.71D-04 MaxDP=1.58D-02 DE=-1.02D-01 OVMax= 0.00D+00

 Cycle   4  Pass 1  IDiag  1:
 RMSU=  2.48D-04    CP:  9.93D-01  1.17D+00  9.36D-01
 E= -474.473508971118     Delta-E=       -0.012325303947 Rises=F Damp=F
 DIIS: error= 1.34D-03 at cycle   4 NSaved=   4.
 NSaved= 4 IEnMin= 4 EnMin= -474.473508971118     IErMin= 4 ErrMin= 1.34D-03
 ErrMax= 1.34D-03  0.00D+00 EMaxC= 1.00D-01 BMatC= 3.14D-04 BMatP= 6.66D-03
 IDIUse=3 WtCom= 9.87D-01 WtEn= 1.34D-02
 Coeff-Com:  0.164D-03-0.353D-01 0.327D-01 0.100D+01
 Coeff-En:   0.000D+00 0.000D+00 0.000D+00 0.100D+01
 Coeff:      0.162D-03-0.349D-01 0.322D-01 0.100D+01
 RMSDP=1.38D-04 MaxDP=7.30D-03 DE=-1.23D-02 OVMax= 0.00D+00

 Cycle   5  Pass 1  IDiag  1:
 RMSU=  9.23D-05    CP:  9.92D-01  1.17D+00  1.02D+00  1.17D+00
 E= -474.474688789090     Delta-E=       -0.001179817971 Rises=F Damp=F
 DIIS: error= 6.31D-04 at cycle   5 NSaved=   5.
 NSaved= 5 IEnMin= 5 EnMin= -474.474688789090     IErMin= 5 ErrMin= 6.31D-04
 ErrMax= 6.31D-04  0.00D+00 EMaxC= 1.00D-01 BMatC= 5.65D-05 BMatP= 3.14D-04
 IDIUse=3 WtCom= 9.94D-01 WtEn= 6.31D-03
 Coeff-Com:  0.595D-02-0.232D-01-0.929D-01 0.140D+00 0.970D+00
 Coeff-En:   0.000D+00 0.000D+00 0.000D+00 0.000D+00 0.100D+01
 Coeff:      0.591D-02-0.231D-01-0.923D-01 0.139D+00 0.970D+00
 RMSDP=9.08D-05 MaxDP=3.82D-03 DE=-1.18D-03 OVMax= 0.00D+00

 Cycle   6  Pass 1  IDiag  1:
 RMSU=  4.68D-05    CP:  9.92D-01  1.18D+00  1.04D+00  1.42D+00  1.42D+00
 E= -474.475029782357     Delta-E=       -0.000340993267 Rises=F Damp=F
 DIIS: error= 2.40D-04 at cycle   6 NSaved=   6.
 NSaved= 6 IEnMin= 6 EnMin= -474.475029782357     IErMin= 6 ErrMin= 2.40D-04
 ErrMax= 2.40D-04  0.00D+00 EMaxC= 1.00D-01 BMatC= 1.52D-05 BMatP= 5.65D-05
 IDIUse=3 WtCom= 9.98D-01 WtEn= 2.40D-03
 Coeff-Com: -0.516D-03 0.761D-02-0.911D-02-0.135D+00 0.328D-01 0.110D+01
 Coeff-En:   0.000D+00 0.000D+00 0.000D+00 0.000D+00 0.000D+00 0.100D+01
 Coeff:     -0.515D-03 0.759D-02-0.909D-02-0.135D+00 0.327D-01 0.110D+01
 RMSDP=7.19D-05 MaxDP=3.32D-03 DE=-3.41D-04 OVMax= 0.00D+00

 Cycle   7  Pass 1  IDiag  1:
 RMSU=  1.94D-05    CP:  9.92D-01  1.18D+00  1.05D+00  1.55D+00  1.93D+00
                    CP:  1.81D+00
 E= -474.475203959955     Delta-E=       -0.000174177599 Rises=F Damp=F
 DIIS: error= 1.83D-04 at cycle   7 NSaved=   7.
 NSaved= 7 IEnMin= 7 EnMin= -474.475203959955     IErMin= 7 ErrMin= 1.83D-04
 ErrMax= 1.83D-04  0.00D+00 EMaxC= 1.00D-01 BMatC= 6.17D-06 BMatP= 1.52D-05
 IDIUse=3 WtCom= 9.98D-01 WtEn= 1.83D-03
 Coeff-Com: -0.875D-03 0.103D-02 0.217D-01 0.274D-01-0.159D+00-0.639D+00
 Coeff-Com:  0.175D+01
 Coeff-En:   0.000D+00 0.000D+00 0.000D+00 0.000D+00 0.000D+00 0.000D+00
 Coeff-En:   0.100D+01
 Coeff:     -0.874D-03 0.103D-02 0.216D-01 0.274D-01-0.159D+00-0.638D+00
 Coeff:      0.175D+01
 RMSDP=9.38D-05 MaxDP=4.32D-03 DE=-1.74D-04 OVMax= 0.00D+00

 Cycle   8  Pass 1  IDiag  1:
 RMSU=  1.09D-05    CP:  9.92D-01  1.18D+00  1.06D+00  1.70D+00  2.51D+00
                    CP:  3.00D+00  2.47D+00
 E= -474.475361252735     Delta-E=       -0.000157292779 Rises=F Damp=F
 DIIS: error= 1.29D-04 at cycle   8 NSaved=   8.
 NSaved= 8 IEnMin= 8 EnMin= -474.475361252735     IErMin= 8 ErrMin= 1.29D-04
 ErrMax= 1.29D-04  0.00D+00 EMaxC= 1.00D-01 BMatC= 3.59D-06 BMatP= 6.17D-06
 IDIUse=3 WtCom= 9.99D-01 WtEn= 1.29D-03
 Coeff-Com:  0.951D-03-0.733D-02-0.611D-03 0.836D-01 0.968D-01-0.764D+00
 Coeff-Com: -0.366D+00 0.196D+01
 Coeff-En:   0.000D+00 0.000D+00 0.000D+00 0.000D+00 0.000D+00 0.000D+00
 Coeff-En:   0.000D+00 0.100D+01
 Coeff:      0.950D-03-0.732D-02-0.610D-03 0.835D-01 0.967D-01-0.763D+00
 Coeff:     -0.366D+00 0.196D+01
 RMSDP=1.26D-04 MaxDP=5.84D-03 DE=-1.57D-04 OVMax= 0.00D+00

 Cycle   9  Pass 1  IDiag  1:
 RMSU=  8.46D-05    CP:  9.92D-01  1.18D+00  1.07D+00  1.90D+00  3.00D+00
                    CP:  3.00D+00  3.00D+00  3.00D+00
 E= -474.475483166929     Delta-E=       -0.000121914194 Rises=F Damp=F
 DIIS: error= 6.66D-05 at cycle   9 NSaved=   9.
 NSaved= 9 IEnMin= 9 EnMin= -474.475483166929     IErMin= 9 ErrMin= 6.66D-05
 ErrMax= 6.66D-05  0.00D+00 EMaxC= 1.00D-01 BMatC= 6.94D-07 BMatP= 3.59D-06
 IDIUse=1 WtCom= 1.00D+00 WtEn= 0.00D+00
 Coeff-Com:  0.523D-03-0.186D-02-0.797D-02-0.143D-02 0.111D+00 0.724D-01
 Coeff-Com: -0.672D+00 0.384D+00 0.111D+01
 Coeff:      0.523D-03-0.186D-02-0.797D-02-0.143D-02 0.111D+00 0.724D-01
 Coeff:     -0.672D+00 0.384D+00 0.111D+01
 RMSDP=4.95D-05 MaxDP=2.22D-03 DE=-1.22D-04 OVMax= 0.00D+00

 Cycle  10  Pass 1  IDiag  1:
 RMSU=  1.93D-05    CP:  9.92D-01  1.18D+00  1.07D+00  1.97D+00  3.00D+00
                    CP:  3.00D+00  3.00D+00  3.00D+00  1.50D+00
 E= -474.475502009654     Delta-E=       -0.000018842725 Rises=F Damp=F
 DIIS: error= 3.40D-05 at cycle  10 NSaved=  10.
 NSaved=10 IEnMin=10 EnMin= -474.475502009654     IErMin=10 ErrMin= 3.40D-05
 ErrMax= 3.40D-05  0.00D+00 EMaxC= 1.00D-01 BMatC= 1.44D-07 BMatP= 6.94D-07
 IDIUse=1 WtCom= 1.00D+00 WtEn= 0.00D+00
 Coeff-Com: -0.164D-03 0.132D-02-0.929D-05-0.195D-01-0.114D-02 0.130D+00
 Coeff-Com:  0.270D-01-0.361D+00-0.769D-01 0.130D+01
 Coeff:     -0.164D-03 0.132D-02-0.929D-05-0.195D-01-0.114D-02 0.130D+00
 Coeff:      0.270D-01-0.361D+00-0.769D-01 0.130D+01
 RMSDP=2.60D-05 MaxDP=1.13D-03 DE=-1.88D-05 OVMax= 0.00D+00

 Cycle  11  Pass 1  IDiag  1:
 RMSU=  3.11D-06    CP:  9.92D-01  1.18D+00  1.07D+00  2.01D+00  3.00D+00
                    CP:  3.00D+00  3.00D+00  3.00D+00  1.75D+00  1.52D+00
 E= -474.475505392212     Delta-E=       -0.000003382558 Rises=F Damp=F
 DIIS: error= 1.54D-05 at cycle  11 NSaved=  11.
 NSaved=11 IEnMin=11 EnMin= -474.475505392212     IErMin=11 ErrMin= 1.54D-05
 ErrMax= 1.54D-05  0.00D+00 EMaxC= 1.00D-01 BMatC= 2.07D-08 BMatP= 1.44D-07
 IDIUse=1 WtCom= 1.00D+00 WtEn= 0.00D+00
 Coeff-Com: -0.723D-04 0.282D-03 0.126D-02-0.194D-02-0.108D-01-0.120D-01
 Coeff-Com:  0.104D+00-0.458D-01-0.211D+00 0.848D-01 0.109D+01
 Coeff:     -0.723D-04 0.282D-03 0.126D-02-0.194D-02-0.108D-01-0.120D-01
 Coeff:      0.104D+00-0.458D-01-0.211D+00 0.848D-01 0.109D+01
 RMSDP=2.63D-06 MaxDP=1.49D-04 DE=-3.38D-06 OVMax= 0.00D+00

 Cycle  12  Pass 1  IDiag  1:
 RMSU=  1.38D-06    CP:  9.92D-01  1.18D+00  1.07D+00  2.01D+00  3.00D+00
                    CP:  3.00D+00  3.00D+00  3.00D+00  1.77D+00  1.58D+00
                    CP:  1.39D+00
 E= -474.475505544714     Delta-E=       -0.000000152502 Rises=F Damp=F
 DIIS: error= 5.41D-06 at cycle  12 NSaved=  12.
 NSaved=12 IEnMin=12 EnMin= -474.475505544714     IErMin=12 ErrMin= 5.41D-06
 ErrMax= 5.41D-06  0.00D+00 EMaxC= 1.00D-01 BMatC= 3.18D-09 BMatP= 2.07D-08
 IDIUse=1 WtCom= 1.00D+00 WtEn= 0.00D+00
 Coeff-Com:  0.299D-04-0.244D-03 0.970D-04 0.317D-02 0.145D-02-0.281D-01
 Coeff-Com: -0.412D-02 0.684D-01-0.387D-02-0.228D+00 0.373D-01 0.115D+01
 Coeff:      0.299D-04-0.244D-03 0.970D-04 0.317D-02 0.145D-02-0.281D-01
 Coeff:     -0.412D-02 0.684D-01-0.387D-02-0.228D+00 0.373D-01 0.115D+01
 RMSDP=2.09D-06 MaxDP=1.08D-04 DE=-1.53D-07 OVMax= 0.00D+00

 Cycle  13  Pass 1  IDiag  1:
 RMSU=  4.20D-07    CP:  9.92D-01  1.18D+00  1.07D+00  2.01D+00  3.00D+00
                    CP:  3.00D+00  3.00D+00  3.00D+00  1.79D+00  1.62D+00
                    CP:  1.62D+00  1.26D+00
 E= -474.475505578317     Delta-E=       -0.000000033603 Rises=F Damp=F
 DIIS: error= 2.00D-06 at cycle  13 NSaved=  13.
 NSaved=13 IEnMin=13 EnMin= -474.475505578317     IErMin=13 ErrMin= 2.00D-06
 ErrMax= 2.00D-06  0.00D+00 EMaxC= 1.00D-01 BMatC= 5.39D-10 BMatP= 3.18D-09
 IDIUse=1 WtCom= 1.00D+00 WtEn= 0.00D+00
 Coeff-Com:  0.123D-04-0.677D-04-0.131D-03 0.704D-03 0.176D-02-0.352D-02
 Coeff-Com: -0.125D-01 0.184D-01 0.214D-01-0.410D-01-0.132D+00 0.226D+00
 Coeff-Com:  0.921D+00
 Coeff:      0.123D-04-0.677D-04-0.131D-03 0.704D-03 0.176D-02-0.352D-02
 Coeff:     -0.125D-01 0.184D-01 0.214D-01-0.410D-01-0.132D+00 0.226D+00
 Coeff:      0.921D+00
 RMSDP=3.73D-07 MaxDP=2.33D-05 DE=-3.36D-08 OVMax= 0.00D+00

 Cycle  14  Pass 1  IDiag  1:
 RMSU=  1.33D-07    CP:  9.92D-01  1.18D+00  1.07D+00  2.01D+00  3.00D+00
                    CP:  3.00D+00  3.00D+00  3.00D+00  1.79D+00  1.62D+00
                    CP:  1.67D+00  1.39D+00  1.43D+00
 E= -474.475505582483     Delta-E=       -0.000000004165 Rises=F Damp=F
 DIIS: error= 1.16D-06 at cycle  14 NSaved=  14.
 NSaved=14 IEnMin=14 EnMin= -474.475505582483     IErMin=14 ErrMin= 1.16D-06
 ErrMax= 1.16D-06  0.00D+00 EMaxC= 1.00D-01 BMatC= 1.51D-10 BMatP= 5.39D-10
 IDIUse=1 WtCom= 1.00D+00 WtEn= 0.00D+00
 Coeff-Com: -0.808D-05 0.589D-04-0.854D-05-0.676D-03-0.724D-03 0.632D-02
 Coeff-Com:  0.145D-02-0.156D-01-0.216D-02 0.490D-01 0.447D-02-0.227D+00
 Coeff-Com: -0.298D+00 0.148D+01
 Coeff:     -0.808D-05 0.589D-04-0.854D-05-0.676D-03-0.724D-03 0.632D-02
 Coeff:      0.145D-02-0.156D-01-0.216D-02 0.490D-01 0.447D-02-0.227D+00
 Coeff:     -0.298D+00 0.148D+01
 RMSDP=3.53D-07 MaxDP=1.87D-05 DE=-4.17D-09 OVMax= 0.00D+00

 Cycle  15  Pass 1  IDiag  1:
 RMSU=  8.66D-08    CP:  9.92D-01  1.18D+00  1.07D+00  2.01D+00  3.00D+00
                    CP:  3.00D+00  3.00D+00  3.00D+00  1.79D+00  1.62D+00
                    CP:  1.70D+00  1.47D+00  2.02D+00  2.11D+00
 E= -474.475505585042     Delta-E=       -0.000000002559 Rises=F Damp=F
 DIIS: error= 5.63D-07 at cycle  15 NSaved=  15.
 NSaved=15 IEnMin=15 EnMin= -474.475505585042     IErMin=15 ErrMin= 5.63D-07
 ErrMax= 5.63D-07  0.00D+00 EMaxC= 1.00D-01 BMatC= 6.87D-11 BMatP= 1.51D-10
 IDIUse=1 WtCom= 1.00D+00 WtEn= 0.00D+00
 Coeff-Com: -0.354D-05 0.162D-04 0.604D-04-0.107D-03-0.897D-03 0.909D-03
 Coeff-Com:  0.422D-02-0.447D-02-0.639D-02 0.274D-02 0.512D-01-0.212D-01
 Coeff-Com: -0.404D+00 0.100D-01 0.137D+01
 Coeff:     -0.354D-05 0.162D-04 0.604D-04-0.107D-03-0.897D-03 0.909D-03
 Coeff:      0.422D-02-0.447D-02-0.639D-02 0.274D-02 0.512D-01-0.212D-01
 Coeff:     -0.404D+00 0.100D-01 0.137D+01
 RMSDP=2.60D-07 MaxDP=1.46D-05 DE=-2.56D-09 OVMax= 0.00D+00

 Cycle  16  Pass 1  IDiag  1:
 RMSU=  4.20D-08    CP:  9.92D-01  1.18D+00  1.07D+00  2.01D+00  3.00D+00
                    CP:  3.00D+00  3.00D+00  3.00D+00  1.79D+00  1.62D+00
                    CP:  1.72D+00  1.52D+00  2.45D+00  3.00D+00  1.91D+00
 E= -474.475505586197     Delta-E=       -0.000000001155 Rises=F Damp=F
 DIIS: error= 3.85D-07 at cycle  16 NSaved=  16.
 NSaved=16 IEnMin=16 EnMin= -474.475505586197     IErMin=16 ErrMin= 3.85D-07
 ErrMax= 3.85D-07  0.00D+00 EMaxC= 1.00D-01 BMatC= 1.86D-11 BMatP= 6.87D-11
 IDIUse=1 WtCom= 1.00D+00 WtEn= 0.00D+00
 Coeff-Com:  0.378D-05-0.269D-04 0.477D-05 0.317D-03 0.152D-03-0.226D-02
 Coeff-Com: -0.137D-02 0.661D-02 0.212D-02-0.222D-01-0.103D-02 0.975D-01
 Coeff-Com:  0.767D-01-0.466D+00-0.267D+00 0.158D+01
 Coeff:      0.378D-05-0.269D-04 0.477D-05 0.317D-03 0.152D-03-0.226D-02
 Coeff:     -0.137D-02 0.661D-02 0.212D-02-0.222D-01-0.103D-02 0.975D-01
 Coeff:      0.767D-01-0.466D+00-0.267D+00 0.158D+01
 RMSDP=2.04D-07 MaxDP=1.18D-05 DE=-1.16D-09 OVMax= 0.00D+00

 Cycle  17  Pass 1  IDiag  1:
 RMSU=  7.99D-08    CP:  9.92D-01  1.18D+00  1.07D+00  2.01D+00  3.00D+00
                    CP:  3.00D+00  3.00D+00  3.00D+00  1.79D+00  1.62D+00
                    CP:  1.73D+00  1.55D+00  2.76D+00  3.00D+00  2.86D+00
                    CP:  2.99D+00
 E= -474.475505586575     Delta-E=       -0.000000000378 Rises=F Damp=F
 DIIS: error= 1.70D-07 at cycle  17 NSaved=  17.
 NSaved=17 IEnMin=17 EnMin= -474.475505586575     IErMin=17 ErrMin= 1.70D-07
 ErrMax= 1.70D-07  0.00D+00 EMaxC= 1.00D-01 BMatC= 2.97D-12 BMatP= 1.86D-11
 IDIUse=1 WtCom= 1.00D+00 WtEn= 0.00D+00
 Coeff-Com:  0.596D-06-0.275D-05-0.121D-04 0.240D-04 0.118D-03-0.713D-05
 Coeff-Com: -0.966D-03 0.105D-02 0.802D-03-0.621D-04-0.920D-02 0.333D-02
 Coeff-Com:  0.493D-01 0.711D-01-0.292D+00 0.103D-01 0.117D+01
 Coeff:      0.596D-06-0.275D-05-0.121D-04 0.240D-04 0.118D-03-0.713D-05
 Coeff:     -0.966D-03 0.105D-02 0.802D-03-0.621D-04-0.920D-02 0.333D-02
 Coeff:      0.493D-01 0.711D-01-0.292D+00 0.103D-01 0.117D+01
 RMSDP=5.18D-08 MaxDP=2.74D-06 DE=-3.78D-10 OVMax= 0.00D+00

 Cycle  18  Pass 1  IDiag  1:
 RMSU=  3.08D-08    CP:  9.92D-01  1.18D+00  1.07D+00  2.01D+00  3.00D+00
                    CP:  3.00D+00  3.00D+00  3.00D+00  1.79D+00  1.62D+00
                    CP:  1.73D+00  1.56D+00  2.82D+00  3.00D+00  3.00D+00
                    CP:  3.00D+00  1.17D+00
 E= -474.475505586618     Delta-E=       -0.000000000043 Rises=F Damp=F
 DIIS: error= 1.35D-07 at cycle  18 NSaved=  18.
 NSaved=18 IEnMin=18 EnMin= -474.475505586618     IErMin=18 ErrMin= 1.35D-07
 ErrMax= 1.35D-07  0.00D+00 EMaxC= 1.00D-01 BMatC= 7.30D-13 BMatP= 2.97D-12
 IDIUse=1 WtCom= 1.00D+00 WtEn= 0.00D+00
 Coeff-Com: -0.101D-05 0.699D-05-0.576D-06-0.788D-04-0.562D-04 0.581D-03
 Coeff-Com:  0.277D-03-0.152D-02-0.862D-03 0.559D-02 0.117D-02-0.230D-01
 Coeff-Com: -0.305D-01 0.118D+00 0.581D-01-0.373D+00-0.114D+00 0.136D+01
 Coeff:     -0.101D-05 0.699D-05-0.576D-06-0.788D-04-0.562D-04 0.581D-03
 Coeff:      0.277D-03-0.152D-02-0.862D-03 0.559D-02 0.117D-02-0.230D-01
 Coeff:     -0.305D-01 0.118D+00 0.581D-01-0.373D+00-0.114D+00 0.136D+01
 RMSDP=3.22D-08 MaxDP=1.43D-06 DE=-4.27D-11 OVMax= 0.00D+00

 Cycle  19  Pass 1  IDiag  1:
 RMSU=  8.87D-09    CP:  9.92D-01  1.18D+00  1.07D+00  2.01D+00  3.00D+00
                    CP:  3.00D+00  3.00D+00  3.00D+00  1.79D+00  1.62D+00
                    CP:  1.73D+00  1.56D+00  2.86D+00  3.00D+00  3.00D+00
                    CP:  3.00D+00  1.30D+00  1.75D+00
 E= -474.475505586626     Delta-E=       -0.000000000008 Rises=F Damp=F
 DIIS: error= 7.70D-08 at cycle  19 NSaved=  19.
 NSaved=19 IEnMin=19 EnMin= -474.475505586626     IErMin=19 ErrMin= 7.70D-08
 ErrMax= 7.70D-08  0.00D+00 EMaxC= 1.00D-01 BMatC= 9.92D-14 BMatP= 7.30D-13
 IDIUse=1 WtCom= 1.00D+00 WtEn= 0.00D+00
 Coeff-Com: -0.944D-07 0.389D-06 0.273D-05-0.278D-05-0.225D-04-0.959D-05
 Coeff-Com:  0.161D-03-0.126D-03-0.141D-03-0.136D-03 0.175D-02 0.127D-03
 Coeff-Com: -0.837D-02-0.154D-01 0.541D-01 0.292D-01-0.217D+00-0.105D+00
 Coeff-Com:  0.126D+01
 Coeff:     -0.944D-07 0.389D-06 0.273D-05-0.278D-05-0.225D-04-0.959D-05
 Coeff:      0.161D-03-0.126D-03-0.141D-03-0.136D-03 0.175D-02 0.127D-03
 Coeff:     -0.837D-02-0.154D-01 0.541D-01 0.292D-01-0.217D+00-0.105D+00
 Coeff:      0.126D+01
 RMSDP=7.10D-09 MaxDP=7.53D-07 DE=-8.19D-12 OVMax= 0.00D+00

 SCF Done:  E(RZINDO/S) =  -474.475505587     A.U. after   19 cycles
            NFock= 19  Conv=0.71D-08     -V/T= 0.9485
 KE=-9.220341868727D+03 PE=-8.879542292561D-07 EE= 4.472923617411D+03
 Leave Link  502 at Wed May  4 09:12:15 2022, MaxMem=  6710886400 cpu:              20.8 elap:               0.9
 (Enter /sw/apps/gaussian-16.0/g16/l801.exe)
 Range of M.O.s used for correlation:     1   338
 NBasis=   338 NAE=   176 NBE=   176 NFC=     0 NFV=     0
 NROrb=    338 NOA=   176 NOB=   176 NVA=   162 NVB=   162
 Leave Link  801 at Wed May  4 09:12:15 2022, MaxMem=  6710886400 cpu:               0.4 elap:               0.0
 (Enter /sw/apps/gaussian-16.0/g16/l914.exe)
 RHF ground state
 Two-electron integral symmetry not used.
 MDV=  6710886400 DFT=F DoStab=F Mixed=F DoRPA=F DoScal=F NonHer=F
 Making orbital integer symmetry assigments:
 Orbital symmetries:
       Occupied  (A) (A) (A) (A) (A) (A) (A) (A) (A) (A) (A) (A)
                 (A) (A) (A) (A) (A) (A) (A) (A) (A) (A) (A) (A)
                 (A) (A) (A) (A) (A) (A) (A) (A) (A) (A) (A) (A)
                 (A) (A) (A) (A) (A) (A) (A) (A) (A) (A) (A) (A)
                 (A) (A) (A) (A) (A) (A) (A) (A) (A) (A) (A) (A)
                 (A) (A) (A) (A) (A) (A) (A) (A) (A) (A) (A) (A)
                 (A) (A) (A) (A) (A) (A) (A) (A) (A) (A) (A) (A)
                 (A) (A) (A) (A) (A) (A) (A) (A) (A) (A) (A) (A)
                 (A) (A) (A) (A) (A) (A) (A) (A) (A) (A) (A) (A)
                 (A) (A) (A) (A) (A) (A) (A) (A) (A) (A) (A) (A)
                 (A) (A) (A) (A) (A) (A) (A) (A) (A) (A) (A) (A)
                 (A) (A) (A) (A) (A) (A) (A) (A) (A) (A) (A) (A)
                 (A) (A) (A) (A) (A) (A) (A) (A) (A) (A) (A) (A)
                 (A) (A) (A) (A) (A) (A) (A) (A) (A) (A) (A) (A)
                 (A) (A) (A) (A) (A) (A) (A) (A)
       Virtual   (A) (A) (A) (A) (A) (A) (A) (A) (A) (A) (A) (A)
                 (A) (A) (A) (A) (A) (A) (A) (A) (A) (A) (A) (A)
                 (A) (A) (A) (A) (A) (A) (A) (A) (A) (A) (A) (A)
                 (A) (A) (A) (A) (A) (A) (A) (A) (A) (A) (A) (A)
                 (A) (A) (A) (A) (A) (A) (A) (A) (A) (A) (A) (A)
                 (A) (A) (A) (A) (A) (A) (A) (A) (A) (A) (A) (A)
                 (A) (A) (A) (A) (A) (A) (A) (A) (A) (A) (A) (A)
                 (A) (A) (A) (A) (A) (A) (A) (A) (A) (A) (A) (A)
                 (A) (A) (A) (A) (A) (A) (A) (A) (A) (A) (A) (A)
                 (A) (A) (A) (A) (A) (A) (A) (A) (A) (A) (A) (A)
                 (A) (A) (A) (A) (A) (A) (A) (A) (A) (A) (A) (A)
                 (A) (A) (A) (A) (A) (A) (A) (A) (A) (A) (A) (A)
                 (A) (A) (A) (A) (A) (A) (A) (A) (A) (A) (A) (A)
                 (A) (A) (A) (A) (A) (A)
    20 initial guesses have been made.
 Convergence on wavefunction:    0.001000000000000
 Davidson Disk Diagonalization:  ConvIn= 1.00D-03 SkipCon=T Conv= 1.00D-03.
 Max sub-space:  2000 roots to seek:    20 dimension of matrix:        57024
 Iteration     1 Dimension    20 NMult     0 NNew     20
 CISAX will form    20 AO SS matrices at one time.
 NMat=    20 NSing=    20 JSym2X= 0.
 New state      5 was old state     10
 Excitation Energies [eV] at current iteration:
 Root      1 :     1.615969960358258
 Root      2 :     2.117310241459785
 Root      3 :     3.337501068768873
 Root      4 :     3.413643438647345
 Root      5 :     3.501696355437530
 Root      6 :     3.568215950124665
 Root      7 :     3.794527705230294
 Root      8 :     3.844687562325938
 Root      9 :     3.927237003415204
 Root     10 :     3.971993810367521
 Root     11 :     4.103511677886472
 Root     12 :     4.146009537176739
 Root     13 :     4.287204182738151
 Root     14 :     4.390419443826579
 Root     15 :     4.611926853433313
 Root     16 :     4.708089060945001
 Root     17 :     4.778481789928777
 Root     18 :     4.883197580256857
 Root     19 :     4.900871006639802
 Root     20 :     5.870515258881540
 Iteration     2 Dimension    40 NMult    20 NNew     20
 CISAX will form    20 AO SS matrices at one time.
 NMat=    20 NSing=    20 JSym2X= 0.
 Root      1 not converged, maximum delta is    0.041249621335714
 Root      2 not converged, maximum delta is    0.036260134670219
 Root      3 not converged, maximum delta is    0.178290405931879
 Root      4 not converged, maximum delta is    0.249618163112508
 Root      5 not converged, maximum delta is    0.412053458322483
 Excitation Energies [eV] at current iteration:
 Root      1 :     1.323172240512541   Change is   -0.292797719845717
 Root      2 :     1.885978642908592   Change is   -0.231331598551194
 Root      3 :     2.983241489502627   Change is   -0.354259579266246
 Root      4 :     3.202958835570930   Change is   -0.210684603076415
 Root      5 :     3.206772575737232   Change is   -0.294923779700299
 Root      6 :     3.292761577285508   Change is   -0.853247959891231
 Root      7 :     3.470631050273638   Change is   -0.097584899851027
 Root      8 :     3.573718806736670   Change is   -0.220808898493624
 Root      9 :     3.611642795520985   Change is   -0.360351014846536
 Root     10 :     3.688867556069862   Change is   -0.155820006256077
 Root     11 :     3.750675210527418   Change is   -0.176561792887786
 Root     12 :     3.772270833357461   Change is   -0.331240844529010
 Root     13 :     3.985184992356158   Change is   -0.302019190381993
 Root     14 :     4.065584421742453   Change is   -0.324835022084126
 Root     15 :     4.354898110126381   Change is   -0.528299470130475
 Root     16 :     4.506003038488613   Change is   -0.202086022456388
 Root     17 :     4.523420373120603   Change is   -0.088506480312710
 Root     18 :     4.716446732329041   Change is   -0.062035057599735
 Root     19 :     4.895415790888899   Change is   -0.005455215750903
 Root     20 :     5.750658456670338
 Iteration     3 Dimension    45 NMult    40 NNew      5
 CISAX will form     5 AO SS matrices at one time.
 NMat=     5 NSing=     5 JSym2X= 0.
 Root      1 not converged, maximum delta is    0.010278548830311
 Root      2 not converged, maximum delta is    0.016629325164565
 New state      3 was old state      5
 Root      3 not converged, maximum delta is    0.371258560513200
 New state      4 was old state      3
 Root      4 not converged, maximum delta is    0.036413387071121
 New state      5 was old state      4
 Root      5 not converged, maximum delta is    0.229775997302071
 Excitation Energies [eV] at current iteration:
 Root      1 :     1.309101845159591   Change is   -0.014070395352949
 Root      2 :     1.862098194845054   Change is   -0.023880448063537
 Root      3 :     2.906666366981783   Change is   -0.300106208755449
 Root      4 :     2.960940432789260   Change is   -0.022301056713367
 Root      5 :     3.163068554074489   Change is   -0.039890281496440
 Iteration     4 Dimension    50 NMult    45 NNew      5
 CISAX will form     5 AO SS matrices at one time.
 NMat=     5 NSing=     5 JSym2X= 0.
 Root      1 not converged, maximum delta is    0.001588354084740
 Root      2 not converged, maximum delta is    0.001269055844226
 Root      3 not converged, maximum delta is    0.058871445427770
 Root      4 not converged, maximum delta is    0.026048833426893
 Root      5 not converged, maximum delta is    0.007858668660001
 Excitation Energies [eV] at current iteration:
 Root      1 :     1.308512562744704   Change is   -0.000589282414887
 Root      2 :     1.861505348147099   Change is   -0.000592846697955
 Root      3 :     2.834414390659231   Change is   -0.072251976322551
 Root      4 :     2.958299697103964   Change is   -0.002640735685296
 Root      5 :     3.159277244023487   Change is   -0.003791310051002
 Iteration     5 Dimension    55 NMult    50 NNew      5
 CISAX will form     5 AO SS matrices at one time.
 NMat=     5 NSing=     5 JSym2X= 0.
 Root      1 has converged.
 Root      2 has converged.
 Root      3 not converged, maximum delta is    0.018434349695087
 Root      4 not converged, maximum delta is    0.004147247320249
 Root      5 not converged, maximum delta is    0.004034791778647
 Excitation Energies [eV] at current iteration:
 Root      1 :     1.308476213884981   Change is   -0.000036348859723
 Root      2 :     1.861468762003777   Change is   -0.000036586143322
 Root      3 :     2.826955693929470   Change is   -0.007458696729761
 Root      4 :     2.957849940354348   Change is   -0.000449756749616
 Root      5 :     3.158654305716533   Change is   -0.000622938306954
 Iteration     6 Dimension    58 NMult    55 NNew      3
 CISAX will form     3 AO SS matrices at one time.
 NMat=     3 NSing=     3 JSym2X= 0.
 Root      1 has converged.
 Root      2 has converged.
 Root      3 not converged, maximum delta is    0.010336536956332
 Root      4 not converged, maximum delta is    0.001743741133559
 Root      5 not converged, maximum delta is    0.004909416720757
 Excitation Energies [eV] at current iteration:
 Root      1 :     1.308476005172318   Change is   -0.000000208712664
 Root      2 :     1.861467575466443   Change is   -0.000001186537334
 Root      3 :     2.825540378372873   Change is   -0.001415315556598
 Root      4 :     2.957752639002044   Change is   -0.000097301352304
 Root      5 :     3.158415282529514   Change is   -0.000239023187019
 Iteration     7 Dimension    61 NMult    58 NNew      3
 CISAX will form     3 AO SS matrices at one time.
 NMat=     3 NSing=     3 JSym2X= 0.
 Root      1 has converged.
 Root      2 has converged.
 Root      3 not converged, maximum delta is    0.006440823535724
 Root      4 not converged, maximum delta is    0.002300299926695
 Root      5 not converged, maximum delta is    0.046490594917942
 Excitation Energies [eV] at current iteration:
 Root      1 :     1.308475957163832   Change is   -0.000000048008486
 Root      2 :     1.861466505847641   Change is   -0.000001069618802
 Root      3 :     2.825144451115166   Change is   -0.000395927257707
 Root      4 :     2.957716476905397   Change is   -0.000036162096648
 Root      5 :     3.157084427723012   Change is   -0.001330854806502
 Iteration     8 Dimension    64 NMult    61 NNew      3
 CISAX will form     3 AO SS matrices at one time.
 NMat=     3 NSing=     3 JSym2X= 0.
 Root      1 has converged.
 Root      2 has converged.
 Root      3 not converged, maximum delta is    0.004676846592960
 Root      4 not converged, maximum delta is    0.002263055507658
 Root      5 not converged, maximum delta is    0.490105296802173
 Excitation Energies [eV] at current iteration:
 Root      1 :     1.308475839292587   Change is   -0.000000117871245
 Root      2 :     1.861465302872063   Change is   -0.000001202975578
 Root      3 :     2.825012536660412   Change is   -0.000131914454754
 Root      4 :     2.957697676154035   Change is   -0.000018800751361
 Root      5 :     3.105258369480210   Change is   -0.051826058242802
 Iteration     9 Dimension    67 NMult    64 NNew      3
 CISAX will form     3 AO SS matrices at one time.
 NMat=     3 NSing=     3 JSym2X= 0.
 Root      1 has converged.
 Root      2 has converged.
 Root      3 not converged, maximum delta is    0.001007803598326
 Root      4 has converged.
 Root      5 not converged, maximum delta is    0.034530724538318
 Excitation Energies [eV] at current iteration:
 Root      1 :     1.308475826190578   Change is   -0.000000013102009
 Root      2 :     1.861464760672471   Change is   -0.000000542199592
 Root      3 :     2.824988532124643   Change is   -0.000024004535769
 Root      4 :     2.957693359027099   Change is   -0.000004317126936
 Root      5 :     3.082184410494136   Change is   -0.023073958986074
 Iteration    10 Dimension    69 NMult    67 NNew      2
 CISAX will form     2 AO SS matrices at one time.
 NMat=     2 NSing=     2 JSym2X= 0.
 Root      1 has converged.
 Root      2 has converged.
 Root      3 has converged.
 Root      4 has converged.
 Root      5 not converged, maximum delta is    0.007363407144614
 Excitation Energies [eV] at current iteration:
 Root      1 :     1.308475785210667   Change is   -0.000000040979911
 Root      2 :     1.861464680662219   Change is   -0.000000080010252
 Root      3 :     2.824985959876951   Change is   -0.000002572247692
 Root      4 :     2.957693189405784   Change is   -0.000000169621315
 Root      5 :     3.079398639746424   Change is   -0.002785770747712
 Iteration    11 Dimension    70 NMult    69 NNew      1
 CISAX will form     1 AO SS matrices at one time.
 NMat=     1 NSing=     1 JSym2X= 0.
 Root      1 has converged.
 Root      2 has converged.
 Root      3 has converged.
 Root      4 has converged.
 Root      5 not converged, maximum delta is    0.002441788879675
 Excitation Energies [eV] at current iteration:
 Root      1 :     1.308475776115559   Change is   -0.000000009095108
 Root      2 :     1.861464678041543   Change is   -0.000000002620676
 Root      3 :     2.824985806223027   Change is   -0.000000153653924
 Root      4 :     2.957693172008786   Change is   -0.000000017396998
 Root      5 :     3.079114010116394   Change is   -0.000284629630030
 Iteration    12 Dimension    71 NMult    70 NNew      1
 CISAX will form     1 AO SS matrices at one time.
 NMat=     1 NSing=     1 JSym2X= 0.
 Root      1 has converged.
 Root      2 has converged.
 Root      3 has converged.
 Root      4 has converged.
 Root      5 has converged.
 Excitation Energies [eV] at current iteration:
 Root      1 :     1.308475757792240   Change is   -0.000000018323319
 Root      2 :     1.861464676112088   Change is   -0.000000001929455
 Root      3 :     2.824985783488136   Change is   -0.000000022734892
 Root      4 :     2.957693150847884   Change is   -0.000000021160902
 Root      5 :     3.079068772188617   Change is   -0.000045237927778
 Convergence achieved on expansion vectors.
 ***********************************************************************
 Excited states from <AA,BB:AA,BB> singles matrix:
 ***********************************************************************
 
 1PDM for each excited state written to RWF  633
 Ground to excited state transition densities written to RWF  633
 Ground to excited state transition electric dipole moments (Au):
       state          X           Y           Z        Dip. S.      Osc.
         1        -0.6641      3.9573     -0.3406     16.2174      0.5199
         2         1.4642      0.4814      0.2602      2.4434      0.1114
         3         0.1030      0.0706      0.0400      0.0172      0.0012
         4         3.6154      1.1800      0.2941     14.5498      1.0543
         5         0.0367      0.0832      0.0176      0.0086      0.0006
 Ground to excited state transition velocity dipole moments (Au):
       state          X           Y           Z        Dip. S.      Osc.
         1        -0.0351      0.0385     -0.0061      0.0027      0.0381
         2        -0.0125     -0.0102     -0.0136      0.0004      0.0043
         3        -0.0092     -0.0028      0.0052      0.0001      0.0008
         4        -0.1291     -0.0511     -0.0176      0.0196      0.1201
         5        -0.0023     -0.0110      0.0024      0.0001      0.0008
 Ground to excited state transition magnetic dipole moments (Au):
       state          X           Y           Z
         1        -0.0085      0.0546      0.3602
         2         0.1232      0.0653     -1.1625
         3        -0.2482     -0.7244     -0.2353
         4        -0.0098      0.2812      0.2472
         5        -0.7787     -0.0573     -0.0027
 Ground to excited state transition velocity quadrupole moments (Au):
       state          XX          YY          ZZ          XY          XZ          YZ
         1        -0.7319     -0.2095      0.0512      0.4239     -0.0059      0.0532
         2        -0.1362     -0.0123      0.0037     -0.1361     -0.1609      0.0122
         3        -0.1334     -0.0329      0.0008      0.0459      0.0256     -0.0355
         4        -2.1852      0.0419     -0.0158     -0.4498     -0.3337      0.0896
         5         0.0276     -0.2128      0.0058     -0.1625      0.0255      0.0580
 <0|del|b> * <b|rxdel|0> + <0|del|b> * <b|delr+rdel|0>
 Rotatory Strengths (R) in cgs (10**-40 erg-esu-cm/Gauss)
       state          XX          YY          ZZ    R(velocity)    E-M Angle
         1       -17.8424     -8.6665     29.7095      1.0668       89.35
         2        79.1597     63.2537     -2.1299     46.7612       56.71
         3         3.8819      3.9382     13.3982      7.0728       69.17
         4       -90.5843    -73.2990     50.4468    -37.8122      109.42
         5         1.5897      6.4390      7.1530      5.0606       74.32
 1/2[<0|r|b>*<b|rxdel|0> + (<0|rxdel|b>*<b|r|0>)*]
 Rotatory Strengths (R) in cgs (10**-40 erg-esu-cm/Gauss)
       state          XX          YY          ZZ     R(length)
         1        -4.0139   -152.8635     86.7614    -23.3720
         2      -127.5785    -22.2413    213.9412     21.3738
         3        18.0778     36.1726      6.6611     20.3038
         4        25.0499   -234.6788    -51.4170    -87.0153
         5        20.1814      3.3754      0.0331      7.8633
  1/2[<0|del|b>*<b|r|0> + (<0|r|b>*<b|del|0>)*] (Au)
       state          X           Y           Z        Dip. S.   Osc.(frdel)
         1         0.0233      0.1524      0.0021     -0.1777     -0.1185
         2        -0.0183     -0.0049     -0.0035      0.0268      0.0179
         3        -0.0009     -0.0002      0.0002      0.0009      0.0006
         4        -0.4668     -0.0603     -0.0052      0.5322      0.3548
         5        -0.0001     -0.0009      0.0000      0.0010      0.0006

 Excitation energies and oscillator strengths:
 
 Excited State   1:      Singlet-A      1.3085 eV  947.55 nm  f=0.5199  <S**2>=0.000
     175 ->178         0.17479
     176 ->177         0.66950
 This state for optimization and/or second-order correction.
 Total Energy, E(CIS/TDA) =  -474.427419987    
 Copying the excited state density for this state as the 1-particle RhoCI density.
 
 Excited State   2:      Singlet-A      1.8615 eV  666.06 nm  f=0.1114  <S**2>=0.000
     175 ->177         0.58645
     176 ->178        -0.36211
 
 Excited State   3:      Singlet-A      2.8250 eV  438.88 nm  f=0.0012  <S**2>=0.000
     168 ->177         0.43554
     168 ->179        -0.39373
     168 ->180         0.20329
     168 ->186         0.18451
 
 Excited State   4:      Singlet-A      2.9577 eV  419.19 nm  f=1.0543  <S**2>=0.000
     171 ->177        -0.17195
     172 ->177         0.13729
     175 ->177         0.32029
     176 ->178         0.54737
 
 Excited State   5:      Singlet-A      3.0791 eV  402.67 nm  f=0.0006  <S**2>=0.000
     169 ->179         0.13326
     169 ->180         0.22461
     169 ->186        -0.10621
     170 ->177         0.16995
     170 ->179         0.23644
     170 ->180         0.42030
     170 ->186        -0.19224
     170 ->187         0.16573
     170 ->188        -0.12286
 SavETr:  write IOETrn=   770 NScale= 10 NData=  16 NLR=1 NState=    5 LETran=     100.
 Leave Link  914 at Wed May  4 09:12:20 2022, MaxMem=  6710886400 cpu:             101.5 elap:               4.3
 (Enter /sw/apps/gaussian-16.0/g16/l601.exe)
 Copying SCF densities to generalized density rwf, IOpCl= 0 IROHF=0.

 **********************************************************************

            Population analysis using the SCF density.

 **********************************************************************

 Orbital symmetries:
       Occupied  (A) (A) (A) (A) (A) (A) (A) (A) (A) (A) (A) (A)
                 (A) (A) (A) (A) (A) (A) (A) (A) (A) (A) (A) (A)
                 (A) (A) (A) (A) (A) (A) (A) (A) (A) (A) (A) (A)
                 (A) (A) (A) (A) (A) (A) (A) (A) (A) (A) (A) (A)
                 (A) (A) (A) (A) (A) (A) (A) (A) (A) (A) (A) (A)
                 (A) (A) (A) (A) (A) (A) (A) (A) (A) (A) (A) (A)
                 (A) (A) (A) (A) (A) (A) (A) (A) (A) (A) (A) (A)
                 (A) (A) (A) (A) (A) (A) (A) (A) (A) (A) (A) (A)
                 (A) (A) (A) (A) (A) (A) (A) (A) (A) (A) (A) (A)
                 (A) (A) (A) (A) (A) (A) (A) (A) (A) (A) (A) (A)
                 (A) (A) (A) (A) (A) (A) (A) (A) (A) (A) (A) (A)
                 (A) (A) (A) (A) (A) (A) (A) (A) (A) (A) (A) (A)
                 (A) (A) (A) (A) (A) (A) (A) (A) (A) (A) (A) (A)
                 (A) (A) (A) (A) (A) (A) (A) (A) (A) (A) (A) (A)
                 (A) (A) (A) (A) (A) (A) (A) (A)
       Virtual   (A) (A) (A) (A) (A) (A) (A) (A) (A) (A) (A) (A)
                 (A) (A) (A) (A) (A) (A) (A) (A) (A) (A) (A) (A)
                 (A) (A) (A) (A) (A) (A) (A) (A) (A) (A) (A) (A)
                 (A) (A) (A) (A) (A) (A) (A) (A) (A) (A) (A) (A)
                 (A) (A) (A) (A) (A) (A) (A) (A) (A) (A) (A) (A)
                 (A) (A) (A) (A) (A) (A) (A) (A) (A) (A) (A) (A)
                 (A) (A) (A) (A) (A) (A) (A) (A) (A) (A) (A) (A)
                 (A) (A) (A) (A) (A) (A) (A) (A) (A) (A) (A) (A)
                 (A) (A) (A) (A) (A) (A) (A) (A) (A) (A) (A) (A)
                 (A) (A) (A) (A) (A) (A) (A) (A) (A) (A) (A) (A)
                 (A) (A) (A) (A) (A) (A) (A) (A) (A) (A) (A) (A)
                 (A) (A) (A) (A) (A) (A) (A) (A) (A) (A) (A) (A)
                 (A) (A) (A) (A) (A) (A) (A) (A) (A) (A) (A) (A)
                 (A) (A) (A) (A) (A) (A)
 The electronic state is 1-A.
 Alpha  occ. eigenvalues --   -1.87399  -1.83868  -1.80677  -1.73676  -1.72740
 Alpha  occ. eigenvalues --   -1.71425  -1.66255  -1.61019  -1.59657  -1.59264
 Alpha  occ. eigenvalues --   -1.55550  -1.50744  -1.48573  -1.47728  -1.46638
 Alpha  occ. eigenvalues --   -1.44935  -1.44116  -1.41371  -1.38439  -1.38056
 Alpha  occ. eigenvalues --   -1.37283  -1.34865  -1.32344  -1.31363  -1.28491
 Alpha  occ. eigenvalues --   -1.27329  -1.24894  -1.21786  -1.20330  -1.19075
 Alpha  occ. eigenvalues --   -1.17447  -1.16065  -1.15016  -1.14233  -1.13388
 Alpha  occ. eigenvalues --   -1.12372  -1.10876  -1.10588  -1.05087  -1.04584
 Alpha  occ. eigenvalues --   -1.02756  -1.01608  -0.98513  -0.98017  -0.97119
 Alpha  occ. eigenvalues --   -0.97028  -0.95352  -0.93518  -0.92958  -0.92000
 Alpha  occ. eigenvalues --   -0.91664  -0.90274  -0.89638  -0.87412  -0.87087
 Alpha  occ. eigenvalues --   -0.85872  -0.83448  -0.82782  -0.81408  -0.80806
 Alpha  occ. eigenvalues --   -0.79970  -0.79218  -0.78531  -0.78027  -0.76586
 Alpha  occ. eigenvalues --   -0.76218  -0.76043  -0.75686  -0.73886  -0.73857
 Alpha  occ. eigenvalues --   -0.73415  -0.72754  -0.71955  -0.71005  -0.70707
 Alpha  occ. eigenvalues --   -0.69786  -0.69539  -0.68847  -0.68489  -0.67567
 Alpha  occ. eigenvalues --   -0.66856  -0.66694  -0.66334  -0.65931  -0.65582
 Alpha  occ. eigenvalues --   -0.65396  -0.65255  -0.64695  -0.64422  -0.63961
 Alpha  occ. eigenvalues --   -0.63905  -0.63349  -0.63238  -0.62862  -0.61938
 Alpha  occ. eigenvalues --   -0.61902  -0.61195  -0.60223  -0.59859  -0.59695
 Alpha  occ. eigenvalues --   -0.59102  -0.58943  -0.58858  -0.58091  -0.57596
 Alpha  occ. eigenvalues --   -0.57411  -0.57075  -0.56831  -0.56258  -0.56067
 Alpha  occ. eigenvalues --   -0.55902  -0.55412  -0.55322  -0.54737  -0.54685
 Alpha  occ. eigenvalues --   -0.54314  -0.54003  -0.53781  -0.53493  -0.53060
 Alpha  occ. eigenvalues --   -0.52386  -0.52258  -0.52176  -0.51850  -0.51502
 Alpha  occ. eigenvalues --   -0.51209  -0.50694  -0.50350  -0.50262  -0.49931
 Alpha  occ. eigenvalues --   -0.49830  -0.49603  -0.49403  -0.49093  -0.48908
 Alpha  occ. eigenvalues --   -0.48747  -0.48534  -0.48331  -0.48107  -0.47423
 Alpha  occ. eigenvalues --   -0.47085  -0.46916  -0.46659  -0.46466  -0.46424
 Alpha  occ. eigenvalues --   -0.46160  -0.45859  -0.45815  -0.45290  -0.45234
 Alpha  occ. eigenvalues --   -0.45092  -0.44836  -0.44770  -0.44570  -0.44113
 Alpha  occ. eigenvalues --   -0.43541  -0.43506  -0.42493  -0.42247  -0.42037
 Alpha  occ. eigenvalues --   -0.41840  -0.41630  -0.41186  -0.39013  -0.38681
 Alpha  occ. eigenvalues --   -0.38025  -0.37142  -0.35466  -0.34845  -0.34342
 Alpha  occ. eigenvalues --   -0.33729  -0.32362  -0.31922  -0.31399  -0.26248
 Alpha  occ. eigenvalues --   -0.22067
 Alpha virt. eigenvalues --   -0.08556  -0.01716  -0.00333   0.01714   0.01881
 Alpha virt. eigenvalues --    0.02365   0.02951   0.03295   0.04282   0.04777
 Alpha virt. eigenvalues --    0.06543   0.06684   0.07633   0.07645   0.07999
 Alpha virt. eigenvalues --    0.08365   0.08684   0.08890   0.09453   0.09741
 Alpha virt. eigenvalues --    0.09771   0.10163   0.10212   0.10255   0.10686
 Alpha virt. eigenvalues --    0.10874   0.11376   0.11536   0.11852   0.12557
 Alpha virt. eigenvalues --    0.12607   0.12973   0.13074   0.13248   0.13383
 Alpha virt. eigenvalues --    0.13662   0.14084   0.14103   0.14269   0.14507
 Alpha virt. eigenvalues --    0.15350   0.15475   0.15718   0.15725   0.15740
 Alpha virt. eigenvalues --    0.15878   0.16248   0.16525   0.16994   0.17185
 Alpha virt. eigenvalues --    0.17342   0.17623   0.17689   0.17744   0.17983
 Alpha virt. eigenvalues --    0.18655   0.18974   0.19023   0.19221   0.19327
 Alpha virt. eigenvalues --    0.19672   0.19859   0.19948   0.20652   0.21257
 Alpha virt. eigenvalues --    0.22199   0.22598   0.22718   0.23007   0.23399
 Alpha virt. eigenvalues --    0.23596   0.23676   0.23841   0.24034   0.24140
 Alpha virt. eigenvalues --    0.24345   0.24370   0.24581   0.24606   0.24640
 Alpha virt. eigenvalues --    0.24693   0.24929   0.24994   0.25004   0.25080
 Alpha virt. eigenvalues --    0.25097   0.25122   0.25225   0.25329   0.25527
 Alpha virt. eigenvalues --    0.25585   0.25832   0.25896   0.25936   0.25939
 Alpha virt. eigenvalues --    0.26029   0.26093   0.26107   0.26203   0.26245
 Alpha virt. eigenvalues --    0.26290   0.26297   0.26359   0.26441   0.26467
 Alpha virt. eigenvalues --    0.26525   0.26575   0.26690   0.26814   0.26824
 Alpha virt. eigenvalues --    0.26853   0.27149   0.27241   0.27494   0.27841
 Alpha virt. eigenvalues --    0.27876   0.28064   0.28079   0.29216   0.29965
 Alpha virt. eigenvalues --    0.30060   0.30515   0.30793   0.31164   0.31401
 Alpha virt. eigenvalues --    0.31500   0.32405   0.32533   0.33694   0.34849
 Alpha virt. eigenvalues --    0.35127   0.35284   0.35427   0.35805   0.35980
 Alpha virt. eigenvalues --    0.36110   0.36357   0.36382   0.37413   0.37775
 Alpha virt. eigenvalues --    0.39464   0.39742   0.40444   0.41262   0.41422
 Alpha virt. eigenvalues --    0.41572   0.41662   0.41762   0.42105   0.42430
 Alpha virt. eigenvalues --    0.43702   0.45197   0.45438   0.46147   0.47734
 Alpha virt. eigenvalues --    0.47958   0.48044   0.48527   0.51116   0.53368
 Alpha virt. eigenvalues --    0.55989   0.56302
          Condensed to atoms (all electrons):
 Mulliken charges:
               1
     1  Mg   0.438796
     2  C   -0.064412
     3  C   -0.054459
     4  C   -0.050469
     5  C   -0.102665
     6  N   -0.285094
     7  C    0.170513
     8  C    0.003389
     9  C   -0.001220
    10  C    0.062587
    11  C   -0.058098
    12  C   -0.018847
    13  C    0.007924
    14  C    0.472447
    15  O   -0.519979
    16  O   -0.254766
    17  N   -0.282092
    18  C    0.061349
    19  C   -0.006420
    20  C   -0.081673
    21  C    0.124224
    22  C   -0.043524
    23  C    0.334334
    24  O   -0.521079
    25  C   -0.029930
    26  N   -0.263229
    27  C    0.086311
    28  C    0.004442
    29  C    0.006387
    30  C    0.191316
    31  C   -0.045310
    32  C   -0.035223
    33  C   -0.058892
    34  N   -0.335000
    35  C    0.112914
    36  C    0.072529
    37  C   -0.041465
    38  C    0.156146
    39  C   -0.036530
    40  C    0.338317
    41  O   -0.518690
    42  C    0.053058
    43  C    0.495942
    44  O   -0.505552
    45  O   -0.295528
    46  C    0.072177
    47  C    0.095477
    48  C   -0.118412
    49  C    0.026022
    50  C   -0.042766
    51  C   -0.019332
    52  C   -0.027161
    53  C   -0.027601
    54  C   -0.019402
    55  C   -0.063771
    56  C   -0.032739
    57  C   -0.037485
    58  C   -0.037374
    59  C   -0.019558
    60  C   -0.073240
    61  C   -0.032975
    62  C   -0.053093
    63  C   -0.024614
    64  C   -0.008766
    65  C   -0.066210
    66  C   -0.061355
    67  H    0.025582
    68  H    0.041858
    69  H    0.028211
    70  H    0.034650
    71  H    0.015707
    72  H    0.030279
    73  H    0.014658
    74  H    0.031080
    75  H    0.024517
    76  H    0.031970
    77  H    0.028660
    78  H    0.042362
    79  H    0.023296
    80  H    0.019423
    81  H    0.017905
    82  H    0.039447
    83  H    0.029801
    84  H    0.030294
    85  H    0.026274
    86  H    0.034887
    87  H    0.028774
    88  H    0.015284
    89  H    0.023930
    90  H    0.015912
    91  H    0.016589
    92  H    0.023749
    93  H    0.027672
    94  H    0.028533
    95  H    0.023831
    96  H    0.040791
    97  H    0.046296
    98  H    0.056790
    99  H    0.049919
   100  H    0.040011
   101  H    0.034046
   102  H    0.054830
   103  H    0.039933
   104  H    0.029097
   105  H    0.027070
   106  H    0.030218
   107  H    0.021731
   108  H    0.012946
   109  H    0.015125
   110  H    0.008208
   111  H    0.034101
   112  H    0.031879
   113  H    0.021735
   114  H    0.026465
   115  H    0.016626
   116  H    0.012823
   117  H    0.013874
   118  H    0.019518
   119  H    0.018007
   120  H    0.019355
   121  H    0.026112
   122  H    0.010376
   123  H    0.018678
   124  H    0.018466
   125  H    0.019216
   126  H    0.020953
   127  H    0.016687
   128  H    0.020338
   129  H    0.022714
   130  H    0.016408
   131  H    0.021760
   132  H    0.028534
   133  H    0.024901
   134  H    0.024783
   135  H    0.016077
   136  H    0.003027
   137  H    0.023105
   138  H    0.020272
   139  H    0.011957
   140  H    0.028502
 Sum of Mulliken charges =  -0.00000
 Mulliken charges with hydrogens summed into heavy atoms:
               1
     1  Mg   0.438796
     2  C   -0.064412
     3  C   -0.028877
     4  C   -0.008612
     5  C   -0.074454
     6  N   -0.285094
     7  C    0.170513
     8  C    0.038039
     9  C    0.014488
    10  C    0.062587
    11  C    0.017919
    12  C    0.037641
    13  C    0.078946
    14  C    0.472447
    15  O   -0.519979
    16  O   -0.254766
    17  N   -0.282092
    18  C    0.061349
    19  C   -0.006420
    20  C   -0.081673
    21  C    0.124224
    22  C    0.017100
    23  C    0.334334
    24  O   -0.521079
    25  C    0.069612
    26  N   -0.263229
    27  C    0.086311
    28  C    0.030716
    29  C    0.041273
    30  C    0.191316
    31  C    0.022678
    32  C   -0.002722
    33  C    0.021062
    34  N   -0.335000
    35  C    0.112914
    36  C    0.072529
    37  C   -0.041465
    38  C    0.156146
    39  C    0.074388
    40  C    0.338317
    41  O   -0.518690
    42  C    0.109848
    43  C    0.495942
    44  O   -0.505552
    45  O   -0.295528
    46  C    0.196153
    47  C    0.190241
    48  C   -0.089315
    49  C    0.026022
    50  C    0.036253
    51  C    0.008739
    52  C    0.015147
    53  C    0.026013
    54  C    0.007063
    55  C   -0.020447
    56  C    0.004786
    57  C    0.007982
    58  C   -0.008320
    59  C   -0.001092
    60  C   -0.016384
    61  C    0.010077
    62  C   -0.014926
    63  C    0.028822
    64  C    0.016018
    65  C   -0.024001
    66  C   -0.000624
 Charge=              0.0000 electrons
 Dipole moment (field-independent basis, Debye):
    X=             -2.9094    Y=              3.1277    Z=              3.2211  Tot=              5.3501
 N-N= 4.272942746617D+03 E-N= 0.000000000000D+00  KE=-9.220341868727D+03
 Leave Link  601 at Wed May  4 09:12:20 2022, MaxMem=  6710886400 cpu:               0.8 elap:               0.0
 (Enter /sw/apps/gaussian-16.0/g16/l9999.exe)
 1\1\GINC-BP1-COMPUTE067\SP\RZINDO CIS\STO-3G\C55H74Mg1N4O6\OF15641\04-
 May-2022\0\\#p ZINDO=(nstates=5)\\step_151_chromophore_16 ZINDO\\0,1\M
 g,0,40.711,41.113,26.682\C,0,39.836,43.512,29.264\C,0,41.318,38.823,29
 .209\C,0,41.674,39.087,24.429\C,0,40.214,43.701,24.419\N,0,40.617,41.2
 73,29.028\C,0,40.13,42.219,29.798\C,0,40.078,41.804,31.272\C,0,40.764,
 40.417,31.232\C,0,40.94,40.085,29.734\C,0,42.,40.231,32.245\C,0,38.615
 ,41.9,31.873\C,0,38.351,41.274,33.215\C,0,38.025,42.322,34.353\O,0,37.
 083,43.111,34.427\O,0,39.037,42.228,35.223\N,0,41.461,39.256,26.821\C,
 0,41.473,38.417,27.868\C,0,41.983,37.127,27.426\C,0,42.145,37.19,26.01
 3\C,0,41.801,38.583,25.735\C,0,42.249,35.982,28.306\C,0,42.584,36.093,
 25.007\O,0,42.729,36.288,23.822\C,0,42.795,34.677,25.433\N,0,41.08,41.
 462,24.725\C,0,41.363,40.327,23.97\C,0,41.173,40.65,22.469\C,0,40.574,
 42.1,22.47\C,0,40.563,42.398,23.936\C,0,42.357,40.456,21.552\C,0,39.19
 7,42.283,21.766\C,0,37.855,42.217,22.58\N,0,40.169,43.204,26.828\C,0,4
 0.013,44.131,25.808\C,0,39.632,45.399,26.333\C,0,39.583,45.214,27.732\
 C,0,39.84,43.853,27.901\C,0,39.512,46.598,25.524\C,0,39.358,45.878,28.
 961\O,0,39.217,47.057,29.304\C,0,39.485,44.745,30.034\C,0,40.627,45.06
 ,30.895\O,0,41.683,45.394,30.48\O,0,40.265,45.016,32.264\C,0,41.359,45
 .303,33.222\C,0,39.077,43.227,36.323\C,0,38.482,42.555,37.648\C,0,37.6
 36,43.099,38.592\C,0,37.21,44.566,38.766\C,0,37.014,42.231,39.558\C,0,
 37.859,41.638,40.666\C,0,37.441,40.259,41.147\C,0,38.783,39.443,41.405
 \C,0,38.885,38.38,40.296\C,0,38.885,38.742,42.797\C,0,39.076,39.841,43
 .853\C,0,40.274,39.504,44.754\C,0,39.812,38.952,46.145\C,0,41.114,38.8
 95,47.15\C,0,39.034,37.639,46.11\C,0,37.682,37.677,46.823\C,0,36.455,3
 6.929,46.173\C,0,35.158,37.717,46.304\C,0,34.18,37.357,45.148\C,0,34.4
 2,37.446,47.669\H,0,41.444,38.064,29.983\H,0,41.752,38.383,23.597\H,0,
 40.2,44.547,23.729\H,0,40.734,42.457,31.848\H,0,40.043,39.667,31.555\H
 ,0,42.653,39.473,31.812\H,0,41.758,39.807,33.22\H,0,42.382,41.212,32.5
 27\H,0,38.055,41.489,31.032\H,0,38.314,42.945,31.949\H,0,39.214,40.745
 ,33.62\H,0,37.64,40.456,33.105\H,0,43.289,35.674,28.198\H,0,41.67,35.0
 81,28.104\H,0,42.055,36.028,29.377\H,0,43.693,34.594,26.045\H,0,42.86,
 34.06,24.537\H,0,41.962,34.171,25.923\H,0,40.358,40.005,22.14\H,0,41.2
 6,42.797,21.988\H,0,43.236,40.25,22.163\H,0,42.56,41.339,20.946\H,0,42
 .179,39.66,20.829\H,0,39.156,41.491,21.017\H,0,39.165,43.222,21.213\H,
 0,37.404,43.209,22.611\H,0,38.164,41.949,23.591\H,0,37.224,41.476,22.0
 89\H,0,40.012,46.578,24.556\H,0,40.101,47.384,25.996\H,0,38.435,46.746
 ,25.434\H,0,38.579,44.8,30.637\H,0,41.381,46.386,33.343\H,0,42.314,44.
 947,32.836\H,0,41.244,44.732,34.143\H,0,38.481,44.115,36.115\H,0,40.09
 8,43.56,36.506\H,0,38.638,41.476,37.643\H,0,37.4,44.817,39.81\H,0,36.1
 48,44.7,38.559\H,0,37.625,45.322,38.1\H,0,36.541,41.487,38.916\H,0,36.
 047,42.596,39.905\H,0,37.583,42.33,41.461\H,0,38.907,41.865,40.473\H,0
 ,36.826,39.749,40.406\H,0,36.929,40.333,42.107\H,0,39.649,40.096,41.29
 8\H,0,38.724,37.38,40.697\H,0,39.852,38.456,39.799\H,0,38.158,38.453,3
 9.487\H,0,39.646,37.962,42.785\H,0,38.041,38.093,43.029\H,0,38.185,39.
 823,44.481\H,0,39.286,40.855,43.513\H,0,40.87,40.399,44.933\H,0,40.936
 ,38.786,44.27\H,0,39.226,39.775,46.555\H,0,40.868,39.307,48.129\H,0,41
 .983,39.419,46.754\H,0,41.386,37.846,47.269\H,0,39.536,36.885,46.717\H
 ,0,38.943,37.357,45.061\H,0,37.487,38.742,46.951\H,0,38.049,37.34,47.7
 92\H,0,36.309,36.,46.724\H,0,36.649,36.823,45.105\H,0,35.345,38.778,46
 .14\H,0,34.286,36.362,44.715\H,0,34.541,37.997,44.342\H,0,33.108,37.52
 1,45.253\H,0,34.402,38.38,48.231\H,0,35.029,36.773,48.273\H,0,33.459,3
 6.942,47.561\\Version=ES64L-G16RevA.03\State=1-A\HF=-474.4755056\RMSD=
 7.098e-09\PG=C01 [X(C55H74Mg1N4O6)]\\@


 DO YOU KNOW THAT THE LETTERS IN "EPISCOPAL", WHEN
 REARRANGED, SPELL "PEPSI COLA"?
 Job cpu time:       0 days  0 hours  2 minutes 26.4 seconds.
 Elapsed time:       0 days  0 hours  0 minutes  6.4 seconds.
 File lengths (MBytes):  RWF=   1263 Int=      0 D2E=      0 Chk=     38 Scr=      1
 Normal termination of Gaussian 16 at Wed May  4 09:12:20 2022.
