 Entering Gaussian System, Link 0=g16
 Initial command:
 /sw/apps/gaussian-16.0/g16/l1.exe "/tmp/Gau-140054.inp" -scrdir="/tmp/"
 Entering Link 1 = /sw/apps/gaussian-16.0/g16/l1.exe PID=    140055.
  
 Copyright (c) 1988,1990,1992,1993,1995,1998,2003,2009,2016,
            Gaussian, Inc.  All Rights Reserved.
  
 This is part of the Gaussian(R) 16 program.  It is based on
 the Gaussian(R) 09 system (copyright 2009, Gaussian, Inc.),
 the Gaussian(R) 03 system (copyright 2003, Gaussian, Inc.),
 the Gaussian(R) 98 system (copyright 1998, Gaussian, Inc.),
 the Gaussian(R) 94 system (copyright 1995, Gaussian, Inc.),
 the Gaussian 92(TM) system (copyright 1992, Gaussian, Inc.),
 the Gaussian 90(TM) system (copyright 1990, Gaussian, Inc.),
 the Gaussian 88(TM) system (copyright 1988, Gaussian, Inc.),
 the Gaussian 86(TM) system (copyright 1986, Carnegie Mellon
 University), and the Gaussian 82(TM) system (copyright 1983,
 Carnegie Mellon University). Gaussian is a federally registered
 trademark of Gaussian, Inc.
  
 This software contains proprietary and confidential information,
 including trade secrets, belonging to Gaussian, Inc.
  
 This software is provided under written license and may be
 used, copied, transmitted, or stored only in accord with that
 written license.
  
 The following legend is applicable only to US Government
 contracts under FAR:
  
                    RESTRICTED RIGHTS LEGEND
  
 Use, reproduction and disclosure by the US Government is
 subject to restrictions as set forth in subparagraphs (a)
 and (c) of the Commercial Computer Software - Restricted
 Rights clause in FAR 52.227-19.
  
 Gaussian, Inc.
 340 Quinnipiac St., Bldg. 40, Wallingford CT 06492
  
  
 ---------------------------------------------------------------
 Warning -- This program may not be used in any manner that
 competes with the business of Gaussian, Inc. or will provide
 assistance to any competitor of Gaussian, Inc.  The licensee
 of this program is prohibited from giving any competitor of
 Gaussian, Inc. access to this program.  By using this program,
 the user acknowledges that Gaussian, Inc. is engaged in the
 business of creating and licensing software in the field of
 computational chemistry and represents and warrants to the
 licensee that it is not a competitor of Gaussian, Inc. and that
 it will not use this program in any manner prohibited above.
 ---------------------------------------------------------------
  

 Cite this work as:
 Gaussian 16, Revision A.03,
 M. J. Frisch, G. W. Trucks, H. B. Schlegel, G. E. Scuseria, 
 M. A. Robb, J. R. Cheeseman, G. Scalmani, V. Barone, 
 G. A. Petersson, H. Nakatsuji, X. Li, M. Caricato, A. V. Marenich, 
 J. Bloino, B. G. Janesko, R. Gomperts, B. Mennucci, H. P. Hratchian, 
 J. V. Ortiz, A. F. Izmaylov, J. L. Sonnenberg, D. Williams-Young, 
 F. Ding, F. Lipparini, F. Egidi, J. Goings, B. Peng, A. Petrone, 
 T. Henderson, D. Ranasinghe, V. G. Zakrzewski, J. Gao, N. Rega, 
 G. Zheng, W. Liang, M. Hada, M. Ehara, K. Toyota, R. Fukuda, 
 J. Hasegawa, M. Ishida, T. Nakajima, Y. Honda, O. Kitao, H. Nakai, 
 T. Vreven, K. Throssell, J. A. Montgomery, Jr., J. E. Peralta, 
 F. Ogliaro, M. J. Bearpark, J. J. Heyd, E. N. Brothers, K. N. Kudin, 
 V. N. Staroverov, T. A. Keith, R. Kobayashi, J. Normand, 
 K. Raghavachari, A. P. Rendell, J. C. Burant, S. S. Iyengar, 
 J. Tomasi, M. Cossi, J. M. Millam, M. Klene, C. Adamo, R. Cammi, 
 J. W. Ochterski, R. L. Martin, K. Morokuma, O. Farkas, 
 J. B. Foresman, and D. J. Fox, Gaussian, Inc., Wallingford CT, 2016.
 
 ******************************************
 Gaussian 16:  ES64L-G16RevA.03 25-Dec-2016
                30-Apr-2022 
 ******************************************
 %nproc=24
 Will use up to   24 processors via shared memory.
 %mem=75GB
 --------------------------------
 #p wB97XD/Def2SVP td=(nstates=5)
 --------------------------------
 1/38=1,172=1/1;
 2/12=2,17=6,18=5,40=1/2;
 3/5=43,7=101,11=9,25=1,30=1,74=-58/1,2,3,8;
 4//1;
 5/5=2,38=5/2;
 8/6=1,10=1,108=5/1;
 9/41=5,42=1,70=2/14;
 6/7=2,8=2,9=2,10=2/1;
 99/5=1,9=1/99;
 Leave Link    1 at Sat Apr 30 04:08:54 2022, MaxMem= 10066329600 cpu:               1.6 elap:               0.1
 (Enter /sw/apps/gaussian-16.0/g16/l101.exe)
 ---------------------------------------------------
 step_551_chromophore_7 TDDFT with wB97XD functional
 ---------------------------------------------------
 Symbolic Z-matrix:
 Charge =  0 Multiplicity = 1
 Mg                    25.489   -0.251     29.259 
 C                     27.281   -0.449     32.326 
 C                     22.58    -0.102     31.191 
 C                     23.742   -0.497     26.411 
 C                     28.367   -1.118     27.563 
 N                     25.097   -0.297     31.51 
 C                     25.909   -0.311     32.554 
 C                     25.214    0.04      33.87 
 C                     23.725   -0.069     33.486 
 C                     23.793   -0.141     31.941 
 C                     22.992   -1.25      34.121 
 C                     25.65     1.407     34.548 
 C                     24.895    1.946     35.778 
 C                     25.76     2.142     37.09 
 O                     27.027    2.324     37.153 
 O                     25.073    1.745     38.219 
 N                     23.44    -0.19      28.818 
 C                     22.418   -0.135     29.74 
 C                     21.147   -0.11      28.975 
 C                     21.42    -0.39      27.612 
 C                     22.924   -0.331     27.526 
 C                     19.765    0.115     29.641 
 C                     20.507   -0.725     26.454 
 O                     20.98    -0.97      25.306 
 C                     19.016   -0.783     26.654 
 N                     25.977   -0.733     27.276 
 C                     25.117   -0.572     26.236 
 C                     25.808   -0.752     24.832 
 C                     27.33    -0.747     25.303 
 C                     27.214   -0.844     26.801 
 C                     25.372   -2.101     24.147 
 C                     28.142    0.572     24.897 
 C                     29.48     0.271     24.254 
 N                     27.467   -0.706     29.714 
 C                     28.552   -1.118     29.002 
 C                     29.713   -1.345     29.714 
 C                     29.293   -1.005     31.033 
 C                     27.927   -0.669     31.037 
 C                     31.083   -1.775     29.305 
 C                     29.7     -0.868     32.394 
 O                     30.794   -0.944     32.909 
 C                     28.467   -0.461     33.268 
 C                     28.38    -1.259     34.525 
 O                     27.922   -2.33      34.717 
 O                     29.017   -0.597     35.524 
 C                     29.18    -1.398     36.782 
 C                     25.925    1.709     39.425 
 C                     25.139    1.489     40.735 
 C                     25.585    1.397     42.018 
 C                     27.075    1.269     42.348 
 C                     24.62     1.432     43.174 
 C                     24.292    2.843     43.643 
 C                     22.827    3.032     44.147 
 C                     22.764    2.937     45.791 
 C                     21.537    2.171     46.27 
 C                     22.861    4.411     46.284 
 C                     23.255    4.451     47.798 
 C                     22.151    5.174     48.557 
 C                     22.421    6.681     48.837 
 C                     22.746    6.885     50.361 
 C                     21.312    7.672     48.333 
 C                     21.801    9.112     48.009 
 C                     21.145    9.756     46.792 
 C                     22.161    10.028    45.669 
 C                     21.456    11.051    44.736 
 C                     22.611    8.754     44.862 
 H                     21.708   -0.178     31.844 
 H                     23.314   -0.501     25.406 
 H                     29.274   -1.129     26.955 
 H                     25.548   -0.736     34.558 
 H                     23.177    0.846     33.708 
 H                     23.679   -1.929     34.625 
 H                     22.579   -1.777     33.26 
 H                     22.182   -0.875     34.747 
 H                     25.752    2.201     33.808 
 H                     26.624    1.232     35.006 
 H                     24.188    1.136     35.959 
 H                     24.398    2.866     35.471 
 H                     19.875    0.436     30.676 
 H                     19.205   -0.818     29.573 
 H                     19.249    0.953     29.172 
 H                     18.524   -1.312     25.838 
 H                     18.651    0.233     26.809 
 H                     18.823   -1.476     27.473 
 H                     25.614    0.118     24.204 
 H                     27.93    -1.574     24.923 
 H                     24.422   -2.388     24.599 
 H                     26.152   -2.841     24.328 
 H                     25.329   -2.072     23.059 
 H                     28.203    1.242     25.754 
 H                     27.64     1.089     24.079 
 H                     29.477    0.781     23.291 
 H                     29.662   -0.774     24.002 
 H                     30.375    0.641     24.755 
 H                     31.697   -0.916     29.576 
 H                     31.239   -2.097     28.275 
 H                     31.378   -2.515     30.048 
 H                     28.658    0.515     33.715 
 H                     30.075   -1.178     37.364 
 H                     29.367   -2.453     36.582 
 H                     28.338   -1.347     37.472 
 H                     26.525    2.616     39.499 
 H                     26.537    0.814     39.314 
 H                     24.075    1.608     40.53 
 H                     27.386    0.345     41.862 
 H                     27.328    1.261     43.408 
 H                     27.568    2.089     41.826 
 H                     24.94     0.906     44.074 
 H                     23.697    0.902     42.938 
 H                     24.521    3.546     42.843 
 H                     25.007    3.056     44.438 
 H                     22.157    2.257     43.776 
 H                     22.406    3.97      43.785 
 H                     23.57     2.3       46.154 
 H                     20.781    2.194     45.486 
 H                     21.036    2.761     47.037 
 H                     21.75     1.174     46.658 
 H                     21.962    4.984     46.057 
 H                     23.658    4.932     45.753 
 H                     24.245    4.874     47.966 
 H                     23.266    3.466     48.265 
 H                     22.093    4.701     49.537 
 H                     21.112    4.978     48.294 
 H                     23.302    6.985     48.272 
 H                     21.915    7.403     50.841 
 H                     23.64     7.503     50.433 
 H                     22.74     5.974     50.96 
 H                     20.507    7.708     49.067 
 H                     20.826    7.281     47.439 
 H                     22.888    9.067     47.954 
 H                     21.476    9.739     48.839 
 H                     20.716    10.709    47.102 
 H                     20.346    9.154     46.36 
 H                     23.067    10.371    46.17 
 H                     20.366    11.041    44.738 
 H                     21.751    10.861    43.704 
 H                     21.856    12.065    44.774 
 H                     22.021    7.899     45.195 
 H                     23.665    8.582     45.078 
 H                     22.473    8.859     43.786 
 
 ITRead=  0  0  0  0  0  0  0  0  0  0  0  0  0  0  0  0  0  0  0  0
 ITRead=  0  0  0  0  0  0  0  0  0  0  0  0  0  0  0  0  0  0  0  0
 ITRead=  0  0  0  0  0  0  0  0  0  0  0  0  0  0  0  0  0  0  0  0
 ITRead=  0  0  0  0  0  0  0  0  0  0  0  0  0  0  0  0  0  0  0  0
 ITRead=  0  0  0  0  0  0  0  0  0  0  0  0  0  0  0  0  0  0  0  0
 ITRead=  0  0  0  0  0  0  0  0  0  0  0  0  0  0  0  0  0  0  0  0
 ITRead=  0  0  0  0  0  0  0  0  0  0  0  0  0  0  0  0  0  0  0  0
 MicOpt= -1 -1 -1 -1 -1 -1 -1 -1 -1 -1 -1 -1 -1 -1 -1 -1 -1 -1 -1 -1
 MicOpt= -1 -1 -1 -1 -1 -1 -1 -1 -1 -1 -1 -1 -1 -1 -1 -1 -1 -1 -1 -1
 MicOpt= -1 -1 -1 -1 -1 -1 -1 -1 -1 -1 -1 -1 -1 -1 -1 -1 -1 -1 -1 -1
 MicOpt= -1 -1 -1 -1 -1 -1 -1 -1 -1 -1 -1 -1 -1 -1 -1 -1 -1 -1 -1 -1
 MicOpt= -1 -1 -1 -1 -1 -1 -1 -1 -1 -1 -1 -1 -1 -1 -1 -1 -1 -1 -1 -1
 MicOpt= -1 -1 -1 -1 -1 -1 -1 -1 -1 -1 -1 -1 -1 -1 -1 -1 -1 -1 -1 -1
 MicOpt= -1 -1 -1 -1 -1 -1 -1 -1 -1 -1 -1 -1 -1 -1 -1 -1 -1 -1 -1 -1
 NAtoms=    140 NQM=      140 NQMF=       0 NMMI=      0 NMMIF=      0
                NMic=       0 NMicF=      0.
                    Isotopes and Nuclear Properties:
 (Nuclear quadrupole moments (NQMom) in fm**2, nuclear magnetic moments (NMagM)
  in nuclear magnetons)

  Atom         1           2           3           4           5           6           7           8           9          10
 IAtWgt=          24          12          12          12          12          14          12          12          12          12
 AtmWgt=  23.9850450  12.0000000  12.0000000  12.0000000  12.0000000  14.0030740  12.0000000  12.0000000  12.0000000  12.0000000
 NucSpn=           0           0           0           0           0           2           0           0           0           0
 AtZEff=  -0.0000000  -0.0000000  -0.0000000  -0.0000000  -0.0000000  -0.0000000  -0.0000000  -0.0000000  -0.0000000  -0.0000000
 NQMom=    0.0000000   0.0000000   0.0000000   0.0000000   0.0000000   2.0440000   0.0000000   0.0000000   0.0000000   0.0000000
 NMagM=    0.0000000   0.0000000   0.0000000   0.0000000   0.0000000   0.4037610   0.0000000   0.0000000   0.0000000   0.0000000
 AtZNuc=  12.0000000   6.0000000   6.0000000   6.0000000   6.0000000   7.0000000   6.0000000   6.0000000   6.0000000   6.0000000

  Atom        11          12          13          14          15          16          17          18          19          20
 IAtWgt=          12          12          12          12          16          16          14          12          12          12
 AtmWgt=  12.0000000  12.0000000  12.0000000  12.0000000  15.9949146  15.9949146  14.0030740  12.0000000  12.0000000  12.0000000
 NucSpn=           0           0           0           0           0           0           2           0           0           0
 AtZEff=  -0.0000000  -0.0000000  -0.0000000  -0.0000000  -0.0000000  -0.0000000  -0.0000000  -0.0000000  -0.0000000  -0.0000000
 NQMom=    0.0000000   0.0000000   0.0000000   0.0000000   0.0000000   0.0000000   2.0440000   0.0000000   0.0000000   0.0000000
 NMagM=    0.0000000   0.0000000   0.0000000   0.0000000   0.0000000   0.0000000   0.4037610   0.0000000   0.0000000   0.0000000
 AtZNuc=   6.0000000   6.0000000   6.0000000   6.0000000   8.0000000   8.0000000   7.0000000   6.0000000   6.0000000   6.0000000

  Atom        21          22          23          24          25          26          27          28          29          30
 IAtWgt=          12          12          12          16          12          14          12          12          12          12
 AtmWgt=  12.0000000  12.0000000  12.0000000  15.9949146  12.0000000  14.0030740  12.0000000  12.0000000  12.0000000  12.0000000
 NucSpn=           0           0           0           0           0           2           0           0           0           0
 AtZEff=  -0.0000000  -0.0000000  -0.0000000  -0.0000000  -0.0000000  -0.0000000  -0.0000000  -0.0000000  -0.0000000  -0.0000000
 NQMom=    0.0000000   0.0000000   0.0000000   0.0000000   0.0000000   2.0440000   0.0000000   0.0000000   0.0000000   0.0000000
 NMagM=    0.0000000   0.0000000   0.0000000   0.0000000   0.0000000   0.4037610   0.0000000   0.0000000   0.0000000   0.0000000
 AtZNuc=   6.0000000   6.0000000   6.0000000   8.0000000   6.0000000   7.0000000   6.0000000   6.0000000   6.0000000   6.0000000

  Atom        31          32          33          34          35          36          37          38          39          40
 IAtWgt=          12          12          12          14          12          12          12          12          12          12
 AtmWgt=  12.0000000  12.0000000  12.0000000  14.0030740  12.0000000  12.0000000  12.0000000  12.0000000  12.0000000  12.0000000
 NucSpn=           0           0           0           2           0           0           0           0           0           0
 AtZEff=  -0.0000000  -0.0000000  -0.0000000  -0.0000000  -0.0000000  -0.0000000  -0.0000000  -0.0000000  -0.0000000  -0.0000000
 NQMom=    0.0000000   0.0000000   0.0000000   2.0440000   0.0000000   0.0000000   0.0000000   0.0000000   0.0000000   0.0000000
 NMagM=    0.0000000   0.0000000   0.0000000   0.4037610   0.0000000   0.0000000   0.0000000   0.0000000   0.0000000   0.0000000
 AtZNuc=   6.0000000   6.0000000   6.0000000   7.0000000   6.0000000   6.0000000   6.0000000   6.0000000   6.0000000   6.0000000

  Atom        41          42          43          44          45          46          47          48          49          50
 IAtWgt=          16          12          12          16          16          12          12          12          12          12
 AtmWgt=  15.9949146  12.0000000  12.0000000  15.9949146  15.9949146  12.0000000  12.0000000  12.0000000  12.0000000  12.0000000
 NucSpn=           0           0           0           0           0           0           0           0           0           0
 AtZEff=  -0.0000000  -0.0000000  -0.0000000  -0.0000000  -0.0000000  -0.0000000  -0.0000000  -0.0000000  -0.0000000  -0.0000000
 NQMom=    0.0000000   0.0000000   0.0000000   0.0000000   0.0000000   0.0000000   0.0000000   0.0000000   0.0000000   0.0000000
 NMagM=    0.0000000   0.0000000   0.0000000   0.0000000   0.0000000   0.0000000   0.0000000   0.0000000   0.0000000   0.0000000
 AtZNuc=   8.0000000   6.0000000   6.0000000   8.0000000   8.0000000   6.0000000   6.0000000   6.0000000   6.0000000   6.0000000

  Atom        51          52          53          54          55          56          57          58          59          60
 IAtWgt=          12          12          12          12          12          12          12          12          12          12
 AtmWgt=  12.0000000  12.0000000  12.0000000  12.0000000  12.0000000  12.0000000  12.0000000  12.0000000  12.0000000  12.0000000
 NucSpn=           0           0           0           0           0           0           0           0           0           0
 AtZEff=  -0.0000000  -0.0000000  -0.0000000  -0.0000000  -0.0000000  -0.0000000  -0.0000000  -0.0000000  -0.0000000  -0.0000000
 NQMom=    0.0000000   0.0000000   0.0000000   0.0000000   0.0000000   0.0000000   0.0000000   0.0000000   0.0000000   0.0000000
 NMagM=    0.0000000   0.0000000   0.0000000   0.0000000   0.0000000   0.0000000   0.0000000   0.0000000   0.0000000   0.0000000
 AtZNuc=   6.0000000   6.0000000   6.0000000   6.0000000   6.0000000   6.0000000   6.0000000   6.0000000   6.0000000   6.0000000

  Atom        61          62          63          64          65          66          67          68          69          70
 IAtWgt=          12          12          12          12          12          12           1           1           1           1
 AtmWgt=  12.0000000  12.0000000  12.0000000  12.0000000  12.0000000  12.0000000   1.0078250   1.0078250   1.0078250   1.0078250
 NucSpn=           0           0           0           0           0           0           1           1           1           1
 AtZEff=  -0.0000000  -0.0000000  -0.0000000  -0.0000000  -0.0000000  -0.0000000  -0.0000000  -0.0000000  -0.0000000  -0.0000000
 NQMom=    0.0000000   0.0000000   0.0000000   0.0000000   0.0000000   0.0000000   0.0000000   0.0000000   0.0000000   0.0000000
 NMagM=    0.0000000   0.0000000   0.0000000   0.0000000   0.0000000   0.0000000   2.7928460   2.7928460   2.7928460   2.7928460
 AtZNuc=   6.0000000   6.0000000   6.0000000   6.0000000   6.0000000   6.0000000   1.0000000   1.0000000   1.0000000   1.0000000

  Atom        71          72          73          74          75          76          77          78          79          80
 IAtWgt=           1           1           1           1           1           1           1           1           1           1
 AtmWgt=   1.0078250   1.0078250   1.0078250   1.0078250   1.0078250   1.0078250   1.0078250   1.0078250   1.0078250   1.0078250
 NucSpn=           1           1           1           1           1           1           1           1           1           1
 AtZEff=  -0.0000000  -0.0000000  -0.0000000  -0.0000000  -0.0000000  -0.0000000  -0.0000000  -0.0000000  -0.0000000  -0.0000000
 NQMom=    0.0000000   0.0000000   0.0000000   0.0000000   0.0000000   0.0000000   0.0000000   0.0000000   0.0000000   0.0000000
 NMagM=    2.7928460   2.7928460   2.7928460   2.7928460   2.7928460   2.7928460   2.7928460   2.7928460   2.7928460   2.7928460
 AtZNuc=   1.0000000   1.0000000   1.0000000   1.0000000   1.0000000   1.0000000   1.0000000   1.0000000   1.0000000   1.0000000

  Atom        81          82          83          84          85          86          87          88          89          90
 IAtWgt=           1           1           1           1           1           1           1           1           1           1
 AtmWgt=   1.0078250   1.0078250   1.0078250   1.0078250   1.0078250   1.0078250   1.0078250   1.0078250   1.0078250   1.0078250
 NucSpn=           1           1           1           1           1           1           1           1           1           1
 AtZEff=  -0.0000000  -0.0000000  -0.0000000  -0.0000000  -0.0000000  -0.0000000  -0.0000000  -0.0000000  -0.0000000  -0.0000000
 NQMom=    0.0000000   0.0000000   0.0000000   0.0000000   0.0000000   0.0000000   0.0000000   0.0000000   0.0000000   0.0000000
 NMagM=    2.7928460   2.7928460   2.7928460   2.7928460   2.7928460   2.7928460   2.7928460   2.7928460   2.7928460   2.7928460
 AtZNuc=   1.0000000   1.0000000   1.0000000   1.0000000   1.0000000   1.0000000   1.0000000   1.0000000   1.0000000   1.0000000

  Atom        91          92          93          94          95          96          97          98          99         100
 IAtWgt=           1           1           1           1           1           1           1           1           1           1
 AtmWgt=   1.0078250   1.0078250   1.0078250   1.0078250   1.0078250   1.0078250   1.0078250   1.0078250   1.0078250   1.0078250
 NucSpn=           1           1           1           1           1           1           1           1           1           1
 AtZEff=  -0.0000000  -0.0000000  -0.0000000  -0.0000000  -0.0000000  -0.0000000  -0.0000000  -0.0000000  -0.0000000  -0.0000000
 NQMom=    0.0000000   0.0000000   0.0000000   0.0000000   0.0000000   0.0000000   0.0000000   0.0000000   0.0000000   0.0000000
 NMagM=    2.7928460   2.7928460   2.7928460   2.7928460   2.7928460   2.7928460   2.7928460   2.7928460   2.7928460   2.7928460
 AtZNuc=   1.0000000   1.0000000   1.0000000   1.0000000   1.0000000   1.0000000   1.0000000   1.0000000   1.0000000   1.0000000

  Atom       101         102         103         104         105         106         107         108         109         110
 IAtWgt=           1           1           1           1           1           1           1           1           1           1
 AtmWgt=   1.0078250   1.0078250   1.0078250   1.0078250   1.0078250   1.0078250   1.0078250   1.0078250   1.0078250   1.0078250
 NucSpn=           1           1           1           1           1           1           1           1           1           1
 AtZEff=  -0.0000000  -0.0000000  -0.0000000  -0.0000000  -0.0000000  -0.0000000  -0.0000000  -0.0000000  -0.0000000  -0.0000000
 NQMom=    0.0000000   0.0000000   0.0000000   0.0000000   0.0000000   0.0000000   0.0000000   0.0000000   0.0000000   0.0000000
 NMagM=    2.7928460   2.7928460   2.7928460   2.7928460   2.7928460   2.7928460   2.7928460   2.7928460   2.7928460   2.7928460
 AtZNuc=   1.0000000   1.0000000   1.0000000   1.0000000   1.0000000   1.0000000   1.0000000   1.0000000   1.0000000   1.0000000

  Atom       111         112         113         114         115         116         117         118         119         120
 IAtWgt=           1           1           1           1           1           1           1           1           1           1
 AtmWgt=   1.0078250   1.0078250   1.0078250   1.0078250   1.0078250   1.0078250   1.0078250   1.0078250   1.0078250   1.0078250
 NucSpn=           1           1           1           1           1           1           1           1           1           1
 AtZEff=  -0.0000000  -0.0000000  -0.0000000  -0.0000000  -0.0000000  -0.0000000  -0.0000000  -0.0000000  -0.0000000  -0.0000000
 NQMom=    0.0000000   0.0000000   0.0000000   0.0000000   0.0000000   0.0000000   0.0000000   0.0000000   0.0000000   0.0000000
 NMagM=    2.7928460   2.7928460   2.7928460   2.7928460   2.7928460   2.7928460   2.7928460   2.7928460   2.7928460   2.7928460
 AtZNuc=   1.0000000   1.0000000   1.0000000   1.0000000   1.0000000   1.0000000   1.0000000   1.0000000   1.0000000   1.0000000

  Atom       121         122         123         124         125         126         127         128         129         130
 IAtWgt=           1           1           1           1           1           1           1           1           1           1
 AtmWgt=   1.0078250   1.0078250   1.0078250   1.0078250   1.0078250   1.0078250   1.0078250   1.0078250   1.0078250   1.0078250
 NucSpn=           1           1           1           1           1           1           1           1           1           1
 AtZEff=  -0.0000000  -0.0000000  -0.0000000  -0.0000000  -0.0000000  -0.0000000  -0.0000000  -0.0000000  -0.0000000  -0.0000000
 NQMom=    0.0000000   0.0000000   0.0000000   0.0000000   0.0000000   0.0000000   0.0000000   0.0000000   0.0000000   0.0000000
 NMagM=    2.7928460   2.7928460   2.7928460   2.7928460   2.7928460   2.7928460   2.7928460   2.7928460   2.7928460   2.7928460
 AtZNuc=   1.0000000   1.0000000   1.0000000   1.0000000   1.0000000   1.0000000   1.0000000   1.0000000   1.0000000   1.0000000

  Atom       131         132         133         134         135         136         137         138         139         140
 IAtWgt=           1           1           1           1           1           1           1           1           1           1
 AtmWgt=   1.0078250   1.0078250   1.0078250   1.0078250   1.0078250   1.0078250   1.0078250   1.0078250   1.0078250   1.0078250
 NucSpn=           1           1           1           1           1           1           1           1           1           1
 AtZEff=  -0.0000000  -0.0000000  -0.0000000  -0.0000000  -0.0000000  -0.0000000  -0.0000000  -0.0000000  -0.0000000  -0.0000000
 NQMom=    0.0000000   0.0000000   0.0000000   0.0000000   0.0000000   0.0000000   0.0000000   0.0000000   0.0000000   0.0000000
 NMagM=    2.7928460   2.7928460   2.7928460   2.7928460   2.7928460   2.7928460   2.7928460   2.7928460   2.7928460   2.7928460
 AtZNuc=   1.0000000   1.0000000   1.0000000   1.0000000   1.0000000   1.0000000   1.0000000   1.0000000   1.0000000   1.0000000
 Leave Link  101 at Sat Apr 30 04:08:54 2022, MaxMem= 10066329600 cpu:               3.4 elap:               0.2
 (Enter /sw/apps/gaussian-16.0/g16/l202.exe)
 Stoichiometry    C55H74MgN4O6
 Framework group  C1[X(C55H74MgN4O6)]
 Deg. of freedom   414
 Full point group                 C1      NOp   1
 Largest Abelian subgroup         C1      NOp   1
 Largest concise Abelian subgroup C1      NOp   1
                         Standard orientation:                         
 ---------------------------------------------------------------------
 Center     Atomic      Atomic             Coordinates (Angstroms)
 Number     Number       Type             X           Y           Z
 ---------------------------------------------------------------------
      1         12           0        6.279146    0.529430    0.314565
      2          6           0        3.756302   -1.958446   -0.005881
      3          6           0        4.002921    2.749989   -1.136304
      4          6           0        8.753928    2.784555    0.198390
      5          6           0        8.572275   -1.942136    1.052069
      6          7           0        4.142564    0.299950   -0.463340
      7          6           0        3.295640   -0.715935   -0.450144
      8          6           0        1.851015   -0.307415   -0.740406
      9          6           0        2.025412    1.123380   -1.287094
     10          6           0        3.497018    1.433714   -0.919805
     11          6           0        1.723069    1.273117   -2.777544
     12          6           0        0.825574   -0.463344    0.460688
     13          6           0       -0.610996    0.079571    0.338392
     14          6           0       -1.769946   -0.989300    0.487845
     15          8           0       -1.702922   -2.112153    1.101922
     16          8           0       -2.788304   -0.768661   -0.416856
     17          7           0        6.366969    2.540405   -0.272691
     18          6           0        5.340082    3.259209   -0.844020
     19          6           0        5.856093    4.628251   -1.090495
     20          6           0        7.258414    4.640541   -0.880631
     21          6           0        7.540284    3.300791   -0.249352
     22          6           0        4.957251    5.794597   -1.576112
     23          6           0        8.313676    5.671677   -1.212199
     24          8           0        9.533696    5.456251   -0.953738
     25          6           0        7.927324    6.970683   -1.867760
     26          7           0        8.357794    0.441216    0.586963
     27          6           0        9.144573    1.544982    0.685965
     28          6           0       10.613075    1.214807    1.150277
     29          6           0       10.397514   -0.300231    1.593607
     30          6           0        9.019295   -0.606108    1.070328
     31          6           0       11.638985    1.378018   -0.032936
     32          6           0       10.452118   -0.538820    3.176021
     33          6           0       11.348591   -1.693875    3.571594
     34          7           0        6.300104   -1.540249    0.520779
     35          6           0        7.260747   -2.479463    0.742037
     36          6           0        6.845646   -3.795710    0.781769
     37          6           0        5.442454   -3.643592    0.582592
     38          6           0        5.124607   -2.288926    0.375903
     39          6           0        7.572436   -5.079275    1.012678
     40          6           0        4.190221   -4.322833    0.497242
     41          8           0        3.897836   -5.481200    0.698571
     42          6           0        3.058725   -3.290759    0.174203
     43          6           0        2.144329   -3.775640   -0.899666
     44          8           0        2.257741   -3.731435   -2.073911
     45          8           0        1.086540   -4.413153   -0.336927
     46          6           0        0.209068   -5.128548   -1.321298
     47          6           0       -3.772666   -1.869340   -0.451079
     48          6           0       -5.033432   -1.550094   -1.282252
     49          6           0       -6.130471   -2.315084   -1.536742
     50          6           0       -6.174918   -3.805342   -1.186684
     51          6           0       -7.359948   -1.714453   -2.166357
     52          6           0       -8.318315   -1.102687   -1.153569
     53          6           0       -9.066585    0.170198   -1.659352
     54          6           0      -10.573497   -0.220987   -2.199648
     55          6           0      -10.942830    0.548455   -3.461900
     56          6           0      -11.512705    0.013994   -0.979891
     57          6           0      -12.876635   -0.722014   -1.196726
     58          6           0      -13.988211    0.317549   -1.160224
     59          6           0      -14.714832    0.458312    0.208920
     60          6           0      -16.153291   -0.166895    0.110091
     61          6           0      -14.742064    1.906915    0.814547
     62          6           0      -14.851975    1.980623    2.363800
     63          6           0      -14.032602    3.089888    3.015198
     64          6           0      -12.929373    2.527746    3.928572
     65          6           0      -12.508678    3.725093    4.824909
     66          6           0      -11.684553    1.932224    3.171867
     67          1           0        3.292388    3.359922   -1.698170
     68          1           0        9.627207    3.432711    0.300876
     69          1           0        9.275307   -2.622228    1.537512
     70          1           0        1.520660   -1.026436   -1.489373
     71          1           0        1.430931    1.848673   -0.732697
     72          1           0        1.583364    0.306876   -3.261164
     73          1           0        2.640161    1.711090   -3.173449
     74          1           0        0.895389    1.970730   -2.907481
     75          1           0        1.262524   -0.125519    1.400575
     76          1           0        0.601768   -1.527283    0.544416
     77          1           0       -0.611669    0.434677   -0.692437
     78          1           0       -0.707476    0.894745    1.055219
     79          1           0        3.902774    5.527260   -1.521572
     80          1           0        5.251196    6.040917   -2.596718
     81          1           0        5.036218    6.643558   -0.896781
     82          1           0        8.791578    7.469022   -2.306490
     83          1           0        7.388243    7.576042   -1.138076
     84          1           0        7.369557    6.726986   -2.772064
     85          1           0       10.876685    1.818760    2.018995
     86          1           0       11.117113   -1.006004    1.178409
     87          1           0       11.174794    2.046451   -0.758812
     88          1           0       11.833973    0.390358   -0.451586
     89          1           0       12.635149    1.704262    0.263134
     90          1           0        9.438862   -0.609207    3.570264
     91          1           0       10.965608    0.288475    3.666254
     92          1           0       12.072878   -1.289443    4.278221
     93          1           0       11.960682   -2.115426    2.773915
     94          1           0       10.890175   -2.529976    4.100477
     95          1           0        7.122428   -5.449579    1.933919
     96          1           0        8.661802   -5.057541    1.054282
     97          1           0        7.173078   -5.765580    0.266909
     98          1           0        2.343351   -3.282265    0.997024
     99          1           0       -0.274351   -6.031126   -0.947388
    100          1           0        0.776874   -5.571022   -2.139715
    101          1           0       -0.574102   -4.516824   -1.768627
    102          1           0       -4.057570   -2.161824    0.559568
    103          1           0       -3.278738   -2.675597   -0.993181
    104          1           0       -5.039473   -0.485318   -1.515695
    105          1           0       -5.366730   -4.248522   -1.767301
    106          1           0       -7.121130   -4.310671   -1.379032
    107          1           0       -5.891888   -3.873965   -0.136390
    108          1           0       -7.973530   -2.398482   -2.753467
    109          1           0       -7.098492   -0.969201   -2.917866
    110          1           0       -7.776275   -0.893817   -0.232040
    111          1           0       -9.024081   -1.896688   -0.908465
    112          1           0       -8.559994    0.643061   -2.500144
    113          1           0       -9.106736    0.935196   -0.883920
    114          1           0      -10.578582   -1.247555   -2.564760
    115          1           0      -10.332568    1.449292   -3.514746
    116          1           0      -11.928326    0.992203   -3.323072
    117          1           0      -10.937717   -0.050381   -4.373652
    118          1           0      -11.626371    1.071599   -0.741963
    119          1           0      -11.076120   -0.422475   -0.081281
    120          1           0      -13.029031   -1.544018   -0.497914
    121          1           0      -12.978821   -1.152060   -2.193247
    122          1           0      -14.749726   -0.023972   -1.860903
    123          1           0      -13.830858    1.278061   -1.649881
    124          1           0      -14.161386   -0.112766    0.954152
    125          1           0      -16.896240    0.630929    0.138219
    126          1           0      -16.295984   -0.816786    0.972428
    127          1           0      -16.405634   -0.592479   -0.861484
    128          1           0      -15.555681    2.468878    0.355960
    129          1           0      -13.850685    2.461798    0.521525
    130          1           0      -14.625491    0.983754    2.740067
    131          1           0      -15.882566    2.258113    2.584105
    132          1           0      -14.704172    3.695132    3.624315
    133          1           0      -13.546348    3.749480    2.296920
    134          1           0      -13.377103    1.673313    4.437461
    135          1           0      -12.667831    4.721466    4.412458
    136          1           0      -11.441279    3.660113    5.036064
    137          1           0      -12.825487    3.657940    5.866429
    138          1           0      -11.794291    2.127432    2.104222
    139          1           0      -11.672427    0.857634    3.351489
    140          1           0      -10.739070    2.365750    3.497383
 ---------------------------------------------------------------------
 Rotational constants (GHZ):           0.0507198           0.0077683           0.0072031
 Leave Link  202 at Sat Apr 30 04:08:54 2022, MaxMem= 10066329600 cpu:               0.2 elap:               0.0
 (Enter /sw/apps/gaussian-16.0/g16/l301.exe)
 Standard basis: def2SVP (5D, 7F)
 Ernie: Thresh=  0.10000D-02 Tol=  0.10000D-05 Strict=F.
 There are  1364 symmetry adapted cartesian basis functions of A   symmetry.
 There are  1298 symmetry adapted basis functions of A   symmetry.
  1298 basis functions,  2180 primitive gaussians,  1364 cartesian basis functions
   246 alpha electrons      246 beta electrons
       nuclear repulsion energy      9258.9642767974 Hartrees.
 IExCor= 4639 DFT=T Ex+Corr=wB97XD ExCW=0 ScaHFX=  1.000000
 ScaDFX=  1.000000  1.000000  1.000000  1.000000 ScalE2=  1.000000  1.000000
 IRadAn=      5 IRanWt=     -1 IRanGd=            0 ICorTp=0 IEmpDi=121
 HFx  wShort=  0.000000 wLong=  0.200000 cFull=  0.222036 cShort=  0.000000 cLong=  0.777964
 DFx  wShort=  0.000000 wLong=  0.200000 cFull=  0.000000 cShort=  0.000000 cLong=  1.000000
 NAtoms=  140 NActive=  140 NUniq=  140 SFac= 1.00D+00 NAtFMM=   60 NAOKFM=T Big=T
 Integral buffers will be    131072 words long.
 Raffenetti 1 integral format.
 Two-electron integral symmetry is turned on.
 R6Disp:  Grimme-D2 Dispersion energy=       -0.1316150397 Hartrees.
 Nuclear repulsion after empirical dispersion term =     9258.8326617577 Hartrees.
 Leave Link  301 at Sat Apr 30 04:08:54 2022, MaxMem= 10066329600 cpu:               2.4 elap:               0.1
 (Enter /sw/apps/gaussian-16.0/g16/l302.exe)
 NPDir=0 NMtPBC=     1 NCelOv=     1 NCel=       1 NClECP=     1 NCelD=      1
         NCelK=      1 NCelE2=     1 NClLst=     1 CellRange=     0.0.
 One-electron integrals computed using PRISM.
 One-electron integral symmetry used in STVInt
   1 Symmetry operations used in ECPInt.
 ECPInt:  NShTT=  192510 NPrTT=  683786 LenC2=   88302 LenP2D=  196084.
 LDataN:  DoStor=T MaxTD1= 4 Len=   56
 NBasis=  1298 RedAO= T EigKep=  3.26D-04  NBF=  1298
 NBsUse=  1298 1.00D-06 EigRej= -1.00D+00 NBFU=  1298
 Precomputing XC quadrature grid using
 IXCGrd= 4 IRadAn=           5 IRanWt=          -1 IRanGd=           0 AccXCQ= 0.00D+00.
 Generated NRdTot=       0 NPtTot=           0 NUsed=           0 NTot=          32
 NSgBfM=  1030  1023  1029  1030  1030 MxSgAt=   140 MxSgA2=   140.
 Leave Link  302 at Sat Apr 30 04:08:58 2022, MaxMem= 10066329600 cpu:              80.8 elap:               3.4
 (Enter /sw/apps/gaussian-16.0/g16/l303.exe)
 DipDrv:  MaxL=1.
 Leave Link  303 at Sat Apr 30 04:08:58 2022, MaxMem= 10066329600 cpu:               5.9 elap:               0.3
 (Enter /sw/apps/gaussian-16.0/g16/l308.exe)
 Leave Link  308 at Sat Apr 30 04:08:58 2022, MaxMem= 10066329600 cpu:               8.3 elap:               0.4
 (Enter /sw/apps/gaussian-16.0/g16/l401.exe)
 ExpMin= 3.36D-02 ExpMax= 4.95D+03 ExpMxC= 7.45D+02 IAcc=3 IRadAn=         5 AccDes= 0.00D+00
 Harris functional with IExCor= 4639 and IRadAn=       5 diagonalized for initial guess.
 HarFok:  IExCor= 4639 AccDes= 0.00D+00 IRadAn=         5 IDoV= 1 UseB2=F ITyADJ=14
 ICtDFT=  3500011 ScaDFX=  1.000000  1.000000  1.000000  1.000000
 FoFCou: FMM=F IPFlag=           0 FMFlag=      100000 FMFlg1=        2001
         NFxFlg=           0 DoJE=T BraDBF=F KetDBF=T FulRan=T
         wScrn=  0.000000 ICntrl=       500 IOpCl=  0 I1Cent=   200000004 NGrid=           0
         NMat0=    1 NMatS0=      1 NMatT0=    0 NMatD0=    1 NMtDS0=    0 NMtDT0=    0
 Petite list used in FoFCou.
 Harris En= -2878.02721753246    
 JPrj=0 DoOrth=F DoCkMO=F.
 Leave Link  401 at Sat Apr 30 04:09:04 2022, MaxMem= 10066329600 cpu:             123.5 elap:               5.2
 (Enter /sw/apps/gaussian-16.0/g16/l502.exe)
 Integral symmetry usage will be decided dynamically.
 Closed shell SCF:
 Using DIIS extrapolation, IDIIS=  1040.
 NGot= 10066329600 LenX= 10062561258 LenY= 10060699398
 Requested convergence on RMS density matrix=1.00D-08 within 128 cycles.
 Requested convergence on MAX density matrix=1.00D-06.
 Requested convergence on             energy=1.00D-06.
 No special actions if energy rises.
 Fock matrices will be formed incrementally for  20 cycles.

 Cycle   1  Pass 1  IDiag  1:
 FoFJK:  IHMeth= 1 ICntrl=       0 DoSepK=T KAlg= 0 I1Cent=           0 FoldK=F
 IRaf=         1 NMat=       1 IRICut=       1 DoRegI=T DoRafI=F ISym2E= 0 IDoP0=0 IntGTp=1.
 FoFCou: FMM=T IPFlag=           0 FMFlag=      100000 FMFlg1=        2001
         NFxFlg=           0 DoJE=T BraDBF=F KetDBF=F FulRan=T
         wScrn=  0.000000 ICntrl=       500 IOpCl=  0 I1Cent=           0 NGrid=           0
         NMat0=    1 NMatS0=      1 NMatT0=    0 NMatD0=    1 NMtDS0=    0 NMtDT0=    0
 Symmetry not used in FoFCou.
 FMM levels:  10  Number of levels for PrismC:   9
 E= -3007.16945323969    
 DIIS: error= 2.94D-02 at cycle   1 NSaved=   1.
 NSaved= 1 IEnMin= 1 EnMin= -3007.16945323969     IErMin= 1 ErrMin= 2.94D-02
 ErrMax= 2.94D-02  0.00D+00 EMaxC= 1.00D-01 BMatC= 1.49D+00 BMatP= 1.49D+00
 IDIUse=3 WtCom= 7.06D-01 WtEn= 2.94D-01
 Coeff-Com:  0.100D+01
 Coeff-En:   0.100D+01
 Coeff:      0.100D+01
 Gap=     0.154 Goal=   None    Shift=    0.000
 GapD=    0.154 DampG=1.000 DampE=0.500 DampFc=0.5000 IDamp=-1.
 Damping current iteration by 5.00D-01
 RMSDP=1.51D-03 MaxDP=1.52D-01              OVMax= 2.37D-01

 Cycle   2  Pass 1  IDiag  1:
 RMSU=  7.46D-04    CP:  9.88D-01
 E= -3007.49201421748     Delta-E=       -0.322560977791 Rises=F Damp=T
 DIIS: error= 1.51D-02 at cycle   2 NSaved=   2.
 NSaved= 2 IEnMin= 2 EnMin= -3007.49201421748     IErMin= 2 ErrMin= 1.51D-02
 ErrMax= 1.51D-02  0.00D+00 EMaxC= 1.00D-01 BMatC= 2.89D-01 BMatP= 1.49D+00
 IDIUse=3 WtCom= 8.49D-01 WtEn= 1.51D-01
 Coeff-Com: -0.349D+00 0.135D+01
 Coeff-En:   0.000D+00 0.100D+01
 Coeff:     -0.296D+00 0.130D+01
 Gap=     0.182 Goal=   None    Shift=    0.000
 RMSDP=7.02D-04 MaxDP=8.13D-02 DE=-3.23D-01 OVMax= 1.75D-01

 Cycle   3  Pass 1  IDiag  1:
 RMSU=  6.62D-04    CP:  9.81D-01  1.30D+00
 E= -3007.72975426437     Delta-E=       -0.237740046896 Rises=F Damp=F
 DIIS: error= 1.22D-02 at cycle   3 NSaved=   3.
 NSaved= 3 IEnMin= 3 EnMin= -3007.72975426437     IErMin= 3 ErrMin= 1.22D-02
 ErrMax= 1.22D-02  0.00D+00 EMaxC= 1.00D-01 BMatC= 1.36D-01 BMatP= 2.89D-01
 IDIUse=3 WtCom= 8.78D-01 WtEn= 1.22D-01
 Coeff-Com: -0.306D+00 0.681D+00 0.625D+00
 Coeff-En:   0.000D+00 0.000D+00 0.100D+01
 Coeff:     -0.269D+00 0.598D+00 0.671D+00
 Gap=     0.163 Goal=   None    Shift=    0.000
 RMSDP=4.18D-04 MaxDP=4.00D-02 DE=-2.38D-01 OVMax= 1.27D-01

 Cycle   4  Pass 1  IDiag  1:
 RMSU=  2.17D-04    CP:  9.77D-01  1.59D+00  5.75D-01
 E= -3007.83204543698     Delta-E=       -0.102291172603 Rises=F Damp=F
 DIIS: error= 4.83D-03 at cycle   4 NSaved=   4.
 NSaved= 4 IEnMin= 4 EnMin= -3007.83204543698     IErMin= 4 ErrMin= 4.83D-03
 ErrMax= 4.83D-03  0.00D+00 EMaxC= 1.00D-01 BMatC= 1.92D-02 BMatP= 1.36D-01
 IDIUse=3 WtCom= 9.52D-01 WtEn= 4.83D-02
 Coeff-Com: -0.116D+00 0.233D+00 0.367D+00 0.516D+00
 Coeff-En:   0.000D+00 0.000D+00 0.899D-01 0.910D+00
 Coeff:     -0.110D+00 0.221D+00 0.353D+00 0.535D+00
 Gap=     0.159 Goal=   None    Shift=    0.000
 RMSDP=1.30D-04 MaxDP=1.74D-02 DE=-1.02D-01 OVMax= 3.93D-02

 Cycle   5  Pass 1  IDiag  1:
 RMSU=  6.22D-05    CP:  9.77D-01  1.56D+00  7.02D-01  6.63D-01
 E= -3007.84838061669     Delta-E=       -0.016335179718 Rises=F Damp=F
 DIIS: error= 6.55D-04 at cycle   5 NSaved=   5.
 NSaved= 5 IEnMin= 5 EnMin= -3007.84838061669     IErMin= 5 ErrMin= 6.55D-04
 ErrMax= 6.55D-04  0.00D+00 EMaxC= 1.00D-01 BMatC= 5.15D-04 BMatP= 1.92D-02
 IDIUse=3 WtCom= 9.93D-01 WtEn= 6.55D-03
 Coeff-Com: -0.322D-01 0.615D-01 0.126D+00 0.244D+00 0.601D+00
 Coeff-En:   0.000D+00 0.000D+00 0.000D+00 0.000D+00 0.100D+01
 Coeff:     -0.320D-01 0.611D-01 0.125D+00 0.242D+00 0.603D+00
 Gap=     0.159 Goal=   None    Shift=    0.000
 RMSDP=2.65D-05 MaxDP=4.97D-03 DE=-1.63D-02 OVMax= 5.84D-03

 Cycle   6  Pass 1  IDiag  1:
 RMSU=  2.20D-05    CP:  9.77D-01  1.56D+00  7.03D-01  7.19D-01  8.86D-01
 E= -3007.84880508688     Delta-E=       -0.000424470185 Rises=F Damp=F
 DIIS: error= 2.57D-04 at cycle   6 NSaved=   6.
 NSaved= 6 IEnMin= 6 EnMin= -3007.84880508688     IErMin= 6 ErrMin= 2.57D-04
 ErrMax= 2.57D-04  0.00D+00 EMaxC= 1.00D-01 BMatC= 7.59D-05 BMatP= 5.15D-04
 IDIUse=3 WtCom= 9.97D-01 WtEn= 2.57D-03
 Coeff-Com:  0.939D-02-0.204D-01-0.148D-01 0.510D-02 0.285D+00 0.735D+00
 Coeff-En:   0.000D+00 0.000D+00 0.000D+00 0.000D+00 0.000D+00 0.100D+01
 Coeff:      0.936D-02-0.203D-01-0.147D-01 0.509D-02 0.285D+00 0.736D+00
 Gap=     0.160 Goal=   None    Shift=    0.000
 RMSDP=1.22D-05 MaxDP=1.24D-03 DE=-4.24D-04 OVMax= 4.85D-03

 Cycle   7  Pass 1  IDiag  1:
 RMSU=  8.53D-06    CP:  9.77D-01  1.57D+00  7.08D-01  7.35D-01  9.94D-01
                    CP:  9.54D-01
 E= -3007.84889708363     Delta-E=       -0.000091996755 Rises=F Damp=F
 DIIS: error= 8.59D-05 at cycle   7 NSaved=   7.
 NSaved= 7 IEnMin= 7 EnMin= -3007.84889708363     IErMin= 7 ErrMin= 8.59D-05
 ErrMax= 8.59D-05  0.00D+00 EMaxC= 1.00D-01 BMatC= 8.99D-06 BMatP= 7.59D-05
 IDIUse=1 WtCom= 1.00D+00 WtEn= 0.00D+00
 Coeff-Com:  0.715D-02-0.146D-01-0.179D-01-0.233D-01 0.551D-01 0.311D+00
 Coeff-Com:  0.683D+00
 Coeff:      0.715D-02-0.146D-01-0.179D-01-0.233D-01 0.551D-01 0.311D+00
 Coeff:      0.683D+00
 Gap=     0.160 Goal=   None    Shift=    0.000
 RMSDP=5.22D-06 MaxDP=1.09D-03 DE=-9.20D-05 OVMax= 1.82D-03

 Cycle   8  Pass 1  IDiag  1:
 RMSU=  3.60D-06    CP:  9.77D-01  1.57D+00  7.10D-01  7.40D-01  1.02D+00
                    CP:  1.08D+00  1.07D+00
 E= -3007.84891240788     Delta-E=       -0.000015324242 Rises=F Damp=F
 DIIS: error= 4.00D-05 at cycle   8 NSaved=   8.
 NSaved= 8 IEnMin= 8 EnMin= -3007.84891240788     IErMin= 8 ErrMin= 4.00D-05
 ErrMax= 4.00D-05  0.00D+00 EMaxC= 1.00D-01 BMatC= 1.81D-06 BMatP= 8.99D-06
 IDIUse=1 WtCom= 1.00D+00 WtEn= 0.00D+00
 Coeff-Com:  0.157D-02-0.290D-02-0.552D-02-0.129D-01-0.340D-01-0.378D-02
 Coeff-Com:  0.303D+00 0.755D+00
 Coeff:      0.157D-02-0.290D-02-0.552D-02-0.129D-01-0.340D-01-0.378D-02
 Coeff:      0.303D+00 0.755D+00
 Gap=     0.160 Goal=   None    Shift=    0.000
 RMSDP=3.14D-06 MaxDP=2.51D-04 DE=-1.53D-05 OVMax= 1.70D-03

 Cycle   9  Pass 1  IDiag  1:
 RMSU=  1.83D-06    CP:  9.77D-01  1.57D+00  7.10D-01  7.42D-01  1.04D+00
                    CP:  1.13D+00  1.28D+00  1.19D+00
 E= -3007.84891834363     Delta-E=       -0.000005935752 Rises=F Damp=F
 DIIS: error= 2.02D-05 at cycle   9 NSaved=   9.
 NSaved= 9 IEnMin= 9 EnMin= -3007.84891834363     IErMin= 9 ErrMin= 2.02D-05
 ErrMax= 2.02D-05  0.00D+00 EMaxC= 1.00D-01 BMatC= 4.09D-07 BMatP= 1.81D-06
 IDIUse=1 WtCom= 1.00D+00 WtEn= 0.00D+00
 Coeff-Com: -0.881D-03 0.186D-02 0.178D-02 0.434D-03-0.218D-01-0.594D-01
 Coeff-Com: -0.396D-01 0.255D+00 0.863D+00
 Coeff:     -0.881D-03 0.186D-02 0.178D-02 0.434D-03-0.218D-01-0.594D-01
 Coeff:     -0.396D-01 0.255D+00 0.863D+00
 Gap=     0.160 Goal=   None    Shift=    0.000
 RMSDP=2.18D-06 MaxDP=1.46D-04 DE=-5.94D-06 OVMax= 1.28D-03

 Cycle  10  Pass 1  IDiag  1:
 RMSU=  9.74D-07    CP:  9.77D-01  1.57D+00  7.10D-01  7.42D-01  1.04D+00
                    CP:  1.16D+00  1.40D+00  1.54D+00  1.45D+00
 E= -3007.84892091751     Delta-E=       -0.000002573885 Rises=F Damp=F
 DIIS: error= 1.28D-05 at cycle  10 NSaved=  10.
 NSaved=10 IEnMin=10 EnMin= -3007.84892091751     IErMin=10 ErrMin= 1.28D-05
 ErrMax= 1.28D-05  0.00D+00 EMaxC= 1.00D-01 BMatC= 1.37D-07 BMatP= 4.09D-07
 IDIUse=1 WtCom= 1.00D+00 WtEn= 0.00D+00
 Coeff-Com: -0.942D-03 0.184D-02 0.275D-02 0.498D-02 0.322D-02-0.223D-01
 Coeff-Com: -0.133D+00-0.163D+00 0.308D+00 0.999D+00
 Coeff:     -0.942D-03 0.184D-02 0.275D-02 0.498D-02 0.322D-02-0.223D-01
 Coeff:     -0.133D+00-0.163D+00 0.308D+00 0.999D+00
 Gap=     0.160 Goal=   None    Shift=    0.000
 RMSDP=1.99D-06 MaxDP=1.29D-04 DE=-2.57D-06 OVMax= 1.30D-03

 Cycle  11  Pass 1  IDiag  1:
 RMSU=  5.64D-07    CP:  9.77D-01  1.57D+00  7.10D-01  7.43D-01  1.04D+00
                    CP:  1.18D+00  1.51D+00  1.83D+00  2.06D+00  1.58D+00
 E= -3007.84892239281     Delta-E=       -0.000001475299 Rises=F Damp=F
 DIIS: error= 7.01D-06 at cycle  11 NSaved=  11.
 NSaved=11 IEnMin=11 EnMin= -3007.84892239281     IErMin=11 ErrMin= 7.01D-06
 ErrMax= 7.01D-06  0.00D+00 EMaxC= 1.00D-01 BMatC= 5.86D-08 BMatP= 1.37D-07
 IDIUse=1 WtCom= 1.00D+00 WtEn= 0.00D+00
 Coeff-Com: -0.117D-03 0.196D-03 0.547D-03 0.199D-02 0.744D-02 0.961D-02
 Coeff-Com: -0.450D-01-0.133D+00-0.154D+00 0.428D+00 0.885D+00
 Coeff:     -0.117D-03 0.196D-03 0.547D-03 0.199D-02 0.744D-02 0.961D-02
 Coeff:     -0.450D-01-0.133D+00-0.154D+00 0.428D+00 0.885D+00
 Gap=     0.160 Goal=   None    Shift=    0.000
 RMSDP=1.20D-06 MaxDP=7.67D-05 DE=-1.48D-06 OVMax= 7.64D-04

 Cycle  12  Pass 1  IDiag  1:
 RMSU=  2.99D-07    CP:  9.77D-01  1.57D+00  7.10D-01  7.43D-01  1.04D+00
                    CP:  1.19D+00  1.55D+00  1.99D+00  2.41D+00  2.19D+00
                    CP:  1.48D+00
 E= -3007.84892289958     Delta-E=       -0.000000506769 Rises=F Damp=F
 DIIS: error= 3.64D-06 at cycle  12 NSaved=  12.
 NSaved=12 IEnMin=12 EnMin= -3007.84892289958     IErMin=12 ErrMin= 3.64D-06
 ErrMax= 3.64D-06  0.00D+00 EMaxC= 1.00D-01 BMatC= 1.59D-08 BMatP= 5.86D-08
 IDIUse=1 WtCom= 1.00D+00 WtEn= 0.00D+00
 Coeff-Com:  0.346D-03-0.688D-03-0.981D-03-0.131D-02 0.652D-03 0.130D-01
 Coeff-Com:  0.395D-01 0.334D-01-0.195D+00-0.289D+00 0.275D+00 0.113D+01
 Coeff:      0.346D-03-0.688D-03-0.981D-03-0.131D-02 0.652D-03 0.130D-01
 Coeff:      0.395D-01 0.334D-01-0.195D+00-0.289D+00 0.275D+00 0.113D+01
 Gap=     0.160 Goal=   None    Shift=    0.000
 RMSDP=9.68D-07 MaxDP=6.22D-05 DE=-5.07D-07 OVMax= 6.36D-04

 Cycle  13  Pass 1  IDiag  1:
 RMSU=  1.71D-07    CP:  9.77D-01  1.57D+00  7.10D-01  7.43D-01  1.05D+00
                    CP:  1.19D+00  1.59D+00  2.09D+00  2.69D+00  2.69D+00
                    CP:  2.19D+00  1.55D+00
 E= -3007.84892309506     Delta-E=       -0.000000195485 Rises=F Damp=F
 DIIS: error= 2.08D-06 at cycle  13 NSaved=  13.
 NSaved=13 IEnMin=13 EnMin= -3007.84892309506     IErMin=13 ErrMin= 2.08D-06
 ErrMax= 2.08D-06  0.00D+00 EMaxC= 1.00D-01 BMatC= 4.77D-09 BMatP= 1.59D-08
 IDIUse=1 WtCom= 1.00D+00 WtEn= 0.00D+00
 Coeff-Com:  0.195D-03-0.382D-03-0.614D-03-0.106D-02-0.151D-02 0.396D-02
 Coeff-Com:  0.281D-01 0.494D-01-0.489D-01-0.235D+00-0.991D-01 0.533D+00
 Coeff-Com:  0.771D+00
 Coeff:      0.195D-03-0.382D-03-0.614D-03-0.106D-02-0.151D-02 0.396D-02
 Coeff:      0.281D-01 0.494D-01-0.489D-01-0.235D+00-0.991D-01 0.533D+00
 Coeff:      0.771D+00
 Gap=     0.160 Goal=   None    Shift=    0.000
 RMSDP=3.26D-07 MaxDP=2.25D-05 DE=-1.95D-07 OVMax= 2.07D-04

 Cycle  14  Pass 1  IDiag  1:
 RMSU=  8.06D-08    CP:  9.77D-01  1.57D+00  7.10D-01  7.43D-01  1.05D+00
                    CP:  1.19D+00  1.59D+00  2.11D+00  2.77D+00  2.86D+00
                    CP:  2.46D+00  1.92D+00  1.19D+00
 E= -3007.84892312073     Delta-E=       -0.000000025671 Rises=F Damp=F
 DIIS: error= 9.32D-07 at cycle  14 NSaved=  14.
 NSaved=14 IEnMin=14 EnMin= -3007.84892312073     IErMin=14 ErrMin= 9.32D-07
 ErrMax= 9.32D-07  0.00D+00 EMaxC= 1.00D-01 BMatC= 7.30D-10 BMatP= 4.77D-09
 IDIUse=1 WtCom= 1.00D+00 WtEn= 0.00D+00
 Coeff-Com:  0.635D-05-0.936D-05-0.486D-04-0.138D-03-0.748D-03-0.965D-03
 Coeff-Com:  0.243D-02 0.117D-01 0.199D-01-0.387D-01-0.839D-01-0.358D-02
 Coeff-Com:  0.254D+00 0.841D+00
 Coeff:      0.635D-05-0.936D-05-0.486D-04-0.138D-03-0.748D-03-0.965D-03
 Coeff:      0.243D-02 0.117D-01 0.199D-01-0.387D-01-0.839D-01-0.358D-02
 Coeff:      0.254D+00 0.841D+00
 Gap=     0.160 Goal=   None    Shift=    0.000
 RMSDP=1.24D-07 MaxDP=1.63D-05 DE=-2.57D-08 OVMax= 8.80D-05

 Cycle  15  Pass 1  IDiag  1:
 RMSU=  4.38D-08    CP:  9.77D-01  1.57D+00  7.10D-01  7.43D-01  1.05D+00
                    CP:  1.19D+00  1.60D+00  2.12D+00  2.79D+00  2.92D+00
                    CP:  2.55D+00  2.07D+00  1.46D+00  1.28D+00
 E= -3007.84892312529     Delta-E=       -0.000000004551 Rises=F Damp=F
 DIIS: error= 5.11D-07 at cycle  15 NSaved=  15.
 NSaved=15 IEnMin=15 EnMin= -3007.84892312529     IErMin=15 ErrMin= 5.11D-07
 ErrMax= 5.11D-07  0.00D+00 EMaxC= 1.00D-01 BMatC= 3.71D-10 BMatP= 7.30D-10
 IDIUse=1 WtCom= 1.00D+00 WtEn= 0.00D+00
 Coeff-Com: -0.515D-04 0.102D-03 0.143D-03 0.225D-03-0.961D-05-0.152D-02
 Coeff-Com: -0.665D-02-0.816D-02 0.258D-01 0.411D-01-0.994D-02-0.145D+00
 Coeff-Com: -0.107D+00 0.461D+00 0.750D+00
 Coeff:     -0.515D-04 0.102D-03 0.143D-03 0.225D-03-0.961D-05-0.152D-02
 Coeff:     -0.665D-02-0.816D-02 0.258D-01 0.411D-01-0.994D-02-0.145D+00
 Coeff:     -0.107D+00 0.461D+00 0.750D+00
 Gap=     0.160 Goal=   None    Shift=    0.000
 RMSDP=6.21D-08 MaxDP=4.28D-06 DE=-4.55D-09 OVMax= 3.96D-05

 Cycle  16  Pass 1  IDiag  1:
 RMSU=  2.57D-08    CP:  9.77D-01  1.57D+00  7.10D-01  7.43D-01  1.05D+00
                    CP:  1.19D+00  1.60D+00  2.12D+00  2.80D+00  2.93D+00
                    CP:  2.59D+00  2.14D+00  1.61D+00  1.67D+00  1.30D+00
 E= -3007.84892312693     Delta-E=       -0.000000001648 Rises=F Damp=F
 DIIS: error= 3.87D-07 at cycle  16 NSaved=  16.
 NSaved=16 IEnMin=16 EnMin= -3007.84892312693     IErMin=16 ErrMin= 3.87D-07
 ErrMax= 3.87D-07  0.00D+00 EMaxC= 1.00D-01 BMatC= 8.16D-11 BMatP= 3.71D-10
 IDIUse=1 WtCom= 1.00D+00 WtEn= 0.00D+00
 Coeff-Com: -0.153D-04 0.292D-04 0.476D-04 0.969D-04 0.177D-03-0.343D-04
 Coeff-Com: -0.244D-02-0.578D-02 0.402D-02 0.179D-01 0.225D-01-0.355D-01
 Coeff-Com: -0.114D+00-0.811D-01 0.158D+00 0.104D+01
 Coeff:     -0.153D-04 0.292D-04 0.476D-04 0.969D-04 0.177D-03-0.343D-04
 Coeff:     -0.244D-02-0.578D-02 0.402D-02 0.179D-01 0.225D-01-0.355D-01
 Coeff:     -0.114D+00-0.811D-01 0.158D+00 0.104D+01
 Gap=     0.160 Goal=   None    Shift=    0.000
 RMSDP=4.80D-08 MaxDP=4.73D-06 DE=-1.65D-09 OVMax= 3.45D-05

 Cycle  17  Pass 1  IDiag  1:
 RMSU=  1.38D-08    CP:  9.77D-01  1.57D+00  7.10D-01  7.43D-01  1.05D+00
                    CP:  1.19D+00  1.60D+00  2.12D+00  2.80D+00  2.94D+00
                    CP:  2.61D+00  2.18D+00  1.72D+00  1.96D+00  1.84D+00
                    CP:  1.64D+00
 E= -3007.84892312801     Delta-E=       -0.000000001077 Rises=F Damp=F
 DIIS: error= 2.06D-07 at cycle  17 NSaved=  17.
 NSaved=17 IEnMin=17 EnMin= -3007.84892312801     IErMin=17 ErrMin= 2.06D-07
 ErrMax= 2.06D-07  0.00D+00 EMaxC= 1.00D-01 BMatC= 4.22D-11 BMatP= 8.16D-11
 IDIUse=1 WtCom= 1.00D+00 WtEn= 0.00D+00
 Coeff-Com:  0.164D-04-0.331D-04-0.470D-04-0.617D-04 0.593D-04 0.708D-03
 Coeff-Com:  0.199D-02 0.119D-02-0.871D-02-0.141D-01 0.134D-01 0.530D-01
 Coeff-Com: -0.290D-02-0.213D+00-0.309D+00 0.426D+00 0.105D+01
 Coeff:      0.164D-04-0.331D-04-0.470D-04-0.617D-04 0.593D-04 0.708D-03
 Coeff:      0.199D-02 0.119D-02-0.871D-02-0.141D-01 0.134D-01 0.530D-01
 Coeff:     -0.290D-02-0.213D+00-0.309D+00 0.426D+00 0.105D+01
 Gap=     0.160 Goal=   None    Shift=    0.000
 RMSDP=4.11D-08 MaxDP=2.83D-06 DE=-1.08D-09 OVMax= 2.71D-05

 Cycle  18  Pass 1  IDiag  1:
 RMSU=  7.73D-09    CP:  9.77D-01  1.57D+00  7.10D-01  7.43D-01  1.05D+00
                    CP:  1.19D+00  1.60D+00  2.12D+00  2.80D+00  2.94D+00
                    CP:  2.63D+00  2.21D+00  1.80D+00  2.21D+00  2.30D+00
                    CP:  2.45D+00  1.58D+00
 E= -3007.84892312842     Delta-E=       -0.000000000413 Rises=F Damp=F
 DIIS: error= 1.27D-07 at cycle  18 NSaved=  18.
 NSaved=18 IEnMin=18 EnMin= -3007.84892312842     IErMin=18 ErrMin= 1.27D-07
 ErrMax= 1.27D-07  0.00D+00 EMaxC= 1.00D-01 BMatC= 1.04D-11 BMatP= 4.22D-11
 IDIUse=1 WtCom= 1.00D+00 WtEn= 0.00D+00
 Coeff-Com:  0.131D-04-0.257D-04-0.412D-04-0.653D-04-0.511D-04 0.333D-03
 Coeff-Com:  0.185D-02 0.288D-02-0.491D-02-0.144D-01-0.255D-02 0.397D-01
 Coeff-Com:  0.427D-01-0.514D-01-0.212D+00-0.181D+00 0.420D+00 0.959D+00
 Coeff:      0.131D-04-0.257D-04-0.412D-04-0.653D-04-0.511D-04 0.333D-03
 Coeff:      0.185D-02 0.288D-02-0.491D-02-0.144D-01-0.255D-02 0.397D-01
 Coeff:      0.427D-01-0.514D-01-0.212D+00-0.181D+00 0.420D+00 0.959D+00
 Gap=     0.160 Goal=   None    Shift=    0.000
 RMSDP=2.31D-08 MaxDP=1.51D-06 DE=-4.13D-10 OVMax= 1.65D-05

 Cycle  19  Pass 1  IDiag  1:
 RMSU=  4.43D-09    CP:  9.77D-01  1.57D+00  7.10D-01  7.43D-01  1.05D+00
                    CP:  1.19D+00  1.60D+00  2.12D+00  2.80D+00  2.94D+00
                    CP:  2.63D+00  2.21D+00  1.83D+00  2.33D+00  2.56D+00
                    CP:  2.93D+00  2.17D+00  1.34D+00
 E= -3007.84892312844     Delta-E=       -0.000000000015 Rises=F Damp=F
 DIIS: error= 5.03D-08 at cycle  19 NSaved=  19.
 NSaved=19 IEnMin=19 EnMin= -3007.84892312844     IErMin=19 ErrMin= 5.03D-08
 ErrMax= 5.03D-08  0.00D+00 EMaxC= 1.00D-01 BMatC= 3.00D-12 BMatP= 1.04D-11
 IDIUse=1 WtCom= 1.00D+00 WtEn= 0.00D+00
 Coeff-Com:  0.871D-06-0.150D-05-0.444D-05-0.845D-05-0.331D-04-0.455D-04
 Coeff-Com:  0.190D-03 0.773D-03 0.259D-03-0.228D-02-0.422D-02 0.194D-02
 Coeff-Com:  0.148D-01 0.321D-01-0.145D-01-0.168D+00-0.124D+00 0.386D+00
 Coeff-Com:  0.878D+00
 Coeff:      0.871D-06-0.150D-05-0.444D-05-0.845D-05-0.331D-04-0.455D-04
 Coeff:      0.190D-03 0.773D-03 0.259D-03-0.228D-02-0.422D-02 0.194D-02
 Coeff:      0.148D-01 0.321D-01-0.145D-01-0.168D+00-0.124D+00 0.386D+00
 Coeff:      0.878D+00
 Gap=     0.160 Goal=   None    Shift=    0.000
 RMSDP=1.14D-08 MaxDP=7.87D-07 DE=-1.46D-11 OVMax= 7.30D-06

 Cycle  20  Pass 1  IDiag  1:
 RMSU=  4.60D-09    CP:  9.77D-01  1.57D+00  7.10D-01  7.43D-01  1.05D+00
                    CP:  1.19D+00  1.60D+00  2.12D+00  2.80D+00  2.95D+00
                    CP:  2.64D+00  2.22D+00  1.85D+00  2.39D+00  2.68D+00
                    CP:  3.00D+00  2.43D+00  1.70D+00  1.15D+00
 E= -3007.84892312849     Delta-E=       -0.000000000055 Rises=F Damp=F
 DIIS: error= 1.77D-08 at cycle  20 NSaved=  20.
 NSaved=20 IEnMin=20 EnMin= -3007.84892312849     IErMin=20 ErrMin= 1.77D-08
 ErrMax= 1.77D-08  0.00D+00 EMaxC= 1.00D-01 BMatC= 5.84D-13 BMatP= 3.00D-12
 IDIUse=1 WtCom= 1.00D+00 WtEn= 0.00D+00
 Coeff-Com: -0.270D-05 0.537D-05 0.756D-05 0.121D-04-0.507D-05-0.101D-03
 Coeff-Com: -0.365D-03-0.308D-03 0.137D-02 0.238D-02-0.123D-02-0.827D-02
 Coeff-Com: -0.349D-02 0.284D-01 0.434D-01-0.330D-01-0.159D+00-0.314D-01
 Coeff-Com:  0.414D+00 0.747D+00
 Coeff:     -0.270D-05 0.537D-05 0.756D-05 0.121D-04-0.507D-05-0.101D-03
 Coeff:     -0.365D-03-0.308D-03 0.137D-02 0.238D-02-0.123D-02-0.827D-02
 Coeff:     -0.349D-02 0.284D-01 0.434D-01-0.330D-01-0.159D+00-0.314D-01
 Coeff:      0.414D+00 0.747D+00
 Gap=     0.160 Goal=   None    Shift=    0.000
 RMSDP=2.68D-09 MaxDP=1.71D-07 DE=-5.46D-11 OVMax= 1.76D-06

 SCF Done:  E(RwB97XD) =  -3007.84892313     A.U. after   20 cycles
            NFock= 20  Conv=0.27D-08     -V/T= 2.0110
 KE= 2.975011349893D+03 PE=-2.551039378162D+04 EE= 1.026870084684D+04
 Leave Link  502 at Sat Apr 30 04:15:29 2022, MaxMem= 10066329600 cpu:            8833.7 elap:             385.8
 (Enter /sw/apps/gaussian-16.0/g16/l801.exe)
 DoSCS=F DFT=T ScalE2(SS,OS)=  1.000000  1.000000
 ExpMin= 3.36D-02 ExpMax= 4.95D+03 ExpMxC= 7.45D+02 IAcc=3 IRadAn=         5 AccDes= 0.00D+00
 HarFok:  IExCor=  205 AccDes= 0.00D+00 IRadAn=         5 IDoV=-2 UseB2=F ITyADJ=14
 ICtDFT= 12500011 ScaDFX=  1.000000  1.000000  1.000000  1.000000
 GSVD:  LWork=       -5460 too small for GESVD, short by       25550 words or       25550 for optimal perf.
 Largest valence mixing into a core orbital is  1.44D-04
 Largest core mixing into a valence orbital is  5.54D-05
 Range of M.O.s used for correlation:    71  1298
 NBasis=  1298 NAE=   246 NBE=   246 NFC=    70 NFV=     0
 NROrb=   1228 NOA=   176 NOB=   176 NVA=  1052 NVB=  1052
 Leave Link  801 at Sat Apr 30 04:15:30 2022, MaxMem= 10066329600 cpu:               6.2 elap:               0.3
 (Enter /sw/apps/gaussian-16.0/g16/l914.exe)
 RHF ground state
 Two-electron integrals replicated using symmetry.
 MDV= 10066329600 DFT=T DoStab=F Mixed=T DoRPA=T DoScal=F NonHer=T
 Making orbital integer symmetry assigments:
 Orbital symmetries:
       Occupied  (A) (A) (A) (A) (A) (A) (A) (A) (A) (A) (A) (A)
                 (A) (A) (A) (A) (A) (A) (A) (A) (A) (A) (A) (A)
                 (A) (A) (A) (A) (A) (A) (A) (A) (A) (A) (A) (A)
                 (A) (A) (A) (A) (A) (A) (A) (A) (A) (A) (A) (A)
                 (A) (A) (A) (A) (A) (A) (A) (A) (A) (A) (A) (A)
                 (A) (A) (A) (A) (A) (A) (A) (A) (A) (A) (A) (A)
                 (A) (A) (A) (A) (A) (A) (A) (A) (A) (A) (A) (A)
                 (A) (A) (A) (A) (A) (A) (A) (A) (A) (A) (A) (A)
                 (A) (A) (A) (A) (A) (A) (A) (A) (A) (A) (A) (A)
                 (A) (A) (A) (A) (A) (A) (A) (A) (A) (A) (A) (A)
                 (A) (A) (A) (A) (A) (A) (A) (A) (A) (A) (A) (A)
                 (A) (A) (A) (A) (A) (A) (A) (A) (A) (A) (A) (A)
                 (A) (A) (A) (A) (A) (A) (A) (A) (A) (A) (A) (A)
                 (A) (A) (A) (A) (A) (A) (A) (A) (A) (A) (A) (A)
                 (A) (A) (A) (A) (A) (A) (A) (A) (A) (A) (A) (A)
                 (A) (A) (A) (A) (A) (A) (A) (A) (A) (A) (A) (A)
                 (A) (A) (A) (A) (A) (A) (A) (A) (A) (A) (A) (A)
                 (A) (A) (A) (A) (A) (A) (A) (A) (A) (A) (A) (A)
                 (A) (A) (A) (A) (A) (A) (A) (A) (A) (A) (A) (A)
                 (A) (A) (A) (A) (A) (A) (A) (A) (A) (A) (A) (A)
                 (A) (A) (A) (A) (A) (A)
       Virtual   (A) (A) (A) (A) (A) (A) (A) (A) (A) (A) (A) (A)
                 (A) (A) (A) (A) (A) (A) (A) (A) (A) (A) (A) (A)
                 (A) (A) (A) (A) (A) (A) (A) (A) (A) (A) (A) (A)
                 (A) (A) (A) (A) (A) (A) (A) (A) (A) (A) (A) (A)
                 (A) (A) (A) (A) (A) (A) (A) (A) (A) (A) (A) (A)
                 (A) (A) (A) (A) (A) (A) (A) (A) (A) (A) (A) (A)
                 (A) (A) (A) (A) (A) (A) (A) (A) (A) (A) (A) (A)
                 (A) (A) (A) (A) (A) (A) (A) (A) (A) (A) (A) (A)
                 (A) (A) (A) (A) (A) (A) (A) (A) (A) (A) (A) (A)
                 (A) (A) (A) (A) (A) (A) (A) (A) (A) (A) (A) (A)
                 (A) (A) (A) (A) (A) (A) (A) (A) (A) (A) (A) (A)
                 (A) (A) (A) (A) (A) (A) (A) (A) (A) (A) (A) (A)
                 (A) (A) (A) (A) (A) (A) (A) (A) (A) (A) (A) (A)
                 (A) (A) (A) (A) (A) (A) (A) (A) (A) (A) (A) (A)
                 (A) (A) (A) (A) (A) (A) (A) (A) (A) (A) (A) (A)
                 (A) (A) (A) (A) (A) (A) (A) (A) (A) (A) (A) (A)
                 (A) (A) (A) (A) (A) (A) (A) (A) (A) (A) (A) (A)
                 (A) (A) (A) (A) (A) (A) (A) (A) (A) (A) (A) (A)
                 (A) (A) (A) (A) (A) (A) (A) (A) (A) (A) (A) (A)
                 (A) (A) (A) (A) (A) (A) (A) (A) (A) (A) (A) (A)
                 (A) (A) (A) (A) (A) (A) (A) (A) (A) (A) (A) (A)
                 (A) (A) (A) (A) (A) (A) (A) (A) (A) (A) (A) (A)
                 (A) (A) (A) (A) (A) (A) (A) (A) (A) (A) (A) (A)
                 (A) (A) (A) (A) (A) (A) (A) (A) (A) (A) (A) (A)
                 (A) (A) (A) (A) (A) (A) (A) (A) (A) (A) (A) (A)
                 (A) (A) (A) (A) (A) (A) (A) (A) (A) (A) (A) (A)
                 (A) (A) (A) (A) (A) (A) (A) (A) (A) (A) (A) (A)
                 (A) (A) (A) (A) (A) (A) (A) (A) (A) (A) (A) (A)
                 (A) (A) (A) (A) (A) (A) (A) (A) (A) (A) (A) (A)
                 (A) (A) (A) (A) (A) (A) (A) (A) (A) (A) (A) (A)
                 (A) (A) (A) (A) (A) (A) (A) (A) (A) (A) (A) (A)
                 (A) (A) (A) (A) (A) (A) (A) (A) (A) (A) (A) (A)
                 (A) (A) (A) (A) (A) (A) (A) (A) (A) (A) (A) (A)
                 (A) (A) (A) (A) (A) (A) (A) (A) (A) (A) (A) (A)
                 (A) (A) (A) (A) (A) (A) (A) (A) (A) (A) (A) (A)
                 (A) (A) (A) (A) (A) (A) (A) (A) (A) (A) (A) (A)
                 (A) (A) (A) (A) (A) (A) (A) (A) (A) (A) (A) (A)
                 (A) (A) (A) (A) (A) (A) (A) (A) (A) (A) (A) (A)
                 (A) (A) (A) (A) (A) (A) (A) (A) (A) (A) (A) (A)
                 (A) (A) (A) (A) (A) (A) (A) (A) (A) (A) (A) (A)
                 (A) (A) (A) (A) (A) (A) (A) (A) (A) (A) (A) (A)
                 (A) (A) (A) (A) (A) (A) (A) (A) (A) (A) (A) (A)
                 (A) (A) (A) (A) (A) (A) (A) (A) (A) (A) (A) (A)
                 (A) (A) (A) (A) (A) (A) (A) (A) (A) (A) (A) (A)
                 (A) (A) (A) (A) (A) (A) (A) (A) (A) (A) (A) (A)
                 (A) (A) (A) (A) (A) (A) (A) (A) (A) (A) (A) (A)
                 (A) (A) (A) (A) (A) (A) (A) (A) (A) (A) (A) (A)
                 (A) (A) (A) (A) (A) (A) (A) (A) (A) (A) (A) (A)
                 (A) (A) (A) (A) (A) (A) (A) (A) (A) (A) (A) (A)
                 (A) (A) (A) (A) (A) (A) (A) (A) (A) (A) (A) (A)
                 (A) (A) (A) (A) (A) (A) (A) (A) (A) (A) (A) (A)
                 (A) (A) (A) (A) (A) (A) (A) (A) (A) (A) (A) (A)
                 (A) (A) (A) (A) (A) (A) (A) (A) (A) (A) (A) (A)
                 (A) (A) (A) (A) (A) (A) (A) (A) (A) (A) (A) (A)
                 (A) (A) (A) (A) (A) (A) (A) (A) (A) (A) (A) (A)
                 (A) (A) (A) (A) (A) (A) (A) (A) (A) (A) (A) (A)
                 (A) (A) (A) (A) (A) (A) (A) (A) (A) (A) (A) (A)
                 (A) (A) (A) (A) (A) (A) (A) (A) (A) (A) (A) (A)
                 (A) (A) (A) (A) (A) (A) (A) (A) (A) (A) (A) (A)
                 (A) (A) (A) (A) (A) (A) (A) (A) (A) (A) (A) (A)
                 (A) (A) (A) (A) (A) (A) (A) (A) (A) (A) (A) (A)
                 (A) (A) (A) (A) (A) (A) (A) (A) (A) (A) (A) (A)
                 (A) (A) (A) (A) (A) (A) (A) (A) (A) (A) (A) (A)
                 (A) (A) (A) (A) (A) (A) (A) (A) (A) (A) (A) (A)
                 (A) (A) (A) (A) (A) (A) (A) (A) (A) (A) (A) (A)
                 (A) (A) (A) (A) (A) (A) (A) (A) (A) (A) (A) (A)
                 (A) (A) (A) (A) (A) (A) (A) (A) (A) (A) (A) (A)
                 (A) (A) (A) (A) (A) (A) (A) (A) (A) (A) (A) (A)
                 (A) (A) (A) (A) (A) (A) (A) (A) (A) (A) (A) (A)
                 (A) (A) (A) (A) (A) (A) (A) (A) (A) (A) (A) (A)
                 (A) (A) (A) (A) (A) (A) (A) (A) (A) (A) (A) (A)
                 (A) (A) (A) (A) (A) (A) (A) (A) (A) (A) (A) (A)
                 (A) (A) (A) (A) (A) (A) (A) (A) (A) (A) (A) (A)
                 (A) (A) (A) (A) (A) (A) (A) (A) (A) (A) (A) (A)
                 (A) (A) (A) (A) (A) (A) (A) (A) (A) (A) (A) (A)
                 (A) (A) (A) (A) (A) (A) (A) (A) (A) (A) (A) (A)
                 (A) (A) (A) (A) (A) (A) (A) (A) (A) (A) (A) (A)
                 (A) (A) (A) (A) (A) (A) (A) (A) (A) (A) (A) (A)
                 (A) (A) (A) (A) (A) (A) (A) (A) (A) (A) (A) (A)
                 (A) (A) (A) (A) (A) (A) (A) (A) (A) (A) (A) (A)
                 (A) (A) (A) (A) (A) (A) (A) (A) (A) (A) (A) (A)
                 (A) (A) (A) (A) (A) (A) (A) (A) (A) (A) (A) (A)
                 (A) (A) (A) (A) (A) (A) (A) (A) (A) (A) (A) (A)
                 (A) (A) (A) (A) (A) (A) (A) (A) (A) (A) (A) (A)
                 (A) (A) (A) (A) (A) (A) (A) (A) (A) (A) (A) (A)
                 (A) (A) (A) (A) (A) (A) (A) (A) (A) (A) (A) (A)
                 (A) (A) (A) (A) (A) (A) (A) (A) (A) (A) (A) (A)
                 (A) (A) (A) (A) (A) (A) (A) (A)
    20 initial guesses have been made.
 Convergence on wavefunction:    0.001000000000000
 Davidson Disk Diagonalization:  ConvIn= 1.00D-03 SkipCon=T Conv= 1.00D-03.
 Max sub-space:  2000 roots to seek:    20 dimension of matrix:       370304
 Iteration     1 Dimension    20 NMult     0 NNew     20
 CISAX will form    20 AO SS matrices at one time.
 NMat=    20 NSing=    20 JSym2X= 0.
 FoFJK:  IHMeth= 1 ICntrl=       0 DoSepK=T KAlg= 0 I1Cent=           0 FoldK=F
 IRaf=         1 NMat=      40 IRICut=       1 DoRegI=T DoRafI=F ISym2E= 0 IDoP0=3 IntGTp=3.
 FoFCou: FMM=T IPFlag=           0 FMFlag=      100000 FMFlg1=        2001
         NFxFlg=           0 DoJE=F BraDBF=F KetDBF=F FulRan=T
         wScrn=  0.000000 ICntrl=       500 IOpCl=  0 I1Cent=           0 NGrid=           0
         NMat0=   20 NMatS0=     20 NMatT0=    0 NMatD0=   20 NMtDS0=    0 NMtDT0=    0
 Symmetry not used in FoFCou.
 FMM levels:  10  Number of levels for PrismC:   9
 New state      3 was old state      4
 New state      4 was old state      8
 New state      5 was old state      6
 Excitation Energies [eV] at current iteration:
 Root      1 :     2.218765671460457
 Root      2 :     2.549603650106073
 Root      3 :     3.608862744401569
 Root      4 :     4.027592771628128
 Root      5 :     4.056558960706456
 Root      6 :     4.240194688649733
 Root      7 :     4.310639099139737
 Root      8 :     4.475571564487494
 Root      9 :     4.516118057983601
 Root     10 :     4.698089792167365
 Root     11 :     4.821634992075745
 Root     12 :     4.903360078290210
 Root     13 :     5.054773679806567
 Root     14 :     5.269126329648010
 Root     15 :     5.401473037636368
 Root     16 :     5.448467882563675
 Root     17 :     5.945198258685718
 Root     18 :     6.124107108845266
 Root     19 :     6.646922678787071
 Root     20 :     7.306921448502431
 Iteration     2 Dimension    30 NMult    20 NNew     10
 CISAX will form    10 AO SS matrices at one time.
 NMat=    10 NSing=    10 JSym2X= 0.
 Root      1 not converged, maximum delta is    0.073144915025282
 Root      2 not converged, maximum delta is    0.067552349150138
 Root      3 not converged, maximum delta is    0.076526099244733
 Root      4 not converged, maximum delta is    0.066231630900864
 Root      5 not converged, maximum delta is    0.184328136764609
 Excitation Energies [eV] at current iteration:
 Root      1 :     1.730316217188384   Change is   -0.488449454272073
 Root      2 :     2.094364992397741   Change is   -0.455238657708332
 Root      3 :     3.264144018078643   Change is   -0.344718726322925
 Root      4 :     3.579526965361248   Change is   -0.448065806266880
 Root      5 :     3.646894412997836   Change is   -0.409664547708620
 Iteration     3 Dimension    40 NMult    30 NNew     10
 CISAX will form    10 AO SS matrices at one time.
 NMat=    10 NSing=    10 JSym2X= 0.
 Root      1 not converged, maximum delta is    0.018108384027889
 Root      2 not converged, maximum delta is    0.010126482797517
 Root      3 not converged, maximum delta is    0.014545266577240
 New state      4 was old state      5
 Root      4 not converged, maximum delta is    0.251882100698527
 New state      5 was old state      4
 Root      5 not converged, maximum delta is    0.275303986044044
 Excitation Energies [eV] at current iteration:
 Root      1 :     1.689656264805377   Change is   -0.040659952383006
 Root      2 :     2.071457351715021   Change is   -0.022907640682721
 Root      3 :     3.249286156648802   Change is   -0.014857861429842
 Root      4 :     3.522472788792637   Change is   -0.124421624205199
 Root      5 :     3.554734665641412   Change is   -0.024792299719836
 Iteration     4 Dimension    50 NMult    40 NNew     10
 CISAX will form    10 AO SS matrices at one time.
 NMat=    10 NSing=    10 JSym2X= 0.
 Root      1 not converged, maximum delta is    0.004092033233401
 Root      2 not converged, maximum delta is    0.002594803142758
 Root      3 not converged, maximum delta is    0.005424079072470
 Root      4 not converged, maximum delta is    0.054476732946880
 Root      5 not converged, maximum delta is    0.085235330386044
 Excitation Energies [eV] at current iteration:
 Root      1 :     1.685168308052055   Change is   -0.004487956753322
 Root      2 :     2.068375627971747   Change is   -0.003081723743273
 Root      3 :     3.246431288851950   Change is   -0.002854867796851
 Root      4 :     3.507276268270215   Change is   -0.015196520522421
 Root      5 :     3.541787245276482   Change is   -0.012947420364930
 Iteration     5 Dimension    60 NMult    50 NNew     10
 CISAX will form    10 AO SS matrices at one time.
 NMat=    10 NSing=    10 JSym2X= 0.
 Root      1 not converged, maximum delta is    0.001189329199540
 Root      2 has converged.
 Root      3 not converged, maximum delta is    0.001346059760420
 Root      4 not converged, maximum delta is    0.023270271795185
 Root      5 not converged, maximum delta is    0.026742843014661
 Excitation Energies [eV] at current iteration:
 Root      1 :     1.684767489885459   Change is   -0.000400818166597
 Root      2 :     2.068117885772237   Change is   -0.000257742199510
 Root      3 :     3.246115232177976   Change is   -0.000316056673974
 Root      4 :     3.505036197307598   Change is   -0.002240070962617
 Root      5 :     3.538551631548299   Change is   -0.003235613728183
 Iteration     6 Dimension    68 NMult    60 NNew      8
 CISAX will form     8 AO SS matrices at one time.
 NMat=     8 NSing=     8 JSym2X= 0.
 Root      1 has converged.
 Root      2 has converged.
 Root      3 has converged.
 Root      4 not converged, maximum delta is    0.007509064063931
 Root      5 not converged, maximum delta is    0.042000670975650
 Excitation Energies [eV] at current iteration:
 Root      1 :     1.684730819380196   Change is   -0.000036670505263
 Root      2 :     2.068116806779955   Change is   -0.000001078992281
 Root      3 :     3.246076341654223   Change is   -0.000038890523753
 Root      4 :     3.504661367594678   Change is   -0.000374829712920
 Root      5 :     3.535804578771900   Change is   -0.002747052776399
 Iteration     7 Dimension    72 NMult    68 NNew      4
 CISAX will form     4 AO SS matrices at one time.
 NMat=     4 NSing=     4 JSym2X= 0.
 Root      1 has converged.
 Root      2 has converged.
 Root      3 has converged.
 Root      4 not converged, maximum delta is    0.027979873003833
 Root      5 not converged, maximum delta is    0.268122498548227
 Excitation Energies [eV] at current iteration:
 Root      1 :     1.684730354156660   Change is   -0.000000465223536
 Root      2 :     2.068116612349681   Change is   -0.000000194430274
 Root      3 :     3.246075347471128   Change is   -0.000000994183096
 Root      4 :     3.504600799474554   Change is   -0.000060568120123
 Root      5 :     3.506502586625543   Change is   -0.029301992146357
 Iteration     8 Dimension    76 NMult    72 NNew      4
 CISAX will form     4 AO SS matrices at one time.
 NMat=     4 NSing=     4 JSym2X= 0.
 Root      1 has converged.
 Root      2 has converged.
 Root      3 has converged.
 New state      4 was old state      5
 Root      4 not converged, maximum delta is    0.117565624988382
 New state      5 was old state      4
 Root      5 not converged, maximum delta is    0.030535888288744
 Excitation Energies [eV] at current iteration:
 Root      1 :     1.684730216077207   Change is   -0.000000138079453
 Root      2 :     2.068116119897685   Change is   -0.000000492451996
 Root      3 :     3.246074887577901   Change is   -0.000000459893227
 Root      4 :     3.481650256306971   Change is   -0.024852330318571
 Root      5 :     3.504599070294598   Change is   -0.000001729179957
 Iteration     9 Dimension    80 NMult    76 NNew      4
 CISAX will form     4 AO SS matrices at one time.
 NMat=     4 NSing=     4 JSym2X= 0.
 Root      1 has converged.
 Root      2 has converged.
 Root      3 has converged.
 Root      4 not converged, maximum delta is    0.012224631531390
 Root      5 has converged.
 Excitation Energies [eV] at current iteration:
 Root      1 :     1.684730065407585   Change is   -0.000000150669623
 Root      2 :     2.068114945090709   Change is   -0.000001174806976
 Root      3 :     3.246074569420486   Change is   -0.000000318157415
 Root      4 :     3.477993504317971   Change is   -0.003656751989000
 Root      5 :     3.504597060558635   Change is   -0.000002009735962
 Iteration    10 Dimension    82 NMult    80 NNew      2
 CISAX will form     2 AO SS matrices at one time.
 NMat=     2 NSing=     2 JSym2X= 0.
 Root      1 has converged.
 Root      2 has converged.
 Root      3 has converged.
 Root      4 not converged, maximum delta is    0.003315541977231
 Root      5 has converged.
 Excitation Energies [eV] at current iteration:
 Root      1 :     1.684730065080946   Change is   -0.000000000326638
 Root      2 :     2.068114832827636   Change is   -0.000000112263073
 Root      3 :     3.246074548149691   Change is   -0.000000021270795
 Root      4 :     3.477523101679747   Change is   -0.000470402638224
 Root      5 :     3.504597056853923   Change is   -0.000000003704712
 Iteration    11 Dimension    84 NMult    82 NNew      2
 CISAX will form     2 AO SS matrices at one time.
 NMat=     2 NSing=     2 JSym2X= 0.
 Root      1 has converged.
 Root      2 has converged.
 Root      3 has converged.
 Root      4 not converged, maximum delta is    0.001416489859118
 Root      5 has converged.
 Excitation Energies [eV] at current iteration:
 Root      1 :     1.684730054001891   Change is   -0.000000011079055
 Root      2 :     2.068114663223702   Change is   -0.000000169603934
 Root      3 :     3.246074521350048   Change is   -0.000000026799643
 Root      4 :     3.477454086607845   Change is   -0.000069015071902
 Root      5 :     3.504597056030792   Change is   -0.000000000823131
 Iteration    12 Dimension    86 NMult    84 NNew      2
 CISAX will form     2 AO SS matrices at one time.
 NMat=     2 NSing=     2 JSym2X= 0.
 Root      1 has converged.
 Root      2 has converged.
 Root      3 has converged.
 Root      4 has converged.
 Root      5 has converged.
 Excitation Energies [eV] at current iteration:
 Root      1 :     1.684730017178783   Change is   -0.000000036823109
 Root      2 :     2.068114487412953   Change is   -0.000000175810749
 Root      3 :     3.246074487590405   Change is   -0.000000033759644
 Root      4 :     3.477444077605604   Change is   -0.000010009002241
 Root      5 :     3.504597053553281   Change is   -0.000000002477511
 Convergence achieved on expansion vectors.
 ***********************************************************************
 Excited states from <AA,BB:AA,BB> singles matrix:
 ***********************************************************************
 
 1PDM for each excited state written to RWF  633
 Ground to excited state transition densities written to RWF  633
[...]
 Alpha virt. eigenvalues --    1.22250   1.22496   1.22784   1.23519   1.23972
 Alpha virt. eigenvalues --    1.24350   1.24511   1.24774   1.25326   1.26040
 Alpha virt. eigenvalues --    1.26459   1.26683   1.27112   1.27977   1.28360
 Alpha virt. eigenvalues --    1.28538   1.29000   1.29408   1.30108   1.30614
 Alpha virt. eigenvalues --    1.30811   1.31353   1.31662   1.31853   1.32249
 Alpha virt. eigenvalues --    1.32891   1.33343   1.33688   1.35105   1.35580
 Alpha virt. eigenvalues --    1.35710   1.36052   1.36670   1.37007   1.37539
 Alpha virt. eigenvalues --    1.37965   1.38747   1.38975   1.39160   1.39911
 Alpha virt. eigenvalues --    1.40200   1.40401   1.41118   1.41283   1.41552
 Alpha virt. eigenvalues --    1.41849   1.42297   1.43079   1.43540   1.43993
 Alpha virt. eigenvalues --    1.44553   1.44613   1.44830   1.45071   1.45318
 Alpha virt. eigenvalues --    1.45688   1.45863   1.46331   1.46800   1.46934
 Alpha virt. eigenvalues --    1.47221   1.47286   1.48723   1.49162   1.49524
 Alpha virt. eigenvalues --    1.49559   1.50531   1.51120   1.51496   1.51620
 Alpha virt. eigenvalues --    1.51734   1.52491   1.53048   1.53656   1.54230
 Alpha virt. eigenvalues --    1.54567   1.54655   1.54704   1.55669   1.56277
 Alpha virt. eigenvalues --    1.56618   1.56752   1.57250   1.57735   1.57878
 Alpha virt. eigenvalues --    1.58734   1.58971   1.59549   1.59593   1.60203
 Alpha virt. eigenvalues --    1.60571   1.60726   1.60846   1.60912   1.61173
 Alpha virt. eigenvalues --    1.61224   1.61820   1.62337   1.62390   1.62487
 Alpha virt. eigenvalues --    1.62768   1.62939   1.63129   1.63529   1.64142
 Alpha virt. eigenvalues --    1.64233   1.64388   1.64468   1.64519   1.64708
 Alpha virt. eigenvalues --    1.64860   1.65031   1.66341   1.66480   1.66610
 Alpha virt. eigenvalues --    1.66691   1.67352   1.67580   1.68242   1.68322
 Alpha virt. eigenvalues --    1.68564   1.69123   1.69890   1.70558   1.70589
 Alpha virt. eigenvalues --    1.71278   1.71607   1.71798   1.71934   1.72413
 Alpha virt. eigenvalues --    1.72767   1.73296   1.73827   1.74231   1.74381
 Alpha virt. eigenvalues --    1.74393   1.75043   1.75577   1.77068   1.77332
 Alpha virt. eigenvalues --    1.77553   1.77782   1.78093   1.78346   1.78573
 Alpha virt. eigenvalues --    1.78690   1.79162   1.79327   1.79531   1.79830
 Alpha virt. eigenvalues --    1.79979   1.80089   1.80359   1.80697   1.81220
 Alpha virt. eigenvalues --    1.81239   1.81842   1.82050   1.82420   1.82771
 Alpha virt. eigenvalues --    1.82877   1.83322   1.83397   1.83641   1.83774
 Alpha virt. eigenvalues --    1.83857   1.84168   1.84231   1.84447   1.84466
 Alpha virt. eigenvalues --    1.84807   1.85264   1.85387   1.85448   1.85871
 Alpha virt. eigenvalues --    1.85994   1.86132   1.86334   1.86488   1.86906
 Alpha virt. eigenvalues --    1.87149   1.87253   1.87345   1.87523   1.87623
 Alpha virt. eigenvalues --    1.87740   1.88046   1.88304   1.88422   1.88830
 Alpha virt. eigenvalues --    1.88939   1.89200   1.89305   1.89376   1.89627
 Alpha virt. eigenvalues --    1.89770   1.89887   1.90047   1.90462   1.90568
 Alpha virt. eigenvalues --    1.90882   1.91021   1.91111   1.91409   1.91756
 Alpha virt. eigenvalues --    1.92146   1.92231   1.92432   1.92747   1.92877
 Alpha virt. eigenvalues --    1.93173   1.93732   1.93940   1.94039   1.94257
 Alpha virt. eigenvalues --    1.94588   1.94693   1.94919   1.95100   1.95474
 Alpha virt. eigenvalues --    1.95552   1.95723   1.96030   1.96224   1.96431
 Alpha virt. eigenvalues --    1.96597   1.96644   1.96815   1.97387   1.97554
 Alpha virt. eigenvalues --    1.97611   1.98377   1.98463   1.98753   1.98931
 Alpha virt. eigenvalues --    1.98964   1.99304   1.99551   1.99984   2.00055
 Alpha virt. eigenvalues --    2.00377   2.00645   2.01158   2.01340   2.01500
 Alpha virt. eigenvalues --    2.01847   2.01901   2.02409   2.02638   2.02800
 Alpha virt. eigenvalues --    2.03143   2.03321   2.03494   2.03854   2.03929
 Alpha virt. eigenvalues --    2.03991   2.04462   2.04564   2.04883   2.05058
 Alpha virt. eigenvalues --    2.05221   2.05480   2.05855   2.06211   2.06297
 Alpha virt. eigenvalues --    2.06805   2.07787   2.08117   2.09076   2.09107
 Alpha virt. eigenvalues --    2.09529   2.09763   2.09851   2.10091   2.10277
 Alpha virt. eigenvalues --    2.10570   2.10987   2.11002   2.11618   2.11990
 Alpha virt. eigenvalues --    2.12185   2.12356   2.12684   2.12890   2.13009
 Alpha virt. eigenvalues --    2.13428   2.13799   2.14256   2.14691   2.15078
 Alpha virt. eigenvalues --    2.15132   2.15790   2.16042   2.16626   2.16953
 Alpha virt. eigenvalues --    2.17183   2.17534   2.17696   2.17842   2.18172
 Alpha virt. eigenvalues --    2.18434   2.18691   2.19181   2.19301   2.19703
 Alpha virt. eigenvalues --    2.19972   2.20292   2.20393   2.20843   2.21267
 Alpha virt. eigenvalues --    2.21352   2.21814   2.22442   2.22769   2.22953
 Alpha virt. eigenvalues --    2.23112   2.23389   2.23499   2.23578   2.24233
 Alpha virt. eigenvalues --    2.24682   2.24819   2.25110   2.25487   2.25682
 Alpha virt. eigenvalues --    2.26219   2.26409   2.27731   2.27890   2.27945
 Alpha virt. eigenvalues --    2.28352   2.28998   2.29694   2.30019   2.30434
 Alpha virt. eigenvalues --    2.30696   2.31389   2.31609   2.31986   2.32579
 Alpha virt. eigenvalues --    2.32949   2.32977   2.33363   2.33788   2.33881
 Alpha virt. eigenvalues --    2.34256   2.34917   2.35373   2.35979   2.36301
 Alpha virt. eigenvalues --    2.36739   2.36830   2.37158   2.37737   2.38050
 Alpha virt. eigenvalues --    2.38629   2.38923   2.39282   2.39452   2.40287
 Alpha virt. eigenvalues --    2.40641   2.41013   2.41073   2.41608   2.42200
 Alpha virt. eigenvalues --    2.42235   2.42363   2.42646   2.42832   2.43772
 Alpha virt. eigenvalues --    2.44075   2.44576   2.44747   2.45103   2.45441
 Alpha virt. eigenvalues --    2.45567   2.45882   2.46442   2.46556   2.47126
 Alpha virt. eigenvalues --    2.47257   2.47551   2.47890   2.47959   2.48260
 Alpha virt. eigenvalues --    2.48337   2.48608   2.48912   2.49437   2.49692
 Alpha virt. eigenvalues --    2.50742   2.51254   2.51915   2.52130   2.52336
 Alpha virt. eigenvalues --    2.52978   2.53082   2.54086   2.54108   2.54490
 Alpha virt. eigenvalues --    2.54709   2.55132   2.56447   2.56469   2.57255
 Alpha virt. eigenvalues --    2.57343   2.57736   2.57785   2.57992   2.58359
 Alpha virt. eigenvalues --    2.59085   2.59464   2.59688   2.60454   2.60701
 Alpha virt. eigenvalues --    2.60880   2.61111   2.62071   2.62941   2.63195
 Alpha virt. eigenvalues --    2.63646   2.63948   2.64830   2.64966   2.65022
 Alpha virt. eigenvalues --    2.65470   2.65565   2.65851   2.65950   2.67219
 Alpha virt. eigenvalues --    2.67642   2.67937   2.68025   2.68070   2.69139
 Alpha virt. eigenvalues --    2.69489   2.69795   2.69968   2.70119   2.70973
 Alpha virt. eigenvalues --    2.71308   2.71639   2.72170   2.72564   2.72832
 Alpha virt. eigenvalues --    2.73443   2.73664   2.74093   2.74603   2.74674
 Alpha virt. eigenvalues --    2.75374   2.75905   2.76048   2.76299   2.77188
 Alpha virt. eigenvalues --    2.78001   2.78221   2.78756   2.78818   2.78910
 Alpha virt. eigenvalues --    2.79365   2.79944   2.80661   2.81298   2.81350
 Alpha virt. eigenvalues --    2.81526   2.81724   2.81954   2.81981   2.82448
 Alpha virt. eigenvalues --    2.83227   2.83591   2.83844   2.83899   2.84574
 Alpha virt. eigenvalues --    2.85391   2.85700   2.86964   2.87282   2.87515
 Alpha virt. eigenvalues --    2.88497   2.88612   2.89854   2.90329   2.90600
 Alpha virt. eigenvalues --    2.90931   2.91806   2.92190   2.92687   2.93163
 Alpha virt. eigenvalues --    2.93224   2.94264   2.94469   2.95756   2.95905
 Alpha virt. eigenvalues --    2.96703   2.96973   2.97107   2.97715   2.97928
 Alpha virt. eigenvalues --    2.98171   2.98522   2.98862   2.99271   2.99500
 Alpha virt. eigenvalues --    2.99893   3.00071   3.00171   3.00487   3.01022
 Alpha virt. eigenvalues --    3.01239   3.01536   3.01817   3.01871   3.02016
 Alpha virt. eigenvalues --    3.02789   3.03037   3.03079   3.03644   3.03812
 Alpha virt. eigenvalues --    3.04137   3.04151   3.04411   3.04538   3.04714
 Alpha virt. eigenvalues --    3.05231   3.05344   3.05845   3.05862   3.06194
 Alpha virt. eigenvalues --    3.06335   3.07093   3.07275   3.07528   3.07643
 Alpha virt. eigenvalues --    3.07764   3.08138   3.08529   3.08643   3.09332
 Alpha virt. eigenvalues --    3.09507   3.09837   3.10182   3.10580   3.11038
 Alpha virt. eigenvalues --    3.11225   3.11397   3.11710   3.12512   3.12778
 Alpha virt. eigenvalues --    3.13739   3.14112   3.14754   3.15036   3.16332
 Alpha virt. eigenvalues --    3.17099   3.17289   3.17444   3.17931   3.18191
 Alpha virt. eigenvalues --    3.18925   3.18964   3.19582   3.20042   3.20380
 Alpha virt. eigenvalues --    3.21263   3.21462   3.22013   3.23124   3.25351
 Alpha virt. eigenvalues --    3.26472   3.28355   3.29105   3.30568   3.30763
 Alpha virt. eigenvalues --    3.32390   3.34855   3.43138   3.43847   3.47502
 Alpha virt. eigenvalues --    3.49900   3.51003   3.54926   3.56013   3.57188
 Alpha virt. eigenvalues --    3.59799   3.62719   3.64155   3.67322   3.74144
 Alpha virt. eigenvalues --    3.77606   3.79924
          Condensed to atoms (all electrons):
 Mulliken charges:
               1
     1  Mg   0.963577
     2  C    0.043287
     3  C   -0.090049
     4  C   -0.057960
     5  C   -0.082165
     6  N   -0.310127
     7  C   -0.028524
     8  C   -0.032407
     9  C   -0.151057
    10  C    0.056126
    11  C    0.043113
    12  C   -0.003770
    13  C   -0.026880
    14  C    0.263223
    15  O   -0.307606
    16  O   -0.363508
    17  N   -0.476271
    18  C    0.180219
    19  C   -0.189716
    20  C   -0.054504
    21  C    0.179796
    22  C    0.068284
    23  C    0.046488
    24  O   -0.267424
    25  C    0.007167
    26  N   -0.347402
    27  C    0.000706
    28  C   -0.058075
    29  C   -0.105481
    30  C    0.059157
    31  C    0.022932
    32  C    0.000525
    33  C   -0.069030
    34  N   -0.452085
    35  C    0.123530
    36  C   -0.173756
    37  C   -0.033541
    38  C    0.087384
    39  C    0.108244
    40  C    0.092820
    41  O   -0.200833
    42  C   -0.082638
    43  C    0.201268
    44  O   -0.214999
    45  O   -0.358454
    46  C    0.143227
    47  C    0.241392
    48  C   -0.154653
    49  C   -0.212008
    50  C    0.035493
    51  C    0.040107
    52  C   -0.020705
    53  C    0.009393
    54  C   -0.215453
    55  C    0.018481
    56  C    0.021786
    57  C   -0.001685
    58  C    0.002794
    59  C   -0.188433
    60  C    0.006588
    61  C   -0.003846
    62  C    0.005146
    63  C   -0.014007
    64  C   -0.229473
    65  C    0.004975
    66  C   -0.002813
    67  H    0.007244
    68  H    0.028592
    69  H   -0.008733
    70  H    0.039723
    71  H    0.037710
    72  H    0.054306
    73  H    0.034212
    74  H    0.043882
    75  H    0.033537
    76  H    0.052019
    77  H    0.059813
    78  H    0.071631
    79  H    0.036329
    80  H    0.059796
    81  H    0.052607
    82  H    0.053429
    83  H    0.071845
    84  H    0.045104
    85  H    0.041289
    86  H    0.034897
    87  H    0.058118
    88  H    0.032985
    89  H    0.043604
    90  H    0.046323
    91  H    0.029736
    92  H    0.027941
    93  H    0.029998
    94  H    0.041877
    95  H    0.053779
    96  H    0.043544
    97  H    0.056023
    98  H    0.083299
    99  H    0.049660
   100  H    0.052547
   101  H    0.045960
   102  H    0.071685
   103  H    0.049837
   104  H    0.030435
   105  H    0.052479
   106  H    0.043072
   107  H    0.045412
   108  H    0.012056
   109  H    0.022790
   110  H    0.022447
   111  H    0.020911
   112  H    0.010138
   113  H    0.022928
   114  H    0.018435
   115  H    0.020441
   116  H    0.010834
   117  H    0.042388
   118  H    0.028017
   119  H    0.015411
   120  H    0.027662
   121  H    0.019034
   122  H   -0.011502
   123  H    0.009676
   124  H    0.010972
   125  H    0.014014
   126  H    0.038750
   127  H    0.029432
   128  H    0.013119
   129  H    0.005378
   130  H    0.016477
   131  H    0.021818
   132  H    0.024995
   133  H    0.018945
   134  H    0.025268
   135  H    0.039007
   136  H    0.001149
   137  H    0.026841
   138  H    0.023875
   139  H    0.032504
   140  H    0.032352
 Sum of Mulliken charges =  -0.00000
 Mulliken charges with hydrogens summed into heavy atoms:
               1
     1  Mg   0.963577
     2  C    0.043287
     3  C   -0.082805
     4  C   -0.029368
     5  C   -0.090898
     6  N   -0.310127
     7  C   -0.028524
     8  C    0.007316
     9  C   -0.113347
    10  C    0.056126
    11  C    0.175513
    12  C    0.081787
    13  C    0.104564
    14  C    0.263223
    15  O   -0.307606
    16  O   -0.363508
    17  N   -0.476271
    18  C    0.180219
    19  C   -0.189716
    20  C   -0.054504
    21  C    0.179796
    22  C    0.217016
    23  C    0.046488
    24  O   -0.267424
    25  C    0.177546
    26  N   -0.347402
    27  C    0.000706
    28  C   -0.016786
    29  C   -0.070584
    30  C    0.059157
    31  C    0.157638
    32  C    0.076584
    33  C    0.030786
    34  N   -0.452085
    35  C    0.123530
    36  C   -0.173756
    37  C   -0.033541
    38  C    0.087384
    39  C    0.261590
    40  C    0.092820
    41  O   -0.200833
    42  C    0.000661
    43  C    0.201268
    44  O   -0.214999
    45  O   -0.358454
    46  C    0.291394
    47  C    0.362914
    48  C   -0.124217
    49  C   -0.212008
    50  C    0.176456
    51  C    0.074953
    52  C    0.022653
    53  C    0.042459
    54  C   -0.197018
    55  C    0.092144
    56  C    0.065214
    57  C    0.045010
    58  C    0.000968
    59  C   -0.177461
    60  C    0.088784
    61  C    0.014651
    62  C    0.043442
    63  C    0.029933
    64  C   -0.204205
    65  C    0.071972
    66  C    0.085918
 Electronic spatial extent (au):  <R**2>=         145605.8197
 Charge=             -0.0000 electrons
 Dipole moment (field-independent basis, Debye):
    X=             -2.4130    Y=              5.4362    Z=              0.1557  Tot=              5.9497
 Quadrupole moment (field-independent basis, Debye-Ang):
   XX=           -370.8403   YY=           -406.7475   ZZ=           -400.1932
   XY=              9.3460   XZ=             24.2061   YZ=             -0.5836
 Traceless Quadrupole moment (field-independent basis, Debye-Ang):
   XX=             21.7534   YY=            -14.1538   ZZ=             -7.5995
   XY=              9.3460   XZ=             24.2061   YZ=             -0.5836
 Octapole moment (field-independent basis, Debye-Ang**2):
  XXX=            128.0893  YYY=            146.9726  ZZZ=              9.3751  XYY=           -107.1523
  XXY=           -279.5648  XXZ=            169.2834  XZZ=             38.3394  YZZ=             19.4712
  YYZ=            -97.5991  XYZ=            -64.3619
 Hexadecapole moment (field-independent basis, Debye-Ang**3):
 XXXX=        -169575.0454 YYYY=         -19671.2781 ZZZZ=          -7364.5484 XXXY=          -3147.4334
 XXXZ=           2959.9205 YYYX=            912.5217 YYYZ=            -73.3966 ZZZX=             73.0114
 ZZZY=            -94.0611 XXYY=         -32888.2074 XXZZ=         -29615.4961 YYZZ=          -4498.0652
 XXYZ=           -159.2993 YYXZ=           -166.2938 ZZXY=            315.1851
 N-N= 9.258832661758D+03 E-N=-2.551039378959D+04  KE= 2.975011349893D+03
 Leave Link  601 at Sat Apr 30 04:36:44 2022, MaxMem= 10066329600 cpu:              10.4 elap:               0.5
 (Enter /sw/apps/gaussian-16.0/g16/l9999.exe)
 1\1\GINC-BP1-COMPUTE148\SP\RwB97XD TD-FC\def2SVP\C55H74Mg1N4O6\OF15641
 \30-Apr-2022\0\\#p wB97XD/Def2SVP td=(nstates=5)\\step_551_chromophore
 _7 TDDFT with wB97XD functional\\0,1\Mg,0,25.489,-0.251,29.259\C,0,27.
 281,-0.449,32.326\C,0,22.58,-0.102,31.191\C,0,23.742,-0.497,26.411\C,0
 ,28.367,-1.118,27.563\N,0,25.097,-0.297,31.51\C,0,25.909,-0.311,32.554
 \C,0,25.214,0.04,33.87\C,0,23.725,-0.069,33.486\C,0,23.793,-0.141,31.9
 41\C,0,22.992,-1.25,34.121\C,0,25.65,1.407,34.548\C,0,24.895,1.946,35.
 778\C,0,25.76,2.142,37.09\O,0,27.027,2.324,37.153\O,0,25.073,1.745,38.
 219\N,0,23.44,-0.19,28.818\C,0,22.418,-0.135,29.74\C,0,21.147,-0.11,28
 .975\C,0,21.42,-0.39,27.612\C,0,22.924,-0.331,27.526\C,0,19.765,0.115,
 29.641\C,0,20.507,-0.725,26.454\O,0,20.98,-0.97,25.306\C,0,19.016,-0.7
 83,26.654\N,0,25.977,-0.733,27.276\C,0,25.117,-0.572,26.236\C,0,25.808
 ,-0.752,24.832\C,0,27.33,-0.747,25.303\C,0,27.214,-0.844,26.801\C,0,25
 .372,-2.101,24.147\C,0,28.142,0.572,24.897\C,0,29.48,0.271,24.254\N,0,
 27.467,-0.706,29.714\C,0,28.552,-1.118,29.002\C,0,29.713,-1.345,29.714
 \C,0,29.293,-1.005,31.033\C,0,27.927,-0.669,31.037\C,0,31.083,-1.775,2
 9.305\C,0,29.7,-0.868,32.394\O,0,30.794,-0.944,32.909\C,0,28.467,-0.46
 1,33.268\C,0,28.38,-1.259,34.525\O,0,27.922,-2.33,34.717\O,0,29.017,-0
 .597,35.524\C,0,29.18,-1.398,36.782\C,0,25.925,1.709,39.425\C,0,25.139
 ,1.489,40.735\C,0,25.585,1.397,42.018\C,0,27.075,1.269,42.348\C,0,24.6
 2,1.432,43.174\C,0,24.292,2.843,43.643\C,0,22.827,3.032,44.147\C,0,22.
 764,2.937,45.791\C,0,21.537,2.171,46.27\C,0,22.861,4.411,46.284\C,0,23
 .255,4.451,47.798\C,0,22.151,5.174,48.557\C,0,22.421,6.681,48.837\C,0,
 22.746,6.885,50.361\C,0,21.312,7.672,48.333\C,0,21.801,9.112,48.009\C,
 0,21.145,9.756,46.792\C,0,22.161,10.028,45.669\C,0,21.456,11.051,44.73
 6\C,0,22.611,8.754,44.862\H,0,21.708,-0.178,31.844\H,0,23.314,-0.501,2
 5.406\H,0,29.274,-1.129,26.955\H,0,25.548,-0.736,34.558\H,0,23.177,0.8
 46,33.708\H,0,23.679,-1.929,34.625\H,0,22.579,-1.777,33.26\H,0,22.182,
 -0.875,34.747\H,0,25.752,2.201,33.808\H,0,26.624,1.232,35.006\H,0,24.1
 88,1.136,35.959\H,0,24.398,2.866,35.471\H,0,19.875,0.436,30.676\H,0,19
 .205,-0.818,29.573\H,0,19.249,0.953,29.172\H,0,18.524,-1.312,25.838\H,
 0,18.651,0.233,26.809\H,0,18.823,-1.476,27.473\H,0,25.614,0.118,24.204
 \H,0,27.93,-1.574,24.923\H,0,24.422,-2.388,24.599\H,0,26.152,-2.841,24
 .328\H,0,25.329,-2.072,23.059\H,0,28.203,1.242,25.754\H,0,27.64,1.089,
 24.079\H,0,29.477,0.781,23.291\H,0,29.662,-0.774,24.002\H,0,30.375,0.6
 41,24.755\H,0,31.697,-0.916,29.576\H,0,31.239,-2.097,28.275\H,0,31.378
 ,-2.515,30.048\H,0,28.658,0.515,33.715\H,0,30.075,-1.178,37.364\H,0,29
 .367,-2.453,36.582\H,0,28.338,-1.347,37.472\H,0,26.525,2.616,39.499\H,
 0,26.537,0.814,39.314\H,0,24.075,1.608,40.53\H,0,27.386,0.345,41.862\H
 ,0,27.328,1.261,43.408\H,0,27.568,2.089,41.826\H,0,24.94,0.906,44.074\
 H,0,23.697,0.902,42.938\H,0,24.521,3.546,42.843\H,0,25.007,3.056,44.43
 8\H,0,22.157,2.257,43.776\H,0,22.406,3.97,43.785\H,0,23.57,2.3,46.154\
 H,0,20.781,2.194,45.486\H,0,21.036,2.761,47.037\H,0,21.75,1.174,46.658
 \H,0,21.962,4.984,46.057\H,0,23.658,4.932,45.753\H,0,24.245,4.874,47.9
 66\H,0,23.266,3.466,48.265\H,0,22.093,4.701,49.537\H,0,21.112,4.978,48
 .294\H,0,23.302,6.985,48.272\H,0,21.915,7.403,50.841\H,0,23.64,7.503,5
 0.433\H,0,22.74,5.974,50.96\H,0,20.507,7.708,49.067\H,0,20.826,7.281,4
 7.439\H,0,22.888,9.067,47.954\H,0,21.476,9.739,48.839\H,0,20.716,10.70
 9,47.102\H,0,20.346,9.154,46.36\H,0,23.067,10.371,46.17\H,0,20.366,11.
 041,44.738\H,0,21.751,10.861,43.704\H,0,21.856,12.065,44.774\H,0,22.02
 1,7.899,45.195\H,0,23.665,8.582,45.078\H,0,22.473,8.859,43.786\\Versio
 n=ES64L-G16RevA.03\State=1-A\HF=-3007.8489231\RMSD=2.677e-09\PG=C01 [X
 (C55H74Mg1N4O6)]\\@


 THERE'S NOTHING WRONG WITH FOLLOWING A TRAIN OF THOUGHT...
 AS LONG AS IT ULTIMATELY PULLS INTO THE STATION.
 Job cpu time:       0 days 10 hours 55 minutes 36.2 seconds.
 Elapsed time:       0 days  0 hours 27 minutes 49.9 seconds.
 File lengths (MBytes):  RWF=   8929 Int=      0 D2E=      0 Chk=    390 Scr=      1
 Normal termination of Gaussian 16 at Sat Apr 30 04:36:45 2022.
