 Entering Gaussian System, Link 0=g16
 Initial command:
 /sw/apps/gaussian-16.0/g16/l1.exe "/tmp/Gau-120493.inp" -scrdir="/tmp/"
 Entering Link 1 = /sw/apps/gaussian-16.0/g16/l1.exe PID=    120494.
  
 Copyright (c) 1988,1990,1992,1993,1995,1998,2003,2009,2016,
            Gaussian, Inc.  All Rights Reserved.
  
 This is part of the Gaussian(R) 16 program.  It is based on
 the Gaussian(R) 09 system (copyright 2009, Gaussian, Inc.),
 the Gaussian(R) 03 system (copyright 2003, Gaussian, Inc.),
 the Gaussian(R) 98 system (copyright 1998, Gaussian, Inc.),
 the Gaussian(R) 94 system (copyright 1995, Gaussian, Inc.),
 the Gaussian 92(TM) system (copyright 1992, Gaussian, Inc.),
 the Gaussian 90(TM) system (copyright 1990, Gaussian, Inc.),
 the Gaussian 88(TM) system (copyright 1988, Gaussian, Inc.),
 the Gaussian 86(TM) system (copyright 1986, Carnegie Mellon
 University), and the Gaussian 82(TM) system (copyright 1983,
 Carnegie Mellon University). Gaussian is a federally registered
 trademark of Gaussian, Inc.
  
 This software contains proprietary and confidential information,
 including trade secrets, belonging to Gaussian, Inc.
  
 This software is provided under written license and may be
 used, copied, transmitted, or stored only in accord with that
 written license.
  
 The following legend is applicable only to US Government
 contracts under FAR:
  
                    RESTRICTED RIGHTS LEGEND
  
 Use, reproduction and disclosure by the US Government is
 subject to restrictions as set forth in subparagraphs (a)
 and (c) of the Commercial Computer Software - Restricted
 Rights clause in FAR 52.227-19.
  
 Gaussian, Inc.
 340 Quinnipiac St., Bldg. 40, Wallingford CT 06492
  
  
 ---------------------------------------------------------------
 Warning -- This program may not be used in any manner that
 competes with the business of Gaussian, Inc. or will provide
 assistance to any competitor of Gaussian, Inc.  The licensee
 of this program is prohibited from giving any competitor of
 Gaussian, Inc. access to this program.  By using this program,
 the user acknowledges that Gaussian, Inc. is engaged in the
 business of creating and licensing software in the field of
 computational chemistry and represents and warrants to the
 licensee that it is not a competitor of Gaussian, Inc. and that
 it will not use this program in any manner prohibited above.
 ---------------------------------------------------------------
  

 Cite this work as:
 Gaussian 16, Revision A.03,
 M. J. Frisch, G. W. Trucks, H. B. Schlegel, G. E. Scuseria, 
 M. A. Robb, J. R. Cheeseman, G. Scalmani, V. Barone, 
 G. A. Petersson, H. Nakatsuji, X. Li, M. Caricato, A. V. Marenich, 
 J. Bloino, B. G. Janesko, R. Gomperts, B. Mennucci, H. P. Hratchian, 
 J. V. Ortiz, A. F. Izmaylov, J. L. Sonnenberg, D. Williams-Young, 
 F. Ding, F. Lipparini, F. Egidi, J. Goings, B. Peng, A. Petrone, 
 T. Henderson, D. Ranasinghe, V. G. Zakrzewski, J. Gao, N. Rega, 
 G. Zheng, W. Liang, M. Hada, M. Ehara, K. Toyota, R. Fukuda, 
 J. Hasegawa, M. Ishida, T. Nakajima, Y. Honda, O. Kitao, H. Nakai, 
 T. Vreven, K. Throssell, J. A. Montgomery, Jr., J. E. Peralta, 
 F. Ogliaro, M. J. Bearpark, J. J. Heyd, E. N. Brothers, K. N. Kudin, 
 V. N. Staroverov, T. A. Keith, R. Kobayashi, J. Normand, 
 K. Raghavachari, A. P. Rendell, J. C. Burant, S. S. Iyengar, 
 J. Tomasi, M. Cossi, J. M. Millam, M. Klene, C. Adamo, R. Cammi, 
 J. W. Ochterski, R. L. Martin, K. Morokuma, O. Farkas, 
 J. B. Foresman, and D. J. Fox, Gaussian, Inc., Wallingford CT, 2016.
 
 ******************************************
 Gaussian 16:  ES64L-G16RevA.03 25-Dec-2016
                28-Apr-2022 
 ******************************************
 %nproc=24
 Will use up to   24 processors via shared memory.
 %mem=75GB
 -----------------------------------
 #p cam-b3lyp/Def2SVP td=(nstates=5)
 -----------------------------------
 1/38=1,172=1/1;
 2/12=2,17=6,18=5,40=1/2;
 3/5=43,7=101,11=9,25=1,30=1,74=-40/1,2,3,8;
 4//1;
 5/5=2,38=5/2;
 8/6=1,10=1,108=5/1;
 9/41=5,42=1,70=2/14;
 6/7=2,8=2,9=2,10=2/1;
 99/5=1,9=1/99;
 Leave Link    1 at Thu Apr 28 11:27:35 2022, MaxMem= 10066329600 cpu:               0.8 elap:               0.0
 (Enter /sw/apps/gaussian-16.0/g16/l101.exe)
 --------------------------------------------------------
 step_1551_chromophore_22 TDDFT with cam-b3lyp functional
 --------------------------------------------------------
 Symbolic Z-matrix:
 Charge =  0 Multiplicity = 1
 Mg                    8.869     48.279    24.865 
 C                     6.741     48.271    27.807 
 C                     11.365    49.344    26.813 
 C                     10.674    48.254    22.188 
 C                     5.934     48.214    22.917 
 N                     9.031     48.792    27.015 
 C                     8.091     48.558    28.075 
 C                     8.779     48.867    29.381 
 C                     10.077    49.634    28.995 
 C                     10.192    49.215    27.532 
 C                     9.963     51.148    29.084 
 C                     8.941     47.675    30.343 
 C                     8.585     47.968    31.783 
 C                     8.416     46.713    32.706 
 O                     8.561     45.536    32.419 
 O                     8.12      47.129    33.984 
 N                     10.839    48.591    24.566 
 C                     11.718    49.095    25.456 
 C                     13.007    49.18     24.875 
 C                     12.88     48.753    23.548 
 C                     11.429    48.475    23.373 
 C                     14.229    49.751    25.653 
 C                     13.832    48.829    22.433 
 O                     13.55     48.605    21.279 
 C                     15.256    49.207    22.742 
 N                     8.306     48.351    22.839 
 C                     9.297     48.246    21.978 
 C                     8.805     48.01     20.534 
 C                     7.265     48.099    20.757 
 C                     7.114     48.295    22.263 
 C                     9.302     49.101    19.502 
 C                     6.533     46.869    20.202 
 C                     5.447     47.24     19.088 
 N                     6.763     48.206    25.247 
 C                     5.743     48.106    24.333 
 C                     4.471     47.877    25.089 
 C                     4.868     47.9      26.5 
 C                     6.212     48.049    26.495 
 C                     3.134     47.632    24.535 
 C                     4.32      47.747    27.883 
 O                     3.157     47.553    28.279 
 C                     5.565     47.903    28.78 
 C                     5.71      46.605    29.524 
 O                     6.272     45.64     29.135 
 O                     5.243     46.743    30.778 
 C                     5.062     45.472    31.512 
 C                     7.906     45.982    34.811 
 C                     8.227     46.383    36.208 
 C                     7.611     46.328    37.442 
 C                     6.314     45.627    37.816 
 C                     8.211     46.928    38.704 
 C                     9.011     46.002    39.705 
 C                     10.344    46.679    40.208 
 C                     10.383    47.01     41.702 
 C                     9.781     48.413    42.006 
 C                     11.853    46.972    42.191 
 C                     12.13     45.532    42.73 
 C                     12.508    45.575    44.242 
 C                     13.65     44.638    44.619 
 C                     14.135    44.905    46.094 
 C                     13.181    43.163    44.369 
 C                     14.164    42.493    43.291 
 C                     14.297    40.969    43.712 
 C                     15.599    40.311    43.244 
 C                     15.698    40.185    41.695 
 C                     15.801    39.002    43.996 
 H                     12.111    49.745    27.503 
 H                     11.229    48.303    21.249 
 H                     5.051     47.959    22.327 
 H                     8.188     49.64     29.873 
 H                     10.985    49.415    29.557 
 H                     10.01     51.462    30.127 
 H                     8.967     51.417    28.733 
 H                     10.743    51.704    28.564 
 H                     9.994     47.409    30.429 
 H                     8.449     46.786    29.949 
 H                     7.605     48.445    31.802 
 H                     9.295     48.627    32.283 
 H                     14.08     49.574    26.718 
 H                     14.453    50.805    25.485 
 H                     15.059    49.149    25.285 
 H                     15.196    50.136    23.309 
 H                     15.821    49.387    21.828 
 H                     15.866    48.53     23.34 
 H                     9.154     47.027    20.218 
 H                     6.789     49.035    20.468 
 H                     9.984     48.552    18.853 
 H                     9.845     49.881    20.034 
 H                     8.548     49.698    18.989 
 H                     6.021     46.405    21.046 
 H                     7.191     46.114    19.773 
 H                     5.498     48.309    18.884 
 H                     4.471     46.965    19.487 
 H                     5.718     46.735    18.16 
 H                     2.462     47.359    25.348 
 H                     3.184     46.938    23.695 
 H                     2.813     48.621    24.209 
 H                     5.382     48.723    29.474 
 H                     4.044     45.576    31.887 
 H                     5.761     45.17     32.291 
 H                     5.013     44.605    30.853 
 H                     8.419     45.025    34.718 
 H                     6.838     45.771    34.764 
 H                     9.201     46.872    36.242 
 H                     6.566     45.007    38.677 
 H                     5.938     45.03     36.985 
 H                     5.686     46.447    38.163 
 H                     7.467     47.52     39.238 
 H                     8.879     47.694    38.309 
 H                     9.271     45.052    39.238 
 H                     8.27      45.733    40.458 
 H                     10.418    47.657    39.732 
 H                     11.22     46.147    39.838 
 H                     9.785     46.296    42.268 
 H                     10.396    49.256    41.693 
 H                     9.659     48.391    43.089 
 H                     8.804     48.604    41.561 
 H                     12.218    47.773    42.835 
 H                     12.49     47.023    41.308 
 H                     12.903    45.205    42.035 
 H                     11.336    44.787    42.67 
 H                     11.692    45.448    44.954 
 H                     13.022    46.516    44.438 
 H                     14.518    44.873    44.003 
 H                     13.78     45.84     46.527 
 H                     15.21     45.064    46.009 
 H                     14.032    44.107    46.829 
 H                     12.155    43.152    44. 
 H                     13.325    42.607    45.296 
 H                     15.186    42.871    43.276 
 H                     13.83     42.522    42.254 
 H                     13.481    40.348    43.342 
 H                     14.266    40.89     44.799 
 H                     16.399    41.009    43.491 
 H                     16.474    40.851    41.319 
 H                     14.835    40.577    41.155 
 H                     16.002    39.179    41.404 
 H                     16.693    39.122    44.61 
 H                     15.882    38.146    43.327 
 H                     15.011    38.678    44.674 
 
 ITRead=  0  0  0  0  0  0  0  0  0  0  0  0  0  0  0  0  0  0  0  0
 ITRead=  0  0  0  0  0  0  0  0  0  0  0  0  0  0  0  0  0  0  0  0
 ITRead=  0  0  0  0  0  0  0  0  0  0  0  0  0  0  0  0  0  0  0  0
 ITRead=  0  0  0  0  0  0  0  0  0  0  0  0  0  0  0  0  0  0  0  0
 ITRead=  0  0  0  0  0  0  0  0  0  0  0  0  0  0  0  0  0  0  0  0
 ITRead=  0  0  0  0  0  0  0  0  0  0  0  0  0  0  0  0  0  0  0  0
 ITRead=  0  0  0  0  0  0  0  0  0  0  0  0  0  0  0  0  0  0  0  0
 MicOpt= -1 -1 -1 -1 -1 -1 -1 -1 -1 -1 -1 -1 -1 -1 -1 -1 -1 -1 -1 -1
 MicOpt= -1 -1 -1 -1 -1 -1 -1 -1 -1 -1 -1 -1 -1 -1 -1 -1 -1 -1 -1 -1
 MicOpt= -1 -1 -1 -1 -1 -1 -1 -1 -1 -1 -1 -1 -1 -1 -1 -1 -1 -1 -1 -1
 MicOpt= -1 -1 -1 -1 -1 -1 -1 -1 -1 -1 -1 -1 -1 -1 -1 -1 -1 -1 -1 -1
 MicOpt= -1 -1 -1 -1 -1 -1 -1 -1 -1 -1 -1 -1 -1 -1 -1 -1 -1 -1 -1 -1
 MicOpt= -1 -1 -1 -1 -1 -1 -1 -1 -1 -1 -1 -1 -1 -1 -1 -1 -1 -1 -1 -1
 MicOpt= -1 -1 -1 -1 -1 -1 -1 -1 -1 -1 -1 -1 -1 -1 -1 -1 -1 -1 -1 -1
 NAtoms=    140 NQM=      140 NQMF=       0 NMMI=      0 NMMIF=      0
                NMic=       0 NMicF=      0.
                    Isotopes and Nuclear Properties:
 (Nuclear quadrupole moments (NQMom) in fm**2, nuclear magnetic moments (NMagM)
  in nuclear magnetons)

  Atom         1           2           3           4           5           6           7           8           9          10
 IAtWgt=          24          12          12          12          12          14          12          12          12          12
 AtmWgt=  23.9850450  12.0000000  12.0000000  12.0000000  12.0000000  14.0030740  12.0000000  12.0000000  12.0000000  12.0000000
 NucSpn=           0           0           0           0           0           2           0           0           0           0
 AtZEff=  -0.0000000  -0.0000000  -0.0000000  -0.0000000  -0.0000000  -0.0000000  -0.0000000  -0.0000000  -0.0000000  -0.0000000
 NQMom=    0.0000000   0.0000000   0.0000000   0.0000000   0.0000000   2.0440000   0.0000000   0.0000000   0.0000000   0.0000000
 NMagM=    0.0000000   0.0000000   0.0000000   0.0000000   0.0000000   0.4037610   0.0000000   0.0000000   0.0000000   0.0000000
 AtZNuc=  12.0000000   6.0000000   6.0000000   6.0000000   6.0000000   7.0000000   6.0000000   6.0000000   6.0000000   6.0000000

  Atom        11          12          13          14          15          16          17          18          19          20
 IAtWgt=          12          12          12          12          16          16          14          12          12          12
 AtmWgt=  12.0000000  12.0000000  12.0000000  12.0000000  15.9949146  15.9949146  14.0030740  12.0000000  12.0000000  12.0000000
 NucSpn=           0           0           0           0           0           0           2           0           0           0
 AtZEff=  -0.0000000  -0.0000000  -0.0000000  -0.0000000  -0.0000000  -0.0000000  -0.0000000  -0.0000000  -0.0000000  -0.0000000
 NQMom=    0.0000000   0.0000000   0.0000000   0.0000000   0.0000000   0.0000000   2.0440000   0.0000000   0.0000000   0.0000000
 NMagM=    0.0000000   0.0000000   0.0000000   0.0000000   0.0000000   0.0000000   0.4037610   0.0000000   0.0000000   0.0000000
 AtZNuc=   6.0000000   6.0000000   6.0000000   6.0000000   8.0000000   8.0000000   7.0000000   6.0000000   6.0000000   6.0000000

  Atom        21          22          23          24          25          26          27          28          29          30
 IAtWgt=          12          12          12          16          12          14          12          12          12          12
 AtmWgt=  12.0000000  12.0000000  12.0000000  15.9949146  12.0000000  14.0030740  12.0000000  12.0000000  12.0000000  12.0000000
 NucSpn=           0           0           0           0           0           2           0           0           0           0
 AtZEff=  -0.0000000  -0.0000000  -0.0000000  -0.0000000  -0.0000000  -0.0000000  -0.0000000  -0.0000000  -0.0000000  -0.0000000
 NQMom=    0.0000000   0.0000000   0.0000000   0.0000000   0.0000000   2.0440000   0.0000000   0.0000000   0.0000000   0.0000000
 NMagM=    0.0000000   0.0000000   0.0000000   0.0000000   0.0000000   0.4037610   0.0000000   0.0000000   0.0000000   0.0000000
 AtZNuc=   6.0000000   6.0000000   6.0000000   8.0000000   6.0000000   7.0000000   6.0000000   6.0000000   6.0000000   6.0000000

  Atom        31          32          33          34          35          36          37          38          39          40
 IAtWgt=          12          12          12          14          12          12          12          12          12          12
 AtmWgt=  12.0000000  12.0000000  12.0000000  14.0030740  12.0000000  12.0000000  12.0000000  12.0000000  12.0000000  12.0000000
 NucSpn=           0           0           0           2           0           0           0           0           0           0
 AtZEff=  -0.0000000  -0.0000000  -0.0000000  -0.0000000  -0.0000000  -0.0000000  -0.0000000  -0.0000000  -0.0000000  -0.0000000
 NQMom=    0.0000000   0.0000000   0.0000000   2.0440000   0.0000000   0.0000000   0.0000000   0.0000000   0.0000000   0.0000000
 NMagM=    0.0000000   0.0000000   0.0000000   0.4037610   0.0000000   0.0000000   0.0000000   0.0000000   0.0000000   0.0000000
 AtZNuc=   6.0000000   6.0000000   6.0000000   7.0000000   6.0000000   6.0000000   6.0000000   6.0000000   6.0000000   6.0000000

  Atom        41          42          43          44          45          46          47          48          49          50
 IAtWgt=          16          12          12          16          16          12          12          12          12          12
 AtmWgt=  15.9949146  12.0000000  12.0000000  15.9949146  15.9949146  12.0000000  12.0000000  12.0000000  12.0000000  12.0000000
 NucSpn=           0           0           0           0           0           0           0           0           0           0
 AtZEff=  -0.0000000  -0.0000000  -0.0000000  -0.0000000  -0.0000000  -0.0000000  -0.0000000  -0.0000000  -0.0000000  -0.0000000
 NQMom=    0.0000000   0.0000000   0.0000000   0.0000000   0.0000000   0.0000000   0.0000000   0.0000000   0.0000000   0.0000000
 NMagM=    0.0000000   0.0000000   0.0000000   0.0000000   0.0000000   0.0000000   0.0000000   0.0000000   0.0000000   0.0000000
 AtZNuc=   8.0000000   6.0000000   6.0000000   8.0000000   8.0000000   6.0000000   6.0000000   6.0000000   6.0000000   6.0000000

  Atom        51          52          53          54          55          56          57          58          59          60
 IAtWgt=          12          12          12          12          12          12          12          12          12          12
 AtmWgt=  12.0000000  12.0000000  12.0000000  12.0000000  12.0000000  12.0000000  12.0000000  12.0000000  12.0000000  12.0000000
 NucSpn=           0           0           0           0           0           0           0           0           0           0
 AtZEff=  -0.0000000  -0.0000000  -0.0000000  -0.0000000  -0.0000000  -0.0000000  -0.0000000  -0.0000000  -0.0000000  -0.0000000
 NQMom=    0.0000000   0.0000000   0.0000000   0.0000000   0.0000000   0.0000000   0.0000000   0.0000000   0.0000000   0.0000000
 NMagM=    0.0000000   0.0000000   0.0000000   0.0000000   0.0000000   0.0000000   0.0000000   0.0000000   0.0000000   0.0000000
 AtZNuc=   6.0000000   6.0000000   6.0000000   6.0000000   6.0000000   6.0000000   6.0000000   6.0000000   6.0000000   6.0000000

  Atom        61          62          63          64          65          66          67          68          69          70
 IAtWgt=          12          12          12          12          12          12           1           1           1           1
 AtmWgt=  12.0000000  12.0000000  12.0000000  12.0000000  12.0000000  12.0000000   1.0078250   1.0078250   1.0078250   1.0078250
 NucSpn=           0           0           0           0           0           0           1           1           1           1
 AtZEff=  -0.0000000  -0.0000000  -0.0000000  -0.0000000  -0.0000000  -0.0000000  -0.0000000  -0.0000000  -0.0000000  -0.0000000
 NQMom=    0.0000000   0.0000000   0.0000000   0.0000000   0.0000000   0.0000000   0.0000000   0.0000000   0.0000000   0.0000000
 NMagM=    0.0000000   0.0000000   0.0000000   0.0000000   0.0000000   0.0000000   2.7928460   2.7928460   2.7928460   2.7928460
 AtZNuc=   6.0000000   6.0000000   6.0000000   6.0000000   6.0000000   6.0000000   1.0000000   1.0000000   1.0000000   1.0000000

  Atom        71          72          73          74          75          76          77          78          79          80
 IAtWgt=           1           1           1           1           1           1           1           1           1           1
 AtmWgt=   1.0078250   1.0078250   1.0078250   1.0078250   1.0078250   1.0078250   1.0078250   1.0078250   1.0078250   1.0078250
 NucSpn=           1           1           1           1           1           1           1           1           1           1
 AtZEff=  -0.0000000  -0.0000000  -0.0000000  -0.0000000  -0.0000000  -0.0000000  -0.0000000  -0.0000000  -0.0000000  -0.0000000
 NQMom=    0.0000000   0.0000000   0.0000000   0.0000000   0.0000000   0.0000000   0.0000000   0.0000000   0.0000000   0.0000000
 NMagM=    2.7928460   2.7928460   2.7928460   2.7928460   2.7928460   2.7928460   2.7928460   2.7928460   2.7928460   2.7928460
 AtZNuc=   1.0000000   1.0000000   1.0000000   1.0000000   1.0000000   1.0000000   1.0000000   1.0000000   1.0000000   1.0000000

  Atom        81          82          83          84          85          86          87          88          89          90
 IAtWgt=           1           1           1           1           1           1           1           1           1           1
 AtmWgt=   1.0078250   1.0078250   1.0078250   1.0078250   1.0078250   1.0078250   1.0078250   1.0078250   1.0078250   1.0078250
 NucSpn=           1           1           1           1           1           1           1           1           1           1
 AtZEff=  -0.0000000  -0.0000000  -0.0000000  -0.0000000  -0.0000000  -0.0000000  -0.0000000  -0.0000000  -0.0000000  -0.0000000
 NQMom=    0.0000000   0.0000000   0.0000000   0.0000000   0.0000000   0.0000000   0.0000000   0.0000000   0.0000000   0.0000000
 NMagM=    2.7928460   2.7928460   2.7928460   2.7928460   2.7928460   2.7928460   2.7928460   2.7928460   2.7928460   2.7928460
 AtZNuc=   1.0000000   1.0000000   1.0000000   1.0000000   1.0000000   1.0000000   1.0000000   1.0000000   1.0000000   1.0000000

  Atom        91          92          93          94          95          96          97          98          99         100
 IAtWgt=           1           1           1           1           1           1           1           1           1           1
 AtmWgt=   1.0078250   1.0078250   1.0078250   1.0078250   1.0078250   1.0078250   1.0078250   1.0078250   1.0078250   1.0078250
 NucSpn=           1           1           1           1           1           1           1           1           1           1
 AtZEff=  -0.0000000  -0.0000000  -0.0000000  -0.0000000  -0.0000000  -0.0000000  -0.0000000  -0.0000000  -0.0000000  -0.0000000
 NQMom=    0.0000000   0.0000000   0.0000000   0.0000000   0.0000000   0.0000000   0.0000000   0.0000000   0.0000000   0.0000000
 NMagM=    2.7928460   2.7928460   2.7928460   2.7928460   2.7928460   2.7928460   2.7928460   2.7928460   2.7928460   2.7928460
 AtZNuc=   1.0000000   1.0000000   1.0000000   1.0000000   1.0000000   1.0000000   1.0000000   1.0000000   1.0000000   1.0000000

  Atom       101         102         103         104         105         106         107         108         109         110
 IAtWgt=           1           1           1           1           1           1           1           1           1           1
 AtmWgt=   1.0078250   1.0078250   1.0078250   1.0078250   1.0078250   1.0078250   1.0078250   1.0078250   1.0078250   1.0078250
 NucSpn=           1           1           1           1           1           1           1           1           1           1
 AtZEff=  -0.0000000  -0.0000000  -0.0000000  -0.0000000  -0.0000000  -0.0000000  -0.0000000  -0.0000000  -0.0000000  -0.0000000
 NQMom=    0.0000000   0.0000000   0.0000000   0.0000000   0.0000000   0.0000000   0.0000000   0.0000000   0.0000000   0.0000000
 NMagM=    2.7928460   2.7928460   2.7928460   2.7928460   2.7928460   2.7928460   2.7928460   2.7928460   2.7928460   2.7928460
 AtZNuc=   1.0000000   1.0000000   1.0000000   1.0000000   1.0000000   1.0000000   1.0000000   1.0000000   1.0000000   1.0000000

  Atom       111         112         113         114         115         116         117         118         119         120
 IAtWgt=           1           1           1           1           1           1           1           1           1           1
 AtmWgt=   1.0078250   1.0078250   1.0078250   1.0078250   1.0078250   1.0078250   1.0078250   1.0078250   1.0078250   1.0078250
 NucSpn=           1           1           1           1           1           1           1           1           1           1
 AtZEff=  -0.0000000  -0.0000000  -0.0000000  -0.0000000  -0.0000000  -0.0000000  -0.0000000  -0.0000000  -0.0000000  -0.0000000
 NQMom=    0.0000000   0.0000000   0.0000000   0.0000000   0.0000000   0.0000000   0.0000000   0.0000000   0.0000000   0.0000000
 NMagM=    2.7928460   2.7928460   2.7928460   2.7928460   2.7928460   2.7928460   2.7928460   2.7928460   2.7928460   2.7928460
 AtZNuc=   1.0000000   1.0000000   1.0000000   1.0000000   1.0000000   1.0000000   1.0000000   1.0000000   1.0000000   1.0000000

  Atom       121         122         123         124         125         126         127         128         129         130
 IAtWgt=           1           1           1           1           1           1           1           1           1           1
 AtmWgt=   1.0078250   1.0078250   1.0078250   1.0078250   1.0078250   1.0078250   1.0078250   1.0078250   1.0078250   1.0078250
 NucSpn=           1           1           1           1           1           1           1           1           1           1
 AtZEff=  -0.0000000  -0.0000000  -0.0000000  -0.0000000  -0.0000000  -0.0000000  -0.0000000  -0.0000000  -0.0000000  -0.0000000
 NQMom=    0.0000000   0.0000000   0.0000000   0.0000000   0.0000000   0.0000000   0.0000000   0.0000000   0.0000000   0.0000000
 NMagM=    2.7928460   2.7928460   2.7928460   2.7928460   2.7928460   2.7928460   2.7928460   2.7928460   2.7928460   2.7928460
 AtZNuc=   1.0000000   1.0000000   1.0000000   1.0000000   1.0000000   1.0000000   1.0000000   1.0000000   1.0000000   1.0000000

  Atom       131         132         133         134         135         136         137         138         139         140
 IAtWgt=           1           1           1           1           1           1           1           1           1           1
 AtmWgt=   1.0078250   1.0078250   1.0078250   1.0078250   1.0078250   1.0078250   1.0078250   1.0078250   1.0078250   1.0078250
 NucSpn=           1           1           1           1           1           1           1           1           1           1
 AtZEff=  -0.0000000  -0.0000000  -0.0000000  -0.0000000  -0.0000000  -0.0000000  -0.0000000  -0.0000000  -0.0000000  -0.0000000
 NQMom=    0.0000000   0.0000000   0.0000000   0.0000000   0.0000000   0.0000000   0.0000000   0.0000000   0.0000000   0.0000000
 NMagM=    2.7928460   2.7928460   2.7928460   2.7928460   2.7928460   2.7928460   2.7928460   2.7928460   2.7928460   2.7928460
 AtZNuc=   1.0000000   1.0000000   1.0000000   1.0000000   1.0000000   1.0000000   1.0000000   1.0000000   1.0000000   1.0000000
 Leave Link  101 at Thu Apr 28 11:27:35 2022, MaxMem= 10066329600 cpu:               3.5 elap:               0.2
 (Enter /sw/apps/gaussian-16.0/g16/l202.exe)
 Stoichiometry    C55H74MgN4O6
 Framework group  C1[X(C55H74MgN4O6)]
 Deg. of freedom   414
 Full point group                 C1      NOp   1
 Largest Abelian subgroup         C1      NOp   1
 Largest concise Abelian subgroup C1      NOp   1
                         Standard orientation:                         
 ---------------------------------------------------------------------
 Center     Atomic      Atomic             Coordinates (Angstroms)
 Number     Number       Type             X           Y           Z
 ---------------------------------------------------------------------
      1         12           0        6.273237    0.638180    0.020237
      2          6           0        3.866895   -2.046879   -0.408469
      3          6           0        4.151595    2.645384   -1.601092
      4          6           0        8.481388    2.953974    0.451679
      5          6           0        8.693447   -1.830896    0.698033
      6          7           0        4.292671    0.338776   -0.928250
      7          6           0        3.409911   -0.790651   -0.844071
      8          6           0        2.092006   -0.395708   -1.461817
      9          6           0        2.373798    0.928292   -2.229740
     10          6           0        3.662925    1.354615   -1.532923
     11          6           0        2.633890    0.749385   -3.717509
     12          6           0        0.884990   -0.395984   -0.504914
     13          6           0       -0.362306   -1.049239   -1.055998
     14          6           0       -1.481279   -1.363244   -0.004896
     15          8           0       -1.485843   -1.124316    1.191606
     16          8           0       -2.558825   -1.928554   -0.647760
     17          7           0        6.244350    2.616426   -0.371364
     18          6           0        5.329391    3.277244   -1.109556
     19          6           0        5.654047    4.654590   -1.171400
     20          6           0        6.858144    4.816544   -0.476195
     21          6           0        7.247573    3.442142   -0.060653
     22          6           0        4.794160    5.671733   -1.978012
     23          6           0        7.757511    5.974123   -0.395860
     24          8           0        8.869333    5.942368    0.077702
     25          6           0        7.266354    7.291369   -0.934161
     26          7           0        8.337676    0.500904    0.402439
     27          6           0        8.947632    1.650379    0.605138
     28          6           0       10.375274    1.473111    1.164879
     29          6           0       10.479205   -0.081935    1.148133
     30          6           0        9.108273   -0.545061    0.663041
     31          6           0       11.500037    2.135649    0.271422
     32          6           0       10.889911   -0.644151    2.516338
     33          6           0       12.246275   -1.489876    2.461043
     34          7           0        6.300030   -1.497888    0.171850
     35          6           0        7.351545   -2.304814    0.530992
     36          6           0        6.825285   -3.696771    0.696722
     37          6           0        5.402180   -3.598745    0.358753
     38          6           0        5.178303   -2.287883    0.113638
     39          6           0        7.562569   -4.882953    1.148268
     40          6           0        4.151458   -4.413640    0.269069
     41          8           0        3.956256   -5.626233    0.465376
     42          6           0        3.084571   -3.384953   -0.158159
     43          6           0        2.066961   -3.353680    0.947670
     44          8           0        2.124507   -2.692799    1.926606
     45          8           0        0.986187   -4.072313    0.593913
     46          6           0        0.047098   -4.358750    1.699817
     47          6           0       -3.554097   -2.270381    0.320704
     48          6           0       -4.868369   -2.256090   -0.377820
     49          6           0       -5.942318   -3.110103   -0.527922
     50          6           0       -6.198723   -4.432804    0.177914
     51          6           0       -7.138911   -2.801654   -1.414301
     52          6           0       -8.450132   -2.194487   -0.772796
     53          6           0       -9.045581   -1.015770   -1.635521
     54          6           0      -10.413024   -1.294960   -2.264225
     55          6           0      -10.287921   -1.991738   -3.650616
     56          6           0      -11.174263    0.043842   -2.436243
     57          6           0      -12.051476    0.250912   -1.160128
     58          6           0      -13.563339    0.308976   -1.536658
     59          6           0      -14.345691    1.379094   -0.783639
     60          6           0      -15.795041    1.542147   -1.379404
     61          6           0      -14.330306    1.019497    0.742316
     62          6           0      -13.631636    2.224014    1.541235
     63          6           0      -14.385886    2.317169    2.934050
     64          6           0      -14.330571    3.708151    3.573816
     65          6           0      -12.893444    4.126965    4.003162
     66          6           0      -15.369236    3.793895    4.684497
     67          1           0        3.431929    3.220491   -2.188247
     68          1           0        9.283408    3.687974    0.552458
     69          1           0        9.375080   -2.565272    1.132637
     70          1           0        1.900466   -1.099864   -2.271972
     71          1           0        1.612937    1.708251   -2.197728
     72          1           0        1.693113    0.571126   -4.238869
     73          1           0        3.220441   -0.161577   -3.834487
     74          1           0        3.099336    1.601036   -4.213481
     75          1           0        0.541778    0.625020   -0.341460
     76          1           0        1.167819   -0.767543    0.479755
     77          1           0       -0.088737   -2.027232   -1.452207
     78          1           0       -0.837985   -0.478728   -1.853887
     79          1           0        3.765481    5.313170   -2.009734
     80          1           0        5.136628    5.891119   -2.989892
     81          1           0        4.857154    6.578677   -1.377834
     82          1           0        6.933392    7.086172   -1.951590
     83          1           0        8.070464    8.025769   -0.967103
     84          1           0        6.431000    7.787305   -0.439931
     85          1           0       10.400357    1.911243    2.162555
     86          1           0       11.048006   -0.518613    0.328395
     87          1           0       11.872094    2.953769    0.887847
     88          1           0       11.051915    2.532311   -0.638588
     89          1           0       12.264830    1.484007   -0.151128
     90          1           0       10.081926   -1.303126    2.836788
     91          1           0       11.011985    0.112030    3.291141
     92          1           0       12.659944   -1.432814    1.454763
     93          1           0       11.994666   -2.517537    2.721828
     94          1           0       12.974530   -1.017959    3.121791
     95          1           0        6.856053   -5.698273    1.300485
     96          1           0        8.209044   -4.639139    1.992283
     97          1           0        8.148074   -5.162140    0.272667
     98          1           0        2.630571   -3.732991   -1.085671
     99          1           0       -0.092480   -5.434867    1.598550
    100          1           0       -0.898761   -3.825069    1.784570
    101          1           0        0.502513   -4.243306    2.683504
    102          1           0       -3.768775   -1.718435    1.235546
    103          1           0       -3.347154   -3.298582    0.616221
    104          1           0       -4.985296   -1.326190   -0.935106
    105          1           0       -7.204356   -4.342878    0.590029
    106          1           0       -5.457596   -4.610689    0.957295
    107          1           0       -6.234217   -5.144920   -0.645994
    108          1           0       -7.379657   -3.658216   -2.044776
    109          1           0       -6.726618   -2.092026   -2.132248
    110          1           0       -8.256167   -1.813496    0.229906
    111          1           0       -9.084970   -3.065118   -0.607166
    112          1           0       -8.395348   -0.877437   -2.499580
    113          1           0       -8.974643   -0.065692   -1.106731
    114          1           0      -10.991520   -1.972895   -1.636927
    115          1           0       -9.927435   -1.353280   -4.456386
    116          1           0      -11.305978   -2.332614   -3.839349
    117          1           0       -9.631696   -2.862293   -3.673819
    118          1           0      -11.690648    0.242723   -3.376112
    119          1           0      -10.441330    0.846495   -2.354898
    120          1           0      -11.605615    1.160283   -0.757963
    121          1           0      -11.999190   -0.489272   -0.361095
    122          1           0      -14.114068   -0.631212   -1.495757
    123          1           0      -13.649740    0.741001   -2.533645
    124          1           0      -13.873906    2.346941   -0.953330
    125          1           0      -15.941241    1.075693   -2.353460
    126          1           0      -15.888048    2.605972   -1.597937
    127          1           0      -16.649226    1.316453   -0.741384
    128          1           0      -13.780482    0.091970    0.904624
    129          1           0      -15.364543    0.988159    1.086661
    130          1           0      -13.734644    3.214524    1.098660
    131          1           0      -12.567756    2.109174    1.747963
    132          1           0      -14.006030    1.615058    3.676444
    133          1           0      -15.437578    2.066335    2.793348
    134          1           0      -14.573111    4.417354    2.782350
    135          1           0      -12.541623    4.941581    3.370920
    136          1           0      -12.125437    3.380895    3.794407
    137          1           0      -12.888487    4.516694    5.021602
    138          1           0      -16.104415    4.536531    4.376173
    139          1           0      -14.927092    4.038197    5.649734
    140          1           0      -15.934505    2.892510    4.922689
 ---------------------------------------------------------------------
 Rotational constants (GHZ):           0.0476785           0.0077485           0.0071221
 Leave Link  202 at Thu Apr 28 11:27:35 2022, MaxMem= 10066329600 cpu:               0.2 elap:               0.0
 (Enter /sw/apps/gaussian-16.0/g16/l301.exe)
 Standard basis: def2SVP (5D, 7F)
 Ernie: Thresh=  0.10000D-02 Tol=  0.10000D-05 Strict=F.
 There are  1364 symmetry adapted cartesian basis functions of A   symmetry.
 There are  1298 symmetry adapted basis functions of A   symmetry.
  1298 basis functions,  2180 primitive gaussians,  1364 cartesian basis functions
   246 alpha electrons      246 beta electrons
       nuclear repulsion energy      9274.9670353692 Hartrees.
 IExCor=20419 DFT=T Ex+Corr=CAM-B3LYP ExCW=0 ScaHFX=  1.000000
 ScaDFX=  1.000000  1.000000  1.000000  0.810000 ScalE2=  1.000000  1.000000
 IRadAn=      5 IRanWt=     -1 IRanGd=            0 ICorTp=0 IEmpDi=  4
 HFx  wShort=  0.000000 wLong=  0.330000 cFull=  0.190000 cShort=  0.000000 cLong=  0.460000
 DFx  wShort=  0.000000 wLong=  0.330000 cFull=  0.190000 cShort=  0.000000 cLong=  0.460000
 NAtoms=  140 NActive=  140 NUniq=  140 SFac= 1.00D+00 NAtFMM=   60 NAOKFM=T Big=T
 Integral buffers will be    131072 words long.
 Raffenetti 1 integral format.
 Two-electron integral symmetry is turned on.
 Leave Link  301 at Thu Apr 28 11:27:35 2022, MaxMem= 10066329600 cpu:               1.5 elap:               0.1
 (Enter /sw/apps/gaussian-16.0/g16/l302.exe)
 NPDir=0 NMtPBC=     1 NCelOv=     1 NCel=       1 NClECP=     1 NCelD=      1
         NCelK=      1 NCelE2=     1 NClLst=     1 CellRange=     0.0.
 One-electron integrals computed using PRISM.
 One-electron integral symmetry used in STVInt
   1 Symmetry operations used in ECPInt.
 ECPInt:  NShTT=  192510 NPrTT=  683786 LenC2=   87417 LenP2D=  194696.
 LDataN:  DoStor=T MaxTD1= 4 Len=   56
 NBasis=  1298 RedAO= T EigKep=  3.26D-04  NBF=  1298
 NBsUse=  1298 1.00D-06 EigRej= -1.00D+00 NBFU=  1298
 Precomputing XC quadrature grid using
 IXCGrd= 4 IRadAn=           5 IRanWt=          -1 IRanGd=           0 AccXCQ= 0.00D+00.
 Generated NRdTot=       0 NPtTot=           0 NUsed=           0 NTot=          32
 NSgBfM=   939   927   931   937   939 MxSgAt=   140 MxSgA2=   140.
 Leave Link  302 at Thu Apr 28 11:27:38 2022, MaxMem= 10066329600 cpu:              78.3 elap:               3.3
 (Enter /sw/apps/gaussian-16.0/g16/l303.exe)
 DipDrv:  MaxL=1.
 Leave Link  303 at Thu Apr 28 11:27:39 2022, MaxMem= 10066329600 cpu:               6.9 elap:               0.3
 (Enter /sw/apps/gaussian-16.0/g16/l308.exe)
 Leave Link  308 at Thu Apr 28 11:27:39 2022, MaxMem= 10066329600 cpu:              12.4 elap:               0.6
 (Enter /sw/apps/gaussian-16.0/g16/l401.exe)
 ExpMin= 3.36D-02 ExpMax= 4.95D+03 ExpMxC= 7.45D+02 IAcc=3 IRadAn=         5 AccDes= 0.00D+00
 Harris functional with IExCor=20419 and IRadAn=       5 diagonalized for initial guess.
 HarFok:  IExCor=20419 AccDes= 0.00D+00 IRadAn=         5 IDoV= 1 UseB2=F ITyADJ=14
 ICtDFT=  3500011 ScaDFX=  1.000000  1.000000  1.000000  1.000000
 FoFCou: FMM=F IPFlag=           0 FMFlag=      100000 FMFlg1=        2001
         NFxFlg=           0 DoJE=T BraDBF=F KetDBF=T FulRan=T
         wScrn=  0.000000 ICntrl=       500 IOpCl=  0 I1Cent=   200000004 NGrid=           0
         NMat0=    1 NMatS0=      1 NMatT0=    0 NMatD0=    1 NMtDS0=    0 NMtDT0=    0
 Petite list used in FoFCou.
 Harris En= -2890.84494165671    
 JPrj=0 DoOrth=F DoCkMO=F.
 Leave Link  401 at Thu Apr 28 11:27:45 2022, MaxMem= 10066329600 cpu:             131.0 elap:               5.5
 (Enter /sw/apps/gaussian-16.0/g16/l502.exe)
 Integral symmetry usage will be decided dynamically.
 Closed shell SCF:
 Using DIIS extrapolation, IDIIS=  1040.
 NGot= 10066329600 LenX= 10062561258 LenY= 10060699398
 Requested convergence on RMS density matrix=1.00D-08 within 128 cycles.
 Requested convergence on MAX density matrix=1.00D-06.
 Requested convergence on             energy=1.00D-06.
 No special actions if energy rises.
 Fock matrices will be formed incrementally for  20 cycles.

 Cycle   1  Pass 1  IDiag  1:
 FoFJK:  IHMeth= 1 ICntrl=       0 DoSepK=T KAlg= 0 I1Cent=           0 FoldK=F
 IRaf=         1 NMat=       1 IRICut=       1 DoRegI=T DoRafI=F ISym2E= 0 IDoP0=0 IntGTp=1.
 FoFCou: FMM=T IPFlag=           0 FMFlag=      100000 FMFlg1=        2001
         NFxFlg=           0 DoJE=T BraDBF=F KetDBF=F FulRan=T
         wScrn=  0.000000 ICntrl=       500 IOpCl=  0 I1Cent=           0 NGrid=           0
         NMat0=    1 NMatS0=      1 NMatT0=    0 NMatD0=    1 NMtDS0=    0 NMtDT0=    0
 Symmetry not used in FoFCou.
 FMM levels:  10  Number of levels for PrismC:   9
 E= -3006.53510005632    
 DIIS: error= 3.07D-02 at cycle   1 NSaved=   1.
 NSaved= 1 IEnMin= 1 EnMin= -3006.53510005632     IErMin= 1 ErrMin= 3.07D-02
 ErrMax= 3.07D-02  0.00D+00 EMaxC= 1.00D-01 BMatC= 1.24D+00 BMatP= 1.24D+00
 IDIUse=3 WtCom= 6.93D-01 WtEn= 3.07D-01
 Coeff-Com:  0.100D+01
 Coeff-En:   0.100D+01
 Coeff:      0.100D+01
 Gap=     0.119 Goal=   None    Shift=    0.000
 GapD=    0.119 DampG=1.000 DampE=0.500 DampFc=0.5000 IDamp=-1.
 Damping current iteration by 5.00D-01
 RMSDP=1.49D-03 MaxDP=1.28D-01              OVMax= 1.71D-01

 Cycle   2  Pass 1  IDiag  1:
 RMSU=  7.34D-04    CP:  9.85D-01
 E= -3006.83671997868     Delta-E=       -0.301619922366 Rises=F Damp=T
 DIIS: error= 1.23D-02 at cycle   2 NSaved=   2.
 NSaved= 2 IEnMin= 2 EnMin= -3006.83671997868     IErMin= 2 ErrMin= 1.23D-02
 ErrMax= 1.23D-02  0.00D+00 EMaxC= 1.00D-01 BMatC= 2.27D-01 BMatP= 1.24D+00
 IDIUse=3 WtCom= 8.77D-01 WtEn= 1.23D-01
 Coeff-Com: -0.250D+00 0.125D+01
 Coeff-En:   0.000D+00 0.100D+01
 Coeff:     -0.219D+00 0.122D+01
 Gap=     0.136 Goal=   None    Shift=    0.000
 RMSDP=6.81D-04 MaxDP=5.77D-02 DE=-3.02D-01 OVMax= 1.87D-01

 Cycle   3  Pass 1  IDiag  1:
 RMSU=  6.57D-04    CP:  9.77D-01  1.22D+00
 E= -3007.06421999702     Delta-E=       -0.227500018333 Rises=F Damp=F
 DIIS: error= 1.18D-02 at cycle   3 NSaved=   3.
 NSaved= 3 IEnMin= 3 EnMin= -3007.06421999702     IErMin= 3 ErrMin= 1.18D-02
 ErrMax= 1.18D-02  0.00D+00 EMaxC= 1.00D-01 BMatC= 1.32D-01 BMatP= 2.27D-01
 IDIUse=3 WtCom= 8.82D-01 WtEn= 1.18D-01
 Coeff-Com: -0.271D+00 0.650D+00 0.621D+00
 Coeff-En:   0.000D+00 0.000D+00 0.100D+01
 Coeff:     -0.239D+00 0.573D+00 0.666D+00
 Gap=     0.123 Goal=   None    Shift=    0.000
 RMSDP=4.50D-04 MaxDP=5.43D-02 DE=-2.28D-01 OVMax= 1.03D-01

 Cycle   4  Pass 1  IDiag  1:
 RMSU=  2.58D-04    CP:  9.73D-01  1.51D+00  5.44D-01
 E= -3007.15191840365     Delta-E=       -0.087698406633 Rises=F Damp=F
 DIIS: error= 4.52D-03 at cycle   4 NSaved=   4.
 NSaved= 4 IEnMin= 4 EnMin= -3007.15191840365     IErMin= 4 ErrMin= 4.52D-03
 ErrMax= 4.52D-03  0.00D+00 EMaxC= 1.00D-01 BMatC= 2.99D-02 BMatP= 1.32D-01
 IDIUse=3 WtCom= 9.55D-01 WtEn= 4.52D-02
 Coeff-Com: -0.115D+00 0.235D+00 0.399D+00 0.481D+00
 Coeff-En:   0.000D+00 0.000D+00 0.195D+00 0.805D+00
 Coeff:     -0.110D+00 0.224D+00 0.390D+00 0.496D+00
 Gap=     0.124 Goal=   None    Shift=    0.000
 RMSDP=1.70D-04 MaxDP=1.94D-02 DE=-8.77D-02 OVMax= 4.85D-02

 Cycle   5  Pass 1  IDiag  1:
 RMSU=  6.63D-05    CP:  9.73D-01  1.47D+00  6.99D-01  5.55D-01
 E= -3007.17785252541     Delta-E=       -0.025934121759 Rises=F Damp=F
 DIIS: error= 4.46D-04 at cycle   5 NSaved=   5.
 NSaved= 5 IEnMin= 5 EnMin= -3007.17785252541     IErMin= 5 ErrMin= 4.46D-04
 ErrMax= 4.46D-04  0.00D+00 EMaxC= 1.00D-01 BMatC= 5.18D-04 BMatP= 2.99D-02
 IDIUse=3 WtCom= 9.96D-01 WtEn= 4.46D-03
 Coeff-Com: -0.384D-01 0.753D-01 0.154D+00 0.227D+00 0.582D+00
 Coeff-En:   0.000D+00 0.000D+00 0.000D+00 0.000D+00 0.100D+01
 Coeff:     -0.382D-01 0.750D-01 0.153D+00 0.226D+00 0.584D+00
 Gap=     0.122 Goal=   None    Shift=    0.000
 RMSDP=3.36D-05 MaxDP=3.02D-03 DE=-2.59D-02 OVMax= 1.26D-02

 Cycle   6  Pass 1  IDiag  1:
 RMSU=  2.62D-05    CP:  9.73D-01  1.47D+00  6.96D-01  6.07D-01  7.67D-01
 E= -3007.17828110481     Delta-E=       -0.000428579406 Rises=F Damp=F
 DIIS: error= 2.13D-04 at cycle   6 NSaved=   6.
 NSaved= 6 IEnMin= 6 EnMin= -3007.17828110481     IErMin= 6 ErrMin= 2.13D-04
 ErrMax= 2.13D-04  0.00D+00 EMaxC= 1.00D-01 BMatC= 9.99D-05 BMatP= 5.18D-04
 IDIUse=3 WtCom= 9.98D-01 WtEn= 2.13D-03
 Coeff-Com:  0.179D-02-0.530D-02 0.728D-02 0.275D-01 0.321D+00 0.648D+00
 Coeff-En:   0.000D+00 0.000D+00 0.000D+00 0.000D+00 0.153D+00 0.847D+00
 Coeff:      0.178D-02-0.529D-02 0.726D-02 0.275D-01 0.320D+00 0.648D+00
 Gap=     0.123 Goal=   None    Shift=    0.000
 RMSDP=1.56D-05 MaxDP=1.20D-03 DE=-4.29D-04 OVMax= 9.65D-03

 Cycle   7  Pass 1  IDiag  1:
 RMSU=  1.01D-05    CP:  9.73D-01  1.47D+00  7.02D-01  6.06D-01  8.86D-01
                    CP:  7.01D-01
 E= -3007.17839718466     Delta-E=       -0.000116079846 Rises=F Damp=F
 DIIS: error= 6.75D-05 at cycle   7 NSaved=   7.
 NSaved= 7 IEnMin= 7 EnMin= -3007.17839718466     IErMin= 7 ErrMin= 6.75D-05
 ErrMax= 6.75D-05  0.00D+00 EMaxC= 1.00D-01 BMatC= 1.53D-05 BMatP= 9.99D-05
 IDIUse=1 WtCom= 1.00D+00 WtEn= 0.00D+00
 Coeff-Com:  0.451D-02-0.973D-02-0.973D-02-0.717D-02 0.114D+00 0.363D+00
 Coeff-Com:  0.545D+00
 Coeff:      0.451D-02-0.973D-02-0.973D-02-0.717D-02 0.114D+00 0.363D+00
 Coeff:      0.545D+00
 Gap=     0.123 Goal=   None    Shift=    0.000
 RMSDP=5.78D-06 MaxDP=7.93D-04 DE=-1.16D-04 OVMax= 2.61D-03

 Cycle   8  Pass 1  IDiag  1:
 RMSU=  4.13D-06    CP:  9.73D-01  1.47D+00  7.03D-01  6.10D-01  8.89D-01
                    CP:  8.34D-01  8.46D-01
 E= -3007.17841694951     Delta-E=       -0.000019764857 Rises=F Damp=F
 DIIS: error= 4.17D-05 at cycle   8 NSaved=   8.
 NSaved= 8 IEnMin= 8 EnMin= -3007.17841694951     IErMin= 8 ErrMin= 4.17D-05
 ErrMax= 4.17D-05  0.00D+00 EMaxC= 1.00D-01 BMatC= 1.77D-06 BMatP= 1.53D-05
 IDIUse=1 WtCom= 1.00D+00 WtEn= 0.00D+00
 Coeff-Com:  0.218D-02-0.426D-02-0.743D-02-0.120D-01-0.237D-01 0.396D-01
 Coeff-Com:  0.249D+00 0.756D+00
 Coeff:      0.218D-02-0.426D-02-0.743D-02-0.120D-01-0.237D-01 0.396D-01
 Coeff:      0.249D+00 0.756D+00
 Gap=     0.123 Goal=   None    Shift=    0.000
 RMSDP=3.37D-06 MaxDP=2.24D-04 DE=-1.98D-05 OVMax= 2.46D-03

 Cycle   9  Pass 1  IDiag  1:
 RMSU=  2.08D-06    CP:  9.73D-01  1.47D+00  7.03D-01  6.11D-01  9.09D-01
                    CP:  8.61D-01  1.06D+00  1.02D+00
 E= -3007.17842193207     Delta-E=       -0.000004982552 Rises=F Damp=F
 DIIS: error= 1.71D-05 at cycle   9 NSaved=   9.
 NSaved= 9 IEnMin= 9 EnMin= -3007.17842193207     IErMin= 9 ErrMin= 1.71D-05
 ErrMax= 1.71D-05  0.00D+00 EMaxC= 1.00D-01 BMatC= 5.85D-07 BMatP= 1.77D-06
 IDIUse=1 WtCom= 1.00D+00 WtEn= 0.00D+00
 Coeff-Com:  0.410D-03-0.676D-03-0.214D-02-0.480D-02-0.287D-01-0.277D-01
 Coeff-Com:  0.178D-01 0.405D+00 0.640D+00
 Coeff:      0.410D-03-0.676D-03-0.214D-02-0.480D-02-0.287D-01-0.277D-01
 Coeff:      0.178D-01 0.405D+00 0.640D+00
 Gap=     0.123 Goal=   None    Shift=    0.000
 RMSDP=1.65D-06 MaxDP=1.07D-04 DE=-4.98D-06 OVMax= 8.09D-04

 Cycle  10  Pass 1  IDiag  1:
 RMSU=  9.52D-07    CP:  9.73D-01  1.48D+00  7.03D-01  6.11D-01  9.13D-01
                    CP:  8.77D-01  1.12D+00  1.27D+00  1.18D+00
 E= -3007.17842361405     Delta-E=       -0.000001681985 Rises=F Damp=F
 DIIS: error= 9.96D-06 at cycle  10 NSaved=  10.
 NSaved=10 IEnMin=10 EnMin= -3007.17842361405     IErMin=10 ErrMin= 9.96D-06
 ErrMax= 9.96D-06  0.00D+00 EMaxC= 1.00D-01 BMatC= 1.32D-07 BMatP= 5.85D-07
 IDIUse=1 WtCom= 1.00D+00 WtEn= 0.00D+00
 Coeff-Com: -0.722D-03 0.146D-02 0.216D-02 0.280D-02-0.508D-02-0.260D-01
 Coeff-Com: -0.118D+00-0.645D-01 0.183D+00 0.103D+01
 Coeff:     -0.722D-03 0.146D-02 0.216D-02 0.280D-02-0.508D-02-0.260D-01
 Coeff:     -0.118D+00-0.645D-01 0.183D+00 0.103D+01
 Gap=     0.123 Goal=   None    Shift=    0.000
 RMSDP=1.80D-06 MaxDP=1.38D-04 DE=-1.68D-06 OVMax= 1.19D-03

 Cycle  11  Pass 1  IDiag  1:
 RMSU=  6.68D-07    CP:  9.73D-01  1.48D+00  7.03D-01  6.11D-01  9.16D-01
                    CP:  8.93D-01  1.20D+00  1.46D+00  1.69D+00  1.46D+00
 E= -3007.17842465453     Delta-E=       -0.000001040476 Rises=F Damp=F
 DIIS: error= 5.91D-06 at cycle  11 NSaved=  11.
 NSaved=11 IEnMin=11 EnMin= -3007.17842465453     IErMin=11 ErrMin= 5.91D-06
 ErrMax= 5.91D-06  0.00D+00 EMaxC= 1.00D-01 BMatC= 7.74D-08 BMatP= 1.32D-07
 IDIUse=1 WtCom= 1.00D+00 WtEn= 0.00D+00
 Coeff-Com: -0.500D-03 0.973D-03 0.174D-02 0.290D-02 0.485D-02-0.488D-02
 Coeff-Com: -0.802D-01-0.134D+00-0.145D+00 0.631D+00 0.723D+00
 Coeff:     -0.500D-03 0.973D-03 0.174D-02 0.290D-02 0.485D-02-0.488D-02
 Coeff:     -0.802D-01-0.134D+00-0.145D+00 0.631D+00 0.723D+00
 Gap=     0.123 Goal=   None    Shift=    0.000
 RMSDP=1.03D-06 MaxDP=6.86D-05 DE=-1.04D-06 OVMax= 6.50D-04

 Cycle  12  Pass 1  IDiag  1:
 RMSU=  2.92D-07    CP:  9.73D-01  1.48D+00  7.03D-01  6.12D-01  9.17D-01
                    CP:  8.99D-01  1.24D+00  1.59D+00  1.94D+00  1.99D+00
                    CP:  1.16D+00
 E= -3007.17842498566     Delta-E=       -0.000000331127 Rises=F Damp=F
 DIIS: error= 2.98D-06 at cycle  12 NSaved=  12.
 NSaved=12 IEnMin=12 EnMin= -3007.17842498566     IErMin=12 ErrMin= 2.98D-06
 ErrMax= 2.98D-06  0.00D+00 EMaxC= 1.00D-01 BMatC= 1.41D-08 BMatP= 7.74D-08
 IDIUse=1 WtCom= 1.00D+00 WtEn= 0.00D+00
 Coeff-Com: -0.139D-04 0.901D-05 0.170D-03 0.597D-03 0.382D-02 0.784D-02
 Coeff-Com: -0.395D-02-0.286D-01-0.153D+00 0.159D-01 0.290D+00 0.867D+00
 Coeff:     -0.139D-04 0.901D-05 0.170D-03 0.597D-03 0.382D-02 0.784D-02
 Coeff:     -0.395D-02-0.286D-01-0.153D+00 0.159D-01 0.290D+00 0.867D+00
 Gap=     0.123 Goal=   None    Shift=    0.000
 RMSDP=5.77D-07 MaxDP=4.80D-05 DE=-3.31D-07 OVMax= 3.60D-04

 Cycle  13  Pass 1  IDiag  1:
 RMSU=  1.79D-07    CP:  9.73D-01  1.48D+00  7.03D-01  6.12D-01  9.18D-01
                    CP:  9.00D-01  1.25D+00  1.64D+00  2.10D+00  2.24D+00
                    CP:  1.56D+00  1.26D+00
 E= -3007.17842506925     Delta-E=       -0.000000083597 Rises=F Damp=F
 DIIS: error= 2.21D-06 at cycle  13 NSaved=  13.
 NSaved=13 IEnMin=13 EnMin= -3007.17842506925     IErMin=13 ErrMin= 2.21D-06
 ErrMax= 2.21D-06  0.00D+00 EMaxC= 1.00D-01 BMatC= 5.92D-09 BMatP= 1.41D-08
 IDIUse=1 WtCom= 1.00D+00 WtEn= 0.00D+00
 Coeff-Com:  0.138D-03-0.280D-03-0.423D-03-0.480D-03 0.567D-03 0.629D-02
 Coeff-Com:  0.194D-01 0.259D-01-0.539D-01-0.181D+00-0.760D-01 0.523D+00
 Coeff-Com:  0.736D+00
 Coeff:      0.138D-03-0.280D-03-0.423D-03-0.480D-03 0.567D-03 0.629D-02
 Coeff:      0.194D-01 0.259D-01-0.539D-01-0.181D+00-0.760D-01 0.523D+00
 Coeff:      0.736D+00
 Gap=     0.123 Goal=   None    Shift=    0.000
 RMSDP=3.28D-07 MaxDP=2.18D-05 DE=-8.36D-08 OVMax= 2.10D-04

 Cycle  14  Pass 1  IDiag  1:
 RMSU=  7.39D-08    CP:  9.73D-01  1.48D+00  7.03D-01  6.12D-01  9.18D-01
                    CP:  9.02D-01  1.26D+00  1.67D+00  2.17D+00  2.41D+00
                    CP:  1.73D+00  1.63D+00  1.02D+00
 E= -3007.17842509030     Delta-E=       -0.000000021046 Rises=F Damp=F
 DIIS: error= 7.48D-07 at cycle  14 NSaved=  14.
 NSaved=14 IEnMin=14 EnMin= -3007.17842509030     IErMin=14 ErrMin= 7.48D-07
 ErrMax= 7.48D-07  0.00D+00 EMaxC= 1.00D-01 BMatC= 9.09D-10 BMatP= 5.92D-09
 IDIUse=1 WtCom= 1.00D+00 WtEn= 0.00D+00
 Coeff-Com:  0.730D-04-0.144D-03-0.255D-03-0.361D-03-0.622D-03 0.166D-02
 Coeff-Com:  0.925D-02 0.211D-01 0.552D-02-0.866D-01-0.979D-01 0.703D-01
 Coeff-Com:  0.369D+00 0.709D+00
 Coeff:      0.730D-04-0.144D-03-0.255D-03-0.361D-03-0.622D-03 0.166D-02
 Coeff:      0.925D-02 0.211D-01 0.552D-02-0.866D-01-0.979D-01 0.703D-01
 Coeff:      0.369D+00 0.709D+00
 Gap=     0.123 Goal=   None    Shift=    0.000
 RMSDP=9.55D-08 MaxDP=1.37D-05 DE=-2.10D-08 OVMax= 4.88D-05

 Cycle  15  Pass 1  IDiag  1:
 RMSU=  3.38D-08    CP:  9.73D-01  1.48D+00  7.03D-01  6.12D-01  9.18D-01
                    CP:  9.02D-01  1.26D+00  1.67D+00  2.19D+00  2.45D+00
                    CP:  1.81D+00  1.73D+00  1.22D+00  1.10D+00
 E= -3007.17842509306     Delta-E=       -0.000000002763 Rises=F Damp=F
 DIIS: error= 1.95D-07 at cycle  15 NSaved=  15.
 NSaved=15 IEnMin=15 EnMin= -3007.17842509306     IErMin=15 ErrMin= 1.95D-07
 ErrMax= 1.95D-07  0.00D+00 EMaxC= 1.00D-01 BMatC= 1.11D-10 BMatP= 9.09D-10
 IDIUse=1 WtCom= 1.00D+00 WtEn= 0.00D+00
 Coeff-Com:  0.144D-05-0.150D-05-0.168D-04-0.367D-04-0.341D-03-0.306D-03
 Coeff-Com: -0.779D-03 0.361D-02 0.938D-02-0.158D-02-0.187D-01-0.546D-01
 Coeff-Com:  0.278D-01 0.212D+00 0.823D+00
 Coeff:      0.144D-05-0.150D-05-0.168D-04-0.367D-04-0.341D-03-0.306D-03
 Coeff:     -0.779D-03 0.361D-02 0.938D-02-0.158D-02-0.187D-01-0.546D-01
 Coeff:      0.278D-01 0.212D+00 0.823D+00
 Gap=     0.123 Goal=   None    Shift=    0.000
 RMSDP=3.25D-08 MaxDP=2.40D-06 DE=-2.76D-09 OVMax= 1.99D-05

 Cycle  16  Pass 1  IDiag  1:
 RMSU=  1.81D-08    CP:  9.73D-01  1.48D+00  7.03D-01  6.12D-01  9.18D-01
                    CP:  9.02D-01  1.26D+00  1.67D+00  2.19D+00  2.46D+00
                    CP:  1.83D+00  1.77D+00  1.29D+00  1.28D+00  1.20D+00
 E= -3007.17842509321     Delta-E=       -0.000000000151 Rises=F Damp=F
 DIIS: error= 1.22D-07 at cycle  16 NSaved=  16.
 NSaved=16 IEnMin=16 EnMin= -3007.17842509321     IErMin=16 ErrMin= 1.22D-07
 ErrMax= 1.22D-07  0.00D+00 EMaxC= 1.00D-01 BMatC= 5.72D-11 BMatP= 1.11D-10
 IDIUse=1 WtCom= 1.00D+00 WtEn= 0.00D+00
 Coeff-Com: -0.171D-04 0.343D-04 0.525D-04 0.689D-04-0.459D-04-0.473D-03
 Coeff-Com: -0.296D-02-0.301D-02 0.353D-02 0.191D-01 0.142D-01-0.468D-01
 Coeff-Com: -0.748D-01-0.105D+00 0.439D+00 0.757D+00
 Coeff:     -0.171D-04 0.343D-04 0.525D-04 0.689D-04-0.459D-04-0.473D-03
 Coeff:     -0.296D-02-0.301D-02 0.353D-02 0.191D-01 0.142D-01-0.468D-01
 Coeff:     -0.748D-01-0.105D+00 0.439D+00 0.757D+00
 Gap=     0.123 Goal=   None    Shift=    0.000
 RMSDP=2.53D-08 MaxDP=2.78D-06 DE=-1.51D-10 OVMax= 1.28D-05

 Cycle  17  Pass 1  IDiag  1:
 RMSU=  8.69D-09    CP:  9.73D-01  1.48D+00  7.03D-01  6.12D-01  9.18D-01
                    CP:  9.02D-01  1.26D+00  1.67D+00  2.20D+00  2.46D+00
                    CP:  1.84D+00  1.79D+00  1.34D+00  1.41D+00  1.53D+00
                    CP:  1.27D+00
 E= -3007.17842509326     Delta-E=       -0.000000000051 Rises=F Damp=F
 DIIS: error= 7.53D-08 at cycle  17 NSaved=  17.
 NSaved=17 IEnMin=17 EnMin= -3007.17842509326     IErMin=17 ErrMin= 7.53D-08
 ErrMax= 7.53D-08  0.00D+00 EMaxC= 1.00D-01 BMatC= 1.23D-11 BMatP= 5.72D-11
 IDIUse=1 WtCom= 1.00D+00 WtEn= 0.00D+00
 Coeff-Com: -0.847D-05 0.166D-04 0.289D-04 0.430D-04 0.592D-04-0.602D-04
 Coeff-Com: -0.137D-02-0.203D-02-0.820D-03 0.915D-02 0.121D-01-0.584D-02
 Coeff-Com: -0.365D-01-0.119D+00 0.107D-01 0.300D+00 0.833D+00
 Coeff:     -0.847D-05 0.166D-04 0.289D-04 0.430D-04 0.592D-04-0.602D-04
 Coeff:     -0.137D-02-0.203D-02-0.820D-03 0.915D-02 0.121D-01-0.584D-02
 Coeff:     -0.365D-01-0.119D+00 0.107D-01 0.300D+00 0.833D+00
 Gap=     0.123 Goal=   None    Shift=    0.000
 RMSDP=1.22D-08 MaxDP=8.14D-07 DE=-5.09D-11 OVMax= 6.82D-06

 Cycle  18  Pass 1  IDiag  1:
 RMSU=  3.93D-09    CP:  9.73D-01  1.48D+00  7.03D-01  6.12D-01  9.18D-01
                    CP:  9.02D-01  1.26D+00  1.67D+00  2.20D+00  2.46D+00
                    CP:  1.85D+00  1.80D+00  1.35D+00  1.47D+00  1.71D+00
                    CP:  1.63D+00  1.32D+00
 E= -3007.17842509351     Delta-E=       -0.000000000244 Rises=F Damp=F
 DIIS: error= 3.52D-08 at cycle  18 NSaved=  18.
 NSaved=18 IEnMin=18 EnMin= -3007.17842509351     IErMin=18 ErrMin= 3.52D-08
 ErrMax= 3.52D-08  0.00D+00 EMaxC= 1.00D-01 BMatC= 3.30D-12 BMatP= 1.23D-11
 IDIUse=1 WtCom= 1.00D+00 WtEn= 0.00D+00
 Coeff-Com:  0.236D-05-0.494D-05-0.662D-05-0.579D-05 0.359D-04 0.182D-03
 Coeff-Com:  0.356D-03 0.361D-03-0.163D-02-0.334D-02-0.650D-04 0.140D-01
 Coeff-Com:  0.135D-01-0.226D-01-0.130D+00-0.150D+00 0.323D+00 0.955D+00
 Coeff:      0.236D-05-0.494D-05-0.662D-05-0.579D-05 0.359D-04 0.182D-03
 Coeff:      0.356D-03 0.361D-03-0.163D-02-0.334D-02-0.650D-04 0.140D-01
 Coeff:      0.135D-01-0.226D-01-0.130D+00-0.150D+00 0.323D+00 0.955D+00
 Gap=     0.123 Goal=   None    Shift=    0.000
 RMSDP=9.12D-09 MaxDP=7.39D-07 DE=-2.44D-10 OVMax= 5.10D-06

 SCF Done:  E(RCAM-B3LYP) =  -3007.17842509     A.U. after   18 cycles
            NFock= 18  Conv=0.91D-08     -V/T= 2.0105
 KE= 2.975900297304D+03 PE=-2.554223194942D+04 EE= 1.028418619166D+04
 Leave Link  502 at Thu Apr 28 11:33:34 2022, MaxMem= 10066329600 cpu:            8001.9 elap:             349.3
 (Enter /sw/apps/gaussian-16.0/g16/l801.exe)
 DoSCS=F DFT=T ScalE2(SS,OS)=  1.000000  1.000000
 ExpMin= 3.36D-02 ExpMax= 4.95D+03 ExpMxC= 7.45D+02 IAcc=3 IRadAn=         5 AccDes= 0.00D+00
 HarFok:  IExCor=  205 AccDes= 0.00D+00 IRadAn=         5 IDoV=-2 UseB2=F ITyADJ=14
 ICtDFT= 12500011 ScaDFX=  1.000000  1.000000  1.000000  1.000000
 GSVD:  LWork=       -5460 too small for GESVD, short by       25550 words or       25550 for optimal perf.
 Largest valence mixing into a core orbital is  1.77D-04
 Largest core mixing into a valence orbital is  5.39D-05
 Range of M.O.s used for correlation:    71  1298
 NBasis=  1298 NAE=   246 NBE=   246 NFC=    70 NFV=     0
 NROrb=   1228 NOA=   176 NOB=   176 NVA=  1052 NVB=  1052
 Leave Link  801 at Thu Apr 28 11:33:34 2022, MaxMem= 10066329600 cpu:               6.9 elap:               0.3
 (Enter /sw/apps/gaussian-16.0/g16/l914.exe)
 RHF ground state
 Two-electron integrals replicated using symmetry.
 MDV= 10066329600 DFT=T DoStab=F Mixed=T DoRPA=T DoScal=F NonHer=T
 Making orbital integer symmetry assigments:
 Orbital symmetries:
       Occupied  (A) (A) (A) (A) (A) (A) (A) (A) (A) (A) (A) (A)
                 (A) (A) (A) (A) (A) (A) (A) (A) (A) (A) (A) (A)
                 (A) (A) (A) (A) (A) (A) (A) (A) (A) (A) (A) (A)
                 (A) (A) (A) (A) (A) (A) (A) (A) (A) (A) (A) (A)
                 (A) (A) (A) (A) (A) (A) (A) (A) (A) (A) (A) (A)
                 (A) (A) (A) (A) (A) (A) (A) (A) (A) (A) (A) (A)
                 (A) (A) (A) (A) (A) (A) (A) (A) (A) (A) (A) (A)
                 (A) (A) (A) (A) (A) (A) (A) (A) (A) (A) (A) (A)
                 (A) (A) (A) (A) (A) (A) (A) (A) (A) (A) (A) (A)
                 (A) (A) (A) (A) (A) (A) (A) (A) (A) (A) (A) (A)
                 (A) (A) (A) (A) (A) (A) (A) (A) (A) (A) (A) (A)
                 (A) (A) (A) (A) (A) (A) (A) (A) (A) (A) (A) (A)
                 (A) (A) (A) (A) (A) (A) (A) (A) (A) (A) (A) (A)
                 (A) (A) (A) (A) (A) (A) (A) (A) (A) (A) (A) (A)
                 (A) (A) (A) (A) (A) (A) (A) (A) (A) (A) (A) (A)
                 (A) (A) (A) (A) (A) (A) (A) (A) (A) (A) (A) (A)
                 (A) (A) (A) (A) (A) (A) (A) (A) (A) (A) (A) (A)
                 (A) (A) (A) (A) (A) (A) (A) (A) (A) (A) (A) (A)
                 (A) (A) (A) (A) (A) (A) (A) (A) (A) (A) (A) (A)
                 (A) (A) (A) (A) (A) (A) (A) (A) (A) (A) (A) (A)
                 (A) (A) (A) (A) (A) (A)
       Virtual   (A) (A) (A) (A) (A) (A) (A) (A) (A) (A) (A) (A)
                 (A) (A) (A) (A) (A) (A) (A) (A) (A) (A) (A) (A)
                 (A) (A) (A) (A) (A) (A) (A) (A) (A) (A) (A) (A)
                 (A) (A) (A) (A) (A) (A) (A) (A) (A) (A) (A) (A)
                 (A) (A) (A) (A) (A) (A) (A) (A) (A) (A) (A) (A)
                 (A) (A) (A) (A) (A) (A) (A) (A) (A) (A) (A) (A)
                 (A) (A) (A) (A) (A) (A) (A) (A) (A) (A) (A) (A)
                 (A) (A) (A) (A) (A) (A) (A) (A) (A) (A) (A) (A)
                 (A) (A) (A) (A) (A) (A) (A) (A) (A) (A) (A) (A)
                 (A) (A) (A) (A) (A) (A) (A) (A) (A) (A) (A) (A)
                 (A) (A) (A) (A) (A) (A) (A) (A) (A) (A) (A) (A)
                 (A) (A) (A) (A) (A) (A) (A) (A) (A) (A) (A) (A)
                 (A) (A) (A) (A) (A) (A) (A) (A) (A) (A) (A) (A)
                 (A) (A) (A) (A) (A) (A) (A) (A) (A) (A) (A) (A)
                 (A) (A) (A) (A) (A) (A) (A) (A) (A) (A) (A) (A)
                 (A) (A) (A) (A) (A) (A) (A) (A) (A) (A) (A) (A)
                 (A) (A) (A) (A) (A) (A) (A) (A) (A) (A) (A) (A)
                 (A) (A) (A) (A) (A) (A) (A) (A) (A) (A) (A) (A)
                 (A) (A) (A) (A) (A) (A) (A) (A) (A) (A) (A) (A)
                 (A) (A) (A) (A) (A) (A) (A) (A) (A) (A) (A) (A)
                 (A) (A) (A) (A) (A) (A) (A) (A) (A) (A) (A) (A)
                 (A) (A) (A) (A) (A) (A) (A) (A) (A) (A) (A) (A)
                 (A) (A) (A) (A) (A) (A) (A) (A) (A) (A) (A) (A)
                 (A) (A) (A) (A) (A) (A) (A) (A) (A) (A) (A) (A)
                 (A) (A) (A) (A) (A) (A) (A) (A) (A) (A) (A) (A)
                 (A) (A) (A) (A) (A) (A) (A) (A) (A) (A) (A) (A)
                 (A) (A) (A) (A) (A) (A) (A) (A) (A) (A) (A) (A)
                 (A) (A) (A) (A) (A) (A) (A) (A) (A) (A) (A) (A)
                 (A) (A) (A) (A) (A) (A) (A) (A) (A) (A) (A) (A)
                 (A) (A) (A) (A) (A) (A) (A) (A) (A) (A) (A) (A)
                 (A) (A) (A) (A) (A) (A) (A) (A) (A) (A) (A) (A)
                 (A) (A) (A) (A) (A) (A) (A) (A) (A) (A) (A) (A)
                 (A) (A) (A) (A) (A) (A) (A) (A) (A) (A) (A) (A)
                 (A) (A) (A) (A) (A) (A) (A) (A) (A) (A) (A) (A)
                 (A) (A) (A) (A) (A) (A) (A) (A) (A) (A) (A) (A)
                 (A) (A) (A) (A) (A) (A) (A) (A) (A) (A) (A) (A)
                 (A) (A) (A) (A) (A) (A) (A) (A) (A) (A) (A) (A)
                 (A) (A) (A) (A) (A) (A) (A) (A) (A) (A) (A) (A)
                 (A) (A) (A) (A) (A) (A) (A) (A) (A) (A) (A) (A)
                 (A) (A) (A) (A) (A) (A) (A) (A) (A) (A) (A) (A)
                 (A) (A) (A) (A) (A) (A) (A) (A) (A) (A) (A) (A)
                 (A) (A) (A) (A) (A) (A) (A) (A) (A) (A) (A) (A)
                 (A) (A) (A) (A) (A) (A) (A) (A) (A) (A) (A) (A)
                 (A) (A) (A) (A) (A) (A) (A) (A) (A) (A) (A) (A)
                 (A) (A) (A) (A) (A) (A) (A) (A) (A) (A) (A) (A)
                 (A) (A) (A) (A) (A) (A) (A) (A) (A) (A) (A) (A)
                 (A) (A) (A) (A) (A) (A) (A) (A) (A) (A) (A) (A)
                 (A) (A) (A) (A) (A) (A) (A) (A) (A) (A) (A) (A)
                 (A) (A) (A) (A) (A) (A) (A) (A) (A) (A) (A) (A)
                 (A) (A) (A) (A) (A) (A) (A) (A) (A) (A) (A) (A)
                 (A) (A) (A) (A) (A) (A) (A) (A) (A) (A) (A) (A)
                 (A) (A) (A) (A) (A) (A) (A) (A) (A) (A) (A) (A)
                 (A) (A) (A) (A) (A) (A) (A) (A) (A) (A) (A) (A)
                 (A) (A) (A) (A) (A) (A) (A) (A) (A) (A) (A) (A)
                 (A) (A) (A) (A) (A) (A) (A) (A) (A) (A) (A) (A)
                 (A) (A) (A) (A) (A) (A) (A) (A) (A) (A) (A) (A)
                 (A) (A) (A) (A) (A) (A) (A) (A) (A) (A) (A) (A)
                 (A) (A) (A) (A) (A) (A) (A) (A) (A) (A) (A) (A)
                 (A) (A) (A) (A) (A) (A) (A) (A) (A) (A) (A) (A)
                 (A) (A) (A) (A) (A) (A) (A) (A) (A) (A) (A) (A)
                 (A) (A) (A) (A) (A) (A) (A) (A) (A) (A) (A) (A)
                 (A) (A) (A) (A) (A) (A) (A) (A) (A) (A) (A) (A)
                 (A) (A) (A) (A) (A) (A) (A) (A) (A) (A) (A) (A)
                 (A) (A) (A) (A) (A) (A) (A) (A) (A) (A) (A) (A)
                 (A) (A) (A) (A) (A) (A) (A) (A) (A) (A) (A) (A)
                 (A) (A) (A) (A) (A) (A) (A) (A) (A) (A) (A) (A)
                 (A) (A) (A) (A) (A) (A) (A) (A) (A) (A) (A) (A)
                 (A) (A) (A) (A) (A) (A) (A) (A) (A) (A) (A) (A)
                 (A) (A) (A) (A) (A) (A) (A) (A) (A) (A) (A) (A)
                 (A) (A) (A) (A) (A) (A) (A) (A) (A) (A) (A) (A)
                 (A) (A) (A) (A) (A) (A) (A) (A) (A) (A) (A) (A)
                 (A) (A) (A) (A) (A) (A) (A) (A) (A) (A) (A) (A)
                 (A) (A) (A) (A) (A) (A) (A) (A) (A) (A) (A) (A)
                 (A) (A) (A) (A) (A) (A) (A) (A) (A) (A) (A) (A)
                 (A) (A) (A) (A) (A) (A) (A) (A) (A) (A) (A) (A)
                 (A) (A) (A) (A) (A) (A) (A) (A) (A) (A) (A) (A)
                 (A) (A) (A) (A) (A) (A) (A) (A) (A) (A) (A) (A)
                 (A) (A) (A) (A) (A) (A) (A) (A) (A) (A) (A) (A)
                 (A) (A) (A) (A) (A) (A) (A) (A) (A) (A) (A) (A)
                 (A) (A) (A) (A) (A) (A) (A) (A) (A) (A) (A) (A)
                 (A) (A) (A) (A) (A) (A) (A) (A) (A) (A) (A) (A)
                 (A) (A) (A) (A) (A) (A) (A) (A) (A) (A) (A) (A)
                 (A) (A) (A) (A) (A) (A) (A) (A) (A) (A) (A) (A)
                 (A) (A) (A) (A) (A) (A) (A) (A) (A) (A) (A) (A)
                 (A) (A) (A) (A) (A) (A) (A) (A) (A) (A) (A) (A)
                 (A) (A) (A) (A) (A) (A) (A) (A) (A) (A) (A) (A)
                 (A) (A) (A) (A) (A) (A) (A) (A) (A) (A) (A) (A)
                 (A) (A) (A) (A) (A) (A) (A) (A)
    20 initial guesses have been made.
 Convergence on wavefunction:    0.001000000000000
 Davidson Disk Diagonalization:  ConvIn= 1.00D-03 SkipCon=T Conv= 1.00D-03.
 Max sub-space:  2000 roots to seek:    20 dimension of matrix:       370304
 Iteration     1 Dimension    20 NMult     0 NNew     20
 CISAX will form    20 AO SS matrices at one time.
 NMat=    20 NSing=    20 JSym2X= 0.
 FoFJK:  IHMeth= 1 ICntrl=       0 DoSepK=T KAlg= 0 I1Cent=           0 FoldK=F
 IRaf=         1 NMat=      40 IRICut=       1 DoRegI=T DoRafI=F ISym2E= 0 IDoP0=3 IntGTp=3.
 FoFCou: FMM=T IPFlag=           0 FMFlag=      100000 FMFlg1=        2001
         NFxFlg=           0 DoJE=F BraDBF=F KetDBF=F FulRan=T
         wScrn=  0.000000 ICntrl=       500 IOpCl=  0 I1Cent=           0 NGrid=           0
         NMat0=   20 NMatS0=     20 NMatT0=    0 NMatD0=   20 NMtDS0=    0 NMtDT0=    0
 Symmetry not used in FoFCou.
 FMM levels:  10  Number of levels for PrismC:   9
 New state      4 was old state      7
 New state      5 was old state      9
 Excitation Energies [eV] at current iteration:
 Root      1 :     2.227372400367101
 Root      2 :     2.662684621162577
 Root      3 :     3.470933828999914
 Root      4 :     4.043322230752684
 Root      5 :     4.120458984212076
 Root      6 :     4.219393720257694
 Root      7 :     4.253638180289117
 Root      8 :     4.379627511638779
 Root      9 :     4.413452622556250
 Root     10 :     4.463376318234474
 Root     11 :     4.586857275706108
 Root     12 :     4.683439070030872
 Root     13 :     4.704615564116066
 Root     14 :     4.984699562602641
 Root     15 :     5.108105062540998
 Root     16 :     5.147136265326065
 Root     17 :     5.415639225617551
 Root     18 :     5.934085458563977
 Root     19 :     6.020301884209802
 Root     20 :     6.376548704418294
 Iteration     2 Dimension    30 NMult    20 NNew     10
 CISAX will form    10 AO SS matrices at one time.
 NMat=    10 NSing=    10 JSym2X= 0.
 Root      1 not converged, maximum delta is    0.076870395317445
 Root      2 not converged, maximum delta is    0.067433883014382
 Root      3 not converged, maximum delta is    0.058003797764403
 Root      4 not converged, maximum delta is    0.068858573199182
 Root      5 not converged, maximum delta is    0.190041877437928
 Excitation Energies [eV] at current iteration:
 Root      1 :     1.748294297139320   Change is   -0.479078103227781
 Root      2 :     2.258122053503757   Change is   -0.404562567658819
 Root      3 :     3.182991095177717   Change is   -0.287942733822197
 Root      4 :     3.650082639667222   Change is   -0.393239591085463
 Root      5 :     3.759566052280938   Change is   -0.360892931931138
 Iteration     3 Dimension    40 NMult    30 NNew     10
 CISAX will form    10 AO SS matrices at one time.
 NMat=    10 NSing=    10 JSym2X= 0.
 Root      1 not converged, maximum delta is    0.027743024017992
 Root      2 not converged, maximum delta is    0.020106627219910
 Root      3 not converged, maximum delta is    0.016289324845950
 Root      4 not converged, maximum delta is    0.284031698992097
 Root      5 not converged, maximum delta is    0.221014868274313
 Excitation Energies [eV] at current iteration:
 Root      1 :     1.709450671202473   Change is   -0.038843625936847
 Root      2 :     2.233465247815270   Change is   -0.024656805688487
 Root      3 :     3.168606981443200   Change is   -0.014384113734517
 Root      4 :     3.595204032804836   Change is   -0.054878606862386
 Root      5 :     3.630437500281005   Change is   -0.129128551999933
 Iteration     4 Dimension    50 NMult    40 NNew     10
 CISAX will form    10 AO SS matrices at one time.
 NMat=    10 NSing=    10 JSym2X= 0.
 Root      1 not converged, maximum delta is    0.003735415042003
 Root      2 not converged, maximum delta is    0.003458449195705
 Root      3 not converged, maximum delta is    0.005299919216034
 Root      4 not converged, maximum delta is    0.051164796671573
 Root      5 not converged, maximum delta is    0.062586219294111
 Excitation Energies [eV] at current iteration:
 Root      1 :     1.705372240962905   Change is   -0.004078430239567
 Root      2 :     2.230554871925993   Change is   -0.002910375889277
 Root      3 :     3.165976232662270   Change is   -0.002630748780930
 Root      4 :     3.580911532541914   Change is   -0.014292500262921
 Root      5 :     3.615744429516394   Change is   -0.014693070764611
 Iteration     5 Dimension    60 NMult    50 NNew     10
 CISAX will form    10 AO SS matrices at one time.
 NMat=    10 NSing=    10 JSym2X= 0.
 Root      1 not converged, maximum delta is    0.001245812994071
 Root      2 has converged.
 Root      3 not converged, maximum delta is    0.001612965812510
 Root      4 not converged, maximum delta is    0.030102373921773
 Root      5 not converged, maximum delta is    0.048534322257703
 Excitation Energies [eV] at current iteration:
 Root      1 :     1.705040372452979   Change is   -0.000331868509927
 Root      2 :     2.230320874279488   Change is   -0.000233997646505
 Root      3 :     3.165677506959867   Change is   -0.000298725702402
 Root      4 :     3.578187023486151   Change is   -0.002724509055763
 Root      5 :     3.612235165359102   Change is   -0.003509264157291
 Iteration     6 Dimension    68 NMult    60 NNew      8
 CISAX will form     8 AO SS matrices at one time.
 NMat=     8 NSing=     8 JSym2X= 0.
 Root      1 has converged.
 Root      2 has converged.
 Root      3 has converged.
 Root      4 not converged, maximum delta is    0.008202896398698
 Root      5 not converged, maximum delta is    0.015841588749903
 Excitation Energies [eV] at current iteration:
 Root      1 :     1.705009807538347   Change is   -0.000030564914632
 Root      2 :     2.230319903421508   Change is   -0.000000970857980
 Root      3 :     3.165649370533970   Change is   -0.000028136425897
 Root      4 :     3.577671147934117   Change is   -0.000515875552035
 Root      5 :     3.611521880203241   Change is   -0.000713285155862
 Iteration     7 Dimension    72 NMult    68 NNew      4
 CISAX will form     4 AO SS matrices at one time.
 NMat=     4 NSing=     4 JSym2X= 0.
 Root      1 has converged.
 Root      2 has converged.
 Root      3 has converged.
 Root      4 not converged, maximum delta is    0.002075993354215
 Root      5 not converged, maximum delta is    0.005837070799779
 Excitation Energies [eV] at current iteration:
 Root      1 :     1.705009708980826   Change is   -0.000000098557520
 Root      2 :     2.230319756759378   Change is   -0.000000146662131
 Root      3 :     3.165648736139058   Change is   -0.000000634394913
 Root      4 :     3.577588885858506   Change is   -0.000082262075610
 Root      5 :     3.611372491317712   Change is   -0.000149388885528
 Iteration     8 Dimension    76 NMult    72 NNew      4
 CISAX will form     4 AO SS matrices at one time.
 NMat=     4 NSing=     4 JSym2X= 0.
 Root      1 has converged.
 Root      2 has converged.
 Root      3 has converged.
 Root      4 has converged.
 Root      5 not converged, maximum delta is    0.003080563406349
 Excitation Energies [eV] at current iteration:
 Root      1 :     1.705009651552091   Change is   -0.000000057428735
 Root      2 :     2.230319550846717   Change is   -0.000000205912661
 Root      3 :     3.165647273489596   Change is   -0.000001462649462
 Root      4 :     3.577576575544503   Change is   -0.000012310314003
 Root      5 :     3.611313011371205   Change is   -0.000059479946507
 Iteration     9 Dimension    78 NMult    76 NNew      2
 CISAX will form     2 AO SS matrices at one time.
 NMat=     2 NSing=     2 JSym2X= 0.
 Root      1 has converged.
 Root      2 has converged.
 Root      3 has converged.
 Root      4 has converged.
 Root      5 not converged, maximum delta is    0.005352281209425
 Excitation Energies [eV] at current iteration:
 Root      1 :     1.705009624494737   Change is   -0.000000027057354
 Root      2 :     2.230319388131108   Change is   -0.000000162715609
 Root      3 :     3.165645871301593   Change is   -0.000001402188003
 Root      4 :     3.577574935698394   Change is   -0.000001639846109
 Root      5 :     3.611249487314356   Change is   -0.000063524056849
 Iteration    10 Dimension    80 NMult    78 NNew      2
 CISAX will form     2 AO SS matrices at one time.
 NMat=     2 NSing=     2 JSym2X= 0.
 Root      1 has converged.
 Root      2 has converged.
 Root      3 has converged.
 Root      4 has converged.
 Root      5 not converged, maximum delta is    0.005495158714678
 Excitation Energies [eV] at current iteration:
 Root      1 :     1.705009597242882   Change is   -0.000000027251855
 Root      2 :     2.230319334515082   Change is   -0.000000053616026
 Root      3 :     3.165645116506407   Change is   -0.000000754795186
 Root      4 :     3.577574343851142   Change is   -0.000000591847251
 Root      5 :     3.611196087386289   Change is   -0.000053399928066
 Iteration    11 Dimension    82 NMult    80 NNew      2
 CISAX will form     2 AO SS matrices at one time.
 NMat=     2 NSing=     2 JSym2X= 0.
 Root      1 has converged.
 Root      2 has converged.
 Root      3 has converged.
 Root      4 has converged.
 Root      5 not converged, maximum delta is    0.002155456531522
 Excitation Energies [eV] at current iteration:
 Root      1 :     1.705009594649478   Change is   -0.000000002593403
 Root      2 :     2.230319252700200   Change is   -0.000000081814882
 Root      3 :     3.165644846231381   Change is   -0.000000270275026
 Root      4 :     3.577574254673844   Change is   -0.000000089177298
 Root      5 :     3.611177200679923   Change is   -0.000018886706366
 Iteration    12 Dimension    84 NMult    82 NNew      2
 CISAX will form     2 AO SS matrices at one time.
 NMat=     2 NSing=     2 JSym2X= 0.
 Root      1 has converged.
 Root      2 has converged.
 Root      3 has converged.
 Root      4 has converged.
 Root      5 has converged.
 Excitation Energies [eV] at current iteration:
 Root      1 :     1.705009574831214   Change is   -0.000000019818264
 Root      2 :     2.230319203719310   Change is   -0.000000048980889
 Root      3 :     3.165644822481053   Change is   -0.000000023750328
 Root      4 :     3.577574241513539   Change is   -0.000000013160306
 Root      5 :     3.611172341903040   Change is   -0.000004858776883
 Convergence achieved on expansion vectors.
 ***********************************************************************
 Excited states from <AA,BB:AA,BB> singles matrix:
 ***********************************************************************
 
 1PDM for each excited state written to RWF  633
 Ground to excited state transition densities written to RWF  633
 Ground to excited state transition electric dipole moments (Au):
       state          X           Y           Z        Dip. S.      Osc.
         1         0.0617      3.0214     -0.6262      9.5251      0.3979
         2         1.5865      0.2378      0.4763      2.8003      0.1530
         3        -0.3313     -0.2149     -0.0238      0.1565      0.0121
         4        -1.5428     -0.2399     -0.4305      2.6231      0.2299
         5         0.8391      0.1297      0.2696      0.7936      0.0702
 Ground to excited state transition velocity dipole moments (Au):
       state          X           Y           Z        Dip. S.      Osc.
         1        -0.0042     -0.1844      0.0394      0.0356      0.3785
         2        -0.1240     -0.0189     -0.0362      0.0171      0.1387
         3         0.0399      0.0230      0.0041      0.0021      0.0122
         4         0.1962      0.0310      0.0552      0.0425      0.2155
         5        -0.1091     -0.0170     -0.0326      0.0133      0.0666
 Ground to excited state transition magnetic dipole moments (Au):
       state          X           Y           Z
         1        -0.0974     -0.4256     -2.1905
         2        -0.3050      0.5155      0.3327
         3        -0.0819      0.0588      0.8945
         4        -0.4005     -0.5599      0.7059
         5        -0.5437      0.3487     -0.4988
 Ground to excited state transition velocity quadrupole moments (Au):
       state          XX          YY          ZZ          XY          XZ          YZ
         1         0.0928     -0.4094     -0.0558     -2.2318      0.4294      0.0738
         2        -2.7010     -0.1198      0.0639     -0.2046     -0.4155     -0.0639
         3         0.6116      0.2604      0.0111     -0.0674      0.0496     -0.0986
         4         4.4413     -0.6314     -0.0808      0.3487      0.6394      0.0654
         5        -2.4515      0.2480      0.0582     -0.2100     -0.3797     -0.0590
 <0|del|b> * <b|rxdel|0> + <0|del|b> * <b|delr+rdel|0>
 Rotatory Strengths (R) in cgs (10**-40 erg-esu-cm/Gauss)
       state          XX          YY          ZZ    R(velocity)    E-M Angle
         1       -92.4892      9.7230      0.0715    -27.5649       91.00
         2       -95.9145    113.5196    120.8814     46.1622       79.67
         3        10.8399    -10.0334      9.6063      3.4709       87.64
         4        56.4629   -123.7678   -239.1781   -102.1610      106.28
         5        28.4781    200.3123    142.3615    123.7173       42.18
 1/2[<0|r|b>*<b|rxdel|0> + (<0|rxdel|b>*<b|r|0>)*]
 Rotatory Strengths (R) in cgs (10**-40 erg-esu-cm/Gauss)
       state          XX          YY          ZZ     R(length)
         1         4.2472    909.3212   -969.9921    -18.8079
         2       342.1975    -86.6965   -112.0425     47.8195
[...]
 Alpha virt. eigenvalues --    1.19310   1.20276   1.20411   1.21485   1.21746
 Alpha virt. eigenvalues --    1.22476   1.22644   1.23061   1.23832   1.23968
 Alpha virt. eigenvalues --    1.24440   1.24771   1.25082   1.25626   1.26021
 Alpha virt. eigenvalues --    1.26730   1.27044   1.27558   1.27822   1.28137
 Alpha virt. eigenvalues --    1.28683   1.29282   1.29365   1.30264   1.30667
 Alpha virt. eigenvalues --    1.31080   1.31421   1.32799   1.33445   1.34120
 Alpha virt. eigenvalues --    1.34203   1.34703   1.34947   1.35579   1.35954
 Alpha virt. eigenvalues --    1.36075   1.36300   1.36941   1.37452   1.37903
 Alpha virt. eigenvalues --    1.38423   1.38938   1.39180   1.39407   1.39533
 Alpha virt. eigenvalues --    1.40464   1.40847   1.41339   1.41613   1.42016
 Alpha virt. eigenvalues --    1.42452   1.43054   1.43306   1.43452   1.43724
 Alpha virt. eigenvalues --    1.43945   1.44449   1.45006   1.45041   1.45282
 Alpha virt. eigenvalues --    1.45536   1.46694   1.47093   1.47719   1.47742
 Alpha virt. eigenvalues --    1.48151   1.48638   1.48906   1.49715   1.49863
 Alpha virt. eigenvalues --    1.51177   1.51309   1.51607   1.51923   1.52769
 Alpha virt. eigenvalues --    1.52917   1.53236   1.54135   1.54192   1.54431
 Alpha virt. eigenvalues --    1.55379   1.55726   1.56426   1.56758   1.57165
 Alpha virt. eigenvalues --    1.57358   1.57736   1.57996   1.58375   1.58716
 Alpha virt. eigenvalues --    1.58951   1.59426   1.59690   1.59887   1.60191
 Alpha virt. eigenvalues --    1.60410   1.60477   1.60897   1.60999   1.61103
 Alpha virt. eigenvalues --    1.61535   1.61598   1.61987   1.62042   1.62178
 Alpha virt. eigenvalues --    1.62608   1.62909   1.63001   1.63258   1.63685
 Alpha virt. eigenvalues --    1.63873   1.64026   1.64535   1.64771   1.65001
 Alpha virt. eigenvalues --    1.65161   1.65556   1.65935   1.66170   1.66557
 Alpha virt. eigenvalues --    1.66814   1.67734   1.67794   1.68369   1.68727
 Alpha virt. eigenvalues --    1.69402   1.69699   1.71056   1.71118   1.71195
 Alpha virt. eigenvalues --    1.71787   1.72223   1.72709   1.72963   1.73625
 Alpha virt. eigenvalues --    1.74212   1.74465   1.74981   1.75497   1.75824
 Alpha virt. eigenvalues --    1.76083   1.76791   1.77009   1.77264   1.77362
 Alpha virt. eigenvalues --    1.77928   1.78239   1.78305   1.78416   1.78590
 Alpha virt. eigenvalues --    1.79319   1.79553   1.79779   1.79954   1.80054
 Alpha virt. eigenvalues --    1.80154   1.80285   1.80833   1.81335   1.81507
 Alpha virt. eigenvalues --    1.81620   1.82047   1.82148   1.82405   1.82513
 Alpha virt. eigenvalues --    1.82849   1.83084   1.83356   1.83435   1.83616
 Alpha virt. eigenvalues --    1.83877   1.84000   1.84201   1.84340   1.84440
 Alpha virt. eigenvalues --    1.84966   1.85109   1.85412   1.85533   1.85587
 Alpha virt. eigenvalues --    1.85705   1.86005   1.86092   1.86289   1.86454
 Alpha virt. eigenvalues --    1.86686   1.86937   1.87121   1.87197   1.87397
 Alpha virt. eigenvalues --    1.87453   1.87605   1.87981   1.88314   1.88725
 Alpha virt. eigenvalues --    1.88877   1.88911   1.89308   1.89321   1.89600
 Alpha virt. eigenvalues --    1.89965   1.89994   1.90211   1.90431   1.90641
 Alpha virt. eigenvalues --    1.90720   1.91048   1.91238   1.91635   1.91896
 Alpha virt. eigenvalues --    1.92127   1.92298   1.92624   1.93282   1.93345
 Alpha virt. eigenvalues --    1.93555   1.94089   1.94167   1.94477   1.94713
 Alpha virt. eigenvalues --    1.94793   1.94860   1.94943   1.95166   1.95297
 Alpha virt. eigenvalues --    1.95507   1.95916   1.95967   1.96193   1.96264
 Alpha virt. eigenvalues --    1.96876   1.97057   1.97375   1.97618   1.97659
 Alpha virt. eigenvalues --    1.97710   1.98053   1.98380   1.98725   1.99043
 Alpha virt. eigenvalues --    1.99295   1.99484   1.99623   1.99806   1.99882
 Alpha virt. eigenvalues --    2.00232   2.00458   2.00813   2.00883   2.01338
 Alpha virt. eigenvalues --    2.01996   2.02230   2.02299   2.02593   2.03132
 Alpha virt. eigenvalues --    2.03446   2.03617   2.03667   2.04030   2.04323
 Alpha virt. eigenvalues --    2.04777   2.05032   2.05221   2.05402   2.05615
 Alpha virt. eigenvalues --    2.05636   2.05709   2.05836   2.06429   2.06990
 Alpha virt. eigenvalues --    2.07441   2.08140   2.08301   2.08549   2.08927
 Alpha virt. eigenvalues --    2.09192   2.09525   2.09850   2.10271   2.10419
 Alpha virt. eigenvalues --    2.10732   2.10908   2.11240   2.11514   2.12191
 Alpha virt. eigenvalues --    2.12477   2.12683   2.12989   2.13181   2.13605
 Alpha virt. eigenvalues --    2.14020   2.14214   2.14537   2.14615   2.14917
 Alpha virt. eigenvalues --    2.15078   2.15397   2.15682   2.16140   2.16219
 Alpha virt. eigenvalues --    2.16781   2.17086   2.17476   2.17693   2.17901
 Alpha virt. eigenvalues --    2.18236   2.18677   2.18757   2.19004   2.19257
 Alpha virt. eigenvalues --    2.19469   2.19586   2.19707   2.20459   2.20629
 Alpha virt. eigenvalues --    2.21183   2.21367   2.21641   2.21855   2.22496
 Alpha virt. eigenvalues --    2.22988   2.23194   2.24090   2.24338   2.24696
 Alpha virt. eigenvalues --    2.24946   2.25040   2.25979   2.26193   2.26392
 Alpha virt. eigenvalues --    2.27256   2.27519   2.27996   2.28442   2.28756
 Alpha virt. eigenvalues --    2.29437   2.29740   2.30022   2.30875   2.31248
 Alpha virt. eigenvalues --    2.31598   2.32099   2.32313   2.32418   2.32992
 Alpha virt. eigenvalues --    2.33402   2.33902   2.34142   2.34817   2.35002
 Alpha virt. eigenvalues --    2.35325   2.36071   2.36094   2.36714   2.37650
 Alpha virt. eigenvalues --    2.37829   2.37986   2.38404   2.38968   2.39163
 Alpha virt. eigenvalues --    2.39799   2.40323   2.40485   2.40693   2.41630
 Alpha virt. eigenvalues --    2.41756   2.42253   2.42501   2.42867   2.43060
 Alpha virt. eigenvalues --    2.43288   2.43940   2.44102   2.44263   2.44565
 Alpha virt. eigenvalues --    2.44730   2.45365   2.45673   2.46205   2.46424
 Alpha virt. eigenvalues --    2.46635   2.46979   2.47152   2.47537   2.47870
 Alpha virt. eigenvalues --    2.47995   2.48350   2.48669   2.49341   2.49473
 Alpha virt. eigenvalues --    2.49880   2.50293   2.51230   2.51474   2.51996
 Alpha virt. eigenvalues --    2.52175   2.52252   2.52734   2.53113   2.53543
 Alpha virt. eigenvalues --    2.54054   2.54461   2.55269   2.55409   2.55823
 Alpha virt. eigenvalues --    2.56345   2.56676   2.56840   2.57249   2.57490
 Alpha virt. eigenvalues --    2.58091   2.58569   2.58815   2.59191   2.59495
 Alpha virt. eigenvalues --    2.59918   2.61592   2.61675   2.61771   2.62016
 Alpha virt. eigenvalues --    2.62496   2.62852   2.63567   2.63628   2.63848
 Alpha virt. eigenvalues --    2.64070   2.64450   2.64706   2.65839   2.66386
 Alpha virt. eigenvalues --    2.66480   2.66920   2.67133   2.67282   2.67719
 Alpha virt. eigenvalues --    2.68077   2.68882   2.69328   2.69445   2.69577
 Alpha virt. eigenvalues --    2.69843   2.70052   2.70369   2.70709   2.70917
 Alpha virt. eigenvalues --    2.71414   2.71910   2.72729   2.72850   2.73398
 Alpha virt. eigenvalues --    2.73682   2.74449   2.74934   2.75810   2.76237
 Alpha virt. eigenvalues --    2.76859   2.77098   2.77356   2.78119   2.78327
 Alpha virt. eigenvalues --    2.78431   2.78851   2.79351   2.79360   2.79701
 Alpha virt. eigenvalues --    2.80176   2.80610   2.80888   2.81777   2.82616
 Alpha virt. eigenvalues --    2.82803   2.83016   2.84141   2.84711   2.85226
 Alpha virt. eigenvalues --    2.85381   2.85581   2.86209   2.86506   2.87106
 Alpha virt. eigenvalues --    2.87426   2.87822   2.88030   2.88987   2.89142
 Alpha virt. eigenvalues --    2.89635   2.89689   2.90219   2.91339   2.91768
 Alpha virt. eigenvalues --    2.92126   2.93691   2.93820   2.94471   2.94717
 Alpha virt. eigenvalues --    2.94862   2.95234   2.95272   2.95978   2.96268
 Alpha virt. eigenvalues --    2.96684   2.97402   2.97590   2.97783   2.97924
 Alpha virt. eigenvalues --    2.98246   2.98663   2.98982   2.99298   2.99522
 Alpha virt. eigenvalues --    3.00191   3.00566   3.00646   3.00698   3.01234
 Alpha virt. eigenvalues --    3.01376   3.01988   3.02142   3.02520   3.02756
 Alpha virt. eigenvalues --    3.03202   3.03723   3.03955   3.04164   3.04379
 Alpha virt. eigenvalues --    3.04454   3.04625   3.04882   3.05329   3.05653
 Alpha virt. eigenvalues --    3.05895   3.06008   3.06056   3.06434   3.06944
 Alpha virt. eigenvalues --    3.07544   3.07590   3.07876   3.08372   3.09316
 Alpha virt. eigenvalues --    3.09330   3.09776   3.10090   3.10137   3.10855
 Alpha virt. eigenvalues --    3.10926   3.11018   3.11302   3.11372   3.11562
 Alpha virt. eigenvalues --    3.13069   3.13109   3.13373   3.14980   3.15165
 Alpha virt. eigenvalues --    3.15679   3.16109   3.17217   3.17574   3.18279
 Alpha virt. eigenvalues --    3.18406   3.19179   3.19277   3.19661   3.20275
 Alpha virt. eigenvalues --    3.21629   3.23490   3.23754   3.24445   3.24822
 Alpha virt. eigenvalues --    3.26688   3.27321   3.28387   3.29077   3.30155
 Alpha virt. eigenvalues --    3.33784   3.34100   3.44644   3.48076   3.49101
 Alpha virt. eigenvalues --    3.50343   3.51638   3.53834   3.56602   3.59970
 Alpha virt. eigenvalues --    3.61148   3.68934   3.69753   3.69939   3.72518
 Alpha virt. eigenvalues --    3.73435   3.78154
          Condensed to atoms (all electrons):
 Mulliken charges:
               1
     1  Mg   0.837961
     2  C   -0.048178
     3  C   -0.073282
     4  C   -0.056684
     5  C   -0.087820
     6  N   -0.289109
     7  C   -0.009874
     8  C   -0.001833
     9  C   -0.057509
    10  C   -0.001058
    11  C    0.070652
    12  C    0.087105
    13  C    0.010433
    14  C    0.178091
    15  O   -0.229493
    16  O   -0.313899
    17  N   -0.378217
    18  C    0.172010
    19  C   -0.144880
    20  C   -0.004500
    21  C    0.116768
    22  C    0.109866
    23  C   -0.015229
    24  O   -0.183918
    25  C    0.022188
    26  N   -0.258259
    27  C    0.041562
    28  C   -0.075998
    29  C    0.026844
    30  C    0.015812
    31  C    0.057259
    32  C    0.014075
    33  C   -0.007601
    34  N   -0.333307
    35  C    0.092489
    36  C   -0.193694
    37  C   -0.049559
    38  C    0.145541
    39  C    0.132581
    40  C    0.063926
    41  O   -0.188861
    42  C    0.017813
    43  C    0.181943
    44  O   -0.175336
    45  O   -0.320603
    46  C    0.158989
    47  C    0.314070
    48  C   -0.140692
    49  C   -0.196997
    50  C    0.108426
    51  C    0.013423
    52  C    0.045673
    53  C    0.052554
    54  C   -0.121020
    55  C    0.035049
    56  C    0.063293
    57  C    0.003789
    58  C    0.027883
    59  C   -0.133708
    60  C    0.040506
    61  C    0.082878
    62  C   -0.001388
    63  C   -0.003702
    64  C   -0.141509
    65  C    0.043373
    66  C    0.054667
    67  H   -0.045914
    68  H   -0.003689
    69  H   -0.030181
    70  H   -0.004344
    71  H   -0.003498
    72  H    0.012422
    73  H    0.019163
    74  H    0.019269
    75  H    0.002880
    76  H    0.047925
    77  H    0.034366
    78  H    0.035303
    79  H    0.022660
    80  H    0.049443
    81  H    0.017663
    82  H    0.018722
    83  H    0.022273
    84  H    0.048344
    85  H    0.028613
    86  H    0.013880
    87  H    0.030017
    88  H    0.017788
    89  H    0.016846
    90  H    0.011349
    91  H    0.010490
    92  H    0.012689
    93  H    0.025617
    94  H    0.019704
    95  H    0.033844
    96  H    0.027957
    97  H    0.022959
    98  H    0.038349
    99  H    0.036358
   100  H    0.048851
   101  H    0.041874
   102  H    0.056319
   103  H    0.001503
   104  H   -0.018101
   105  H    0.014240
   106  H    0.010999
   107  H    0.019887
   108  H    0.004567
   109  H   -0.005332
   110  H    0.002282
   111  H    0.005140
   112  H   -0.007872
   113  H   -0.001250
   114  H   -0.002011
   115  H    0.009110
   116  H    0.009960
   117  H   -0.001557
   118  H    0.002409
   119  H   -0.017375
   120  H   -0.003506
   121  H    0.008125
   122  H    0.004829
   123  H   -0.013209
   124  H   -0.002535
   125  H    0.002322
   126  H   -0.004120
   127  H    0.009413
   128  H    0.006584
   129  H   -0.001558
   130  H   -0.002153
   131  H    0.003913
   132  H   -0.004317
   133  H   -0.005594
   134  H   -0.006976
   135  H   -0.004536
   136  H    0.007016
   137  H    0.009242
   138  H    0.010444
   139  H   -0.001067
   140  H    0.002999
 Sum of Mulliken charges =  -0.00000
 Mulliken charges with hydrogens summed into heavy atoms:
               1
     1  Mg   0.837961
     2  C   -0.048178
     3  C   -0.119196
     4  C   -0.060373
     5  C   -0.118002
     6  N   -0.289109
     7  C   -0.009874
     8  C   -0.006177
     9  C   -0.061006
    10  C   -0.001058
    11  C    0.121505
    12  C    0.137910
    13  C    0.080102
    14  C    0.178091
    15  O   -0.229493
    16  O   -0.313899
    17  N   -0.378217
    18  C    0.172010
    19  C   -0.144880
    20  C   -0.004500
    21  C    0.116768
    22  C    0.199633
    23  C   -0.015229
    24  O   -0.183918
    25  C    0.111528
    26  N   -0.258259
    27  C    0.041562
    28  C   -0.047385
    29  C    0.040724
    30  C    0.015812
    31  C    0.121911
    32  C    0.035913
    33  C    0.050409
    34  N   -0.333307
    35  C    0.092489
    36  C   -0.193694
    37  C   -0.049559
    38  C    0.145541
    39  C    0.217341
    40  C    0.063926
    41  O   -0.188861
    42  C    0.056161
    43  C    0.181943
    44  O   -0.175336
    45  O   -0.320603
    46  C    0.286072
    47  C    0.371892
    48  C   -0.158792
    49  C   -0.196997
    50  C    0.153551
    51  C    0.012658
    52  C    0.053094
    53  C    0.043433
    54  C   -0.123031
    55  C    0.052562
    56  C    0.048327
    57  C    0.008408
    58  C    0.019502
    59  C   -0.136243
    60  C    0.048121
    61  C    0.087904
    62  C    0.000373
    63  C   -0.013613
    64  C   -0.148485
    65  C    0.055096
    66  C    0.067044
 Electronic spatial extent (au):  <R**2>=         147492.6413
 Charge=              0.0000 electrons
 Dipole moment (field-independent basis, Debye):
    X=             -1.9945    Y=              3.1754    Z=             -3.0946  Tot=              4.8619
 Quadrupole moment (field-independent basis, Debye-Ang):
   XX=           -381.8896   YY=           -415.7587   ZZ=           -401.8905
   XY=              3.6516   XZ=              0.7773   YZ=            -12.2627
 Traceless Quadrupole moment (field-independent basis, Debye-Ang):
   XX=             17.9566   YY=            -15.9124   ZZ=             -2.0442
   XY=              3.6516   XZ=              0.7773   YZ=            -12.2627
 Octapole moment (field-independent basis, Debye-Ang**2):
  XXX=            164.5263  YYY=            136.1595  ZZZ=             -1.1831  XYY=           -175.4099
  XXY=           -217.8771  XXZ=             51.8451  XZZ=             78.0238  YZZ=              4.5870
  YYZ=            -43.1453  XYZ=            -16.3028
 Hexadecapole moment (field-independent basis, Debye-Ang**3):
 XXXX=        -173010.4322 YYYY=         -22534.4407 ZZZZ=          -7497.4804 XXXY=          -2410.2756
 XXXZ=           1276.6689 YYYX=            578.1924 YYYZ=           -480.1703 ZZZX=             61.6253
 ZZZY=           -138.4976 XXYY=         -34286.3860 XXZZ=         -30667.8951 YYZZ=          -4839.4084
 XXYZ=           -569.0279 YYXZ=           -321.0155 ZZXY=            210.6931
 N-N= 9.274967035369D+03 E-N=-2.554223194212D+04  KE= 2.975900297304D+03
 Leave Link  601 at Thu Apr 28 11:53:17 2022, MaxMem= 10066329600 cpu:              16.8 elap:               0.8
 (Enter /sw/apps/gaussian-16.0/g16/l9999.exe)
 1\1\GINC-BP1-COMPUTE139\SP\RCAM-B3LYP TD-FC\def2SVP\C55H74Mg1N4O6\OF15
 641\28-Apr-2022\0\\#p cam-b3lyp/Def2SVP td=(nstates=5)\\step_1551_chro
 mophore_22 TDDFT with cam-b3lyp functional\\0,1\Mg,0,8.869,48.279,24.8
 65\C,0,6.741,48.271,27.807\C,0,11.365,49.344,26.813\C,0,10.674,48.254,
 22.188\C,0,5.934,48.214,22.917\N,0,9.031,48.792,27.015\C,0,8.091,48.55
 8,28.075\C,0,8.779,48.867,29.381\C,0,10.077,49.634,28.995\C,0,10.192,4
 9.215,27.532\C,0,9.963,51.148,29.084\C,0,8.941,47.675,30.343\C,0,8.585
 ,47.968,31.783\C,0,8.416,46.713,32.706\O,0,8.561,45.536,32.419\O,0,8.1
 2,47.129,33.984\N,0,10.839,48.591,24.566\C,0,11.718,49.095,25.456\C,0,
 13.007,49.18,24.875\C,0,12.88,48.753,23.548\C,0,11.429,48.475,23.373\C
 ,0,14.229,49.751,25.653\C,0,13.832,48.829,22.433\O,0,13.55,48.605,21.2
 79\C,0,15.256,49.207,22.742\N,0,8.306,48.351,22.839\C,0,9.297,48.246,2
 1.978\C,0,8.805,48.01,20.534\C,0,7.265,48.099,20.757\C,0,7.114,48.295,
 22.263\C,0,9.302,49.101,19.502\C,0,6.533,46.869,20.202\C,0,5.447,47.24
 ,19.088\N,0,6.763,48.206,25.247\C,0,5.743,48.106,24.333\C,0,4.471,47.8
 77,25.089\C,0,4.868,47.9,26.5\C,0,6.212,48.049,26.495\C,0,3.134,47.632
 ,24.535\C,0,4.32,47.747,27.883\O,0,3.157,47.553,28.279\C,0,5.565,47.90
 3,28.78\C,0,5.71,46.605,29.524\O,0,6.272,45.64,29.135\O,0,5.243,46.743
 ,30.778\C,0,5.062,45.472,31.512\C,0,7.906,45.982,34.811\C,0,8.227,46.3
 83,36.208\C,0,7.611,46.328,37.442\C,0,6.314,45.627,37.816\C,0,8.211,46
 .928,38.704\C,0,9.011,46.002,39.705\C,0,10.344,46.679,40.208\C,0,10.38
 3,47.01,41.702\C,0,9.781,48.413,42.006\C,0,11.853,46.972,42.191\C,0,12
 .13,45.532,42.73\C,0,12.508,45.575,44.242\C,0,13.65,44.638,44.619\C,0,
 14.135,44.905,46.094\C,0,13.181,43.163,44.369\C,0,14.164,42.493,43.291
 \C,0,14.297,40.969,43.712\C,0,15.599,40.311,43.244\C,0,15.698,40.185,4
 1.695\C,0,15.801,39.002,43.996\H,0,12.111,49.745,27.503\H,0,11.229,48.
 303,21.249\H,0,5.051,47.959,22.327\H,0,8.188,49.64,29.873\H,0,10.985,4
 9.415,29.557\H,0,10.01,51.462,30.127\H,0,8.967,51.417,28.733\H,0,10.74
 3,51.704,28.564\H,0,9.994,47.409,30.429\H,0,8.449,46.786,29.949\H,0,7.
 605,48.445,31.802\H,0,9.295,48.627,32.283\H,0,14.08,49.574,26.718\H,0,
 14.453,50.805,25.485\H,0,15.059,49.149,25.285\H,0,15.196,50.136,23.309
 \H,0,15.821,49.387,21.828\H,0,15.866,48.53,23.34\H,0,9.154,47.027,20.2
 18\H,0,6.789,49.035,20.468\H,0,9.984,48.552,18.853\H,0,9.845,49.881,20
 .034\H,0,8.548,49.698,18.989\H,0,6.021,46.405,21.046\H,0,7.191,46.114,
 19.773\H,0,5.498,48.309,18.884\H,0,4.471,46.965,19.487\H,0,5.718,46.73
 5,18.16\H,0,2.462,47.359,25.348\H,0,3.184,46.938,23.695\H,0,2.813,48.6
 21,24.209\H,0,5.382,48.723,29.474\H,0,4.044,45.576,31.887\H,0,5.761,45
 .17,32.291\H,0,5.013,44.605,30.853\H,0,8.419,45.025,34.718\H,0,6.838,4
 5.771,34.764\H,0,9.201,46.872,36.242\H,0,6.566,45.007,38.677\H,0,5.938
 ,45.03,36.985\H,0,5.686,46.447,38.163\H,0,7.467,47.52,39.238\H,0,8.879
 ,47.694,38.309\H,0,9.271,45.052,39.238\H,0,8.27,45.733,40.458\H,0,10.4
 18,47.657,39.732\H,0,11.22,46.147,39.838\H,0,9.785,46.296,42.268\H,0,1
 0.396,49.256,41.693\H,0,9.659,48.391,43.089\H,0,8.804,48.604,41.561\H,
 0,12.218,47.773,42.835\H,0,12.49,47.023,41.308\H,0,12.903,45.205,42.03
 5\H,0,11.336,44.787,42.67\H,0,11.692,45.448,44.954\H,0,13.022,46.516,4
 4.438\H,0,14.518,44.873,44.003\H,0,13.78,45.84,46.527\H,0,15.21,45.064
 ,46.009\H,0,14.032,44.107,46.829\H,0,12.155,43.152,44.\H,0,13.325,42.6
 07,45.296\H,0,15.186,42.871,43.276\H,0,13.83,42.522,42.254\H,0,13.481,
 40.348,43.342\H,0,14.266,40.89,44.799\H,0,16.399,41.009,43.491\H,0,16.
 474,40.851,41.319\H,0,14.835,40.577,41.155\H,0,16.002,39.179,41.404\H,
 0,16.693,39.122,44.61\H,0,15.882,38.146,43.327\H,0,15.011,38.678,44.67
 4\\Version=ES64L-G16RevA.03\State=1-A\HF=-3007.1784251\RMSD=9.117e-09\
 PG=C01 [X(C55H74Mg1N4O6)]\\@


 Until you make peace with who you are,
 you'll never be content with what you have.
                           -- Doris Mortman
 Job cpu time:       0 days 10 hours  5 minutes 34.8 seconds.
 Elapsed time:       0 days  0 hours 25 minutes 42.6 seconds.
 File lengths (MBytes):  RWF=   8929 Int=      0 D2E=      0 Chk=    390 Scr=      1
 Normal termination of Gaussian 16 at Thu Apr 28 11:53:18 2022.
