 Entering Gaussian System, Link 0=g16
 Initial command:
 /sw/apps/gaussian-16.0/g16/l1.exe "/tmp/Gau-283770.inp" -scrdir="/tmp/"
 Entering Link 1 = /sw/apps/gaussian-16.0/g16/l1.exe PID=    283772.
  
 Copyright (c) 1988,1990,1992,1993,1995,1998,2003,2009,2016,
            Gaussian, Inc.  All Rights Reserved.
  
 This is part of the Gaussian(R) 16 program.  It is based on
 the Gaussian(R) 09 system (copyright 2009, Gaussian, Inc.),
 the Gaussian(R) 03 system (copyright 2003, Gaussian, Inc.),
 the Gaussian(R) 98 system (copyright 1998, Gaussian, Inc.),
 the Gaussian(R) 94 system (copyright 1995, Gaussian, Inc.),
 the Gaussian 92(TM) system (copyright 1992, Gaussian, Inc.),
 the Gaussian 90(TM) system (copyright 1990, Gaussian, Inc.),
 the Gaussian 88(TM) system (copyright 1988, Gaussian, Inc.),
 the Gaussian 86(TM) system (copyright 1986, Carnegie Mellon
 University), and the Gaussian 82(TM) system (copyright 1983,
 Carnegie Mellon University). Gaussian is a federally registered
 trademark of Gaussian, Inc.
  
 This software contains proprietary and confidential information,
 including trade secrets, belonging to Gaussian, Inc.
  
 This software is provided under written license and may be
 used, copied, transmitted, or stored only in accord with that
 written license.
  
 The following legend is applicable only to US Government
 contracts under FAR:
  
                    RESTRICTED RIGHTS LEGEND
  
 Use, reproduction and disclosure by the US Government is
 subject to restrictions as set forth in subparagraphs (a)
 and (c) of the Commercial Computer Software - Restricted
 Rights clause in FAR 52.227-19.
  
 Gaussian, Inc.
 340 Quinnipiac St., Bldg. 40, Wallingford CT 06492
  
  
 ---------------------------------------------------------------
 Warning -- This program may not be used in any manner that
 competes with the business of Gaussian, Inc. or will provide
 assistance to any competitor of Gaussian, Inc.  The licensee
 of this program is prohibited from giving any competitor of
 Gaussian, Inc. access to this program.  By using this program,
 the user acknowledges that Gaussian, Inc. is engaged in the
 business of creating and licensing software in the field of
 computational chemistry and represents and warrants to the
 licensee that it is not a competitor of Gaussian, Inc. and that
 it will not use this program in any manner prohibited above.
 ---------------------------------------------------------------
  

 Cite this work as:
 Gaussian 16, Revision A.03,
 M. J. Frisch, G. W. Trucks, H. B. Schlegel, G. E. Scuseria, 
 M. A. Robb, J. R. Cheeseman, G. Scalmani, V. Barone, 
 G. A. Petersson, H. Nakatsuji, X. Li, M. Caricato, A. V. Marenich, 
 J. Bloino, B. G. Janesko, R. Gomperts, B. Mennucci, H. P. Hratchian, 
 J. V. Ortiz, A. F. Izmaylov, J. L. Sonnenberg, D. Williams-Young, 
 F. Ding, F. Lipparini, F. Egidi, J. Goings, B. Peng, A. Petrone, 
 T. Henderson, D. Ranasinghe, V. G. Zakrzewski, J. Gao, N. Rega, 
 G. Zheng, W. Liang, M. Hada, M. Ehara, K. Toyota, R. Fukuda, 
 J. Hasegawa, M. Ishida, T. Nakajima, Y. Honda, O. Kitao, H. Nakai, 
 T. Vreven, K. Throssell, J. A. Montgomery, Jr., J. E. Peralta, 
 F. Ogliaro, M. J. Bearpark, J. J. Heyd, E. N. Brothers, K. N. Kudin, 
 V. N. Staroverov, T. A. Keith, R. Kobayashi, J. Normand, 
 K. Raghavachari, A. P. Rendell, J. C. Burant, S. S. Iyengar, 
 J. Tomasi, M. Cossi, J. M. Millam, M. Klene, C. Adamo, R. Cammi, 
 J. W. Ochterski, R. L. Martin, K. Morokuma, O. Farkas, 
 J. B. Foresman, and D. J. Fox, Gaussian, Inc., Wallingford CT, 2016.
 
 ******************************************
 Gaussian 16:  ES64L-G16RevA.03 25-Dec-2016
                28-Apr-2022 
 ******************************************
 %nproc=24
 Will use up to   24 processors via shared memory.
 %mem=75GB
 ---------------------------------
 #p PBE1PBE/Def2SVP td=(nstates=5)
 ---------------------------------
 1/38=1,172=1/1;
 2/12=2,17=6,18=5,40=1/2;
 3/5=43,7=101,11=9,25=1,30=1,74=-13/1,2,3,8;
 4//1;
 5/5=2,38=5/2;
 8/6=1,10=1,108=5/1;
 9/41=5,42=1,70=2/14;
 6/7=2,8=2,9=2,10=2/1;
 99/5=1,9=1/99;
 Leave Link    1 at Thu Apr 28 13:19:08 2022, MaxMem= 10066329600 cpu:               1.6 elap:               0.1
 (Enter /sw/apps/gaussian-16.0/g16/l101.exe)
 ------------------------------------------------------
 step_1601_chromophore_14 TDDFT with PBE1PBE functional
 ------------------------------------------------------
 Symbolic Z-matrix:
 Charge =  0 Multiplicity = 1
 Mg                    47.456    45.138    43.296 
 C                     43.984    44.901    43.184 
 C                     47.739    41.745    42.892 
 C                     50.66     45.572    41.984 
 C                     47.006    48.781    43.116 
 N                     46.085    43.591    43.179 
 C                     44.67     43.669    43.189 
 C                     44.069    42.232    43.19 
 C                     45.289    41.383    43.543 
 C                     46.506    42.3      43.184 
 C                     45.416    40.801    45.038 
 C                     43.244    41.84     41.942 
 C                     43.597    42.499    40.596 
 C                     43.432    41.733    39.25 
 O                     42.669    40.829    39.137 
 O                     44.306    42.117    38.286 
 N                     49.041    43.824    42.673 
 C                     48.974    42.401    42.595 
 C                     50.298    41.889    42.223 
 C                     51.137    42.971    42.022 
 C                     50.279    44.217    42.254 
 C                     50.715    40.41     42.271 
 C                     52.636    42.855    41.65 
 O                     53.103    41.785    41.345 
 C                     53.492    44.075    41.636 
 N                     48.624    46.951    42.787 
 C                     50.001    46.783    42.367 
 C                     50.676    48.217    42.199 
 C                     49.417    49.169    42.425 
 C                     48.294    48.252    42.874 
 C                     51.971    48.519    43.145 
 C                     49.183    50.187    41.349 
 C                     48.558    51.495    41.738 
 N                     45.87     46.614    43.264 
 C                     45.838    47.989    43.272 
 C                     44.454    48.469    43.376 
 C                     43.629    47.307    43.248 
 C                     44.573    46.205    43.279 
 C                     43.962    49.823    43.389 
 C                     42.277    46.754    43.243 
 O                     41.164    47.319    43.273 
 C                     42.494    45.168    43.213 
 C                     41.735    44.562    44.413 
 O                     40.911    43.679    44.418 
 O                     42.18     45.156    45.606 
 C                     41.3      44.78     46.821 
 C                     44.157    41.516    36.928 
 C                     44.722    42.388    35.806 
 C                     45.488    42.081    34.767 
 C                     46.249    40.801    34.523 
 C                     45.97     43.166    33.799 
 C                     45.255    43.219    32.485 
 C                     45.351    44.575    31.777 
 C                     45.48     44.389    30.231 
 C                     45.722    45.78     29.585 
 C                     44.21     43.726    29.532 
 C                     44.469    42.753    28.44 
 C                     43.908    43.104    27.061 
 C                     44.922    43.745    26.107 
 C                     44.348    44.977    25.378 
 C                     45.427    42.664    25.079 
 C                     46.905    42.447    25.209 
 C                     47.745    42.588    23.867 
 C                     47.768    44.084    23.449 
 C                     46.826    44.317    22.228 
 C                     49.313    44.37     23.108 
 H                     47.782    40.655    42.958 
 H                     51.647    45.754    41.553 
 H                     47.027    49.861    43.272 
 H                     43.253    42.227    43.911 
 H                     45.42     40.525    42.884 
 H                     45.73     39.762    44.943 
 H                     44.427    40.961    45.467 
 H                     46.216    41.337    45.549 
 H                     42.228    42.199    42.109 
 H                     43.117    40.77     41.775 
 H                     44.674    42.551    40.761 
 H                     43.237    43.527    40.554 
 H                     50.628    40.008    41.262 
 H                     49.959    39.85     42.822 
 H                     51.673    40.303    42.779 
 H                     53.292    44.687    42.515 
 H                     53.43     44.703    40.747 
 H                     54.488    43.662    41.797 
 H                     51.033    48.12     41.174 
 H                     49.602    49.771    43.314 
 H                     51.733    49.269    43.899 
 H                     52.796    48.85     42.514 
 H                     52.287    47.61     43.657 
 H                     48.514    49.691    40.646 
 H                     50.125    50.388    40.839 
 H                     48.586    51.618    42.821 
 H                     47.593    51.714    41.282 
 H                     49.13     52.367    41.422 
 H                     44.294    50.383    44.263 
 H                     42.874    49.845    43.449 
 H                     44.218    50.193    42.396 
 H                     42.011    44.837    42.293 
 H                     41.711    45.131    47.768 
 H                     41.249    43.692    46.862 
 H                     40.275    45.137    46.715 
 H                     43.084    41.457    36.746 
 H                     44.564    40.505    36.962 
 H                     44.208    43.343    35.689 
 H                     47.137    40.76     35.153 
 H                     46.66     40.807    33.514 
 H                     45.609    39.944    34.734 
 H                     47.046    43.06     33.662 
 H                     45.951    44.166    34.232 
 H                     44.196    43.056    32.688 
 H                     45.585    42.463    31.773 
 H                     46.088    45.277    32.168 
 H                     44.349    44.99     31.885 
 H                     46.369    43.764    30.145 
 H                     45.111    46.006    28.711 
 H                     46.746    46.029    29.306 
 H                     45.528    46.589    30.289 
 H                     43.5      44.452    29.139 
 H                     43.782    43.071    30.291 
 H                     44.092    41.752    28.649 
 H                     45.543    42.68     28.274 
 H                     43.004    43.711    27.1 
 H                     43.524    42.163    26.666 
 H                     45.647    44.158    26.808 
 H                     44.983    45.862    25.418 
 H                     43.387    45.262    25.807 
 H                     44.118    44.761    24.334 
 H                     45.211    42.818    24.022 
 H                     44.99     41.686    25.28 
 H                     47.135    41.438    25.551 
 H                     47.271    43.106    25.996 
 H                     47.259    41.891    23.184 
 H                     48.736    42.145    23.965 
 H                     47.327    44.744    24.196 
 H                     47.232    45.055    21.537 
 H                     45.86     44.703    22.556 
 H                     46.799    43.366    21.696 
 H                     49.658    45.265    23.627 
 H                     49.36     44.556    22.035 
 H                     50.107    43.656    23.325 
 
 ITRead=  0  0  0  0  0  0  0  0  0  0  0  0  0  0  0  0  0  0  0  0
 ITRead=  0  0  0  0  0  0  0  0  0  0  0  0  0  0  0  0  0  0  0  0
 ITRead=  0  0  0  0  0  0  0  0  0  0  0  0  0  0  0  0  0  0  0  0
 ITRead=  0  0  0  0  0  0  0  0  0  0  0  0  0  0  0  0  0  0  0  0
 ITRead=  0  0  0  0  0  0  0  0  0  0  0  0  0  0  0  0  0  0  0  0
 ITRead=  0  0  0  0  0  0  0  0  0  0  0  0  0  0  0  0  0  0  0  0
 ITRead=  0  0  0  0  0  0  0  0  0  0  0  0  0  0  0  0  0  0  0  0
 MicOpt= -1 -1 -1 -1 -1 -1 -1 -1 -1 -1 -1 -1 -1 -1 -1 -1 -1 -1 -1 -1
 MicOpt= -1 -1 -1 -1 -1 -1 -1 -1 -1 -1 -1 -1 -1 -1 -1 -1 -1 -1 -1 -1
 MicOpt= -1 -1 -1 -1 -1 -1 -1 -1 -1 -1 -1 -1 -1 -1 -1 -1 -1 -1 -1 -1
 MicOpt= -1 -1 -1 -1 -1 -1 -1 -1 -1 -1 -1 -1 -1 -1 -1 -1 -1 -1 -1 -1
 MicOpt= -1 -1 -1 -1 -1 -1 -1 -1 -1 -1 -1 -1 -1 -1 -1 -1 -1 -1 -1 -1
 MicOpt= -1 -1 -1 -1 -1 -1 -1 -1 -1 -1 -1 -1 -1 -1 -1 -1 -1 -1 -1 -1
 MicOpt= -1 -1 -1 -1 -1 -1 -1 -1 -1 -1 -1 -1 -1 -1 -1 -1 -1 -1 -1 -1
 NAtoms=    140 NQM=      140 NQMF=       0 NMMI=      0 NMMIF=      0
                NMic=       0 NMicF=      0.
                    Isotopes and Nuclear Properties:
 (Nuclear quadrupole moments (NQMom) in fm**2, nuclear magnetic moments (NMagM)
  in nuclear magnetons)

  Atom         1           2           3           4           5           6           7           8           9          10
 IAtWgt=          24          12          12          12          12          14          12          12          12          12
 AtmWgt=  23.9850450  12.0000000  12.0000000  12.0000000  12.0000000  14.0030740  12.0000000  12.0000000  12.0000000  12.0000000
 NucSpn=           0           0           0           0           0           2           0           0           0           0
 AtZEff=  -0.0000000  -0.0000000  -0.0000000  -0.0000000  -0.0000000  -0.0000000  -0.0000000  -0.0000000  -0.0000000  -0.0000000
 NQMom=    0.0000000   0.0000000   0.0000000   0.0000000   0.0000000   2.0440000   0.0000000   0.0000000   0.0000000   0.0000000
 NMagM=    0.0000000   0.0000000   0.0000000   0.0000000   0.0000000   0.4037610   0.0000000   0.0000000   0.0000000   0.0000000
 AtZNuc=  12.0000000   6.0000000   6.0000000   6.0000000   6.0000000   7.0000000   6.0000000   6.0000000   6.0000000   6.0000000

  Atom        11          12          13          14          15          16          17          18          19          20
 IAtWgt=          12          12          12          12          16          16          14          12          12          12
 AtmWgt=  12.0000000  12.0000000  12.0000000  12.0000000  15.9949146  15.9949146  14.0030740  12.0000000  12.0000000  12.0000000
 NucSpn=           0           0           0           0           0           0           2           0           0           0
 AtZEff=  -0.0000000  -0.0000000  -0.0000000  -0.0000000  -0.0000000  -0.0000000  -0.0000000  -0.0000000  -0.0000000  -0.0000000
 NQMom=    0.0000000   0.0000000   0.0000000   0.0000000   0.0000000   0.0000000   2.0440000   0.0000000   0.0000000   0.0000000
 NMagM=    0.0000000   0.0000000   0.0000000   0.0000000   0.0000000   0.0000000   0.4037610   0.0000000   0.0000000   0.0000000
 AtZNuc=   6.0000000   6.0000000   6.0000000   6.0000000   8.0000000   8.0000000   7.0000000   6.0000000   6.0000000   6.0000000

  Atom        21          22          23          24          25          26          27          28          29          30
 IAtWgt=          12          12          12          16          12          14          12          12          12          12
 AtmWgt=  12.0000000  12.0000000  12.0000000  15.9949146  12.0000000  14.0030740  12.0000000  12.0000000  12.0000000  12.0000000
 NucSpn=           0           0           0           0           0           2           0           0           0           0
 AtZEff=  -0.0000000  -0.0000000  -0.0000000  -0.0000000  -0.0000000  -0.0000000  -0.0000000  -0.0000000  -0.0000000  -0.0000000
 NQMom=    0.0000000   0.0000000   0.0000000   0.0000000   0.0000000   2.0440000   0.0000000   0.0000000   0.0000000   0.0000000
 NMagM=    0.0000000   0.0000000   0.0000000   0.0000000   0.0000000   0.4037610   0.0000000   0.0000000   0.0000000   0.0000000
 AtZNuc=   6.0000000   6.0000000   6.0000000   8.0000000   6.0000000   7.0000000   6.0000000   6.0000000   6.0000000   6.0000000

  Atom        31          32          33          34          35          36          37          38          39          40
 IAtWgt=          12          12          12          14          12          12          12          12          12          12
 AtmWgt=  12.0000000  12.0000000  12.0000000  14.0030740  12.0000000  12.0000000  12.0000000  12.0000000  12.0000000  12.0000000
 NucSpn=           0           0           0           2           0           0           0           0           0           0
 AtZEff=  -0.0000000  -0.0000000  -0.0000000  -0.0000000  -0.0000000  -0.0000000  -0.0000000  -0.0000000  -0.0000000  -0.0000000
 NQMom=    0.0000000   0.0000000   0.0000000   2.0440000   0.0000000   0.0000000   0.0000000   0.0000000   0.0000000   0.0000000
 NMagM=    0.0000000   0.0000000   0.0000000   0.4037610   0.0000000   0.0000000   0.0000000   0.0000000   0.0000000   0.0000000
 AtZNuc=   6.0000000   6.0000000   6.0000000   7.0000000   6.0000000   6.0000000   6.0000000   6.0000000   6.0000000   6.0000000

  Atom        41          42          43          44          45          46          47          48          49          50
 IAtWgt=          16          12          12          16          16          12          12          12          12          12
 AtmWgt=  15.9949146  12.0000000  12.0000000  15.9949146  15.9949146  12.0000000  12.0000000  12.0000000  12.0000000  12.0000000
 NucSpn=           0           0           0           0           0           0           0           0           0           0
 AtZEff=  -0.0000000  -0.0000000  -0.0000000  -0.0000000  -0.0000000  -0.0000000  -0.0000000  -0.0000000  -0.0000000  -0.0000000
 NQMom=    0.0000000   0.0000000   0.0000000   0.0000000   0.0000000   0.0000000   0.0000000   0.0000000   0.0000000   0.0000000
 NMagM=    0.0000000   0.0000000   0.0000000   0.0000000   0.0000000   0.0000000   0.0000000   0.0000000   0.0000000   0.0000000
 AtZNuc=   8.0000000   6.0000000   6.0000000   8.0000000   8.0000000   6.0000000   6.0000000   6.0000000   6.0000000   6.0000000

  Atom        51          52          53          54          55          56          57          58          59          60
 IAtWgt=          12          12          12          12          12          12          12          12          12          12
 AtmWgt=  12.0000000  12.0000000  12.0000000  12.0000000  12.0000000  12.0000000  12.0000000  12.0000000  12.0000000  12.0000000
 NucSpn=           0           0           0           0           0           0           0           0           0           0
 AtZEff=  -0.0000000  -0.0000000  -0.0000000  -0.0000000  -0.0000000  -0.0000000  -0.0000000  -0.0000000  -0.0000000  -0.0000000
 NQMom=    0.0000000   0.0000000   0.0000000   0.0000000   0.0000000   0.0000000   0.0000000   0.0000000   0.0000000   0.0000000
 NMagM=    0.0000000   0.0000000   0.0000000   0.0000000   0.0000000   0.0000000   0.0000000   0.0000000   0.0000000   0.0000000
 AtZNuc=   6.0000000   6.0000000   6.0000000   6.0000000   6.0000000   6.0000000   6.0000000   6.0000000   6.0000000   6.0000000

  Atom        61          62          63          64          65          66          67          68          69          70
 IAtWgt=          12          12          12          12          12          12           1           1           1           1
 AtmWgt=  12.0000000  12.0000000  12.0000000  12.0000000  12.0000000  12.0000000   1.0078250   1.0078250   1.0078250   1.0078250
 NucSpn=           0           0           0           0           0           0           1           1           1           1
 AtZEff=  -0.0000000  -0.0000000  -0.0000000  -0.0000000  -0.0000000  -0.0000000  -0.0000000  -0.0000000  -0.0000000  -0.0000000
 NQMom=    0.0000000   0.0000000   0.0000000   0.0000000   0.0000000   0.0000000   0.0000000   0.0000000   0.0000000   0.0000000
 NMagM=    0.0000000   0.0000000   0.0000000   0.0000000   0.0000000   0.0000000   2.7928460   2.7928460   2.7928460   2.7928460
 AtZNuc=   6.0000000   6.0000000   6.0000000   6.0000000   6.0000000   6.0000000   1.0000000   1.0000000   1.0000000   1.0000000

  Atom        71          72          73          74          75          76          77          78          79          80
 IAtWgt=           1           1           1           1           1           1           1           1           1           1
 AtmWgt=   1.0078250   1.0078250   1.0078250   1.0078250   1.0078250   1.0078250   1.0078250   1.0078250   1.0078250   1.0078250
 NucSpn=           1           1           1           1           1           1           1           1           1           1
 AtZEff=  -0.0000000  -0.0000000  -0.0000000  -0.0000000  -0.0000000  -0.0000000  -0.0000000  -0.0000000  -0.0000000  -0.0000000
 NQMom=    0.0000000   0.0000000   0.0000000   0.0000000   0.0000000   0.0000000   0.0000000   0.0000000   0.0000000   0.0000000
 NMagM=    2.7928460   2.7928460   2.7928460   2.7928460   2.7928460   2.7928460   2.7928460   2.7928460   2.7928460   2.7928460
 AtZNuc=   1.0000000   1.0000000   1.0000000   1.0000000   1.0000000   1.0000000   1.0000000   1.0000000   1.0000000   1.0000000

  Atom        81          82          83          84          85          86          87          88          89          90
 IAtWgt=           1           1           1           1           1           1           1           1           1           1
 AtmWgt=   1.0078250   1.0078250   1.0078250   1.0078250   1.0078250   1.0078250   1.0078250   1.0078250   1.0078250   1.0078250
 NucSpn=           1           1           1           1           1           1           1           1           1           1
 AtZEff=  -0.0000000  -0.0000000  -0.0000000  -0.0000000  -0.0000000  -0.0000000  -0.0000000  -0.0000000  -0.0000000  -0.0000000
 NQMom=    0.0000000   0.0000000   0.0000000   0.0000000   0.0000000   0.0000000   0.0000000   0.0000000   0.0000000   0.0000000
 NMagM=    2.7928460   2.7928460   2.7928460   2.7928460   2.7928460   2.7928460   2.7928460   2.7928460   2.7928460   2.7928460
 AtZNuc=   1.0000000   1.0000000   1.0000000   1.0000000   1.0000000   1.0000000   1.0000000   1.0000000   1.0000000   1.0000000

  Atom        91          92          93          94          95          96          97          98          99         100
 IAtWgt=           1           1           1           1           1           1           1           1           1           1
 AtmWgt=   1.0078250   1.0078250   1.0078250   1.0078250   1.0078250   1.0078250   1.0078250   1.0078250   1.0078250   1.0078250
 NucSpn=           1           1           1           1           1           1           1           1           1           1
 AtZEff=  -0.0000000  -0.0000000  -0.0000000  -0.0000000  -0.0000000  -0.0000000  -0.0000000  -0.0000000  -0.0000000  -0.0000000
 NQMom=    0.0000000   0.0000000   0.0000000   0.0000000   0.0000000   0.0000000   0.0000000   0.0000000   0.0000000   0.0000000
 NMagM=    2.7928460   2.7928460   2.7928460   2.7928460   2.7928460   2.7928460   2.7928460   2.7928460   2.7928460   2.7928460
 AtZNuc=   1.0000000   1.0000000   1.0000000   1.0000000   1.0000000   1.0000000   1.0000000   1.0000000   1.0000000   1.0000000

  Atom       101         102         103         104         105         106         107         108         109         110
 IAtWgt=           1           1           1           1           1           1           1           1           1           1
 AtmWgt=   1.0078250   1.0078250   1.0078250   1.0078250   1.0078250   1.0078250   1.0078250   1.0078250   1.0078250   1.0078250
 NucSpn=           1           1           1           1           1           1           1           1           1           1
 AtZEff=  -0.0000000  -0.0000000  -0.0000000  -0.0000000  -0.0000000  -0.0000000  -0.0000000  -0.0000000  -0.0000000  -0.0000000
 NQMom=    0.0000000   0.0000000   0.0000000   0.0000000   0.0000000   0.0000000   0.0000000   0.0000000   0.0000000   0.0000000
 NMagM=    2.7928460   2.7928460   2.7928460   2.7928460   2.7928460   2.7928460   2.7928460   2.7928460   2.7928460   2.7928460
 AtZNuc=   1.0000000   1.0000000   1.0000000   1.0000000   1.0000000   1.0000000   1.0000000   1.0000000   1.0000000   1.0000000

  Atom       111         112         113         114         115         116         117         118         119         120
 IAtWgt=           1           1           1           1           1           1           1           1           1           1
 AtmWgt=   1.0078250   1.0078250   1.0078250   1.0078250   1.0078250   1.0078250   1.0078250   1.0078250   1.0078250   1.0078250
 NucSpn=           1           1           1           1           1           1           1           1           1           1
 AtZEff=  -0.0000000  -0.0000000  -0.0000000  -0.0000000  -0.0000000  -0.0000000  -0.0000000  -0.0000000  -0.0000000  -0.0000000
 NQMom=    0.0000000   0.0000000   0.0000000   0.0000000   0.0000000   0.0000000   0.0000000   0.0000000   0.0000000   0.0000000
 NMagM=    2.7928460   2.7928460   2.7928460   2.7928460   2.7928460   2.7928460   2.7928460   2.7928460   2.7928460   2.7928460
 AtZNuc=   1.0000000   1.0000000   1.0000000   1.0000000   1.0000000   1.0000000   1.0000000   1.0000000   1.0000000   1.0000000

  Atom       121         122         123         124         125         126         127         128         129         130
 IAtWgt=           1           1           1           1           1           1           1           1           1           1
 AtmWgt=   1.0078250   1.0078250   1.0078250   1.0078250   1.0078250   1.0078250   1.0078250   1.0078250   1.0078250   1.0078250
 NucSpn=           1           1           1           1           1           1           1           1           1           1
 AtZEff=  -0.0000000  -0.0000000  -0.0000000  -0.0000000  -0.0000000  -0.0000000  -0.0000000  -0.0000000  -0.0000000  -0.0000000
 NQMom=    0.0000000   0.0000000   0.0000000   0.0000000   0.0000000   0.0000000   0.0000000   0.0000000   0.0000000   0.0000000
 NMagM=    2.7928460   2.7928460   2.7928460   2.7928460   2.7928460   2.7928460   2.7928460   2.7928460   2.7928460   2.7928460
 AtZNuc=   1.0000000   1.0000000   1.0000000   1.0000000   1.0000000   1.0000000   1.0000000   1.0000000   1.0000000   1.0000000

  Atom       131         132         133         134         135         136         137         138         139         140
 IAtWgt=           1           1           1           1           1           1           1           1           1           1
 AtmWgt=   1.0078250   1.0078250   1.0078250   1.0078250   1.0078250   1.0078250   1.0078250   1.0078250   1.0078250   1.0078250
 NucSpn=           1           1           1           1           1           1           1           1           1           1
 AtZEff=  -0.0000000  -0.0000000  -0.0000000  -0.0000000  -0.0000000  -0.0000000  -0.0000000  -0.0000000  -0.0000000  -0.0000000
 NQMom=    0.0000000   0.0000000   0.0000000   0.0000000   0.0000000   0.0000000   0.0000000   0.0000000   0.0000000   0.0000000
 NMagM=    2.7928460   2.7928460   2.7928460   2.7928460   2.7928460   2.7928460   2.7928460   2.7928460   2.7928460   2.7928460
 AtZNuc=   1.0000000   1.0000000   1.0000000   1.0000000   1.0000000   1.0000000   1.0000000   1.0000000   1.0000000   1.0000000
 Leave Link  101 at Thu Apr 28 13:19:08 2022, MaxMem= 10066329600 cpu:               3.5 elap:               0.2
 (Enter /sw/apps/gaussian-16.0/g16/l202.exe)
 Stoichiometry    C55H74MgN4O6
 Framework group  C1[X(C55H74MgN4O6)]
 Deg. of freedom   414
 Full point group                 C1      NOp   1
 Largest Abelian subgroup         C1      NOp   1
 Largest concise Abelian subgroup C1      NOp   1
                         Standard orientation:                         
 ---------------------------------------------------------------------
 Center     Atomic      Atomic             Coordinates (Angstroms)
 Number     Number       Type             X           Y           Z
 ---------------------------------------------------------------------
      1         12           0        5.139695    1.081631   -0.083166
      2          6           0        4.958531   -2.339759    0.537132
      3          6           0        4.394936    0.560616   -3.389165
      4          6           0        3.921041    4.343212   -0.311825
      5          6           0        5.326907    1.522140    3.560630
      6          7           0        4.847294   -0.613936   -1.234728
      7          6           0        4.846646   -1.968673   -0.818678
      8          6           0        4.692957   -2.895217   -2.061282
      9          6           0        4.973353   -1.927463   -3.209603
     10          6           0        4.725905   -0.514081   -2.583520
     11          6           0        6.402612   -1.999110   -3.945783
     12          6           0        3.400725   -3.742795   -2.120802
     13          6           0        2.133836   -3.192561   -1.440478
     14          6           0        0.714577   -3.485431   -2.011117
     15          8           0        0.499819   -4.437560   -2.688969
     16          8           0       -0.193602   -2.509631   -1.758824
     17          7           0        4.406567    2.328888   -1.674965
     18          6           0        4.182733    1.926787   -3.025415
     19          6           0        3.777776    3.103044   -3.803832
     20          6           0        3.699385    4.183171   -2.942306
     21          6           0        4.046184    3.639686   -1.554193
     22          6           0        3.679900    3.152493   -5.337328
     23          6           0        3.337178    5.623851   -3.380586
     24          8           0        2.930619    5.832719   -4.497321
     25          6           0        3.459114    6.746464   -2.407856
     26          7           0        4.833935    2.667152    1.434368
     27          6           0        4.417071    3.978820    0.979942
     28          6           0        4.405313    4.982687    2.217811
     29          6           0        4.710848    3.980083    3.419432
     30          6           0        5.049050    2.654550    2.762011
     31          6           0        5.394122    6.276086    2.105917
     32          6           0        3.741497    4.036436    4.562252
     33          6           0        4.253851    3.727987    5.938901
     34          7           0        5.237843   -0.103434    1.728183
     35          6           0        5.385847    0.193750    3.062907
     36          6           0        5.520173   -1.038366    3.850638
     37          6           0        5.263324   -2.111739    2.940061
     38          6           0        5.193966   -1.460220    1.644988
     39          6           0        5.664970   -1.192733    5.275683
     40          6           0        5.184121   -3.555552    2.733013
     41          8           0        5.257079   -4.501639    3.544488
     42          6           0        4.995106   -3.722820    1.151976
     43          6           0        6.116860   -4.648889    0.634885
     44          8           0        6.020818   -5.659595   -0.019285
     45          8           0        7.370034   -4.119714    0.986506
     46          6           0        8.528617   -5.108796    0.719294
     47          6           0       -1.607731   -2.747104   -2.172843
     48          6           0       -2.627271   -1.948633   -1.359531
     49          6           0       -3.682058   -1.239929   -1.741222
     50          6           0       -4.045538   -0.798241   -3.137592
     51          6           0       -4.527746   -0.476852   -0.716967
     52          6           0       -5.838724   -1.108906   -0.367001
     53          6           0       -6.403174   -0.665328    0.987197
     54          6           0       -7.958261   -0.526876    0.924837
     55          6           0       -8.455550    0.064416    2.271625
     56          6           0       -8.737934   -1.891494    0.658385
     57          6           0       -9.920128   -1.831892   -0.238911
     58          6           0      -11.263297   -2.240888    0.367871
     59          6           0      -12.133438   -1.068210    0.833569
     60          6           0      -12.740233   -1.303589    2.231831
     61          6           0      -13.259778   -0.798104   -0.233563
     62          6           0      -13.133248    0.579324   -0.812490
     63          6           0      -14.442687    1.478186   -0.750354
     64          6           0      -14.705335    1.873554    0.728825
     65          6           0      -15.908396    1.060774    1.298496
     66          6           0      -14.995036    3.453762    0.664652
     67          1           0        4.349798    0.339439   -4.458440
     68          1           0        3.523874    5.360494   -0.333043
     69          1           0        5.592683    1.794740    4.583484
     70          1           0        5.398906   -3.715111   -1.938275
     71          1           0        4.231925   -1.980751   -4.006504
     72          1           0        6.206095   -1.939134   -5.015795
     73          1           0        6.832702   -2.936543   -3.593639
     74          1           0        6.976146   -1.113866   -3.670428
     75          1           0        3.590183   -4.649097   -1.544825
     76          1           0        3.123639   -4.115449   -3.107347
     77          1           0        2.317400   -2.141265   -1.666173
     78          1           0        2.192354   -3.294685   -0.356830
     79          1           0        2.634058    3.009697   -5.607656
     80          1           0        4.160844    2.264558   -5.748425
     81          1           0        4.186836    4.037525   -5.720750
     82          1           0        4.393336    6.665808   -1.852960
     83          1           0        2.638184    6.869546   -1.701122
     84          1           0        3.590133    7.608210   -3.062633
     85          1           0        3.380538    5.344184    2.136326
     86          1           0        5.659046    4.270237    3.870743
     87          1           0        6.217608    6.196198    2.815247
     88          1           0        4.811115    7.179245    2.286899
     89          1           0        5.814684    6.346401    1.102690
     90          1           0        2.982789    3.295030    4.312320
     91          1           0        3.267101    5.017543    4.577832
     92          1           0        5.344024    3.744109    5.946957
     93          1           0        3.809989    2.860982    6.427174
     94          1           0        4.036116    4.503157    6.673154
     95          1           0        6.595885   -0.769417    5.652380
     96          1           0        5.712625   -2.245422    5.553894
     97          1           0        4.718408   -0.818851    5.666474
     98          1           0        4.039848   -4.236221    1.037291
     99          1           0        9.511830   -4.661488    0.868086
    100          1           0        8.457583   -5.419772   -0.322951
    101          1           0        8.446204   -6.014116    1.321718
    102          1           0       -1.808866   -3.795557   -1.953242
    103          1           0       -1.671853   -2.595015   -3.250657
    104          1           0       -2.652831   -2.214827   -0.301988
    105          1           0       -3.411428    0.030083   -3.452089
    106          1           0       -5.043168   -0.360334   -3.134191
    107          1           0       -3.931605   -1.631888   -3.830861
    108          1           0       -4.660731    0.546999   -1.066004
    109          1           0       -3.995141   -0.272522    0.211704
    110          1           0       -5.667348   -2.182998   -0.288164
    111          1           0       -6.619839   -0.942750   -1.108372
    112          1           0       -5.932870    0.202929    1.449581
    113          1           0       -6.266498   -1.542462    1.619533
    114          1           0       -8.095989    0.189615    0.114890
    115          1           0       -9.309830   -0.441817    2.721300
    116          1           0       -8.694195    1.127933    2.291581
    117          1           0       -7.675194    0.043186    3.032103
    118          1           0       -9.063992   -2.392281    1.568618
    119          1           0       -8.055499   -2.491630    0.056381
    120          1           0       -9.819445   -2.444677   -1.134549
    121          1           0      -10.078613   -0.801014   -0.552814
    122          1           0      -11.174354   -2.974479    1.168570
    123          1           0      -11.757363   -2.823578   -0.410160
    124          1           0      -11.384464   -0.292223    0.990022
    125          1           0      -12.601706   -0.477475    2.929252
    126          1           0      -12.297007   -2.183986    2.697919
    127          1           0      -13.803764   -1.539392    2.179005
    128          1           0      -14.298258   -0.931432    0.068767
    129          1           0      -13.165489   -1.463314   -1.091735
    130          1           0      -12.893126    0.548645   -1.875196
    131          1           0      -12.278310    1.062533   -0.340053
    132          1           0      -15.199634    0.865577   -1.240491
    133          1           0      -14.377463    2.330265   -1.426846
    134          1           0      -13.900669    1.575449    1.400938
    135          1           0      -16.515003    1.656855    1.979434
    136          1           0      -15.555381    0.203428    1.873017
    137          1           0      -16.535073    0.827213    0.437752
    138          1           0      -14.382839    3.982989    1.395778
    139          1           0      -16.042712    3.583870    0.935911
    140          1           0      -14.841714    4.045494   -0.237383
 ---------------------------------------------------------------------
 Rotational constants (GHZ):           0.0347096           0.0100568           0.0094575
 Leave Link  202 at Thu Apr 28 13:19:08 2022, MaxMem= 10066329600 cpu:               0.2 elap:               0.0
 (Enter /sw/apps/gaussian-16.0/g16/l301.exe)
 Standard basis: def2SVP (5D, 7F)
 Ernie: Thresh=  0.10000D-02 Tol=  0.10000D-05 Strict=F.
 There are  1364 symmetry adapted cartesian basis functions of A   symmetry.
 There are  1298 symmetry adapted basis functions of A   symmetry.
  1298 basis functions,  2180 primitive gaussians,  1364 cartesian basis functions
   246 alpha electrons      246 beta electrons
       nuclear repulsion energy      9503.8097623093 Hartrees.
 IExCor= 1009 DFT=T Ex+Corr=PBE1PBE ExCW=0 ScaHFX=  0.250000
 ScaDFX=  0.750000  0.750000  1.000000  1.000000 ScalE2=  1.000000  1.000000
 IRadAn=      5 IRanWt=     -1 IRanGd=            0 ICorTp=0 IEmpDi=  4
 NAtoms=  140 NActive=  140 NUniq=  140 SFac= 1.00D+00 NAtFMM=   60 NAOKFM=T Big=T
 Integral buffers will be    131072 words long.
 Regular integral format.
 Two-electron integral symmetry is turned on.
 Leave Link  301 at Thu Apr 28 13:19:08 2022, MaxMem= 10066329600 cpu:               2.3 elap:               0.1
 (Enter /sw/apps/gaussian-16.0/g16/l302.exe)
 NPDir=0 NMtPBC=     1 NCelOv=     1 NCel=       1 NClECP=     1 NCelD=      1
         NCelK=      1 NCelE2=     1 NClLst=     1 CellRange=     0.0.
 One-electron integrals computed using PRISM.
 One-electron integral symmetry used in STVInt
   1 Symmetry operations used in ECPInt.
 ECPInt:  NShTT=  192510 NPrTT=  683786 LenC2=   94223 LenP2D=  206196.
 LDataN:  DoStor=T MaxTD1= 4 Len=   56
 NBasis=  1298 RedAO= T EigKep=  3.39D-04  NBF=  1298
 NBsUse=  1298 1.00D-06 EigRej= -1.00D+00 NBFU=  1298
 Precomputing XC quadrature grid using
 IXCGrd= 4 IRadAn=           5 IRanWt=          -1 IRanGd=           0 AccXCQ= 0.00D+00.
 Generated NRdTot=       0 NPtTot=           0 NUsed=           0 NTot=          32
 NSgBfM=  1114  1094  1103  1104  1114 MxSgAt=   140 MxSgA2=   140.
 Leave Link  302 at Thu Apr 28 13:19:12 2022, MaxMem= 10066329600 cpu:              81.7 elap:               3.4
 (Enter /sw/apps/gaussian-16.0/g16/l303.exe)
 DipDrv:  MaxL=1.
 Leave Link  303 at Thu Apr 28 13:19:12 2022, MaxMem= 10066329600 cpu:               6.7 elap:               0.3
 (Enter /sw/apps/gaussian-16.0/g16/l308.exe)
 Leave Link  308 at Thu Apr 28 13:19:12 2022, MaxMem= 10066329600 cpu:               8.5 elap:               0.4
 (Enter /sw/apps/gaussian-16.0/g16/l401.exe)
 ExpMin= 3.36D-02 ExpMax= 4.95D+03 ExpMxC= 7.45D+02 IAcc=3 IRadAn=         5 AccDes= 0.00D+00
 Harris functional with IExCor= 1009 and IRadAn=       5 diagonalized for initial guess.
 HarFok:  IExCor= 1009 AccDes= 0.00D+00 IRadAn=         5 IDoV= 1 UseB2=F ITyADJ=14
 ICtDFT=  3500011 ScaDFX=  1.000000  1.000000  1.000000  1.000000
 FoFCou: FMM=F IPFlag=           0 FMFlag=      100000 FMFlg1=        2001
         NFxFlg=           0 DoJE=T BraDBF=F KetDBF=T FulRan=T
         wScrn=  0.000000 ICntrl=       500 IOpCl=  0 I1Cent=   200000004 NGrid=           0
         NMat0=    1 NMatS0=      1 NMatT0=    0 NMatD0=    1 NMtDS0=    0 NMtDT0=    0
 Petite list used in FoFCou.
 Harris En= -3006.12848700533    
 JPrj=0 DoOrth=F DoCkMO=F.
 Leave Link  401 at Thu Apr 28 13:19:18 2022, MaxMem= 10066329600 cpu:             138.7 elap:               5.8
 (Enter /sw/apps/gaussian-16.0/g16/l502.exe)
 Integral symmetry usage will be decided dynamically.
 Closed shell SCF:
 Using DIIS extrapolation, IDIIS=  1040.
 NGot= 10066329600 LenX= 10062561258 LenY= 10060699398
 Requested convergence on RMS density matrix=1.00D-08 within 128 cycles.
 Requested convergence on MAX density matrix=1.00D-06.
 Requested convergence on             energy=1.00D-06.
 No special actions if energy rises.
 Fock matrices will be formed incrementally for  20 cycles.

 Cycle   1  Pass 1  IDiag  1:
 FoFJK:  IHMeth= 1 ICntrl=       0 DoSepK=F KAlg= 0 I1Cent=           0 FoldK=F
 IRaf= 510000000 NMat=       1 IRICut=       1 DoRegI=T DoRafI=F ISym2E= 0 IDoP0=0 IntGTp=1.
 FoFCou: FMM=T IPFlag=           0 FMFlag=      100000 FMFlg1=        2001
         NFxFlg=           0 DoJE=F BraDBF=F KetDBF=F FulRan=T
         wScrn=  0.000000 ICntrl=         0 IOpCl=  0 I1Cent=           0 NGrid=           0
         NMat0=    1 NMatS0=      1 NMatT0=    0 NMatD0=    1 NMtDS0=    0 NMtDT0=    0
 Symmetry not used in FoFCou.
 FMM levels:  10  Number of levels for PrismC:   9
 E= -3003.79190949819    
 DIIS: error= 1.99D-02 at cycle   1 NSaved=   1.
 NSaved= 1 IEnMin= 1 EnMin= -3003.79190949819     IErMin= 1 ErrMin= 1.99D-02
 ErrMax= 1.99D-02  0.00D+00 EMaxC= 1.00D-01 BMatC= 1.46D+00 BMatP= 1.46D+00
 IDIUse=3 WtCom= 8.01D-01 WtEn= 1.99D-01
 Coeff-Com:  0.100D+01
 Coeff-En:   0.100D+01
 Coeff:      0.100D+01
 Gap=     0.079 Goal=   None    Shift=    0.000
 GapD=    0.079 DampG=0.500 DampE=0.500 DampFc=0.2500 IDamp=-1.
 Damping current iteration by 2.50D-01
 RMSDP=2.65D-03 MaxDP=5.60D-01              OVMax= 3.22D-01

 Cycle   2  Pass 1  IDiag  1:
 RMSU=  6.57D-04    CP:  9.90D-01
 E= -3004.34117928949     Delta-E=       -0.549269791305 Rises=F Damp=T
 DIIS: error= 9.70D-03 at cycle   2 NSaved=   2.
 NSaved= 2 IEnMin= 2 EnMin= -3004.34117928949     IErMin= 2 ErrMin= 9.70D-03
 ErrMax= 9.70D-03  0.00D+00 EMaxC= 1.00D-01 BMatC= 3.62D-01 BMatP= 1.46D+00
 IDIUse=3 WtCom= 9.03D-01 WtEn= 9.70D-02
 Coeff-Com: -0.762D+00 0.176D+01
 Coeff-En:   0.000D+00 0.100D+01
 Coeff:     -0.688D+00 0.169D+01
 Gap=     0.183 Goal=   None    Shift=    0.000
 RMSDP=9.55D-04 MaxDP=6.08D-02 DE=-5.49D-01 OVMax= 3.54D-01

 Cycle   3  Pass 1  IDiag  1:
 RMSU=  8.36D-04    CP:  9.67D-01  1.62D+00
 E= -3005.15218000535     Delta-E=       -0.811000715852 Rises=F Damp=F
 DIIS: error= 1.21D-02 at cycle   3 NSaved=   3.
 NSaved= 3 IEnMin= 3 EnMin= -3005.15218000535     IErMin= 2 ErrMin= 9.70D-03
 ErrMax= 1.21D-02  0.00D+00 EMaxC= 1.00D-01 BMatC= 1.81D-01 BMatP= 3.62D-01
 IDIUse=3 WtCom= 8.79D-01 WtEn= 1.21D-01
 Coeff-Com: -0.497D+00 0.106D+01 0.434D+00
 Coeff-En:   0.000D+00 0.000D+00 0.100D+01
 Coeff:     -0.437D+00 0.935D+00 0.503D+00
 Gap=     0.067 Goal=   None    Shift=    0.000
 RMSDP=6.59D-04 MaxDP=1.01D-01 DE=-8.11D-01 OVMax= 3.28D-01

 Cycle   4  Pass 1  IDiag  1:
 RMSU=  4.30D-04    CP:  9.72D-01  1.92D+00  4.53D-01
 E= -3005.26763274005     Delta-E=       -0.115452734699 Rises=F Damp=F
 DIIS: error= 6.19D-03 at cycle   4 NSaved=   4.
 NSaved= 4 IEnMin= 4 EnMin= -3005.26763274005     IErMin= 4 ErrMin= 6.19D-03
 ErrMax= 6.19D-03  0.00D+00 EMaxC= 1.00D-01 BMatC= 5.34D-02 BMatP= 1.81D-01
 IDIUse=3 WtCom= 9.38D-01 WtEn= 6.19D-02
 Coeff-Com: -0.132D+00 0.287D+00 0.345D+00 0.499D+00
 Coeff-En:   0.000D+00 0.000D+00 0.301D+00 0.699D+00
 Coeff:     -0.124D+00 0.269D+00 0.343D+00 0.512D+00
 Gap=     0.065 Goal=   None    Shift=    0.000
 RMSDP=3.78D-04 MaxDP=3.91D-02 DE=-1.15D-01 OVMax= 2.68D-01

 Cycle   5  Pass 1  IDiag  1:
 RMSU=  2.00D-04    CP:  9.71D-01  1.78D+00  6.72D-01  4.26D-01
 E= -3005.30783795800     Delta-E=       -0.040205217956 Rises=F Damp=F
 DIIS: error= 1.86D-03 at cycle   5 NSaved=   5.
 NSaved= 5 IEnMin= 5 EnMin= -3005.30783795800     IErMin= 5 ErrMin= 1.86D-03
 ErrMax= 1.86D-03  0.00D+00 EMaxC= 1.00D-01 BMatC= 1.38D-02 BMatP= 5.34D-02
 IDIUse=3 WtCom= 9.81D-01 WtEn= 1.86D-02
 Coeff-Com: -0.359D-01 0.815D-01 0.214D+00 0.405D+00 0.335D+00
 Coeff-En:   0.000D+00 0.000D+00 0.000D+00 0.285D+00 0.715D+00
 Coeff:     -0.352D-01 0.800D-01 0.210D+00 0.403D+00 0.342D+00
 Gap=     0.069 Goal=   None    Shift=    0.000
 RMSDP=1.89D-04 MaxDP=1.75D-02 DE=-4.02D-02 OVMax= 1.54D-01

 Cycle   6  Pass 1  IDiag  1:
 RMSU=  6.79D-05    CP:  9.71D-01  1.78D+00  6.33D-01  6.16D-01  2.32D-01
 E= -3005.32666522187     Delta-E=       -0.018827263870 Rises=F Damp=F
 DIIS: error= 9.52D-04 at cycle   6 NSaved=   6.
 NSaved= 6 IEnMin= 6 EnMin= -3005.32666522187     IErMin= 6 ErrMin= 9.52D-04
 ErrMax= 9.52D-04  0.00D+00 EMaxC= 1.00D-01 BMatC= 1.22D-03 BMatP= 1.38D-02
 IDIUse=3 WtCom= 9.90D-01 WtEn= 9.52D-03
 Coeff-Com: -0.164D-02 0.621D-02 0.837D-01 0.189D+00 0.243D+00 0.480D+00
 Coeff-En:   0.000D+00 0.000D+00 0.000D+00 0.000D+00 0.968D-01 0.903D+00
 Coeff:     -0.162D-02 0.615D-02 0.829D-01 0.187D+00 0.242D+00 0.484D+00
 Gap=     0.070 Goal=   None    Shift=    0.000
 RMSDP=5.58D-05 MaxDP=7.18D-03 DE=-1.88D-02 OVMax= 3.94D-02

 Cycle   7  Pass 1  IDiag  1:
 RMSU=  3.06D-05    CP:  9.71D-01  1.79D+00  6.40D-01  5.94D-01  4.01D-01
                    CP:  5.53D-01
 E= -3005.32800826311     Delta-E=       -0.001343041238 Rises=F Damp=F
 DIIS: error= 3.41D-04 at cycle   7 NSaved=   7.
 NSaved= 7 IEnMin= 7 EnMin= -3005.32800826311     IErMin= 7 ErrMin= 3.41D-04
 ErrMax= 3.41D-04  0.00D+00 EMaxC= 1.00D-01 BMatC= 2.09D-04 BMatP= 1.22D-03
 IDIUse=3 WtCom= 9.97D-01 WtEn= 3.41D-03
 Coeff-Com:  0.398D-02-0.744D-02 0.217D-01 0.586D-01 0.106D+00 0.337D+00
 Coeff-Com:  0.480D+00
 Coeff-En:   0.000D+00 0.000D+00 0.000D+00 0.000D+00 0.000D+00 0.161D+00
 Coeff-En:   0.839D+00
 Coeff:      0.397D-02-0.741D-02 0.217D-01 0.584D-01 0.106D+00 0.337D+00
 Coeff:      0.481D+00
 Gap=     0.071 Goal=   None    Shift=    0.000
 RMSDP=2.22D-05 MaxDP=2.76D-03 DE=-1.34D-03 OVMax= 1.11D-02

 Cycle   8  Pass 1  IDiag  1:
 RMSU=  1.15D-05    CP:  9.71D-01  1.79D+00  6.42D-01  5.96D-01  3.72D-01
                    CP:  6.73D-01  4.79D-01
 E= -3005.32821592147     Delta-E=       -0.000207658362 Rises=F Damp=F
 DIIS: error= 1.23D-04 at cycle   8 NSaved=   8.
 NSaved= 8 IEnMin= 8 EnMin= -3005.32821592147     IErMin= 8 ErrMin= 1.23D-04
 ErrMax= 1.23D-04  0.00D+00 EMaxC= 1.00D-01 BMatC= 3.02D-05 BMatP= 2.09D-04
 IDIUse=3 WtCom= 9.99D-01 WtEn= 1.23D-03
 Coeff-Com:  0.239D-02-0.482D-02 0.312D-02 0.122D-01 0.349D-01 0.154D+00
 Coeff-Com:  0.329D+00 0.469D+00
 Coeff-En:   0.000D+00 0.000D+00 0.000D+00 0.000D+00 0.000D+00 0.000D+00
 Coeff-En:   0.146D+00 0.854D+00
 Coeff:      0.239D-02-0.481D-02 0.311D-02 0.122D-01 0.348D-01 0.154D+00
 Coeff:      0.328D+00 0.470D+00
 Gap=     0.071 Goal=   None    Shift=    0.000
 RMSDP=8.03D-06 MaxDP=7.45D-04 DE=-2.08D-04 OVMax= 4.20D-03

 Cycle   9  Pass 1  IDiag  1:
 RMSU=  3.82D-06    CP:  9.71D-01  1.79D+00  6.42D-01  5.98D-01  3.77D-01
                    CP:  6.60D-01  6.07D-01  5.10D-01
 E= -3005.32824858417     Delta-E=       -0.000032662694 Rises=F Damp=F
 DIIS: error= 3.25D-05 at cycle   9 NSaved=   9.
 NSaved= 9 IEnMin= 9 EnMin= -3005.32824858417     IErMin= 9 ErrMin= 3.25D-05
 ErrMax= 3.25D-05  0.00D+00 EMaxC= 1.00D-01 BMatC= 3.33D-06 BMatP= 3.02D-05
 IDIUse=1 WtCom= 1.00D+00 WtEn= 0.00D+00
 Coeff-Com:  0.901D-03-0.183D-02-0.598D-03 0.103D-03 0.853D-02 0.563D-01
 Coeff-Com:  0.154D+00 0.303D+00 0.479D+00
 Coeff:      0.901D-03-0.183D-02-0.598D-03 0.103D-03 0.853D-02 0.563D-01
 Coeff:      0.154D+00 0.303D+00 0.479D+00
 Gap=     0.071 Goal=   None    Shift=    0.000
 RMSDP=2.71D-06 MaxDP=2.36D-04 DE=-3.27D-05 OVMax= 1.47D-03

 Cycle  10  Pass 1  IDiag  1:
 RMSU=  1.73D-06    CP:  9.71D-01  1.79D+00  6.42D-01  5.98D-01  3.77D-01
                    CP:  6.69D-01  5.98D-01  5.99D-01  5.59D-01
 E= -3005.32825195988     Delta-E=       -0.000003375713 Rises=F Damp=F
 DIIS: error= 1.19D-05 at cycle  10 NSaved=  10.
 NSaved=10 IEnMin=10 EnMin= -3005.32825195988     IErMin=10 ErrMin= 1.19D-05
 ErrMax= 1.19D-05  0.00D+00 EMaxC= 1.00D-01 BMatC= 4.89D-07 BMatP= 3.33D-06
 IDIUse=1 WtCom= 1.00D+00 WtEn= 0.00D+00
 Coeff-Com:  0.206D-03-0.392D-03-0.774D-03-0.190D-02-0.147D-04 0.118D-01
 Coeff-Com:  0.495D-01 0.125D+00 0.312D+00 0.505D+00
 Coeff:      0.206D-03-0.392D-03-0.774D-03-0.190D-02-0.147D-04 0.118D-01
 Coeff:      0.495D-01 0.125D+00 0.312D+00 0.505D+00
 Gap=     0.071 Goal=   None    Shift=    0.000
 RMSDP=9.96D-07 MaxDP=8.80D-05 DE=-3.38D-06 OVMax= 4.69D-04

 Cycle  11  Pass 1  IDiag  1:
 RMSU=  5.42D-07    CP:  9.71D-01  1.79D+00  6.42D-01  5.98D-01  3.77D-01
                    CP:  6.70D-01  6.04D-01  5.88D-01  7.02D-01  6.74D-01
 E= -3005.32825251863     Delta-E=       -0.000000558748 Rises=F Damp=F
 DIIS: error= 8.70D-06 at cycle  11 NSaved=  11.
 NSaved=11 IEnMin=11 EnMin= -3005.32825251863     IErMin=11 ErrMin= 8.70D-06
 ErrMax= 8.70D-06  0.00D+00 EMaxC= 1.00D-01 BMatC= 7.12D-08 BMatP= 4.89D-07
 IDIUse=1 WtCom= 1.00D+00 WtEn= 0.00D+00
 Coeff-Com:  0.445D-05 0.174D-04-0.398D-03-0.130D-02-0.139D-02-0.169D-02
 Coeff-Com:  0.775D-02 0.332D-01 0.123D+00 0.322D+00 0.519D+00
 Coeff:      0.445D-05 0.174D-04-0.398D-03-0.130D-02-0.139D-02-0.169D-02
 Coeff:      0.775D-02 0.332D-01 0.123D+00 0.322D+00 0.519D+00
 Gap=     0.071 Goal=   None    Shift=    0.000
 RMSDP=3.44D-07 MaxDP=3.46D-05 DE=-5.59D-07 OVMax= 1.31D-04

 Cycle  12  Pass 1  IDiag  1:
 RMSU=  2.21D-07    CP:  9.71D-01  1.79D+00  6.42D-01  5.98D-01  3.77D-01
                    CP:  6.70D-01  6.05D-01  6.01D-01  6.89D-01  7.59D-01
                    CP:  7.30D-01
 E= -3005.32825259619     Delta-E=       -0.000000077564 Rises=F Damp=F
 DIIS: error= 2.25D-06 at cycle  12 NSaved=  12.
 NSaved=12 IEnMin=12 EnMin= -3005.32825259619     IErMin=12 ErrMin= 2.25D-06
 ErrMax= 2.25D-06  0.00D+00 EMaxC= 1.00D-01 BMatC= 5.11D-09 BMatP= 7.12D-08
 IDIUse=1 WtCom= 1.00D+00 WtEn= 0.00D+00
 Coeff-Com: -0.559D-05 0.287D-04-0.109D-03-0.438D-03-0.655D-03-0.227D-02
 Coeff-Com: -0.142D-02 0.263D-02 0.235D-01 0.970D-01 0.262D+00 0.620D+00
 Coeff:     -0.559D-05 0.287D-04-0.109D-03-0.438D-03-0.655D-03-0.227D-02
 Coeff:     -0.142D-02 0.263D-02 0.235D-01 0.970D-01 0.262D+00 0.620D+00
 Gap=     0.071 Goal=   None    Shift=    0.000
 RMSDP=1.09D-07 MaxDP=1.16D-05 DE=-7.76D-08 OVMax= 3.34D-05

 Cycle  13  Pass 1  IDiag  1:
 RMSU=  7.08D-08    CP:  9.71D-01  1.79D+00  6.42D-01  5.98D-01  3.77D-01
                    CP:  6.70D-01  6.05D-01  6.02D-01  6.99D-01  7.75D-01
                    CP:  8.16D-01  8.10D-01
 E= -3005.32825260120     Delta-E=       -0.000000005011 Rises=F Damp=F
 DIIS: error= 5.58D-07 at cycle  13 NSaved=  13.
 NSaved=13 IEnMin=13 EnMin= -3005.32825260120     IErMin=13 ErrMin= 5.58D-07
 ErrMax= 5.58D-07  0.00D+00 EMaxC= 1.00D-01 BMatC= 1.04D-09 BMatP= 5.11D-09
 IDIUse=1 WtCom= 1.00D+00 WtEn= 0.00D+00
 Coeff-Com: -0.587D-06 0.862D-05 0.629D-05-0.332D-04-0.150D-03-0.122D-02
 Coeff-Com: -0.245D-02-0.501D-02-0.952D-02-0.344D-02 0.622D-01 0.360D+00
 Coeff-Com:  0.600D+00
 Coeff:     -0.587D-06 0.862D-05 0.629D-05-0.332D-04-0.150D-03-0.122D-02
 Coeff:     -0.245D-02-0.501D-02-0.952D-02-0.344D-02 0.622D-01 0.360D+00
 Coeff:      0.600D+00
 Gap=     0.071 Goal=   None    Shift=    0.000
 RMSDP=4.26D-08 MaxDP=5.31D-06 DE=-5.01D-09 OVMax= 1.06D-05

 Cycle  14  Pass 1  IDiag  1:
 RMSU=  2.68D-08    CP:  9.71D-01  1.79D+00  6.42D-01  5.98D-01  3.77D-01
                    CP:  6.70D-01  6.05D-01  6.02D-01  7.02D-01  7.82D-01
                    CP:  8.27D-01  8.83D-01  7.44D-01
 E= -3005.32825260232     Delta-E=       -0.000000001113 Rises=F Damp=F
 DIIS: error= 3.39D-07 at cycle  14 NSaved=  14.
 NSaved=14 IEnMin=14 EnMin= -3005.32825260232     IErMin=14 ErrMin= 3.39D-07
 ErrMax= 3.39D-07  0.00D+00 EMaxC= 1.00D-01 BMatC= 1.34D-10 BMatP= 1.04D-09
 IDIUse=1 WtCom= 1.00D+00 WtEn= 0.00D+00
 Coeff-Com:  0.147D-05 0.104D-06 0.170D-04 0.294D-04-0.900D-05-0.472D-03
 Coeff-Com: -0.125D-02-0.324D-02-0.839D-02-0.136D-01 0.661D-02 0.138D+00
 Coeff-Com:  0.345D+00 0.538D+00
 Coeff:      0.147D-05 0.104D-06 0.170D-04 0.294D-04-0.900D-05-0.472D-03
 Coeff:     -0.125D-02-0.324D-02-0.839D-02-0.136D-01 0.661D-02 0.138D+00
 Coeff:      0.345D+00 0.538D+00
 Gap=     0.071 Goal=   None    Shift=    0.000
 RMSDP=1.45D-08 MaxDP=1.78D-06 DE=-1.11D-09 OVMax= 5.11D-06

 Cycle  15  Pass 1  IDiag  1:
 RMSU=  9.73D-09    CP:  9.71D-01  1.79D+00  6.42D-01  5.98D-01  3.77D-01
                    CP:  6.70D-01  6.05D-01  6.02D-01  7.02D-01  7.84D-01
                    CP:  8.35D-01  8.97D-01  8.00D-01  7.24D-01
 E= -3005.32825260220     Delta-E=        0.000000000113 Rises=F Damp=F
 DIIS: error= 7.89D-08 at cycle  15 NSaved=  15.
 NSaved=15 IEnMin=14 EnMin= -3005.32825260232     IErMin=15 ErrMin= 7.89D-08
 ErrMax= 7.89D-08  0.00D+00 EMaxC= 1.00D-01 BMatC= 1.88D-11 BMatP= 1.34D-10
 IDIUse=1 WtCom= 1.00D+00 WtEn= 0.00D+00
 Coeff-Com:  0.145D-05-0.185D-05 0.918D-05 0.196D-04 0.185D-04-0.112D-03
 Coeff-Com: -0.354D-03-0.113D-02-0.337D-02-0.705D-02-0.354D-02 0.322D-01
 Coeff-Com:  0.118D+00 0.311D+00 0.555D+00
 Coeff:      0.145D-05-0.185D-05 0.918D-05 0.196D-04 0.185D-04-0.112D-03
 Coeff:     -0.354D-03-0.113D-02-0.337D-02-0.705D-02-0.354D-02 0.322D-01
 Coeff:      0.118D+00 0.311D+00 0.555D+00
 Gap=     0.071 Goal=   None    Shift=    0.000
 RMSDP=5.20D-09 MaxDP=7.50D-07 DE= 1.13D-10 OVMax= 1.39D-06

 SCF Done:  E(RPBE1PBE) =  -3005.32825260     A.U. after   15 cycles
            NFock= 15  Conv=0.52D-08     -V/T= 2.0105
 KE= 2.974006129400D+03 PE=-2.599787097767D+04 EE= 1.051472683336D+04
 Leave Link  502 at Thu Apr 28 13:23:50 2022, MaxMem= 10066329600 cpu:            6496.7 elap:             272.3
 (Enter /sw/apps/gaussian-16.0/g16/l801.exe)
 DoSCS=F DFT=T ScalE2(SS,OS)=  1.000000  1.000000
 ExpMin= 3.36D-02 ExpMax= 4.95D+03 ExpMxC= 7.45D+02 IAcc=3 IRadAn=         5 AccDes= 0.00D+00
 HarFok:  IExCor=  205 AccDes= 0.00D+00 IRadAn=         5 IDoV=-2 UseB2=F ITyADJ=14
 ICtDFT= 12500011 ScaDFX=  1.000000  1.000000  1.000000  1.000000
 GSVD:  LWork=       -5460 too small for GESVD, short by       25550 words or       25550 for optimal perf.
 Largest valence mixing into a core orbital is  1.06D-04
 Largest core mixing into a valence orbital is  5.60D-05
 Range of M.O.s used for correlation:    71  1298
 NBasis=  1298 NAE=   246 NBE=   246 NFC=    70 NFV=     0
 NROrb=   1228 NOA=   176 NOB=   176 NVA=  1052 NVB=  1052

 **** Warning!!: The smallest alpha delta epsilon is  0.71170802D-01

 Leave Link  801 at Thu Apr 28 13:23:51 2022, MaxMem= 10066329600 cpu:               7.8 elap:               0.4
 (Enter /sw/apps/gaussian-16.0/g16/l914.exe)
 RHF ground state
 Two-electron integrals replicated using symmetry.
 MDV= 10066329600 DFT=T DoStab=F Mixed=T DoRPA=T DoScal=F NonHer=T
 Making orbital integer symmetry assigments:
 Orbital symmetries:
       Occupied  (A) (A) (A) (A) (A) (A) (A) (A) (A) (A) (A) (A)
                 (A) (A) (A) (A) (A) (A) (A) (A) (A) (A) (A) (A)
                 (A) (A) (A) (A) (A) (A) (A) (A) (A) (A) (A) (A)
                 (A) (A) (A) (A) (A) (A) (A) (A) (A) (A) (A) (A)
                 (A) (A) (A) (A) (A) (A) (A) (A) (A) (A) (A) (A)
                 (A) (A) (A) (A) (A) (A) (A) (A) (A) (A) (A) (A)
                 (A) (A) (A) (A) (A) (A) (A) (A) (A) (A) (A) (A)
                 (A) (A) (A) (A) (A) (A) (A) (A) (A) (A) (A) (A)
                 (A) (A) (A) (A) (A) (A) (A) (A) (A) (A) (A) (A)
                 (A) (A) (A) (A) (A) (A) (A) (A) (A) (A) (A) (A)
                 (A) (A) (A) (A) (A) (A) (A) (A) (A) (A) (A) (A)
                 (A) (A) (A) (A) (A) (A) (A) (A) (A) (A) (A) (A)
                 (A) (A) (A) (A) (A) (A) (A) (A) (A) (A) (A) (A)
                 (A) (A) (A) (A) (A) (A) (A) (A) (A) (A) (A) (A)
                 (A) (A) (A) (A) (A) (A) (A) (A) (A) (A) (A) (A)
                 (A) (A) (A) (A) (A) (A) (A) (A) (A) (A) (A) (A)
                 (A) (A) (A) (A) (A) (A) (A) (A) (A) (A) (A) (A)
                 (A) (A) (A) (A) (A) (A) (A) (A) (A) (A) (A) (A)
                 (A) (A) (A) (A) (A) (A) (A) (A) (A) (A) (A) (A)
                 (A) (A) (A) (A) (A) (A) (A) (A) (A) (A) (A) (A)
                 (A) (A) (A) (A) (A) (A)
       Virtual   (A) (A) (A) (A) (A) (A) (A) (A) (A) (A) (A) (A)
                 (A) (A) (A) (A) (A) (A) (A) (A) (A) (A) (A) (A)
                 (A) (A) (A) (A) (A) (A) (A) (A) (A) (A) (A) (A)
                 (A) (A) (A) (A) (A) (A) (A) (A) (A) (A) (A) (A)
                 (A) (A) (A) (A) (A) (A) (A) (A) (A) (A) (A) (A)
                 (A) (A) (A) (A) (A) (A) (A) (A) (A) (A) (A) (A)
                 (A) (A) (A) (A) (A) (A) (A) (A) (A) (A) (A) (A)
                 (A) (A) (A) (A) (A) (A) (A) (A) (A) (A) (A) (A)
                 (A) (A) (A) (A) (A) (A) (A) (A) (A) (A) (A) (A)
                 (A) (A) (A) (A) (A) (A) (A) (A) (A) (A) (A) (A)
                 (A) (A) (A) (A) (A) (A) (A) (A) (A) (A) (A) (A)
                 (A) (A) (A) (A) (A) (A) (A) (A) (A) (A) (A) (A)
                 (A) (A) (A) (A) (A) (A) (A) (A) (A) (A) (A) (A)
                 (A) (A) (A) (A) (A) (A) (A) (A) (A) (A) (A) (A)
                 (A) (A) (A) (A) (A) (A) (A) (A) (A) (A) (A) (A)
                 (A) (A) (A) (A) (A) (A) (A) (A) (A) (A) (A) (A)
                 (A) (A) (A) (A) (A) (A) (A) (A) (A) (A) (A) (A)
                 (A) (A) (A) (A) (A) (A) (A) (A) (A) (A) (A) (A)
                 (A) (A) (A) (A) (A) (A) (A) (A) (A) (A) (A) (A)
                 (A) (A) (A) (A) (A) (A) (A) (A) (A) (A) (A) (A)
                 (A) (A) (A) (A) (A) (A) (A) (A) (A) (A) (A) (A)
                 (A) (A) (A) (A) (A) (A) (A) (A) (A) (A) (A) (A)
                 (A) (A) (A) (A) (A) (A) (A) (A) (A) (A) (A) (A)
                 (A) (A) (A) (A) (A) (A) (A) (A) (A) (A) (A) (A)
                 (A) (A) (A) (A) (A) (A) (A) (A) (A) (A) (A) (A)
                 (A) (A) (A) (A) (A) (A) (A) (A) (A) (A) (A) (A)
                 (A) (A) (A) (A) (A) (A) (A) (A) (A) (A) (A) (A)
                 (A) (A) (A) (A) (A) (A) (A) (A) (A) (A) (A) (A)
                 (A) (A) (A) (A) (A) (A) (A) (A) (A) (A) (A) (A)
                 (A) (A) (A) (A) (A) (A) (A) (A) (A) (A) (A) (A)
                 (A) (A) (A) (A) (A) (A) (A) (A) (A) (A) (A) (A)
                 (A) (A) (A) (A) (A) (A) (A) (A) (A) (A) (A) (A)
                 (A) (A) (A) (A) (A) (A) (A) (A) (A) (A) (A) (A)
                 (A) (A) (A) (A) (A) (A) (A) (A) (A) (A) (A) (A)
                 (A) (A) (A) (A) (A) (A) (A) (A) (A) (A) (A) (A)
                 (A) (A) (A) (A) (A) (A) (A) (A) (A) (A) (A) (A)
                 (A) (A) (A) (A) (A) (A) (A) (A) (A) (A) (A) (A)
                 (A) (A) (A) (A) (A) (A) (A) (A) (A) (A) (A) (A)
                 (A) (A) (A) (A) (A) (A) (A) (A) (A) (A) (A) (A)
                 (A) (A) (A) (A) (A) (A) (A) (A) (A) (A) (A) (A)
                 (A) (A) (A) (A) (A) (A) (A) (A) (A) (A) (A) (A)
                 (A) (A) (A) (A) (A) (A) (A) (A) (A) (A) (A) (A)
                 (A) (A) (A) (A) (A) (A) (A) (A) (A) (A) (A) (A)
                 (A) (A) (A) (A) (A) (A) (A) (A) (A) (A) (A) (A)
                 (A) (A) (A) (A) (A) (A) (A) (A) (A) (A) (A) (A)
                 (A) (A) (A) (A) (A) (A) (A) (A) (A) (A) (A) (A)
                 (A) (A) (A) (A) (A) (A) (A) (A) (A) (A) (A) (A)
                 (A) (A) (A) (A) (A) (A) (A) (A) (A) (A) (A) (A)
                 (A) (A) (A) (A) (A) (A) (A) (A) (A) (A) (A) (A)
                 (A) (A) (A) (A) (A) (A) (A) (A) (A) (A) (A) (A)
                 (A) (A) (A) (A) (A) (A) (A) (A) (A) (A) (A) (A)
                 (A) (A) (A) (A) (A) (A) (A) (A) (A) (A) (A) (A)
                 (A) (A) (A) (A) (A) (A) (A) (A) (A) (A) (A) (A)
                 (A) (A) (A) (A) (A) (A) (A) (A) (A) (A) (A) (A)
                 (A) (A) (A) (A) (A) (A) (A) (A) (A) (A) (A) (A)
                 (A) (A) (A) (A) (A) (A) (A) (A) (A) (A) (A) (A)
                 (A) (A) (A) (A) (A) (A) (A) (A) (A) (A) (A) (A)
                 (A) (A) (A) (A) (A) (A) (A) (A) (A) (A) (A) (A)
                 (A) (A) (A) (A) (A) (A) (A) (A) (A) (A) (A) (A)
                 (A) (A) (A) (A) (A) (A) (A) (A) (A) (A) (A) (A)
                 (A) (A) (A) (A) (A) (A) (A) (A) (A) (A) (A) (A)
                 (A) (A) (A) (A) (A) (A) (A) (A) (A) (A) (A) (A)
                 (A) (A) (A) (A) (A) (A) (A) (A) (A) (A) (A) (A)
                 (A) (A) (A) (A) (A) (A) (A) (A) (A) (A) (A) (A)
                 (A) (A) (A) (A) (A) (A) (A) (A) (A) (A) (A) (A)
                 (A) (A) (A) (A) (A) (A) (A) (A) (A) (A) (A) (A)
                 (A) (A) (A) (A) (A) (A) (A) (A) (A) (A) (A) (A)
                 (A) (A) (A) (A) (A) (A) (A) (A) (A) (A) (A) (A)
                 (A) (A) (A) (A) (A) (A) (A) (A) (A) (A) (A) (A)
                 (A) (A) (A) (A) (A) (A) (A) (A) (A) (A) (A) (A)
                 (A) (A) (A) (A) (A) (A) (A) (A) (A) (A) (A) (A)
                 (A) (A) (A) (A) (A) (A) (A) (A) (A) (A) (A) (A)
                 (A) (A) (A) (A) (A) (A) (A) (A) (A) (A) (A) (A)
                 (A) (A) (A) (A) (A) (A) (A) (A) (A) (A) (A) (A)
                 (A) (A) (A) (A) (A) (A) (A) (A) (A) (A) (A) (A)
                 (A) (A) (A) (A) (A) (A) (A) (A) (A) (A) (A) (A)
                 (A) (A) (A) (A) (A) (A) (A) (A) (A) (A) (A) (A)
                 (A) (A) (A) (A) (A) (A) (A) (A) (A) (A) (A) (A)
                 (A) (A) (A) (A) (A) (A) (A) (A) (A) (A) (A) (A)
                 (A) (A) (A) (A) (A) (A) (A) (A) (A) (A) (A) (A)
                 (A) (A) (A) (A) (A) (A) (A) (A) (A) (A) (A) (A)
                 (A) (A) (A) (A) (A) (A) (A) (A) (A) (A) (A) (A)
                 (A) (A) (A) (A) (A) (A) (A) (A) (A) (A) (A) (A)
                 (A) (A) (A) (A) (A) (A) (A) (A) (A) (A) (A) (A)
                 (A) (A) (A) (A) (A) (A) (A) (A) (A) (A) (A) (A)
                 (A) (A) (A) (A) (A) (A) (A) (A) (A) (A) (A) (A)
                 (A) (A) (A) (A) (A) (A) (A) (A) (A) (A) (A) (A)
                 (A) (A) (A) (A) (A) (A) (A) (A)
    20 initial guesses have been made.
 Convergence on wavefunction:    0.001000000000000
 Davidson Disk Diagonalization:  ConvIn= 1.00D-03 SkipCon=T Conv= 1.00D-03.
 Max sub-space:  2000 roots to seek:    20 dimension of matrix:       370304
 Iteration     1 Dimension    20 NMult     0 NNew     20
 CISAX will form    20 AO SS matrices at one time.
 NMat=    20 NSing=    20 JSym2X= 0.
 FoFJK:  IHMeth= 1 ICntrl=       0 DoSepK=F KAlg= 0 I1Cent=           0 FoldK=F
 IRaf= 510000000 NMat=      40 IRICut=       1 DoRegI=T DoRafI=F ISym2E= 0 IDoP0=3 IntGTp=3.
 FoFCou: FMM=T IPFlag=           0 FMFlag=      100000 FMFlg1=        2001
         NFxFlg=           0 DoJE=F BraDBF=F KetDBF=F FulRan=T
         wScrn=  0.000000 ICntrl=         0 IOpCl=  0 I1Cent=           0 NGrid=           0
         NMat0=   40 NMatS0=     20 NMatT0=    0 NMatD0=   40 NMtDS0=    0 NMtDT0=    0
 Symmetry not used in FoFCou.
 FMM levels:  10  Number of levels for PrismC:   9
 New state      3 was old state      8
 New state      4 was old state      5
 New state      5 was old state      9
 Excitation Energies [eV] at current iteration:
 Root      1 :     2.166749066255613
 Root      2 :     2.493500228249391
 Root      3 :     3.171197725712726
 Root      4 :     3.219827733500992
 Root      5 :     3.344910110568286
 Root      6 :     3.466916116757761
 Root      7 :     3.492459471624761
 Root      8 :     3.620883073203734
 Root      9 :     3.772029185918858
 Root     10 :     3.839323234390787
 Root     11 :     3.909597849509912
 Root     12 :     4.036993123951870
 Root     13 :     4.065171253754871
 Root     14 :     4.140650725375322
 Root     15 :     4.274646606922468
 Root     16 :     4.350692221515875
 Root     17 :     4.518519217453427
 Root     18 :     4.695686354588938
 Root     19 :     4.750661312911668
 Root     20 :     4.805625682849708
 Iteration     2 Dimension    30 NMult    20 NNew     10
 CISAX will form    10 AO SS matrices at one time.
 NMat=    10 NSing=    10 JSym2X= 0.
 Root      1 not converged, maximum delta is    0.060772113408731
 Root      2 not converged, maximum delta is    0.047517213886886
 New state      3 was old state      4
 Root      3 not converged, maximum delta is    0.328364581797394
 New state      4 was old state      3
 Root      4 not converged, maximum delta is    0.326813638420765
 Root      5 not converged, maximum delta is    0.280806831457116
 Excitation Energies [eV] at current iteration:
 Root      1 :     1.799111433053237   Change is   -0.367637633202375
 Root      2 :     2.248769020698369   Change is   -0.244731207551022
 Root      3 :     3.006407731633026   Change is   -0.213420001867966
 Root      4 :     3.046649869309296   Change is   -0.124547856403430
 Root      5 :     3.127954270998881   Change is   -0.216955839569405
 Iteration     3 Dimension    40 NMult    30 NNew     10
 CISAX will form    10 AO SS matrices at one time.
 NMat=    10 NSing=    10 JSym2X= 0.
 Root      1 not converged, maximum delta is    0.026456284950168
 Root      2 not converged, maximum delta is    0.021337905925407
 Root      3 not converged, maximum delta is    0.039349269753045
 Root      4 not converged, maximum delta is    0.036740768368478
 Root      5 not converged, maximum delta is    0.042283718099174
 Excitation Energies [eV] at current iteration:
 Root      1 :     1.765550781147075   Change is   -0.033560651906162
 Root      2 :     2.234050649722441   Change is   -0.014718370975928
 Root      3 :     2.995174860601452   Change is   -0.011232871031574
 Root      4 :     3.034647244940803   Change is   -0.012002624368493
 Root      5 :     3.107080573762357   Change is   -0.020873697236524
 Iteration     4 Dimension    50 NMult    40 NNew     10
 CISAX will form    10 AO SS matrices at one time.
 NMat=    10 NSing=    10 JSym2X= 0.
 Root      1 not converged, maximum delta is    0.002742883674910
 Root      2 not converged, maximum delta is    0.005584379445625
 Root      3 not converged, maximum delta is    0.011017743220406
 Root      4 not converged, maximum delta is    0.004665255075551
 Root      5 not converged, maximum delta is    0.039264630022775
 Excitation Energies [eV] at current iteration:
 Root      1 :     1.762283671781037   Change is   -0.003267109366038
 Root      2 :     2.231894849093711   Change is   -0.002155800628730
 Root      3 :     2.993031941285505   Change is   -0.002142919315947
 Root      4 :     3.033404865524050   Change is   -0.001242379416753
 Root      5 :     3.101445986370740   Change is   -0.005634587391617
 Iteration     5 Dimension    60 NMult    50 NNew     10
 CISAX will form    10 AO SS matrices at one time.
 NMat=    10 NSing=    10 JSym2X= 0.
 Root      1 not converged, maximum delta is    0.001041487119928
 Root      2 has converged.
 Root      3 not converged, maximum delta is    0.005103956463188
 Root      4 not converged, maximum delta is    0.001231473070249
 Root      5 not converged, maximum delta is    0.026387358099553
 Excitation Energies [eV] at current iteration:
 Root      1 :     1.761883003234065   Change is   -0.000400668546971
 Root      2 :     2.231706801264904   Change is   -0.000188047828807
 Root      3 :     2.992686616425173   Change is   -0.000345324860332
 Root      4 :     3.033251638655462   Change is   -0.000153226868588
 Root      5 :     3.099726713382958   Change is   -0.001719272987782
 Iteration     6 Dimension    68 NMult    60 NNew      8
 CISAX will form     8 AO SS matrices at one time.
 NMat=     8 NSing=     8 JSym2X= 0.
 Root      1 has converged.
 Root      2 has converged.
 Root      3 not converged, maximum delta is    0.001193023904318
 Root      4 has converged.
 Root      5 not converged, maximum delta is    0.012517690640101
 Excitation Energies [eV] at current iteration:
 Root      1 :     1.761852933950090   Change is   -0.000030069283975
 Root      2 :     2.231704356307071   Change is   -0.000002444957833
 Root      3 :     2.992650612865584   Change is   -0.000036003559589
 Root      4 :     3.033227762768598   Change is   -0.000023875886864
 Root      5 :     3.099296722837291   Change is   -0.000429990545666
 Iteration     7 Dimension    72 NMult    68 NNew      4
 CISAX will form     4 AO SS matrices at one time.
 NMat=     4 NSing=     4 JSym2X= 0.
 Root      1 has converged.
 Root      2 has converged.
 Root      3 has converged.
 Root      4 has converged.
 Root      5 not converged, maximum delta is    0.004162063301781
 Excitation Energies [eV] at current iteration:
 Root      1 :     1.761852896932716   Change is   -0.000000037017374
 Root      2 :     2.231702976189545   Change is   -0.000001380117526
 Root      3 :     2.992645222351561   Change is   -0.000005390514023
 Root      4 :     3.033227551553852   Change is   -0.000000211214745
 Root      5 :     3.099199623731334   Change is   -0.000097099105957
 Iteration     8 Dimension    74 NMult    72 NNew      2
 CISAX will form     2 AO SS matrices at one time.
 NMat=     2 NSing=     2 JSym2X= 0.
 Root      1 has converged.
 Root      2 has converged.
 Root      3 has converged.
 Root      4 has converged.
 Root      5 has converged.
 Excitation Energies [eV] at current iteration:
 Root      1 :     1.761852811983003   Change is   -0.000000084949713
 Root      2 :     2.231702932010827   Change is   -0.000000044178718
 Root      3 :     2.992645094441745   Change is   -0.000000127909816
 Root      4 :     3.033227517991554   Change is   -0.000000033562299
 Root      5 :     3.099190890819929   Change is   -0.000008732911405
 Convergence achieved on expansion vectors.
 ***********************************************************************
 Excited states from <AA,BB:AA,BB> singles matrix:
 ***********************************************************************
 
 1PDM for each excited state written to RWF  633
 Ground to excited state transition densities written to RWF  633
 Ground to excited state transition electric dipole moments (Au):
       state          X           Y           Z        Dip. S.      Osc.
         1         0.4804     -1.5954      2.3670      8.3789      0.3617
         2        -0.0514      1.0136      0.4005      1.1904      0.0651
         3        -0.0291      0.2014      0.0148      0.0416      0.0031
         4         0.0264      0.1842      0.0306      0.0355      0.0026
         5         0.0061      0.5782      0.3235      0.4390      0.0333
 Ground to excited state transition velocity dipole moments (Au):
       state          X           Y           Z        Dip. S.      Osc.
         1        -0.0291      0.1004     -0.1488      0.0331      0.3405
         2         0.0047     -0.0793     -0.0304      0.0072      0.0588
         3         0.0036     -0.0218     -0.0009      0.0005      0.0030
         4         0.0005     -0.0190     -0.0040      0.0004      0.0022
         5        -0.0005     -0.0638     -0.0324      0.0051      0.0300
 Ground to excited state transition magnetic dipole moments (Au):
       state          X           Y           Z
         1        -0.4208      1.3561      1.0397
         2        -0.2358      0.2558     -0.7583
         3        -0.6855     -0.2511      0.1028
         4        -0.2543      0.3219     -0.2877
         5        -0.2906      0.5323     -0.8752
 Ground to excited state transition velocity quadrupole moments (Au):
       state          XX          YY          ZZ          XY          XZ          YZ
         1        -0.5360      0.3722     -0.0442      0.8248     -1.3630     -0.3201
         2         0.1854     -0.2083     -0.1510     -0.6939     -0.3037     -0.0507
         3         0.1241     -0.3479      0.1560     -0.1580      0.0440      0.0400
         4         0.0341     -0.1306     -0.0015     -0.1263     -0.0133     -0.0054
         5         0.1493     -0.3571      0.1753     -0.6508     -0.1907     -0.2995
 <0|del|b> * <b|rxdel|0> + <0|del|b> * <b|delr+rdel|0>
 Rotatory Strengths (R) in cgs (10**-40 erg-esu-cm/Gauss)
       state          XX          YY          ZZ    R(velocity)    E-M Angle
         1       -23.7844    -56.8594     12.2097    -22.8113       91.12
         2        -1.0450      2.5787     12.6169      4.7169       88.67
         3        20.8619     -8.2476      6.1263      6.2469       79.71
         4       -14.9811      1.6224    -18.9628    -10.7738      121.62
         5        10.4467     23.6005    -67.6924    -11.2151       94.08
 1/2[<0|r|b>*<b|rxdel|0> + (<0|rxdel|b>*<b|r|0>)*]
 Rotatory Strengths (R) in cgs (10**-40 erg-esu-cm/Gauss)
       state          XX          YY          ZZ     R(length)
         1       142.9377   1529.9326  -1740.2785    -22.4694
         2        -8.5748   -183.3355    214.7739      7.6212
         3       -14.1071     35.7642     -1.0779      6.8597
         4         4.7522    -41.9166      6.2231    -10.3138
         5         1.2537   -217.6474    200.2174     -5.3921
  1/2[<0|del|b>*<b|r|0> + (<0|r|b>*<b|del|0>)*] (Au)
       state          X           Y           Z        Dip. S.   Osc.(frdel)
         1        -0.0140     -0.1602     -0.3522      0.5264      0.3509
         2        -0.0002     -0.0804     -0.0122      0.0928      0.0619
         3        -0.0001     -0.0044     -0.0000      0.0045      0.0030
         4         0.0000     -0.0035     -0.0001      0.0036      0.0024
         5        -0.0000     -0.0369     -0.0105      0.0474      0.0316

 Excitation energies and oscillator strengths:
 
 Excited State   1:      Singlet-A      1.7619 eV  703.71 nm  f=0.3617  <S**2>=0.000
     245 -> 248        0.16124
     246 -> 247        0.69834
     246 <- 247       -0.12323
 This state for optimization and/or second-order correction.
 Total Energy, E(TD-HF/TD-DFT) =  -3005.26350570    
 Copying the excited state density for this state as the 1-particle RhoCI density.
 
 Excited State   2:      Singlet-A      2.2317 eV  555.56 nm  f=0.0651  <S**2>=0.000
     245 -> 247        0.62391
     246 -> 248       -0.32016
 
 Excited State   3:      Singlet-A      2.9926 eV  414.30 nm  f=0.0031  <S**2>=0.000
     241 -> 247       -0.22041
     244 -> 247        0.64755
 
 Excited State   4:      Singlet-A      3.0332 eV  408.75 nm  f=0.0026  <S**2>=0.000
     241 -> 247        0.49619
     241 -> 249       -0.16183
     243 -> 247       -0.43687
     244 -> 247        0.13127
 
 Excited State   5:      Singlet-A      3.0992 eV  400.05 nm  f=0.0333  <S**2>=0.000
     241 -> 247        0.36065
     243 -> 247        0.46903
     244 -> 247        0.15410
     246 -> 248        0.29585
 SavETr:  write IOETrn=   770 NScale= 10 NData=  16 NLR=1 NState=    5 LETran=     100.
 Leave Link  914 at Thu Apr 28 13:37:53 2022, MaxMem= 10066329600 cpu:           20165.9 elap:             842.3
 (Enter /sw/apps/gaussian-16.0/g16/l601.exe)
 Copying SCF densities to generalized density rwf, IOpCl= 0 IROHF=0.
 Hyperfine terms turned off by default for NAtoms > 100.

 **********************************************************************

            Population analysis using the SCF density.

 **********************************************************************

 Orbital symmetries:
       Occupied  (A) (A) (A) (A) (A) (A) (A) (A) (A) (A) (A) (A)
                 (A) (A) (A) (A) (A) (A) (A) (A) (A) (A) (A) (A)
                 (A) (A) (A) (A) (A) (A) (A) (A) (A) (A) (A) (A)
                 (A) (A) (A) (A) (A) (A) (A) (A) (A) (A) (A) (A)
                 (A) (A) (A) (A) (A) (A) (A) (A) (A) (A) (A) (A)
                 (A) (A) (A) (A) (A) (A) (A) (A) (A) (A) (A) (A)
                 (A) (A) (A) (A) (A) (A) (A) (A) (A) (A) (A) (A)
                 (A) (A) (A) (A) (A) (A) (A) (A) (A) (A) (A) (A)
                 (A) (A) (A) (A) (A) (A) (A) (A) (A) (A) (A) (A)
                 (A) (A) (A) (A) (A) (A) (A) (A) (A) (A) (A) (A)
                 (A) (A) (A) (A) (A) (A) (A) (A) (A) (A) (A) (A)
                 (A) (A) (A) (A) (A) (A) (A) (A) (A) (A) (A) (A)
                 (A) (A) (A) (A) (A) (A) (A) (A) (A) (A) (A) (A)
                 (A) (A) (A) (A) (A) (A) (A) (A) (A) (A) (A) (A)
                 (A) (A) (A) (A) (A) (A) (A) (A) (A) (A) (A) (A)
                 (A) (A) (A) (A) (A) (A) (A) (A) (A) (A) (A) (A)
                 (A) (A) (A) (A) (A) (A) (A) (A) (A) (A) (A) (A)
                 (A) (A) (A) (A) (A) (A) (A) (A) (A) (A) (A) (A)
                 (A) (A) (A) (A) (A) (A) (A) (A) (A) (A) (A) (A)
                 (A) (A) (A) (A) (A) (A) (A) (A) (A) (A) (A) (A)
                 (A) (A) (A) (A) (A) (A)
       Virtual   (A) (A) (A) (A) (A) (A) (A) (A) (A) (A) (A) (A)
                 (A) (A) (A) (A) (A) (A) (A) (A) (A) (A) (A) (A)
                 (A) (A) (A) (A) (A) (A) (A) (A) (A) (A) (A) (A)
                 (A) (A) (A) (A) (A) (A) (A) (A) (A) (A) (A) (A)
                 (A) (A) (A) (A) (A) (A) (A) (A) (A) (A) (A) (A)
                 (A) (A) (A) (A) (A) (A) (A) (A) (A) (A) (A) (A)
                 (A) (A) (A) (A) (A) (A) (A) (A) (A) (A) (A) (A)
                 (A) (A) (A) (A) (A) (A) (A) (A) (A) (A) (A) (A)
                 (A) (A) (A) (A) (A) (A) (A) (A) (A) (A) (A) (A)
                 (A) (A) (A) (A) (A) (A) (A) (A) (A) (A) (A) (A)
                 (A) (A) (A) (A) (A) (A) (A) (A) (A) (A) (A) (A)
                 (A) (A) (A) (A) (A) (A) (A) (A) (A) (A) (A) (A)
                 (A) (A) (A) (A) (A) (A) (A) (A) (A) (A) (A) (A)
                 (A) (A) (A) (A) (A) (A) (A) (A) (A) (A) (A) (A)
                 (A) (A) (A) (A) (A) (A) (A) (A) (A) (A) (A) (A)
                 (A) (A) (A) (A) (A) (A) (A) (A) (A) (A) (A) (A)
                 (A) (A) (A) (A) (A) (A) (A) (A) (A) (A) (A) (A)
                 (A) (A) (A) (A) (A) (A) (A) (A) (A) (A) (A) (A)
                 (A) (A) (A) (A) (A) (A) (A) (A) (A) (A) (A) (A)
                 (A) (A) (A) (A) (A) (A) (A) (A) (A) (A) (A) (A)
                 (A) (A) (A) (A) (A) (A) (A) (A) (A) (A) (A) (A)
                 (A) (A) (A) (A) (A) (A) (A) (A) (A) (A) (A) (A)
                 (A) (A) (A) (A) (A) (A) (A) (A) (A) (A) (A) (A)
                 (A) (A) (A) (A) (A) (A) (A) (A) (A) (A) (A) (A)
                 (A) (A) (A) (A) (A) (A) (A) (A) (A) (A) (A) (A)
                 (A) (A) (A) (A) (A) (A) (A) (A) (A) (A) (A) (A)
                 (A) (A) (A) (A) (A) (A) (A) (A) (A) (A) (A) (A)
                 (A) (A) (A) (A) (A) (A) (A) (A) (A) (A) (A) (A)
                 (A) (A) (A) (A) (A) (A) (A) (A) (A) (A) (A) (A)
                 (A) (A) (A) (A) (A) (A) (A) (A) (A) (A) (A) (A)
                 (A) (A) (A) (A) (A) (A) (A) (A) (A) (A) (A) (A)
                 (A) (A) (A) (A) (A) (A) (A) (A) (A) (A) (A) (A)
                 (A) (A) (A) (A) (A) (A) (A) (A) (A) (A) (A) (A)
                 (A) (A) (A) (A) (A) (A) (A) (A) (A) (A) (A) (A)
                 (A) (A) (A) (A) (A) (A) (A) (A) (A) (A) (A) (A)
                 (A) (A) (A) (A) (A) (A) (A) (A) (A) (A) (A) (A)
[...]
 Alpha virt. eigenvalues --    1.18890   1.19336   1.19713   1.19990   1.20281
 Alpha virt. eigenvalues --    1.21017   1.21164   1.21873   1.22068   1.22734
 Alpha virt. eigenvalues --    1.23275   1.23601   1.23835   1.25200   1.25899
 Alpha virt. eigenvalues --    1.26774   1.27243   1.27484   1.27637   1.28474
 Alpha virt. eigenvalues --    1.28771   1.29207   1.29981   1.30183   1.30414
 Alpha virt. eigenvalues --    1.30842   1.30926   1.31278   1.31533   1.32354
 Alpha virt. eigenvalues --    1.32426   1.32922   1.33122   1.33698   1.34009
 Alpha virt. eigenvalues --    1.34322   1.34950   1.35202   1.35618   1.36151
 Alpha virt. eigenvalues --    1.36560   1.36735   1.36968   1.37179   1.37541
 Alpha virt. eigenvalues --    1.38190   1.38583   1.38965   1.39217   1.39348
 Alpha virt. eigenvalues --    1.40173   1.40370   1.40844   1.40869   1.41416
 Alpha virt. eigenvalues --    1.42007   1.42368   1.42749   1.43333   1.43427
 Alpha virt. eigenvalues --    1.44267   1.44563   1.44730   1.45262   1.46309
 Alpha virt. eigenvalues --    1.46741   1.47156   1.47963   1.48468   1.48898
 Alpha virt. eigenvalues --    1.49234   1.49487   1.49609   1.50145   1.50364
 Alpha virt. eigenvalues --    1.50871   1.51192   1.51458   1.51905   1.52030
 Alpha virt. eigenvalues --    1.52484   1.52712   1.52791   1.53116   1.53477
 Alpha virt. eigenvalues --    1.53748   1.54358   1.54489   1.54824   1.55050
 Alpha virt. eigenvalues --    1.55299   1.55428   1.55667   1.55896   1.56381
 Alpha virt. eigenvalues --    1.56605   1.56689   1.56967   1.57361   1.57406
 Alpha virt. eigenvalues --    1.57611   1.57734   1.58495   1.58723   1.58786
 Alpha virt. eigenvalues --    1.59169   1.59401   1.59876   1.60086   1.60254
 Alpha virt. eigenvalues --    1.60528   1.61051   1.61656   1.63002   1.63415
 Alpha virt. eigenvalues --    1.63890   1.64070   1.64459   1.64936   1.65307
 Alpha virt. eigenvalues --    1.65596   1.65793   1.66041   1.66212   1.66655
 Alpha virt. eigenvalues --    1.67087   1.67497   1.67940   1.68270   1.68696
 Alpha virt. eigenvalues --    1.68849   1.69692   1.69995   1.70681   1.71048
 Alpha virt. eigenvalues --    1.71153   1.71253   1.71731   1.72090   1.72452
 Alpha virt. eigenvalues --    1.72631   1.72889   1.73149   1.73381   1.73595
 Alpha virt. eigenvalues --    1.73781   1.74061   1.74495   1.75030   1.75147
 Alpha virt. eigenvalues --    1.75322   1.75650   1.75736   1.76207   1.76356
 Alpha virt. eigenvalues --    1.76484   1.76648   1.76812   1.76936   1.77083
 Alpha virt. eigenvalues --    1.77257   1.77522   1.77748   1.77889   1.78276
 Alpha virt. eigenvalues --    1.78415   1.78694   1.78772   1.78985   1.79065
 Alpha virt. eigenvalues --    1.79271   1.79451   1.79830   1.80024   1.80065
 Alpha virt. eigenvalues --    1.80170   1.80290   1.80771   1.80822   1.80924
 Alpha virt. eigenvalues --    1.81246   1.81496   1.82078   1.82234   1.82289
 Alpha virt. eigenvalues --    1.82566   1.82609   1.82965   1.83154   1.83732
 Alpha virt. eigenvalues --    1.83795   1.83904   1.84149   1.84177   1.84896
 Alpha virt. eigenvalues --    1.85044   1.85206   1.85446   1.85579   1.85641
 Alpha virt. eigenvalues --    1.85825   1.85869   1.86213   1.86371   1.86419
 Alpha virt. eigenvalues --    1.86609   1.86715   1.87233   1.87600   1.87802
 Alpha virt. eigenvalues --    1.87828   1.88067   1.88249   1.88272   1.88635
 Alpha virt. eigenvalues --    1.88911   1.89141   1.89201   1.90018   1.90279
 Alpha virt. eigenvalues --    1.90680   1.90826   1.91195   1.91279   1.91338
 Alpha virt. eigenvalues --    1.91645   1.91809   1.92134   1.92411   1.92722
 Alpha virt. eigenvalues --    1.92933   1.93345   1.93599   1.93789   1.94391
 Alpha virt. eigenvalues --    1.94522   1.94745   1.94991   1.95011   1.95292
 Alpha virt. eigenvalues --    1.95536   1.95793   1.96060   1.96417   1.96599
 Alpha virt. eigenvalues --    1.96802   1.97237   1.97303   1.97795   1.97835
 Alpha virt. eigenvalues --    1.97962   1.98452   1.98831   1.99119   1.99350
 Alpha virt. eigenvalues --    1.99811   2.00125   2.00306   2.00564   2.01166
 Alpha virt. eigenvalues --    2.01256   2.01596   2.01987   2.02427   2.02799
 Alpha virt. eigenvalues --    2.03368   2.03638   2.03706   2.04037   2.04603
 Alpha virt. eigenvalues --    2.05000   2.05314   2.05454   2.05688   2.06030
 Alpha virt. eigenvalues --    2.06135   2.06770   2.06858   2.07108   2.07509
 Alpha virt. eigenvalues --    2.07686   2.07817   2.07991   2.08307   2.08803
 Alpha virt. eigenvalues --    2.09045   2.09449   2.09727   2.09941   2.10013
 Alpha virt. eigenvalues --    2.10464   2.11276   2.11606   2.12007   2.12318
 Alpha virt. eigenvalues --    2.12799   2.12885   2.13200   2.13215   2.13457
 Alpha virt. eigenvalues --    2.13550   2.14023   2.14757   2.14942   2.15184
 Alpha virt. eigenvalues --    2.15330   2.16009   2.16294   2.16401   2.16694
 Alpha virt. eigenvalues --    2.17133   2.17177   2.17678   2.18150   2.18827
 Alpha virt. eigenvalues --    2.19353   2.19524   2.19560   2.19817   2.19955
 Alpha virt. eigenvalues --    2.20447   2.20850   2.21255   2.21483   2.21517
 Alpha virt. eigenvalues --    2.22265   2.22711   2.22905   2.23617   2.24023
 Alpha virt. eigenvalues --    2.24156   2.24604   2.25121   2.25272   2.25575
 Alpha virt. eigenvalues --    2.25608   2.26211   2.27247   2.27586   2.27828
 Alpha virt. eigenvalues --    2.28632   2.28759   2.29859   2.30346   2.30385
 Alpha virt. eigenvalues --    2.30805   2.31229   2.31651   2.31731   2.32119
 Alpha virt. eigenvalues --    2.32359   2.32534   2.32868   2.33550   2.34144
 Alpha virt. eigenvalues --    2.34263   2.34485   2.35469   2.35660   2.36222
 Alpha virt. eigenvalues --    2.36343   2.36624   2.36796   2.37166   2.37585
 Alpha virt. eigenvalues --    2.38056   2.38381   2.38772   2.39180   2.39753
 Alpha virt. eigenvalues --    2.39780   2.40310   2.40518   2.40773   2.41080
 Alpha virt. eigenvalues --    2.41150   2.41605   2.42356   2.42637   2.43497
 Alpha virt. eigenvalues --    2.43711   2.44068   2.44654   2.44791   2.45106
 Alpha virt. eigenvalues --    2.45523   2.45894   2.46537   2.46771   2.47448
 Alpha virt. eigenvalues --    2.48193   2.48408   2.48819   2.49113   2.49625
 Alpha virt. eigenvalues --    2.49827   2.50052   2.50829   2.51204   2.51413
 Alpha virt. eigenvalues --    2.51586   2.51963   2.52123   2.52286   2.52801
 Alpha virt. eigenvalues --    2.53383   2.53871   2.54651   2.54940   2.55226
 Alpha virt. eigenvalues --    2.55931   2.56440   2.56648   2.57150   2.57258
 Alpha virt. eigenvalues --    2.57938   2.57978   2.58205   2.59523   2.59911
 Alpha virt. eigenvalues --    2.60187   2.60562   2.60651   2.60903   2.61009
 Alpha virt. eigenvalues --    2.61576   2.62198   2.62381   2.63494   2.63649
 Alpha virt. eigenvalues --    2.64471   2.64691   2.64862   2.64907   2.65080
 Alpha virt. eigenvalues --    2.65567   2.65778   2.65920   2.66249   2.67098
 Alpha virt. eigenvalues --    2.67687   2.68547   2.68795   2.68985   2.69641
 Alpha virt. eigenvalues --    2.69884   2.70236   2.70726   2.70842   2.71068
 Alpha virt. eigenvalues --    2.71520   2.72137   2.72254   2.72479   2.72614
 Alpha virt. eigenvalues --    2.72825   2.73176   2.74090   2.74238   2.74531
 Alpha virt. eigenvalues --    2.74625   2.74925   2.75558   2.75806   2.76730
 Alpha virt. eigenvalues --    2.77217   2.78912   2.79819   2.80233   2.80647
 Alpha virt. eigenvalues --    2.81165   2.81665   2.82432   2.82638   2.83118
 Alpha virt. eigenvalues --    2.83693   2.84008   2.84086   2.84502   2.84961
 Alpha virt. eigenvalues --    2.86358   2.86494   2.86846   2.87050   2.87336
 Alpha virt. eigenvalues --    2.88497   2.88714   2.89207   2.90572   2.91056
 Alpha virt. eigenvalues --    2.91159   2.91318   2.91795   2.92198   2.92607
 Alpha virt. eigenvalues --    2.92835   2.93050   2.93363   2.93597   2.93722
 Alpha virt. eigenvalues --    2.93840   2.94238   2.94348   2.94684   2.94816
 Alpha virt. eigenvalues --    2.95516   2.95709   2.96181   2.96330   2.96492
 Alpha virt. eigenvalues --    2.96825   2.97030   2.97187   2.97358   2.97965
 Alpha virt. eigenvalues --    2.98507   2.98645   2.98725   2.98778   2.99138
 Alpha virt. eigenvalues --    2.99718   3.00130   3.00578   3.01045   3.01233
 Alpha virt. eigenvalues --    3.01692   3.01932   3.02467   3.02805   3.03334
 Alpha virt. eigenvalues --    3.03394   3.03555   3.03869   3.04166   3.04487
 Alpha virt. eigenvalues --    3.04888   3.05683   3.06029   3.06447   3.07274
 Alpha virt. eigenvalues --    3.07531   3.07691   3.08376   3.08699   3.09335
 Alpha virt. eigenvalues --    3.10241   3.11672   3.11923   3.12300   3.12427
 Alpha virt. eigenvalues --    3.13060   3.13112   3.13364   3.13780   3.14260
 Alpha virt. eigenvalues --    3.14711   3.15596   3.15911   3.16407   3.16476
 Alpha virt. eigenvalues --    3.18416   3.18672   3.19965   3.20478   3.23397
 Alpha virt. eigenvalues --    3.24340   3.25594   3.33327   3.34790   3.40793
 Alpha virt. eigenvalues --    3.41052   3.42394   3.42788   3.46350   3.47639
 Alpha virt. eigenvalues --    3.51384   3.58192   3.62107   3.63821   3.65819
 Alpha virt. eigenvalues --    3.66621   3.68569
          Condensed to atoms (all electrons):
 Mulliken charges:
               1
     1  Mg   0.970815
     2  C   -0.004459
     3  C   -0.055074
     4  C   -0.045654
     5  C   -0.090490
     6  N   -0.459024
     7  C    0.042646
     8  C   -0.050137
     9  C   -0.137568
    10  C    0.087784
    11  C    0.026330
    12  C   -0.005503
    13  C   -0.092442
    14  C    0.235756
    15  O   -0.239032
    16  O   -0.368304
    17  N   -0.485387
    18  C    0.142663
    19  C   -0.168453
    20  C   -0.103771
    21  C    0.170418
    22  C    0.091491
    23  C    0.049145
    24  O   -0.219091
    25  C   -0.042355
    26  N   -0.394193
    27  C    0.059393
    28  C   -0.144183
    29  C   -0.101455
    30  C    0.082708
    31  C   -0.002921
    32  C    0.006295
    33  C   -0.070211
    34  N   -0.427142
    35  C    0.165582
    36  C   -0.200548
    37  C   -0.037631
    38  C    0.124007
    39  C    0.060953
    40  C    0.167453
    41  O   -0.237074
    42  C   -0.126297
    43  C    0.290982
    44  O   -0.234434
    45  O   -0.402885
    46  C    0.121086
    47  C    0.242229
    48  C   -0.097030
    49  C   -0.204826
    50  C    0.015748
    51  C   -0.016634
    52  C   -0.035732
    53  C   -0.011789
    54  C   -0.231361
    55  C   -0.008619
    56  C    0.021126
    57  C   -0.053051
    58  C   -0.014707
    59  C   -0.226972
    60  C   -0.012491
    61  C    0.042196
    62  C   -0.087519
    63  C   -0.010141
    64  C   -0.229585
    65  C   -0.020059
    66  C   -0.032913
    67  H    0.005199
    68  H   -0.004320
    69  H    0.013537
    70  H    0.052771
    71  H    0.041002
    72  H    0.050139
    73  H    0.055862
    74  H    0.049778
    75  H    0.048295
    76  H    0.049660
    77  H    0.075210
    78  H    0.067204
    79  H    0.059475
    80  H    0.018566
    81  H    0.072334
    82  H    0.053634
    83  H    0.089310
    84  H    0.055999
    85  H    0.058063
    86  H    0.037715
    87  H    0.047118
    88  H    0.048721
    89  H    0.048210
    90  H    0.043195
    91  H    0.040605
    92  H    0.036561
    93  H    0.051260
    94  H    0.029726
    95  H    0.054765
    96  H    0.055975
    97  H    0.064245
    98  H    0.076544
    99  H    0.064447
   100  H    0.060185
   101  H    0.070132
   102  H    0.057082
   103  H    0.046628
   104  H    0.028014
   105  H    0.063456
   106  H    0.039374
   107  H    0.053284
   108  H    0.029497
   109  H    0.026787
   110  H    0.036970
   111  H    0.032038
   112  H    0.037831
   113  H    0.028273
   114  H    0.034827
   115  H    0.034133
   116  H    0.028286
   117  H    0.022342
   118  H    0.035106
   119  H    0.027040
   120  H    0.026206
   121  H    0.028275
   122  H    0.010259
   123  H    0.013498
   124  H    0.045750
   125  H    0.039417
   126  H    0.019556
   127  H    0.034419
   128  H    0.027103
   129  H    0.025395
   130  H    0.016797
   131  H    0.027869
   132  H    0.025061
   133  H    0.024573
   134  H    0.049011
   135  H    0.028499
   136  H    0.043658
   137  H    0.033400
   138  H    0.033127
   139  H    0.028302
   140  H    0.040081
 Sum of Mulliken charges =  -0.00000
 Mulliken charges with hydrogens summed into heavy atoms:
               1
     1  Mg   0.970815
     2  C   -0.004459
     3  C   -0.049875
     4  C   -0.049975
     5  C   -0.076953
     6  N   -0.459024
     7  C    0.042646
     8  C    0.002634
     9  C   -0.096566
    10  C    0.087784
    11  C    0.182109
    12  C    0.092452
    13  C    0.049971
    14  C    0.235756
    15  O   -0.239032
    16  O   -0.368304
    17  N   -0.485387
    18  C    0.142663
    19  C   -0.168453
    20  C   -0.103771
    21  C    0.170418
    22  C    0.241866
    23  C    0.049145
    24  O   -0.219091
    25  C    0.156589
    26  N   -0.394193
    27  C    0.059393
    28  C   -0.086121
    29  C   -0.063740
    30  C    0.082708
    31  C    0.141129
    32  C    0.090096
    33  C    0.047336
    34  N   -0.427142
    35  C    0.165582
    36  C   -0.200548
    37  C   -0.037631
    38  C    0.124007
    39  C    0.235937
    40  C    0.167453
    41  O   -0.237074
    42  C   -0.049753
    43  C    0.290982
    44  O   -0.234434
    45  O   -0.402885
    46  C    0.315849
    47  C    0.345939
    48  C   -0.069016
    49  C   -0.204826
    50  C    0.171863
    51  C    0.039650
    52  C    0.033276
    53  C    0.054315
    54  C   -0.196534
    55  C    0.076142
    56  C    0.083272
    57  C    0.001430
    58  C    0.009050
    59  C   -0.181222
    60  C    0.080901
    61  C    0.094695
    62  C   -0.042853
    63  C    0.039493
    64  C   -0.180575
    65  C    0.085498
    66  C    0.068596
 Electronic spatial extent (au):  <R**2>=         118894.9323
 Charge=             -0.0000 electrons
 Dipole moment (field-independent basis, Debye):
    X=              1.5717    Y=              6.0968    Z=              1.6657  Tot=              6.5127
 Quadrupole moment (field-independent basis, Debye-Ang):
   XX=           -359.8178   YY=           -426.4105   ZZ=           -402.2692
   XY=             23.6182   XZ=              2.1550   YZ=             32.9152
 Traceless Quadrupole moment (field-independent basis, Debye-Ang):
   XX=             36.3480   YY=            -30.2447   ZZ=             -6.1034
   XY=             23.6182   XZ=              2.1550   YZ=             32.9152
 Octapole moment (field-independent basis, Debye-Ang**2):
  XXX=            480.3624  YYY=            227.6010  ZZZ=             57.1750  XYY=             24.1869
  XXY=            -13.6865  XXZ=            -82.8320  XZZ=             51.0200  YZZ=             -3.3603
  YYZ=            127.3264  XYZ=            143.8280
 Hexadecapole moment (field-independent basis, Debye-Ang**3):
 XXXX=        -122085.8312 YYYY=         -24300.3518 ZZZZ=         -15610.7538 XXXY=           -793.2460
 XXXZ=            703.7544 YYYX=            658.5347 YYYZ=            715.3262 ZZZX=            295.4521
 ZZZY=            820.5177 XXYY=         -24102.8221 XXZZ=         -22988.9541 YYZZ=          -7425.2266
 XXYZ=            516.1890 YYXZ=            217.7548 ZZXY=            136.7329
 N-N= 9.503809762309D+03 E-N=-2.599787093268D+04  KE= 2.974006129400D+03
 Leave Link  601 at Thu Apr 28 13:37:54 2022, MaxMem= 10066329600 cpu:               9.9 elap:               0.5
 (Enter /sw/apps/gaussian-16.0/g16/l9999.exe)
 1\1\GINC-BP1-COMPUTE165\SP\RPBE1PBE TD-FC\def2SVP\C55H74Mg1N4O6\OF1564
 1\28-Apr-2022\0\\#p PBE1PBE/Def2SVP td=(nstates=5)\\step_1601_chromoph
 ore_14 TDDFT with PBE1PBE functional\\0,1\Mg,0,47.456,45.138,43.296\C,
 0,43.984,44.901,43.184\C,0,47.739,41.745,42.892\C,0,50.66,45.572,41.98
 4\C,0,47.006,48.781,43.116\N,0,46.085,43.591,43.179\C,0,44.67,43.669,4
 3.189\C,0,44.069,42.232,43.19\C,0,45.289,41.383,43.543\C,0,46.506,42.3
 ,43.184\C,0,45.416,40.801,45.038\C,0,43.244,41.84,41.942\C,0,43.597,42
 .499,40.596\C,0,43.432,41.733,39.25\O,0,42.669,40.829,39.137\O,0,44.30
 6,42.117,38.286\N,0,49.041,43.824,42.673\C,0,48.974,42.401,42.595\C,0,
 50.298,41.889,42.223\C,0,51.137,42.971,42.022\C,0,50.279,44.217,42.254
 \C,0,50.715,40.41,42.271\C,0,52.636,42.855,41.65\O,0,53.103,41.785,41.
 345\C,0,53.492,44.075,41.636\N,0,48.624,46.951,42.787\C,0,50.001,46.78
 3,42.367\C,0,50.676,48.217,42.199\C,0,49.417,49.169,42.425\C,0,48.294,
 48.252,42.874\C,0,51.971,48.519,43.145\C,0,49.183,50.187,41.349\C,0,48
 .558,51.495,41.738\N,0,45.87,46.614,43.264\C,0,45.838,47.989,43.272\C,
 0,44.454,48.469,43.376\C,0,43.629,47.307,43.248\C,0,44.573,46.205,43.2
 79\C,0,43.962,49.823,43.389\C,0,42.277,46.754,43.243\O,0,41.164,47.319
 ,43.273\C,0,42.494,45.168,43.213\C,0,41.735,44.562,44.413\O,0,40.911,4
 3.679,44.418\O,0,42.18,45.156,45.606\C,0,41.3,44.78,46.821\C,0,44.157,
 41.516,36.928\C,0,44.722,42.388,35.806\C,0,45.488,42.081,34.767\C,0,46
 .249,40.801,34.523\C,0,45.97,43.166,33.799\C,0,45.255,43.219,32.485\C,
 0,45.351,44.575,31.777\C,0,45.48,44.389,30.231\C,0,45.722,45.78,29.585
 \C,0,44.21,43.726,29.532\C,0,44.469,42.753,28.44\C,0,43.908,43.104,27.
 061\C,0,44.922,43.745,26.107\C,0,44.348,44.977,25.378\C,0,45.427,42.66
 4,25.079\C,0,46.905,42.447,25.209\C,0,47.745,42.588,23.867\C,0,47.768,
 44.084,23.449\C,0,46.826,44.317,22.228\C,0,49.313,44.37,23.108\H,0,47.
 782,40.655,42.958\H,0,51.647,45.754,41.553\H,0,47.027,49.861,43.272\H,
 0,43.253,42.227,43.911\H,0,45.42,40.525,42.884\H,0,45.73,39.762,44.943
 \H,0,44.427,40.961,45.467\H,0,46.216,41.337,45.549\H,0,42.228,42.199,4
 2.109\H,0,43.117,40.77,41.775\H,0,44.674,42.551,40.761\H,0,43.237,43.5
 27,40.554\H,0,50.628,40.008,41.262\H,0,49.959,39.85,42.822\H,0,51.673,
 40.303,42.779\H,0,53.292,44.687,42.515\H,0,53.43,44.703,40.747\H,0,54.
 488,43.662,41.797\H,0,51.033,48.12,41.174\H,0,49.602,49.771,43.314\H,0
 ,51.733,49.269,43.899\H,0,52.796,48.85,42.514\H,0,52.287,47.61,43.657\
 H,0,48.514,49.691,40.646\H,0,50.125,50.388,40.839\H,0,48.586,51.618,42
 .821\H,0,47.593,51.714,41.282\H,0,49.13,52.367,41.422\H,0,44.294,50.38
 3,44.263\H,0,42.874,49.845,43.449\H,0,44.218,50.193,42.396\H,0,42.011,
 44.837,42.293\H,0,41.711,45.131,47.768\H,0,41.249,43.692,46.862\H,0,40
 .275,45.137,46.715\H,0,43.084,41.457,36.746\H,0,44.564,40.505,36.962\H
 ,0,44.208,43.343,35.689\H,0,47.137,40.76,35.153\H,0,46.66,40.807,33.51
 4\H,0,45.609,39.944,34.734\H,0,47.046,43.06,33.662\H,0,45.951,44.166,3
 4.232\H,0,44.196,43.056,32.688\H,0,45.585,42.463,31.773\H,0,46.088,45.
 277,32.168\H,0,44.349,44.99,31.885\H,0,46.369,43.764,30.145\H,0,45.111
 ,46.006,28.711\H,0,46.746,46.029,29.306\H,0,45.528,46.589,30.289\H,0,4
 3.5,44.452,29.139\H,0,43.782,43.071,30.291\H,0,44.092,41.752,28.649\H,
 0,45.543,42.68,28.274\H,0,43.004,43.711,27.1\H,0,43.524,42.163,26.666\
 H,0,45.647,44.158,26.808\H,0,44.983,45.862,25.418\H,0,43.387,45.262,25
 .807\H,0,44.118,44.761,24.334\H,0,45.211,42.818,24.022\H,0,44.99,41.68
 6,25.28\H,0,47.135,41.438,25.551\H,0,47.271,43.106,25.996\H,0,47.259,4
 1.891,23.184\H,0,48.736,42.145,23.965\H,0,47.327,44.744,24.196\H,0,47.
 232,45.055,21.537\H,0,45.86,44.703,22.556\H,0,46.799,43.366,21.696\H,0
 ,49.658,45.265,23.627\H,0,49.36,44.556,22.035\H,0,50.107,43.656,23.325
 \\Version=ES64L-G16RevA.03\State=1-A\HF=-3005.3282526\RMSD=5.201e-09\P
 G=C01 [X(C55H74Mg1N4O6)]\\@


 NOT WHAT WE DID SHALL BE THE TEST
 WHEN ACT AND WILL ARE DONE,
 BUT WHAT OUR LORD INFERS WE WOULD-
 HAD WE DIVINER BEEN.
           EMILY DICKINSON  POEMS NO. CLXXV
 Job cpu time:       0 days  7 hours 28 minutes 51.5 seconds.
 Elapsed time:       0 days  0 hours 18 minutes 46.2 seconds.
 File lengths (MBytes):  RWF=   8929 Int=      0 D2E=      0 Chk=    390 Scr=      1
 Normal termination of Gaussian 16 at Thu Apr 28 13:37:54 2022.
