 Entering Gaussian System, Link 0=g16
 Initial command:
 /sw/apps/gaussian-16.0/g16/l1.exe "/tmp/Gau-287352.inp" -scrdir="/tmp/"
 Entering Link 1 = /sw/apps/gaussian-16.0/g16/l1.exe PID=    287353.
  
 Copyright (c) 1988,1990,1992,1993,1995,1998,2003,2009,2016,
            Gaussian, Inc.  All Rights Reserved.
  
 This is part of the Gaussian(R) 16 program.  It is based on
 the Gaussian(R) 09 system (copyright 2009, Gaussian, Inc.),
 the Gaussian(R) 03 system (copyright 2003, Gaussian, Inc.),
 the Gaussian(R) 98 system (copyright 1998, Gaussian, Inc.),
 the Gaussian(R) 94 system (copyright 1995, Gaussian, Inc.),
 the Gaussian 92(TM) system (copyright 1992, Gaussian, Inc.),
 the Gaussian 90(TM) system (copyright 1990, Gaussian, Inc.),
 the Gaussian 88(TM) system (copyright 1988, Gaussian, Inc.),
 the Gaussian 86(TM) system (copyright 1986, Carnegie Mellon
 University), and the Gaussian 82(TM) system (copyright 1983,
 Carnegie Mellon University). Gaussian is a federally registered
 trademark of Gaussian, Inc.
  
 This software contains proprietary and confidential information,
 including trade secrets, belonging to Gaussian, Inc.
  
 This software is provided under written license and may be
 used, copied, transmitted, or stored only in accord with that
 written license.
  
 The following legend is applicable only to US Government
 contracts under FAR:
  
                    RESTRICTED RIGHTS LEGEND
  
 Use, reproduction and disclosure by the US Government is
 subject to restrictions as set forth in subparagraphs (a)
 and (c) of the Commercial Computer Software - Restricted
 Rights clause in FAR 52.227-19.
  
 Gaussian, Inc.
 340 Quinnipiac St., Bldg. 40, Wallingford CT 06492
  
  
 ---------------------------------------------------------------
 Warning -- This program may not be used in any manner that
 competes with the business of Gaussian, Inc. or will provide
 assistance to any competitor of Gaussian, Inc.  The licensee
 of this program is prohibited from giving any competitor of
 Gaussian, Inc. access to this program.  By using this program,
 the user acknowledges that Gaussian, Inc. is engaged in the
 business of creating and licensing software in the field of
 computational chemistry and represents and warrants to the
 licensee that it is not a competitor of Gaussian, Inc. and that
 it will not use this program in any manner prohibited above.
 ---------------------------------------------------------------
  

 Cite this work as:
 Gaussian 16, Revision A.03,
 M. J. Frisch, G. W. Trucks, H. B. Schlegel, G. E. Scuseria, 
 M. A. Robb, J. R. Cheeseman, G. Scalmani, V. Barone, 
 G. A. Petersson, H. Nakatsuji, X. Li, M. Caricato, A. V. Marenich, 
 J. Bloino, B. G. Janesko, R. Gomperts, B. Mennucci, H. P. Hratchian, 
 J. V. Ortiz, A. F. Izmaylov, J. L. Sonnenberg, D. Williams-Young, 
 F. Ding, F. Lipparini, F. Egidi, J. Goings, B. Peng, A. Petrone, 
 T. Henderson, D. Ranasinghe, V. G. Zakrzewski, J. Gao, N. Rega, 
 G. Zheng, W. Liang, M. Hada, M. Ehara, K. Toyota, R. Fukuda, 
 J. Hasegawa, M. Ishida, T. Nakajima, Y. Honda, O. Kitao, H. Nakai, 
 T. Vreven, K. Throssell, J. A. Montgomery, Jr., J. E. Peralta, 
 F. Ogliaro, M. J. Bearpark, J. J. Heyd, E. N. Brothers, K. N. Kudin, 
 V. N. Staroverov, T. A. Keith, R. Kobayashi, J. Normand, 
 K. Raghavachari, A. P. Rendell, J. C. Burant, S. S. Iyengar, 
 J. Tomasi, M. Cossi, J. M. Millam, M. Klene, C. Adamo, R. Cammi, 
 J. W. Ochterski, R. L. Martin, K. Morokuma, O. Farkas, 
 J. B. Foresman, and D. J. Fox, Gaussian, Inc., Wallingford CT, 2016.
 
 ******************************************
 Gaussian 16:  ES64L-G16RevA.03 25-Dec-2016
                 4-May-2022 
 ******************************************
 %nproc=24
 Will use up to   24 processors via shared memory.
 %mem=50gb
 --------------------
 #p ZINDO=(nstates=5)
 --------------------
 1/38=1,172=1/1;
 2/12=2,17=6,18=5,40=1/2;
 3/5=2,25=1,41=400000/1,2,3,8;
 4/5=3,35=1/1;
 5/5=2,35=1,38=5/2;
 8/6=1,108=5/1;
 9/41=5,42=1,49=10/14;
 6/7=2,8=2,9=2,10=2/1;
 99/5=1,9=1/99;
 Leave Link    1 at Wed May  4 22:42:51 2022, MaxMem=  6710886400 cpu:               1.0 elap:               0.0
 (Enter /sw/apps/gaussian-16.0/g16/l101.exe)
 -----------------------------
 step_451_chromophore_13 ZINDO
 -----------------------------
 Symbolic Z-matrix:
 Charge =  0 Multiplicity = 1
 Mg                    47.596    24.785    28.245 
 C                     48.318    26.968    30.959 
 C                     46.959    22.372    30.637 
 C                     47.634    22.568    25.828 
 C                     48.671    27.261    26.15 
 N                     47.511    24.78     30.455 
 C                     47.777    25.787    31.357 
 C                     47.432    25.362    32.8 
 C                     47.401    23.769    32.648 
 C                     47.239    23.608    31.125 
 C                     48.697    22.936    32.997 
 C                     46.177    26.054    33.353 
 C                     46.308    26.807    34.692 
 C                     45.407    26.329    35.927 
 O                     44.257    25.871    35.812 
 O                     46.011    26.717    37.161 
 N                     47.157    22.795    28.195 
 C                     46.959    21.955    29.248 
 C                     46.578    20.598    28.786 
 C                     46.825    20.622    27.383 
 C                     47.249    22.       27.104 
 C                     45.928    19.559    29.595 
 C                     46.704    19.501    26.325 
 O                     47.074    19.634    25.169 
 C                     46.184    18.181    26.78 
 N                     48.183    24.915    26.282 
 C                     48.054    23.836    25.483 
 C                     48.286    24.222    24.011 
 C                     48.279    25.832    24.006 
 C                     48.421    26.042    25.548 
 C                     49.553    23.568    23.3 
 C                     46.984    26.581    23.388 
 C                     45.565    26.166    23.801 
 N                     48.349    26.781    28.447 
 C                     48.721    27.717    27.517 
 C                     49.042    28.962    28.138 
 C                     48.932    28.709    29.573 
 C                     48.492    27.356    29.651 
 C                     49.41     30.212    27.397 
 C                     49.023    29.313    30.847 
 O                     49.233    30.393    31.236 
 C                     48.758    28.132    31.783 
 C                     49.921    27.963    32.694 
 O                     51.046    27.657    32.351 
 O                     49.517    28.092    34.002 
 C                     50.576    27.729    34.921 
 C                     45.192    26.793    38.317 
 C                     45.309    25.637    39.278 
 C                     44.658    25.452    40.46 
 C                     43.745    26.363    41.142 
 C                     44.787    24.036    41.029 
 C                     43.632    23.192    40.556 
 C                     42.697    22.628    41.692 
 C                     41.231    22.17     41.484 
 C                     40.976    21.362    40.114 
 C                     40.228    23.386    41.375 
 C                     39.425    23.56     42.697 
 C                     40.143    24.571    43.589 
 C                     40.224    24.133    45.099 
 C                     38.876    24.18     45.797 
 C                     41.103    25.015    45.911 
 C                     42.14     24.205    46.786 
 C                     43.618    24.166    46.342 
 C                     44.102    22.752    45.905 
 C                     44.794    22.17     47.152 
 C                     45.176    22.922    44.763 
 H                     46.856    21.557    31.355 
 H                     47.59     21.832    25.022 
 H                     48.949    27.947    25.347 
 H                     48.346    25.525    33.371 
 H                     46.507    23.358    33.117 
 H                     48.369    22.306    33.824 
 H                     49.429    23.654    33.367 
 H                     49.084    22.292    32.207 
 H                     45.314    25.414    33.535 
 H                     45.821    26.768    32.61 
 H                     46.034    27.858    34.598 
 H                     47.363    26.701    34.945 
 H                     46.536    18.657    29.658 
 H                     44.933    19.344    29.205 
 H                     45.758    19.861    30.628 
 H                     46.557    17.754    27.711 
 H                     46.541    17.503    26.005 
 H                     45.103    18.05     26.735 
 H                     47.436    23.979    23.373 
 H                     49.071    26.364    23.481 
 H                     50.314    24.305    23.043 
 H                     49.233    23.073    22.383 
 H                     49.95     22.74     23.887 
 H                     46.935    26.457    22.306 
 H                     47.164    27.636    23.597 
 H                     45.055    25.445    23.162 
 H                     44.944    26.991    24.151 
 H                     45.692    25.468    24.628 
 H                     50.472    30.184    27.154 
 H                     49.244    30.955    28.176 
 H                     48.857    30.356    26.468 
 H                     47.883    28.257    32.421 
 H                     50.591    26.639    34.927 
 H                     50.461    28.09     35.943 
 H                     51.502    28.203    34.595 
 H                     44.158    26.748    37.976 
 H                     45.298    27.778    38.77 
 H                     45.942    24.824    38.922 
 H                     44.104    26.932    41.999 
 H                     42.887    25.802    41.514 
 H                     43.39     27.008    40.338 
 H                     44.944    24.116    42.105 
 H                     45.696    23.613    40.602 
 H                     44.078    22.386    39.974 
 H                     42.901    23.763    39.983 
 H                     42.633    23.315    42.536 
 H                     43.212    21.776    42.136 
 H                     41.115    21.552    42.374 
 H                     40.634    20.368    40.401 
 H                     41.878    21.078    39.573 
 H                     40.225    21.797    39.455 
 H                     39.456    23.287    40.611 
 H                     40.805    24.289    41.178 
 H                     39.461    22.6      43.213 
 H                     38.446    23.911    42.371 
 H                     39.492    25.445    43.586 
 H                     41.134    24.832    43.217 
 H                     40.718    23.164    45.032 
 H                     38.631    23.118    45.779 
 H                     38.185    24.806    45.233 
 H                     38.907    24.444    46.854 
 H                     40.651    25.724    46.606 
 H                     41.628    25.625    45.175 
 H                     41.775    23.225    47.094 
 H                     42.182    24.835    47.674 
 H                     44.186    24.563    47.183 
 H                     43.818    24.851    45.518 
 H                     43.306    22.15     45.467 
 H                     45.664    21.55     46.935 
 H                     44.068    21.489    47.596 
 H                     45.155    22.838    47.935 
 H                     44.69     22.538    43.866 
 H                     46.113    22.4      44.955 
 H                     45.492    23.947    44.569 
 
 ITRead=  0  0  0  0  0  0  0  0  0  0  0  0  0  0  0  0  0  0  0  0
 ITRead=  0  0  0  0  0  0  0  0  0  0  0  0  0  0  0  0  0  0  0  0
 ITRead=  0  0  0  0  0  0  0  0  0  0  0  0  0  0  0  0  0  0  0  0
 ITRead=  0  0  0  0  0  0  0  0  0  0  0  0  0  0  0  0  0  0  0  0
 ITRead=  0  0  0  0  0  0  0  0  0  0  0  0  0  0  0  0  0  0  0  0
 ITRead=  0  0  0  0  0  0  0  0  0  0  0  0  0  0  0  0  0  0  0  0
 ITRead=  0  0  0  0  0  0  0  0  0  0  0  0  0  0  0  0  0  0  0  0
 MicOpt= -1 -1 -1 -1 -1 -1 -1 -1 -1 -1 -1 -1 -1 -1 -1 -1 -1 -1 -1 -1
 MicOpt= -1 -1 -1 -1 -1 -1 -1 -1 -1 -1 -1 -1 -1 -1 -1 -1 -1 -1 -1 -1
 MicOpt= -1 -1 -1 -1 -1 -1 -1 -1 -1 -1 -1 -1 -1 -1 -1 -1 -1 -1 -1 -1
 MicOpt= -1 -1 -1 -1 -1 -1 -1 -1 -1 -1 -1 -1 -1 -1 -1 -1 -1 -1 -1 -1
 MicOpt= -1 -1 -1 -1 -1 -1 -1 -1 -1 -1 -1 -1 -1 -1 -1 -1 -1 -1 -1 -1
 MicOpt= -1 -1 -1 -1 -1 -1 -1 -1 -1 -1 -1 -1 -1 -1 -1 -1 -1 -1 -1 -1
 MicOpt= -1 -1 -1 -1 -1 -1 -1 -1 -1 -1 -1 -1 -1 -1 -1 -1 -1 -1 -1 -1
 NAtoms=    140 NQM=      140 NQMF=       0 NMMI=      0 NMMIF=      0
                NMic=       0 NMicF=      0.
                    Isotopes and Nuclear Properties:
 (Nuclear quadrupole moments (NQMom) in fm**2, nuclear magnetic moments (NMagM)
  in nuclear magnetons)

  Atom         1           2           3           4           5           6           7           8           9          10
 IAtWgt=          24          12          12          12          12          14          12          12          12          12
 AtmWgt=  23.9850450  12.0000000  12.0000000  12.0000000  12.0000000  14.0030740  12.0000000  12.0000000  12.0000000  12.0000000
 NucSpn=           0           0           0           0           0           2           0           0           0           0
 AtZEff=  -0.0000000  -0.0000000  -0.0000000  -0.0000000  -0.0000000  -0.0000000  -0.0000000  -0.0000000  -0.0000000  -0.0000000
 NQMom=    0.0000000   0.0000000   0.0000000   0.0000000   0.0000000   2.0440000   0.0000000   0.0000000   0.0000000   0.0000000
 NMagM=    0.0000000   0.0000000   0.0000000   0.0000000   0.0000000   0.4037610   0.0000000   0.0000000   0.0000000   0.0000000
 AtZNuc=  12.0000000   6.0000000   6.0000000   6.0000000   6.0000000   7.0000000   6.0000000   6.0000000   6.0000000   6.0000000

  Atom        11          12          13          14          15          16          17          18          19          20
 IAtWgt=          12          12          12          12          16          16          14          12          12          12
 AtmWgt=  12.0000000  12.0000000  12.0000000  12.0000000  15.9949146  15.9949146  14.0030740  12.0000000  12.0000000  12.0000000
 NucSpn=           0           0           0           0           0           0           2           0           0           0
 AtZEff=  -0.0000000  -0.0000000  -0.0000000  -0.0000000  -0.0000000  -0.0000000  -0.0000000  -0.0000000  -0.0000000  -0.0000000
 NQMom=    0.0000000   0.0000000   0.0000000   0.0000000   0.0000000   0.0000000   2.0440000   0.0000000   0.0000000   0.0000000
 NMagM=    0.0000000   0.0000000   0.0000000   0.0000000   0.0000000   0.0000000   0.4037610   0.0000000   0.0000000   0.0000000
 AtZNuc=   6.0000000   6.0000000   6.0000000   6.0000000   8.0000000   8.0000000   7.0000000   6.0000000   6.0000000   6.0000000

  Atom        21          22          23          24          25          26          27          28          29          30
 IAtWgt=          12          12          12          16          12          14          12          12          12          12
 AtmWgt=  12.0000000  12.0000000  12.0000000  15.9949146  12.0000000  14.0030740  12.0000000  12.0000000  12.0000000  12.0000000
 NucSpn=           0           0           0           0           0           2           0           0           0           0
 AtZEff=  -0.0000000  -0.0000000  -0.0000000  -0.0000000  -0.0000000  -0.0000000  -0.0000000  -0.0000000  -0.0000000  -0.0000000
 NQMom=    0.0000000   0.0000000   0.0000000   0.0000000   0.0000000   2.0440000   0.0000000   0.0000000   0.0000000   0.0000000
 NMagM=    0.0000000   0.0000000   0.0000000   0.0000000   0.0000000   0.4037610   0.0000000   0.0000000   0.0000000   0.0000000
 AtZNuc=   6.0000000   6.0000000   6.0000000   8.0000000   6.0000000   7.0000000   6.0000000   6.0000000   6.0000000   6.0000000

  Atom        31          32          33          34          35          36          37          38          39          40
 IAtWgt=          12          12          12          14          12          12          12          12          12          12
 AtmWgt=  12.0000000  12.0000000  12.0000000  14.0030740  12.0000000  12.0000000  12.0000000  12.0000000  12.0000000  12.0000000
 NucSpn=           0           0           0           2           0           0           0           0           0           0
 AtZEff=  -0.0000000  -0.0000000  -0.0000000  -0.0000000  -0.0000000  -0.0000000  -0.0000000  -0.0000000  -0.0000000  -0.0000000
 NQMom=    0.0000000   0.0000000   0.0000000   2.0440000   0.0000000   0.0000000   0.0000000   0.0000000   0.0000000   0.0000000
 NMagM=    0.0000000   0.0000000   0.0000000   0.4037610   0.0000000   0.0000000   0.0000000   0.0000000   0.0000000   0.0000000
 AtZNuc=   6.0000000   6.0000000   6.0000000   7.0000000   6.0000000   6.0000000   6.0000000   6.0000000   6.0000000   6.0000000

  Atom        41          42          43          44          45          46          47          48          49          50
 IAtWgt=          16          12          12          16          16          12          12          12          12          12
 AtmWgt=  15.9949146  12.0000000  12.0000000  15.9949146  15.9949146  12.0000000  12.0000000  12.0000000  12.0000000  12.0000000
 NucSpn=           0           0           0           0           0           0           0           0           0           0
 AtZEff=  -0.0000000  -0.0000000  -0.0000000  -0.0000000  -0.0000000  -0.0000000  -0.0000000  -0.0000000  -0.0000000  -0.0000000
 NQMom=    0.0000000   0.0000000   0.0000000   0.0000000   0.0000000   0.0000000   0.0000000   0.0000000   0.0000000   0.0000000
 NMagM=    0.0000000   0.0000000   0.0000000   0.0000000   0.0000000   0.0000000   0.0000000   0.0000000   0.0000000   0.0000000
 AtZNuc=   8.0000000   6.0000000   6.0000000   8.0000000   8.0000000   6.0000000   6.0000000   6.0000000   6.0000000   6.0000000

  Atom        51          52          53          54          55          56          57          58          59          60
 IAtWgt=          12          12          12          12          12          12          12          12          12          12
 AtmWgt=  12.0000000  12.0000000  12.0000000  12.0000000  12.0000000  12.0000000  12.0000000  12.0000000  12.0000000  12.0000000
 NucSpn=           0           0           0           0           0           0           0           0           0           0
 AtZEff=  -0.0000000  -0.0000000  -0.0000000  -0.0000000  -0.0000000  -0.0000000  -0.0000000  -0.0000000  -0.0000000  -0.0000000
 NQMom=    0.0000000   0.0000000   0.0000000   0.0000000   0.0000000   0.0000000   0.0000000   0.0000000   0.0000000   0.0000000
 NMagM=    0.0000000   0.0000000   0.0000000   0.0000000   0.0000000   0.0000000   0.0000000   0.0000000   0.0000000   0.0000000
 AtZNuc=   6.0000000   6.0000000   6.0000000   6.0000000   6.0000000   6.0000000   6.0000000   6.0000000   6.0000000   6.0000000

  Atom        61          62          63          64          65          66          67          68          69          70
 IAtWgt=          12          12          12          12          12          12           1           1           1           1
 AtmWgt=  12.0000000  12.0000000  12.0000000  12.0000000  12.0000000  12.0000000   1.0078250   1.0078250   1.0078250   1.0078250
 NucSpn=           0           0           0           0           0           0           1           1           1           1
 AtZEff=  -0.0000000  -0.0000000  -0.0000000  -0.0000000  -0.0000000  -0.0000000  -0.0000000  -0.0000000  -0.0000000  -0.0000000
 NQMom=    0.0000000   0.0000000   0.0000000   0.0000000   0.0000000   0.0000000   0.0000000   0.0000000   0.0000000   0.0000000
 NMagM=    0.0000000   0.0000000   0.0000000   0.0000000   0.0000000   0.0000000   2.7928460   2.7928460   2.7928460   2.7928460
 AtZNuc=   6.0000000   6.0000000   6.0000000   6.0000000   6.0000000   6.0000000   1.0000000   1.0000000   1.0000000   1.0000000

  Atom        71          72          73          74          75          76          77          78          79          80
 IAtWgt=           1           1           1           1           1           1           1           1           1           1
 AtmWgt=   1.0078250   1.0078250   1.0078250   1.0078250   1.0078250   1.0078250   1.0078250   1.0078250   1.0078250   1.0078250
 NucSpn=           1           1           1           1           1           1           1           1           1           1
 AtZEff=  -0.0000000  -0.0000000  -0.0000000  -0.0000000  -0.0000000  -0.0000000  -0.0000000  -0.0000000  -0.0000000  -0.0000000
 NQMom=    0.0000000   0.0000000   0.0000000   0.0000000   0.0000000   0.0000000   0.0000000   0.0000000   0.0000000   0.0000000
 NMagM=    2.7928460   2.7928460   2.7928460   2.7928460   2.7928460   2.7928460   2.7928460   2.7928460   2.7928460   2.7928460
 AtZNuc=   1.0000000   1.0000000   1.0000000   1.0000000   1.0000000   1.0000000   1.0000000   1.0000000   1.0000000   1.0000000

  Atom        81          82          83          84          85          86          87          88          89          90
 IAtWgt=           1           1           1           1           1           1           1           1           1           1
 AtmWgt=   1.0078250   1.0078250   1.0078250   1.0078250   1.0078250   1.0078250   1.0078250   1.0078250   1.0078250   1.0078250
 NucSpn=           1           1           1           1           1           1           1           1           1           1
 AtZEff=  -0.0000000  -0.0000000  -0.0000000  -0.0000000  -0.0000000  -0.0000000  -0.0000000  -0.0000000  -0.0000000  -0.0000000
 NQMom=    0.0000000   0.0000000   0.0000000   0.0000000   0.0000000   0.0000000   0.0000000   0.0000000   0.0000000   0.0000000
 NMagM=    2.7928460   2.7928460   2.7928460   2.7928460   2.7928460   2.7928460   2.7928460   2.7928460   2.7928460   2.7928460
 AtZNuc=   1.0000000   1.0000000   1.0000000   1.0000000   1.0000000   1.0000000   1.0000000   1.0000000   1.0000000   1.0000000

  Atom        91          92          93          94          95          96          97          98          99         100
 IAtWgt=           1           1           1           1           1           1           1           1           1           1
 AtmWgt=   1.0078250   1.0078250   1.0078250   1.0078250   1.0078250   1.0078250   1.0078250   1.0078250   1.0078250   1.0078250
 NucSpn=           1           1           1           1           1           1           1           1           1           1
 AtZEff=  -0.0000000  -0.0000000  -0.0000000  -0.0000000  -0.0000000  -0.0000000  -0.0000000  -0.0000000  -0.0000000  -0.0000000
 NQMom=    0.0000000   0.0000000   0.0000000   0.0000000   0.0000000   0.0000000   0.0000000   0.0000000   0.0000000   0.0000000
 NMagM=    2.7928460   2.7928460   2.7928460   2.7928460   2.7928460   2.7928460   2.7928460   2.7928460   2.7928460   2.7928460
 AtZNuc=   1.0000000   1.0000000   1.0000000   1.0000000   1.0000000   1.0000000   1.0000000   1.0000000   1.0000000   1.0000000

  Atom       101         102         103         104         105         106         107         108         109         110
 IAtWgt=           1           1           1           1           1           1           1           1           1           1
 AtmWgt=   1.0078250   1.0078250   1.0078250   1.0078250   1.0078250   1.0078250   1.0078250   1.0078250   1.0078250   1.0078250
 NucSpn=           1           1           1           1           1           1           1           1           1           1
 AtZEff=  -0.0000000  -0.0000000  -0.0000000  -0.0000000  -0.0000000  -0.0000000  -0.0000000  -0.0000000  -0.0000000  -0.0000000
 NQMom=    0.0000000   0.0000000   0.0000000   0.0000000   0.0000000   0.0000000   0.0000000   0.0000000   0.0000000   0.0000000
 NMagM=    2.7928460   2.7928460   2.7928460   2.7928460   2.7928460   2.7928460   2.7928460   2.7928460   2.7928460   2.7928460
 AtZNuc=   1.0000000   1.0000000   1.0000000   1.0000000   1.0000000   1.0000000   1.0000000   1.0000000   1.0000000   1.0000000

  Atom       111         112         113         114         115         116         117         118         119         120
 IAtWgt=           1           1           1           1           1           1           1           1           1           1
 AtmWgt=   1.0078250   1.0078250   1.0078250   1.0078250   1.0078250   1.0078250   1.0078250   1.0078250   1.0078250   1.0078250
 NucSpn=           1           1           1           1           1           1           1           1           1           1
 AtZEff=  -0.0000000  -0.0000000  -0.0000000  -0.0000000  -0.0000000  -0.0000000  -0.0000000  -0.0000000  -0.0000000  -0.0000000
 NQMom=    0.0000000   0.0000000   0.0000000   0.0000000   0.0000000   0.0000000   0.0000000   0.0000000   0.0000000   0.0000000
 NMagM=    2.7928460   2.7928460   2.7928460   2.7928460   2.7928460   2.7928460   2.7928460   2.7928460   2.7928460   2.7928460
 AtZNuc=   1.0000000   1.0000000   1.0000000   1.0000000   1.0000000   1.0000000   1.0000000   1.0000000   1.0000000   1.0000000

  Atom       121         122         123         124         125         126         127         128         129         130
 IAtWgt=           1           1           1           1           1           1           1           1           1           1
 AtmWgt=   1.0078250   1.0078250   1.0078250   1.0078250   1.0078250   1.0078250   1.0078250   1.0078250   1.0078250   1.0078250
 NucSpn=           1           1           1           1           1           1           1           1           1           1
 AtZEff=  -0.0000000  -0.0000000  -0.0000000  -0.0000000  -0.0000000  -0.0000000  -0.0000000  -0.0000000  -0.0000000  -0.0000000
 NQMom=    0.0000000   0.0000000   0.0000000   0.0000000   0.0000000   0.0000000   0.0000000   0.0000000   0.0000000   0.0000000
 NMagM=    2.7928460   2.7928460   2.7928460   2.7928460   2.7928460   2.7928460   2.7928460   2.7928460   2.7928460   2.7928460
 AtZNuc=   1.0000000   1.0000000   1.0000000   1.0000000   1.0000000   1.0000000   1.0000000   1.0000000   1.0000000   1.0000000

  Atom       131         132         133         134         135         136         137         138         139         140
 IAtWgt=           1           1           1           1           1           1           1           1           1           1
 AtmWgt=   1.0078250   1.0078250   1.0078250   1.0078250   1.0078250   1.0078250   1.0078250   1.0078250   1.0078250   1.0078250
 NucSpn=           1           1           1           1           1           1           1           1           1           1
 AtZEff=  -0.0000000  -0.0000000  -0.0000000  -0.0000000  -0.0000000  -0.0000000  -0.0000000  -0.0000000  -0.0000000  -0.0000000
 NQMom=    0.0000000   0.0000000   0.0000000   0.0000000   0.0000000   0.0000000   0.0000000   0.0000000   0.0000000   0.0000000
 NMagM=    2.7928460   2.7928460   2.7928460   2.7928460   2.7928460   2.7928460   2.7928460   2.7928460   2.7928460   2.7928460
 AtZNuc=   1.0000000   1.0000000   1.0000000   1.0000000   1.0000000   1.0000000   1.0000000   1.0000000   1.0000000   1.0000000
 Leave Link  101 at Wed May  4 22:42:51 2022, MaxMem=  6710886400 cpu:               3.4 elap:               0.2
 (Enter /sw/apps/gaussian-16.0/g16/l202.exe)
 Stoichiometry    C55H74MgN4O6
 Framework group  C1[X(C55H74MgN4O6)]
 Deg. of freedom   414
 Full point group                 C1      NOp   1
 Largest Abelian subgroup         C1      NOp   1
 Largest concise Abelian subgroup C1      NOp   1
                         Standard orientation:                         
 ---------------------------------------------------------------------
 Center     Atomic      Atomic             Coordinates (Angstroms)
 Number     Number       Type             X           Y           Z
 ---------------------------------------------------------------------
      1         12           0        5.765065    0.366048    0.194103
      2          6           0        3.530115   -2.378830   -0.156917
      3          6           0        3.175094    2.343882   -0.959250
      4          6           0        7.955785    2.775466   -0.198164
      5          6           0        8.214451   -1.902033    0.923174
      6          7           0        3.643210   -0.000550   -0.310561
      7          6           0        2.922873   -1.175005   -0.323979
      8          6           0        1.425013   -0.918936   -0.593687
      9          6           0        1.478641    0.545163   -1.238089
     10          6           0        2.863194    1.035095   -0.774762
     11          6           0        1.513212    0.694585   -2.810279
     12          6           0        0.541183   -1.124815    0.645730
     13          6           0       -0.648714   -2.097260    0.520886
     14          6           0       -2.126957   -1.527893    0.757802
     15          8           0       -2.402825   -0.626471    1.568249
     16          8           0       -3.087057   -2.348636    0.092441
     17          7           0        5.573578    2.333284   -0.304530
     18          6           0        4.470608    2.971607   -0.783709
     19          6           0        4.719968    4.425113   -0.942443
     20          6           0        6.128775    4.560166   -0.778079
     21          6           0        6.596400    3.206373   -0.453932
     22          6           0        3.696050    5.471211   -1.059805
     23          6           0        7.036812    5.805749   -0.899073
     24          8           0        8.255693    5.747657   -0.855712
     25          6           0        6.375102    7.114712   -1.160951
     26          7           0        7.817000    0.369965    0.260347
     27          6           0        8.479141    1.533727    0.097524
     28          6           0        9.966976    1.364118    0.454152
     29          6           0       10.051080   -0.070773    1.179541
     30          6           0        8.644709   -0.599788    0.750250
     31          6           0       11.006275    1.560143   -0.737468
     32          6           0       10.267554   -0.096140    2.783425
     33          6           0        9.408770    0.780069    3.705978
     34          7           0        5.911528   -1.763080    0.386959
     35          6           0        6.957492   -2.581048    0.727937
     36          6           0        6.532872   -3.939097    0.846713
     37          6           0        5.125216   -3.931511    0.454562
     38          6           0        4.844354   -2.556589    0.207584
     39          6           0        7.414332   -5.070724    1.281974
     40          6           0        3.976805   -4.742490    0.314433
     41          8           0        3.728829   -5.865023    0.515054
     42          6           0        2.946392   -3.750523   -0.229011
     43          6           0        2.440052   -4.243181   -1.537430
     44          8           0        3.103492   -4.367547   -2.548018
     45          8           0        1.079670   -4.433199   -1.474380
     46          6           0        0.523210   -4.711373   -2.782349
     47          6           0       -4.436559   -2.293394    0.526795
     48          6           0       -5.369264   -1.484824   -0.339127
     49          6           0       -6.703799   -1.269944   -0.171816
     50          6           0       -7.591256   -1.835293    0.838835
     51          6           0       -7.274324   -0.161963   -1.061950
     52          6           0       -7.231970    1.152181   -0.326205
     53          6           0       -8.631420    1.830505   -0.072762
     54          6           0       -8.918516    2.878440    1.032494
     55          6           0       -7.741018    3.956517    1.247063
     56          6           0       -9.069032    2.222684    2.462136
     57          6           0      -10.565890    2.153313    2.883292
     58          6           0      -11.134392    0.791982    2.487195
     59          6           0      -12.562443    0.872873    1.829448
     60          6           0      -13.645645    1.254821    2.823082
     61          6           0      -13.011013   -0.424438    1.258766
     62          6           0      -13.555330   -0.286085   -0.218282
     63          6           0      -12.671606   -0.775078   -1.385783
     64          6           0      -12.176789    0.370467   -2.317181
     65          6           0      -13.170678    0.378073   -3.493925
     66          6           0      -10.747897   -0.011616   -2.863826
     67          1           0        2.420816    2.982479   -1.421436
     68          1           0        8.668671    3.599196   -0.278969
     69          1           0        9.097804   -2.481426    1.200088
     70          1           0        1.179470   -1.543832   -1.452302
     71          1           0        0.732089    1.192473   -0.777907
     72          1           0        0.594222    1.240010   -3.025646
     73          1           0        1.429076   -0.314790   -3.213182
     74          1           0        2.351142    1.256630   -3.223298
     75          1           0        0.064828   -0.232860    1.051928
     76          1           0        1.169687   -1.480562    1.462436
     77          1           0       -0.592538   -2.906927    1.248757
     78          1           0       -0.562107   -2.481132   -0.495683
     79          1           0        3.781851    6.016621   -1.999168
     80          1           0        3.741914    6.142509   -0.202131
     81          1           0        2.678700    5.081261   -1.048400
     82          1           0        5.588279    7.172509   -1.913139
     83          1           0        7.187656    7.716672   -1.567348
     84          1           0        6.071147    7.682813   -0.281963
     85          1           0       10.292104    2.046592    1.239718
     86          1           0       10.824765   -0.774144    0.875250
     87          1           0       11.526558    0.637064   -0.993534
     88          1           0       11.749786    2.301954   -0.445541
     89          1           0       10.532763    2.029616   -1.599526
     90          1           0       11.271494    0.233452    3.051705
     91          1           0       10.179500   -1.150987    3.045437
     92          1           0        9.817559    1.750598    3.987451
     93          1           0        8.923495    0.232940    4.514633
     94          1           0        8.629432    1.199890    3.070647
     95          1           0        7.977253   -5.436069    0.423300
     96          1           0        6.661349   -5.809735    1.552760
     97          1           0        8.128313   -4.802275    2.061559
     98          1           0        2.072774   -3.620995    0.409979
     99          1           0        0.467019   -3.744608   -3.282918
    100          1           0       -0.463427   -5.174551   -2.788865
    101          1           0        1.147467   -5.454349   -3.279055
    102          1           0       -4.440796   -1.767031    1.480937
    103          1           0       -4.782721   -3.300192    0.757446
    104          1           0       -4.873920   -0.952232   -1.151145
    105          1           0       -8.261878   -2.648185    0.562133
    106          1           0       -8.242138   -1.050875    1.226533
    107          1           0       -6.908111   -2.118590    1.639786
    108          1           0       -8.240840   -0.495372   -1.440777
    109          1           0       -6.605118   -0.077879   -1.917890
    110          1           0       -6.580856    1.796620   -0.916141
    111          1           0       -6.889792    1.046594    0.703600
    112          1           0       -9.416775    1.087818    0.068782
    113          1           0       -8.933487    2.299355   -1.009352
    114          1           0       -9.829942    3.314736    0.624538
    115          1           0       -8.170984    4.932116    1.021886
    116          1           0       -6.958911    3.940196    0.488786
    117          1           0       -7.330500    3.996445    2.255719
    118          1           0       -8.592642    2.767673    3.277930
    119          1           0       -8.655081    1.215616    2.422059
    120          1           0      -11.092323    2.901644    2.289978
    121          1           0      -10.546986    2.300533    3.963054
    122          1           0      -11.292009    0.278186    3.435275
    123          1           0      -10.456879    0.221163    1.851798
    124          1           0      -12.392662    1.548723    0.991661
    125          1           0      -13.759438    2.307469    2.563896
    126          1           0      -13.296632    1.082051    3.840821
    127          1           0      -14.624456    0.812091    2.639167
    128          1           0      -13.776042   -1.000494    1.781165
    129          1           0      -12.117339   -1.049394    1.272828
    130          1           0      -14.011725    0.682568   -0.422985
    131          1           0      -14.351943   -1.029336   -0.204386
    132          1           0      -13.270045   -1.516940   -1.914011
    133          1           0      -11.792929   -1.317772   -1.037055
    134          1           0      -12.042447    1.314889   -1.790035
    135          1           0      -12.722779    0.615600   -4.458992
    136          1           0      -13.854375    1.202431   -3.291527
    137          1           0      -13.765511   -0.510513   -3.708922
    138          1           0      -10.069928    0.695327   -2.385443
    139          1           0      -10.661654    0.035781   -3.949014
    140          1           0      -10.412694   -1.021347   -2.626764
 ---------------------------------------------------------------------
 Rotational constants (GHZ):           0.0525255           0.0095370           0.0086309
 Leave Link  202 at Wed May  4 22:42:51 2022, MaxMem=  6710886400 cpu:               0.2 elap:               0.0
 (Enter /sw/apps/gaussian-16.0/g16/l301.exe)
 Standard basis: VSTO-6G (5D, 7F)
 Ernie: Thresh=  0.10000D-02 Tol=  0.10000D-05 Strict=F.
 There are   338 symmetry adapted cartesian basis functions of A   symmetry.
 There are   338 symmetry adapted basis functions of A   symmetry.
   338 basis functions,  2028 primitive gaussians,   338 cartesian basis functions
   176 alpha electrons      176 beta electrons
       nuclear repulsion energy      4825.5766666935 Hartrees.
 IExCor=    0 DFT=F Ex=HF Corr=None ExCW=0 ScaHFX=  1.000000
 ScaDFX=  1.000000  1.000000  1.000000  1.000000 ScalE2=  1.000000  1.000000
 IRadAn=      5 IRanWt=     -1 IRanGd=            0 ICorTp=0 IEmpDi=  4
 Integral buffers will be    131072 words long.
 Regular integral format.
 Two-electron integral symmetry is turned off.
 Leave Link  301 at Wed May  4 22:42:51 2022, MaxMem=  6710886400 cpu:               1.2 elap:               0.1
 (Enter /sw/apps/gaussian-16.0/g16/l302.exe)
 Do NDO integrals.
 NPDir=0 NMtPBC=     1 NCelOv=     1 NCel=       1 NClECP=     1 NCelD=      1
         NCelK=      1 NCelE2=     1 NClLst=     1 CellRange=     0.0.
 One-electron integrals computed using PRISM.
 Generate ZINDO/S integrals.
 NDO Nuclear repulsion=  4334.477660435739 Hartrees.
 NBasis=   338 RedAO= F EigKep=  0.00D+00  NBF=   338
 NBsUse=   338 1.00D-04 EigRej=  0.00D+00 NBFU=   338
 Leave Link  302 at Wed May  4 22:42:52 2022, MaxMem=  6710886400 cpu:               9.0 elap:               0.4
 (Enter /sw/apps/gaussian-16.0/g16/l303.exe)
 DipDrv:  MaxL=1.
 DipDrv:  will hold  3 matrices at once.
 Leave Link  303 at Wed May  4 22:42:52 2022, MaxMem=  6710886400 cpu:               0.6 elap:               0.0
 (Enter /sw/apps/gaussian-16.0/g16/l308.exe)
 Leave Link  308 at Wed May  4 22:42:52 2022, MaxMem=  6710886400 cpu:               6.2 elap:               0.3
 (Enter /sw/apps/gaussian-16.0/g16/l401.exe)
 Simple Huckel Guess.
 JPrj=0 DoOrth=F DoCkMO=F.
 Leave Link  401 at Wed May  4 22:42:52 2022, MaxMem=  6710886400 cpu:               3.3 elap:               0.2
 (Enter /sw/apps/gaussian-16.0/g16/l502.exe)
 Two-electron integral symmetry not used.
 Closed shell SCF:
 Using DIIS extrapolation, IDIIS=  1040.
 Overlap will be assumed to be unity.
 NGot=  6710886400 LenX=  6710643598 LenY=  6710528913
 Requested convergence on RMS density matrix=1.00D-08 within 128 cycles.
 Requested convergence on MAX density matrix=1.00D-06.
 Requested convergence on             energy=1.00D-06.
 No special actions if energy rises.
 Fock matrices will be formed incrementally for  20 cycles.

 Cycle   1  Pass 1  IDiag  1:
 E= -472.435600435557    
 DIIS: error= 5.98D-02 at cycle   1 NSaved=   1.
 NSaved= 1 IEnMin= 1 EnMin= -472.435600435557     IErMin= 1 ErrMin= 5.98D-02
 ErrMax= 5.98D-02  0.00D+00 EMaxC= 1.00D-01 BMatC= 8.32D-01 BMatP= 8.32D-01
 IDIUse=3 WtCom= 4.02D-01 WtEn= 5.98D-01
 Coeff-Com:  0.100D+01
 Coeff-En:   0.100D+01
 Coeff:      0.100D+01
 GapD=    2.000 DampG=2.000 DampE=0.500 DampFc=1.0000 IDamp=-1.
 RMSDP=3.99D-03 MaxDP=1.72D-01              OVMax= 0.00D+00

 Cycle   2  Pass 1  IDiag  1:
 RMSU=  3.98D-03    CP:  9.95D-01
 E= -474.266979671728     Delta-E=       -1.831379236171 Rises=F Damp=F
 DIIS: error= 2.17D-02 at cycle   2 NSaved=   2.
 NSaved= 2 IEnMin= 2 EnMin= -474.266979671728     IErMin= 2 ErrMin= 2.17D-02
 ErrMax= 2.17D-02  0.00D+00 EMaxC= 1.00D-01 BMatC= 5.17D-02 BMatP= 8.32D-01
 IDIUse=3 WtCom= 7.83D-01 WtEn= 2.17D-01
 Coeff-Com: -0.777D-01 0.108D+01
 Coeff-En:   0.000D+00 0.100D+01
 Coeff:     -0.608D-01 0.106D+01
 RMSDP=1.13D-03 MaxDP=5.80D-02 DE=-1.83D+00 OVMax= 0.00D+00

 Cycle   3  Pass 1  IDiag  1:
 RMSU=  1.06D-03    CP:  9.93D-01  1.10D+00
 E= -474.368865631505     Delta-E=       -0.101885959777 Rises=F Damp=F
 DIIS: error= 1.01D-02 at cycle   3 NSaved=   3.
 NSaved= 3 IEnMin= 3 EnMin= -474.368865631505     IErMin= 3 ErrMin= 1.01D-02
 ErrMax= 1.01D-02  0.00D+00 EMaxC= 1.00D-01 BMatC= 7.39D-03 BMatP= 5.17D-02
 IDIUse=3 WtCom= 8.99D-01 WtEn= 1.01D-01
 Coeff-Com: -0.688D-01 0.248D+00 0.821D+00
 Coeff-En:   0.000D+00 0.000D+00 0.100D+01
 Coeff:     -0.618D-01 0.223D+00 0.839D+00
 RMSDP=4.02D-04 MaxDP=1.99D-02 DE=-1.02D-01 OVMax= 0.00D+00

 Cycle   4  Pass 1  IDiag  1:
 RMSU=  2.65D-04    CP:  9.93D-01  1.17D+00  8.88D-01
 E= -474.381984655766     Delta-E=       -0.013119024261 Rises=F Damp=F
 DIIS: error= 1.50D-03 at cycle   4 NSaved=   4.
 NSaved= 4 IEnMin= 4 EnMin= -474.381984655766     IErMin= 4 ErrMin= 1.50D-03
 ErrMax= 1.50D-03  0.00D+00 EMaxC= 1.00D-01 BMatC= 3.63D-04 BMatP= 7.39D-03
 IDIUse=3 WtCom= 9.85D-01 WtEn= 1.50D-02
 Coeff-Com: -0.288D-02-0.256D-01 0.736D-01 0.955D+00
 Coeff-En:   0.000D+00 0.000D+00 0.000D+00 0.100D+01
 Coeff:     -0.284D-02-0.252D-01 0.725D-01 0.956D+00
 RMSDP=1.54D-04 MaxDP=8.04D-03 DE=-1.31D-02 OVMax= 0.00D+00

 Cycle   5  Pass 1  IDiag  1:
 RMSU=  1.06D-04    CP:  9.93D-01  1.17D+00  9.93D-01  9.50D-01
 E= -474.383088827702     Delta-E=       -0.001104171935 Rises=F Damp=F
 DIIS: error= 5.77D-04 at cycle   5 NSaved=   5.
 NSaved= 5 IEnMin= 5 EnMin= -474.383088827702     IErMin= 5 ErrMin= 5.77D-04
 ErrMax= 5.77D-04  0.00D+00 EMaxC= 1.00D-01 BMatC= 8.17D-05 BMatP= 3.63D-04
 IDIUse=3 WtCom= 9.94D-01 WtEn= 5.77D-03
 Coeff-Com:  0.674D-02-0.304D-01-0.949D-01 0.239D+00 0.879D+00
 Coeff-En:   0.000D+00 0.000D+00 0.000D+00 0.000D+00 0.100D+01
 Coeff:      0.670D-02-0.302D-01-0.943D-01 0.238D+00 0.880D+00
 RMSDP=6.34D-05 MaxDP=2.79D-03 DE=-1.10D-03 OVMax= 0.00D+00

 Cycle   6  Pass 1  IDiag  1:
 RMSU=  3.58D-05    CP:  9.92D-01  1.17D+00  1.01D+00  1.14D+00  1.05D+00
 E= -474.383341550085     Delta-E=       -0.000252722383 Rises=F Damp=F
 DIIS: error= 2.31D-04 at cycle   6 NSaved=   6.
 NSaved= 6 IEnMin= 6 EnMin= -474.383341550085     IErMin= 6 ErrMin= 2.31D-04
 ErrMax= 2.31D-04  0.00D+00 EMaxC= 1.00D-01 BMatC= 7.92D-06 BMatP= 8.17D-05
 IDIUse=3 WtCom= 9.98D-01 WtEn= 2.31D-03
 Coeff-Com:  0.160D-03 0.462D-02-0.200D-01-0.852D-01 0.479D-02 0.110D+01
 Coeff-En:   0.000D+00 0.000D+00 0.000D+00 0.000D+00 0.000D+00 0.100D+01
 Coeff:      0.159D-03 0.461D-02-0.199D-01-0.850D-01 0.478D-02 0.110D+01
 RMSDP=4.16D-05 MaxDP=2.36D-03 DE=-2.53D-04 OVMax= 0.00D+00

 Cycle   7  Pass 1  IDiag  1:
 RMSU=  1.95D-05    CP:  9.92D-01  1.17D+00  1.02D+00  1.16D+00  1.34D+00
                    CP:  1.41D+00
 E= -474.383398600478     Delta-E=       -0.000057050393 Rises=F Damp=F
 DIIS: error= 1.18D-04 at cycle   7 NSaved=   7.
 NSaved= 7 IEnMin= 7 EnMin= -474.383398600478     IErMin= 7 ErrMin= 1.18D-04
 ErrMax= 1.18D-04  0.00D+00 EMaxC= 1.00D-01 BMatC= 2.74D-06 BMatP= 7.92D-06
 IDIUse=3 WtCom= 9.99D-01 WtEn= 1.18D-03
 Coeff-Com: -0.928D-03 0.501D-02 0.822D-02-0.311D-01-0.160D+00 0.201D+00
 Coeff-Com:  0.978D+00
 Coeff-En:   0.000D+00 0.000D+00 0.000D+00 0.000D+00 0.000D+00 0.000D+00
 Coeff-En:   0.100D+01
 Coeff:     -0.927D-03 0.500D-02 0.821D-02-0.311D-01-0.160D+00 0.201D+00
 Coeff:      0.978D+00
 RMSDP=2.49D-05 MaxDP=1.31D-03 DE=-5.71D-05 OVMax= 0.00D+00

 Cycle   8  Pass 1  IDiag  1:
 RMSU=  7.14D-06    CP:  9.92D-01  1.17D+00  1.02D+00  1.17D+00  1.46D+00
                    CP:  1.82D+00  1.66D+00
 E= -474.383422555541     Delta-E=       -0.000023955063 Rises=F Damp=F
 DIIS: error= 6.70D-05 at cycle   8 NSaved=   8.
 NSaved= 8 IEnMin= 8 EnMin= -474.383422555541     IErMin= 8 ErrMin= 6.70D-05
 ErrMax= 6.70D-05  0.00D+00 EMaxC= 1.00D-01 BMatC= 1.07D-06 BMatP= 2.74D-06
 IDIUse=1 WtCom= 1.00D+00 WtEn= 0.00D+00
 Coeff-Com:  0.124D-03-0.204D-02 0.326D-02 0.378D-01-0.208D-01-0.186D+00
 Coeff-Com: -0.428D+00 0.160D+01
 Coeff:      0.124D-03-0.204D-02 0.326D-02 0.378D-01-0.208D-01-0.186D+00
 Coeff:     -0.428D+00 0.160D+01
 RMSDP=3.22D-05 MaxDP=1.45D-03 DE=-2.40D-05 OVMax= 0.00D+00

 Cycle   9  Pass 1  IDiag  1:
 RMSU=  4.86D-06    CP:  9.92D-01  1.17D+00  1.03D+00  1.17D+00  1.61D+00
                    CP:  2.22D+00  2.74D+00  2.15D+00
 E= -474.383442903548     Delta-E=       -0.000020348007 Rises=F Damp=F
 DIIS: error= 4.87D-05 at cycle   9 NSaved=   9.
 NSaved= 9 IEnMin= 9 EnMin= -474.383442903548     IErMin= 9 ErrMin= 4.87D-05
 ErrMax= 4.87D-05  0.00D+00 EMaxC= 1.00D-01 BMatC= 5.98D-07 BMatP= 1.07D-06
 IDIUse=1 WtCom= 1.00D+00 WtEn= 0.00D+00
 Coeff-Com:  0.432D-03-0.180D-02-0.573D-02 0.780D-02 0.522D-01 0.930D-01
 Coeff-Com: -0.774D+00-0.635D-01 0.169D+01
 Coeff:      0.432D-03-0.180D-02-0.573D-02 0.780D-02 0.522D-01 0.930D-01
 Coeff:     -0.774D+00-0.635D-01 0.169D+01
 RMSDP=3.76D-05 MaxDP=1.60D-03 DE=-2.03D-05 OVMax= 0.00D+00

 Cycle  10  Pass 1  IDiag  1:
 RMSU=  2.09D-05    CP:  9.92D-01  1.17D+00  1.03D+00  1.16D+00  1.77D+00
                    CP:  2.67D+00  3.00D+00  3.00D+00  2.45D+00
 E= -474.383457435336     Delta-E=       -0.000014531788 Rises=F Damp=F
 DIIS: error= 2.66D-05 at cycle  10 NSaved=  10.
 NSaved=10 IEnMin=10 EnMin= -474.383457435336     IErMin=10 ErrMin= 2.66D-05
 ErrMax= 2.66D-05  0.00D+00 EMaxC= 1.00D-01 BMatC= 1.48D-07 BMatP= 5.98D-07
 IDIUse=1 WtCom= 1.00D+00 WtEn= 0.00D+00
 Coeff-Com: -0.129D-03 0.115D-02-0.585D-03-0.144D-01-0.118D-01 0.124D+00
 Coeff-Com:  0.110D+00-0.281D+00-0.526D+00 0.160D+01
 Coeff:     -0.129D-03 0.115D-02-0.585D-03-0.144D-01-0.118D-01 0.124D+00
 Coeff:      0.110D+00-0.281D+00-0.526D+00 0.160D+01
 RMSDP=2.12D-05 MaxDP=9.27D-04 DE=-1.45D-05 OVMax= 0.00D+00

 Cycle  11  Pass 1  IDiag  1:
 RMSU=  5.26D-06    CP:  9.92D-01  1.17D+00  1.04D+00  1.16D+00  1.86D+00
                    CP:  2.87D+00  3.00D+00  3.00D+00  3.00D+00  1.75D+00
 E= -474.383461499341     Delta-E=       -0.000004064005 Rises=F Damp=F
 DIIS: error= 1.38D-05 at cycle  11 NSaved=  11.
 NSaved=11 IEnMin=11 EnMin= -474.383461499341     IErMin=11 ErrMin= 1.38D-05
 ErrMax= 1.38D-05  0.00D+00 EMaxC= 1.00D-01 BMatC= 4.45D-08 BMatP= 1.48D-07
 IDIUse=1 WtCom= 1.00D+00 WtEn= 0.00D+00
 Coeff-Com: -0.863D-04 0.348D-03 0.130D-02-0.787D-03-0.162D-01-0.417D-02
 Coeff-Com:  0.102D+00 0.127D+00-0.509D+00-0.361D-01 0.134D+01
 Coeff:     -0.863D-04 0.348D-03 0.130D-02-0.787D-03-0.162D-01-0.417D-02
 Coeff:      0.102D+00 0.127D+00-0.509D+00-0.361D-01 0.134D+01
 RMSDP=1.20D-05 MaxDP=5.19D-04 DE=-4.06D-06 OVMax= 0.00D+00

 Cycle  12  Pass 1  IDiag  1:
 RMSU=  1.62D-06    CP:  9.92D-01  1.17D+00  1.04D+00  1.15D+00  1.91D+00
                    CP:  2.96D+00  3.00D+00  3.00D+00  3.00D+00  2.17D+00
                    CP:  1.95D+00
 E= -474.383462573445     Delta-E=       -0.000001074104 Rises=F Damp=F
 DIIS: error= 8.78D-06 at cycle  12 NSaved=  12.
 NSaved=12 IEnMin=12 EnMin= -474.383462573445     IErMin=12 ErrMin= 8.78D-06
 ErrMax= 8.78D-06  0.00D+00 EMaxC= 1.00D-01 BMatC= 1.28D-08 BMatP= 4.45D-08
 IDIUse=1 WtCom= 1.00D+00 WtEn= 0.00D+00
 Coeff-Com:  0.527D-04-0.383D-03-0.926D-04 0.512D-02 0.124D-02-0.178D-01
 Coeff-Com: -0.893D-01 0.127D+00 0.216D+00-0.467D+00-0.249D+00 0.147D+01
 Coeff:      0.527D-04-0.383D-03-0.926D-04 0.512D-02 0.124D-02-0.178D-01
 Coeff:     -0.893D-01 0.127D+00 0.216D+00-0.467D+00-0.249D+00 0.147D+01
 RMSDP=4.41D-06 MaxDP=2.09D-04 DE=-1.07D-06 OVMax= 0.00D+00

 Cycle  13  Pass 1  IDiag  1:
 RMSU=  1.23D-06    CP:  9.92D-01  1.17D+00  1.04D+00  1.15D+00  1.92D+00
                    CP:  2.97D+00  3.00D+00  3.00D+00  3.00D+00  2.28D+00
                    CP:  2.45D+00  2.01D+00
 E= -474.383462822708     Delta-E=       -0.000000249262 Rises=F Damp=F
 DIIS: error= 6.77D-06 at cycle  13 NSaved=  13.
 NSaved=13 IEnMin=13 EnMin= -474.383462822708     IErMin=13 ErrMin= 6.77D-06
 ErrMax= 6.77D-06  0.00D+00 EMaxC= 1.00D-01 BMatC= 5.16D-09 BMatP= 1.28D-08
 IDIUse=1 WtCom= 1.00D+00 WtEn= 0.00D+00
 Coeff-Com:  0.111D-04-0.752D-05-0.430D-03 0.910D-04 0.614D-03 0.138D-01
 Coeff-Com: -0.313D-01-0.458D-01 0.908D-01 0.110D+00-0.334D+00-0.230D+00
 Coeff-Com:  0.143D+01
 Coeff:      0.111D-04-0.752D-05-0.430D-03 0.910D-04 0.614D-03 0.138D-01
 Coeff:     -0.313D-01-0.458D-01 0.908D-01 0.110D+00-0.334D+00-0.230D+00
 Coeff:      0.143D+01
 RMSDP=2.76D-06 MaxDP=1.23D-04 DE=-2.49D-07 OVMax= 0.00D+00

 Cycle  14  Pass 1  IDiag  1:
 RMSU=  4.03D-07    CP:  9.92D-01  1.17D+00  1.04D+00  1.15D+00  1.93D+00
                    CP:  2.98D+00  3.00D+00  3.00D+00  3.00D+00  2.34D+00
                    CP:  2.72D+00  2.72D+00  1.88D+00
 E= -474.383462918000     Delta-E=       -0.000000095292 Rises=F Damp=F
 DIIS: error= 4.08D-06 at cycle  14 NSaved=  14.
 NSaved=14 IEnMin=14 EnMin= -474.383462918000     IErMin=14 ErrMin= 4.08D-06
 ErrMax= 4.08D-06  0.00D+00 EMaxC= 1.00D-01 BMatC= 1.98D-09 BMatP= 5.16D-09
 IDIUse=1 WtCom= 1.00D+00 WtEn= 0.00D+00
 Coeff-Com: -0.354D-04 0.237D-03 0.871D-04-0.228D-02-0.436D-02 0.144D-01
 Coeff-Com:  0.520D-01-0.609D-01-0.134D+00 0.243D+00 0.161D+00-0.714D+00
 Coeff-Com: -0.388D+00 0.183D+01
 Coeff:     -0.354D-04 0.237D-03 0.871D-04-0.228D-02-0.436D-02 0.144D-01
 Coeff:      0.520D-01-0.609D-01-0.134D+00 0.243D+00 0.161D+00-0.714D+00
 Coeff:     -0.388D+00 0.183D+01
 RMSDP=2.56D-06 MaxDP=1.12D-04 DE=-9.53D-08 OVMax= 0.00D+00

 Cycle  15  Pass 1  IDiag  1:
 RMSU=  7.76D-07    CP:  9.92D-01  1.17D+00  1.04D+00  1.15D+00  1.94D+00
                    CP:  2.98D+00  3.00D+00  3.00D+00  3.00D+00  2.38D+00
                    CP:  2.95D+00  3.00D+00  2.96D+00  2.37D+00
 E= -474.383462963861     Delta-E=       -0.000000045861 Rises=F Damp=F
 DIIS: error= 1.40D-06 at cycle  15 NSaved=  15.
 NSaved=15 IEnMin=15 EnMin= -474.383462963861     IErMin=15 ErrMin= 1.40D-06
 ErrMax= 1.40D-06  0.00D+00 EMaxC= 1.00D-01 BMatC= 2.49D-10 BMatP= 1.98D-09
 IDIUse=1 WtCom= 1.00D+00 WtEn= 0.00D+00
 Coeff-Com: -0.357D-05 0.950D-05 0.113D-03 0.730D-04-0.128D-02-0.116D-02
 Coeff-Com:  0.105D-01 0.422D-02-0.228D-01-0.168D-01 0.730D-01 0.615D-01
 Coeff-Com: -0.380D+00 0.113D+00 0.116D+01
 Coeff:     -0.357D-05 0.950D-05 0.113D-03 0.730D-04-0.128D-02-0.116D-02
 Coeff:      0.105D-01 0.422D-02-0.228D-01-0.168D-01 0.730D-01 0.615D-01
 Coeff:     -0.380D+00 0.113D+00 0.116D+01
 RMSDP=6.95D-07 MaxDP=3.38D-05 DE=-4.59D-08 OVMax= 0.00D+00

 Cycle  16  Pass 1  IDiag  1:
 RMSU=  3.47D-07    CP:  9.92D-01  1.17D+00  1.04D+00  1.15D+00  1.94D+00
                    CP:  2.98D+00  3.00D+00  3.00D+00  3.00D+00  2.39D+00
                    CP:  3.00D+00  3.00D+00  3.00D+00  2.90D+00  1.41D+00
 E= -474.383462967600     Delta-E=       -0.000000003739 Rises=F Damp=F
 DIIS: error= 5.19D-07 at cycle  16 NSaved=  16.
 NSaved=16 IEnMin=16 EnMin= -474.383462967600     IErMin=16 ErrMin= 5.19D-07
 ErrMax= 5.19D-07  0.00D+00 EMaxC= 1.00D-01 BMatC= 2.85D-11 BMatP= 2.49D-10
 IDIUse=1 WtCom= 1.00D+00 WtEn= 0.00D+00
 Coeff-Com:  0.578D-05-0.392D-04-0.274D-05 0.419D-03 0.400D-03-0.217D-02
 Coeff-Com: -0.753D-02 0.872D-02 0.232D-01-0.418D-01-0.252D-01 0.129D+00
 Coeff-Com:  0.145D-01-0.288D+00 0.956D-01 0.109D+01
 Coeff:      0.578D-05-0.392D-04-0.274D-05 0.419D-03 0.400D-03-0.217D-02
 Coeff:     -0.753D-02 0.872D-02 0.232D-01-0.418D-01-0.252D-01 0.129D+00
 Coeff:      0.145D-01-0.288D+00 0.956D-01 0.109D+01
 RMSDP=2.12D-07 MaxDP=9.53D-06 DE=-3.74D-09 OVMax= 0.00D+00

 Cycle  17  Pass 1  IDiag  1:
 RMSU=  8.24D-08    CP:  9.92D-01  1.17D+00  1.04D+00  1.15D+00  1.94D+00
                    CP:  2.98D+00  3.00D+00  3.00D+00  3.00D+00  2.39D+00
                    CP:  3.00D+00  3.00D+00  3.00D+00  3.00D+00  1.54D+00
                    CP:  1.38D+00
 E= -474.383462967900     Delta-E=       -0.000000000299 Rises=F Damp=F
 DIIS: error= 1.75D-07 at cycle  17 NSaved=  17.
 NSaved=17 IEnMin=17 EnMin= -474.383462967900     IErMin=17 ErrMin= 1.75D-07
 ErrMax= 1.75D-07  0.00D+00 EMaxC= 1.00D-01 BMatC= 2.41D-12 BMatP= 2.85D-11
 IDIUse=1 WtCom= 1.00D+00 WtEn= 0.00D+00
 Coeff-Com:  0.825D-06-0.417D-05-0.145D-04 0.360D-04 0.140D-03 0.354D-05
 Coeff-Com: -0.171D-02 0.218D-04 0.456D-02-0.225D-02-0.906D-02 0.541D-02
 Coeff-Com:  0.366D-01-0.261D-01-0.104D+00 0.725D-01 0.102D+01
 Coeff:      0.825D-06-0.417D-05-0.145D-04 0.360D-04 0.140D-03 0.354D-05
 Coeff:     -0.171D-02 0.218D-04 0.456D-02-0.225D-02-0.906D-02 0.541D-02
 Coeff:      0.366D-01-0.261D-01-0.104D+00 0.725D-01 0.102D+01
 RMSDP=2.05D-08 MaxDP=1.14D-06 DE=-2.99D-10 OVMax= 0.00D+00

 Cycle  18  Pass 1  IDiag  1:
 RMSU=  1.60D-08    CP:  9.92D-01  1.17D+00  1.04D+00  1.15D+00  1.94D+00
                    CP:  2.98D+00  3.00D+00  3.00D+00  3.00D+00  2.39D+00
                    CP:  3.00D+00  3.00D+00  3.00D+00  3.00D+00  1.54D+00
                    CP:  1.39D+00  1.10D+00
 E= -474.383462967922     Delta-E=       -0.000000000023 Rises=F Damp=F
 DIIS: error= 9.70D-08 at cycle  18 NSaved=  18.
 NSaved=18 IEnMin=18 EnMin= -474.383462967922     IErMin=18 ErrMin= 9.70D-08
 ErrMax= 9.70D-08  0.00D+00 EMaxC= 1.00D-01 BMatC= 3.85D-13 BMatP= 2.41D-12
 IDIUse=1 WtCom= 1.00D+00 WtEn= 0.00D+00
 Coeff-Com: -0.105D-05 0.709D-05 0.344D-07-0.727D-04-0.729D-04 0.375D-03
 Coeff-Com:  0.132D-02-0.149D-02-0.378D-02 0.668D-02 0.467D-02-0.217D-01
 Coeff-Com: -0.447D-02 0.480D-01-0.109D-01-0.181D+00-0.978D-01 0.126D+01
 Coeff:     -0.105D-05 0.709D-05 0.344D-07-0.727D-04-0.729D-04 0.375D-03
 Coeff:      0.132D-02-0.149D-02-0.378D-02 0.668D-02 0.467D-02-0.217D-01
 Coeff:     -0.447D-02 0.480D-01-0.109D-01-0.181D+00-0.978D-01 0.126D+01
 RMSDP=1.35D-08 MaxDP=8.46D-07 DE=-2.27D-11 OVMax= 0.00D+00

 Cycle  19  Pass 1  IDiag  1:
 RMSU=  4.52D-09    CP:  9.92D-01  1.17D+00  1.04D+00  1.15D+00  1.94D+00
                    CP:  2.98D+00  3.00D+00  3.00D+00  3.00D+00  2.39D+00
                    CP:  3.00D+00  3.00D+00  3.00D+00  3.00D+00  1.55D+00
                    CP:  1.41D+00  1.17D+00  1.52D+00
 E= -474.383462967920     Delta-E=        0.000000000002 Rises=F Damp=F
 DIIS: error= 4.32D-08 at cycle  19 NSaved=  19.
 NSaved=19 IEnMin=18 EnMin= -474.383462967922     IErMin=19 ErrMin= 4.32D-08
 ErrMax= 4.32D-08  0.00D+00 EMaxC= 1.00D-01 BMatC= 5.36D-14 BMatP= 3.85D-13
 IDIUse=1 WtCom= 1.00D+00 WtEn= 0.00D+00
 Coeff-Com: -0.743D-07 0.400D-06 0.191D-05-0.361D-05-0.141D-04-0.939D-05
 Coeff-Com:  0.157D-03 0.165D-05-0.414D-03 0.966D-04 0.107D-02-0.872D-04
 Coeff-Com: -0.397D-02 0.414D-03 0.134D-01 0.149D-02-0.145D+00-0.858D-02
 Coeff-Com:  0.114D+01
 Coeff:     -0.743D-07 0.400D-06 0.191D-05-0.361D-05-0.141D-04-0.939D-05
 Coeff:      0.157D-03 0.165D-05-0.414D-03 0.966D-04 0.107D-02-0.872D-04
 Coeff:     -0.397D-02 0.414D-03 0.134D-01 0.149D-02-0.145D+00-0.858D-02
 Coeff:      0.114D+01
 RMSDP=4.48D-09 MaxDP=3.41D-07 DE= 1.82D-12 OVMax= 0.00D+00

 SCF Done:  E(RZINDO/S) =  -474.383462968     A.U. after   19 cycles
            NFock= 19  Conv=0.45D-08     -V/T= 0.9492
 KE=-9.343426164795D+03 PE=-6.996779120527D-07 EE= 4.534565042091D+03
 Leave Link  502 at Wed May  4 22:42:53 2022, MaxMem=  6710886400 cpu:              25.1 elap:               1.1
 (Enter /sw/apps/gaussian-16.0/g16/l801.exe)
 Range of M.O.s used for correlation:     1   338
 NBasis=   338 NAE=   176 NBE=   176 NFC=     0 NFV=     0
 NROrb=    338 NOA=   176 NOB=   176 NVA=   162 NVB=   162
 Leave Link  801 at Wed May  4 22:42:53 2022, MaxMem=  6710886400 cpu:               0.5 elap:               0.0
 (Enter /sw/apps/gaussian-16.0/g16/l914.exe)
 RHF ground state
 Two-electron integral symmetry not used.
 MDV=  6710886400 DFT=F DoStab=F Mixed=F DoRPA=F DoScal=F NonHer=F
 Making orbital integer symmetry assigments:
 Orbital symmetries:
       Occupied  (A) (A) (A) (A) (A) (A) (A) (A) (A) (A) (A) (A)
                 (A) (A) (A) (A) (A) (A) (A) (A) (A) (A) (A) (A)
                 (A) (A) (A) (A) (A) (A) (A) (A) (A) (A) (A) (A)
                 (A) (A) (A) (A) (A) (A) (A) (A) (A) (A) (A) (A)
                 (A) (A) (A) (A) (A) (A) (A) (A) (A) (A) (A) (A)
                 (A) (A) (A) (A) (A) (A) (A) (A) (A) (A) (A) (A)
                 (A) (A) (A) (A) (A) (A) (A) (A) (A) (A) (A) (A)
                 (A) (A) (A) (A) (A) (A) (A) (A) (A) (A) (A) (A)
                 (A) (A) (A) (A) (A) (A) (A) (A) (A) (A) (A) (A)
                 (A) (A) (A) (A) (A) (A) (A) (A) (A) (A) (A) (A)
                 (A) (A) (A) (A) (A) (A) (A) (A) (A) (A) (A) (A)
                 (A) (A) (A) (A) (A) (A) (A) (A) (A) (A) (A) (A)
                 (A) (A) (A) (A) (A) (A) (A) (A) (A) (A) (A) (A)
                 (A) (A) (A) (A) (A) (A) (A) (A) (A) (A) (A) (A)
                 (A) (A) (A) (A) (A) (A) (A) (A)
       Virtual   (A) (A) (A) (A) (A) (A) (A) (A) (A) (A) (A) (A)
                 (A) (A) (A) (A) (A) (A) (A) (A) (A) (A) (A) (A)
                 (A) (A) (A) (A) (A) (A) (A) (A) (A) (A) (A) (A)
                 (A) (A) (A) (A) (A) (A) (A) (A) (A) (A) (A) (A)
                 (A) (A) (A) (A) (A) (A) (A) (A) (A) (A) (A) (A)
                 (A) (A) (A) (A) (A) (A) (A) (A) (A) (A) (A) (A)
                 (A) (A) (A) (A) (A) (A) (A) (A) (A) (A) (A) (A)
                 (A) (A) (A) (A) (A) (A) (A) (A) (A) (A) (A) (A)
                 (A) (A) (A) (A) (A) (A) (A) (A) (A) (A) (A) (A)
                 (A) (A) (A) (A) (A) (A) (A) (A) (A) (A) (A) (A)
                 (A) (A) (A) (A) (A) (A) (A) (A) (A) (A) (A) (A)
                 (A) (A) (A) (A) (A) (A) (A) (A) (A) (A) (A) (A)
                 (A) (A) (A) (A) (A) (A) (A) (A) (A) (A) (A) (A)
                 (A) (A) (A) (A) (A) (A)
    20 initial guesses have been made.
 Convergence on wavefunction:    0.001000000000000
 Davidson Disk Diagonalization:  ConvIn= 1.00D-03 SkipCon=T Conv= 1.00D-03.
 Max sub-space:  2000 roots to seek:    20 dimension of matrix:        57024
 Iteration     1 Dimension    20 NMult     0 NNew     20
 CISAX will form    20 AO SS matrices at one time.
 NMat=    20 NSing=    20 JSym2X= 0.
 New state      3 was old state      6
 New state      5 was old state      3
 Excitation Energies [eV] at current iteration:
 Root      1 :     1.644021543051659
 Root      2 :     2.159790225247453
 Root      3 :     3.343625947395681
 Root      4 :     3.393763197444210
 Root      5 :     3.473342543844772
 Root      6 :     3.541117833730836
 Root      7 :     3.605633055380825
 Root      8 :     3.766820429837640
 Root      9 :     3.957532754453570
 Root     10 :     4.009110551952971
 Root     11 :     4.187464169432092
 Root     12 :     4.227317738988730
 Root     13 :     4.286949597862744
 Root     14 :     4.398349398893908
 Root     15 :     4.401493303607410
 Root     16 :     4.511888305876952
 Root     17 :     4.769715755608976
 Root     18 :     4.795452886893370
 Root     19 :     5.598653571849844
 Root     20 :     6.011908251199870
 Iteration     2 Dimension    40 NMult    20 NNew     20
 CISAX will form    20 AO SS matrices at one time.
 NMat=    20 NSing=    20 JSym2X= 0.
 Root      1 not converged, maximum delta is    0.043379107626399
 Root      2 not converged, maximum delta is    0.029350265051442
 New state      3 was old state      5
 Root      3 not converged, maximum delta is    0.390772176609444
 New state      4 was old state      3
 Root      4 not converged, maximum delta is    0.267782336741463
 New state      5 was old state      4
 Root      5 not converged, maximum delta is    0.389408082851390
 Excitation Energies [eV] at current iteration:
 Root      1 :     1.281297604109796   Change is   -0.362723938941863
 Root      2 :     1.954033369488266   Change is   -0.205756855759187
 Root      3 :     3.098844051720624   Change is   -0.374498492124147
 Root      4 :     3.162017801119422   Change is   -0.181608146276260
 Root      5 :     3.205479062475334   Change is   -0.188284134968876
 Root      6 :     3.376693465499379   Change is   -0.228939589881446
 Root      7 :     3.477743783752307   Change is   -0.063374049978529
 Root      8 :     3.572032365520298   Change is   -0.194788064317343
 Root      9 :     3.623468017830715   Change is   -0.334064736622855
 Root     10 :     3.706746663955641   Change is   -0.302363887997331
 Root     11 :     3.760337722072542   Change is   -0.638011676821366
 Root     12 :     3.905623511521115   Change is   -0.381326086341629
 Root     13 :     3.953461916012021   Change is   -0.234002253420071
 Root     14 :     4.087680285999578   Change is   -0.139637452989152
 Root     15 :     4.198850860289070   Change is   -0.313037445587882
 Root     16 :     4.370670722653514   Change is   -0.030822580953896
 Root     17 :     4.549223454816278   Change is   -0.220492300792699
 Root     18 :     4.790943056457391   Change is   -0.004509830435979
 Root     19 :     5.556649275277992   Change is   -0.042004296571852
 Root     20 :     5.602364138827435
 Iteration     3 Dimension    45 NMult    40 NNew      5
 CISAX will form     5 AO SS matrices at one time.
 NMat=     5 NSing=     5 JSym2X= 0.
 Root      1 not converged, maximum delta is    0.009987697251132
 Root      2 not converged, maximum delta is    0.016371236912888
 Root      3 not converged, maximum delta is    0.028005806215579
 Root      4 not converged, maximum delta is    0.070265563957479
 Root      5 not converged, maximum delta is    0.065463860218176
 Excitation Energies [eV] at current iteration:
 Root      1 :     1.264874414643072   Change is   -0.016423189466724
 Root      2 :     1.930338932970921   Change is   -0.023694436517344
 Root      3 :     3.077998531592351   Change is   -0.020845520128273
 Root      4 :     3.130085374421665   Change is   -0.031932426697757
 Root      5 :     3.175577564809382   Change is   -0.029901497665952
 Iteration     4 Dimension    50 NMult    45 NNew      5
 CISAX will form     5 AO SS matrices at one time.
 NMat=     5 NSing=     5 JSym2X= 0.
 Root      1 not converged, maximum delta is    0.001551184063820
 Root      2 not converged, maximum delta is    0.002023117010719
 Root      3 not converged, maximum delta is    0.007435522854661
 Root      4 not converged, maximum delta is    0.008016790367911
 Root      5 not converged, maximum delta is    0.007938744534792
 Excitation Energies [eV] at current iteration:
 Root      1 :     1.264054837775348   Change is   -0.000819576867724
 Root      2 :     1.929733337626492   Change is   -0.000605595344430
 Root      3 :     3.074466291764946   Change is   -0.003532239827405
 Root      4 :     3.127572649302159   Change is   -0.002512725119506
 Root      5 :     3.173434903021038   Change is   -0.002142661788344
 Iteration     5 Dimension    55 NMult    50 NNew      5
 CISAX will form     5 AO SS matrices at one time.
 NMat=     5 NSing=     5 JSym2X= 0.
 Root      1 has converged.
 Root      2 has converged.
 Root      3 not converged, maximum delta is    0.010559382660407
 Root      4 not converged, maximum delta is    0.003740947976248
 Root      5 not converged, maximum delta is    0.011264083630336
 Excitation Energies [eV] at current iteration:
 Root      1 :     1.264007811628905   Change is   -0.000047026146443
 Root      2 :     1.929693619500003   Change is   -0.000039718126489
 Root      3 :     3.073159190167300   Change is   -0.001307101597646
 Root      4 :     3.127065726013832   Change is   -0.000506923288327
 Root      5 :     3.172666785910470   Change is   -0.000768117110569
 Iteration     6 Dimension    58 NMult    55 NNew      3
 CISAX will form     3 AO SS matrices at one time.
 NMat=     3 NSing=     3 JSym2X= 0.
 Root      1 has converged.
 Root      2 has converged.
 Root      3 not converged, maximum delta is    0.046911103483508
 Root      4 not converged, maximum delta is    0.020150414792776
 Root      5 not converged, maximum delta is    0.246081833200776
 Excitation Energies [eV] at current iteration:
 Root      1 :     1.264007766529789   Change is   -0.000000045099116
 Root      2 :     1.929691145570625   Change is   -0.000002473929377
 Root      3 :     3.070237417014896   Change is   -0.002921773152404
 Root      4 :     3.126671230505472   Change is   -0.000394495508360
 Root      5 :     3.157564942576307   Change is   -0.015101843334163
 Iteration     7 Dimension    61 NMult    58 NNew      3
 CISAX will form     3 AO SS matrices at one time.
 NMat=     3 NSing=     3 JSym2X= 0.
 Root      1 has converged.
 Root      2 has converged.
 Root      3 not converged, maximum delta is    0.069958806303958
 New state      4 was old state      5
 Root      4 not converged, maximum delta is    0.242299934780941
 New state      5 was old state      4
 Root      5 not converged, maximum delta is    0.073652953500972
 Excitation Energies [eV] at current iteration:
 Root      1 :     1.264007720130996   Change is   -0.000000046398793
 Root      2 :     1.929689862820904   Change is   -0.000001282749721
 Root      3 :     3.065268629588463   Change is   -0.004968787426432
 Root      4 :     3.107567381024640   Change is   -0.049997561551666
 Root      5 :     3.125695118221595   Change is   -0.000976112283877
 Iteration     8 Dimension    64 NMult    61 NNew      3
 CISAX will form     3 AO SS matrices at one time.
 NMat=     3 NSing=     3 JSym2X= 0.
 Root      1 has converged.
 Root      2 has converged.
 Root      3 not converged, maximum delta is    0.315195688356161
 Root      4 not converged, maximum delta is    0.602153320771399
 Root      5 not converged, maximum delta is    0.417252306978820
 Excitation Energies [eV] at current iteration:
 Root      1 :     1.264007587407521   Change is   -0.000000132723475
 Root      2 :     1.929689768371911   Change is   -0.000000094448994
 Root      3 :     3.053286682713451   Change is   -0.011981946875012
 Root      4 :     3.069753842057311   Change is   -0.037813538967329
 Root      5 :     3.104381849513397   Change is   -0.021313268708198
 Iteration     9 Dimension    67 NMult    64 NNew      3
 CISAX will form     3 AO SS matrices at one time.
 NMat=     3 NSing=     3 JSym2X= 0.
 Root      1 has converged.
 Root      2 has converged.
 Root      3 not converged, maximum delta is    0.135501736967437
 Root      4 not converged, maximum delta is    0.106248437569369
 Root      5 not converged, maximum delta is    0.029480304711739
 Excitation Energies [eV] at current iteration:
 Root      1 :     1.264007562922130   Change is   -0.000000024485391
 Root      2 :     1.929689679531698   Change is   -0.000000088840213
 Root      3 :     3.038341742743492   Change is   -0.014944939969959
 Root      4 :     3.066860045687937   Change is   -0.002893796369375
 Root      5 :     3.102489373932219   Change is   -0.001892475581179
 Iteration    10 Dimension    70 NMult    67 NNew      3
 CISAX will form     3 AO SS matrices at one time.
 NMat=     3 NSing=     3 JSym2X= 0.
 Root      1 has converged.
 Root      2 has converged.
 Root      3 not converged, maximum delta is    0.013403541887158
 Root      4 not converged, maximum delta is    0.006813908331780
 Root      5 not converged, maximum delta is    0.007058458918981
 Excitation Energies [eV] at current iteration:
 Root      1 :     1.264007544615234   Change is   -0.000000018306896
 Root      2 :     1.929689331632541   Change is   -0.000000347899157
 Root      3 :     3.035343813659313   Change is   -0.002997929084180
 Root      4 :     3.066709643563091   Change is   -0.000150402124845
 Root      5 :     3.101859612600036   Change is   -0.000629761332183
 Iteration    11 Dimension    73 NMult    70 NNew      3
 CISAX will form     3 AO SS matrices at one time.
 NMat=     3 NSing=     3 JSym2X= 0.
 Root      1 has converged.
 Root      2 has converged.
 Root      3 not converged, maximum delta is    0.007205004203451
 Root      4 has converged.
 Root      5 not converged, maximum delta is    0.004782664440943
 Excitation Energies [eV] at current iteration:
 Root      1 :     1.264007525072955   Change is   -0.000000019542279
 Root      2 :     1.929689078069220   Change is   -0.000000253563321
 Root      3 :     3.034403804733903   Change is   -0.000940008925410
 Root      4 :     3.066693060414032   Change is   -0.000016583149059
 Root      5 :     3.101551397930502   Change is   -0.000308214669534
 Iteration    12 Dimension    75 NMult    73 NNew      2
 CISAX will form     2 AO SS matrices at one time.
 NMat=     2 NSing=     2 JSym2X= 0.
 Root      1 has converged.
 Root      2 has converged.
 Root      3 not converged, maximum delta is    0.002716404718616
 Root      4 has converged.
 Root      5 not converged, maximum delta is    0.001889870456362
 Excitation Energies [eV] at current iteration:
 Root      1 :     1.264007513165967   Change is   -0.000000011906988
 Root      2 :     1.929689075727823   Change is   -0.000000002341396
 Root      3 :     3.034171472007612   Change is   -0.000232332726290
 Root      4 :     3.066691029720596   Change is   -0.000002030693437
 Root      5 :     3.101461727647421   Change is   -0.000089670283081
 Iteration    13 Dimension    77 NMult    75 NNew      2
 CISAX will form     2 AO SS matrices at one time.
 NMat=     2 NSing=     2 JSym2X= 0.
 Root      1 has converged.
 Root      2 has converged.
 Root      3 has converged.
 Root      4 has converged.
 Root      5 has converged.
 Excitation Energies [eV] at current iteration:
 Root      1 :     1.264007504665297   Change is   -0.000000008500670
 Root      2 :     1.929689062532035   Change is   -0.000000013195789
 Root      3 :     3.034145779887741   Change is   -0.000025692119872
 Root      4 :     3.066690771636962   Change is   -0.000000258083634
 Root      5 :     3.101451329005361   Change is   -0.000010398642060
 Convergence achieved on expansion vectors.
 ***********************************************************************
 Excited states from <AA,BB:AA,BB> singles matrix:
 ***********************************************************************
 
 1PDM for each excited state written to RWF  633
 Ground to excited state transition densities written to RWF  633
 Ground to excited state transition electric dipole moments (Au):
       state          X           Y           Z        Dip. S.      Osc.
         1         0.5287     -4.4321      0.9963     20.9159      0.6477
         2        -1.4895     -0.4278     -0.2671      2.4731      0.1169
         3        -0.9119     -0.2136     -0.1321      0.8947      0.0665
         4        -2.5456     -0.3996     -0.3797      6.7839      0.5097
         5        -1.9159     -0.2312     -0.3408      3.8404      0.2918
 Ground to excited state transition velocity dipole moments (Au):
       state          X           Y           Z        Dip. S.      Osc.
         1         0.0417     -0.0593      0.0137      0.0054      0.0782
         2         0.0178      0.0129      0.0082      0.0006      0.0052
         3         0.0308      0.0102      0.0128      0.0012      0.0073
         4         0.0848      0.0174      0.0195      0.0079      0.0466
         5         0.0713      0.0058      0.0122      0.0053      0.0308
 Ground to excited state transition magnetic dipole moments (Au):
       state          X           Y           Z
         1        -0.0711     -0.0835     -0.3050
         2         0.0861     -0.2267     -0.4721
         3        -0.6997     -0.1879      0.1918
         4         0.0114     -0.6578      0.1786
         5         0.3418      0.3755      0.0397
 Ground to excited state transition velocity quadrupole moments (Au):
       state          XX          YY          ZZ          XY          XZ          YZ
         1         0.7172      0.1426     -0.0409     -0.6614      0.0730     -0.1034
         2         0.2583      0.0253      0.0068      0.0838      0.1101     -0.0683
         3         0.6014     -0.0359     -0.0190      0.0690      0.1693      0.0888
         4         1.3141     -0.0654      0.0143      0.1487      0.2619     -0.0639
         5         1.2491     -0.0854      0.0131      0.0205      0.2185      0.0420
 <0|del|b> * <b|rxdel|0> + <0|del|b> * <b|delr+rdel|0>
 Rotatory Strengths (R) in cgs (10**-40 erg-esu-cm/Gauss)
       state          XX          YY          ZZ    R(velocity)    E-M Angle
         1       -30.4408    -18.1355     14.9811    -11.1984       95.29
         2       -37.4830    -21.0531      6.2192    -17.4390      114.91
         3        -0.9171    -54.7461    -77.7114    -44.4582      143.51
         4       -30.0268    -12.1210     -1.5264    -14.5581       96.61
         5         5.1201     85.6375     77.0831     55.9469       42.97
 1/2[<0|r|b>*<b|rxdel|0> + (<0|rxdel|b>*<b|r|0>)*]
 Rotatory Strengths (R) in cgs (10**-40 erg-esu-cm/Gauss)
       state          XX          YY          ZZ     R(length)
         1        26.5968   -261.8373    214.8822     -6.7861
         2        90.7189    -68.5739    -89.1816    -22.3455
         3      -451.2103    -28.3893     17.9223   -153.8924
         4        20.5480   -185.8882     47.9750    -39.1217
         5       463.0370     61.4056      9.5618    178.0015
  1/2[<0|del|b>*<b|r|0> + (<0|r|b>*<b|del|0>)*] (Au)
       state          X           Y           Z        Dip. S.   Osc.(frdel)
         1         0.0221      0.2629      0.0137     -0.2986     -0.1991
         2        -0.0265     -0.0055     -0.0022      0.0342      0.0228
         3        -0.0281     -0.0022     -0.0017      0.0320      0.0213
         4        -0.2159     -0.0069     -0.0074      0.2302      0.1535
         5        -0.1367     -0.0013     -0.0042      0.1422      0.0948

 Excitation energies and oscillator strengths:
 
 Excited State   1:      Singlet-A      1.2640 eV  980.88 nm  f=0.6477  <S**2>=0.000
     175 ->178         0.17483
     176 ->177         0.66718
 This state for optimization and/or second-order correction.
 Total Energy, E(CIS/TDA) =  -474.337011547    
 Copying the excited state density for this state as the 1-particle RhoCI density.
 
 Excited State   2:      Singlet-A      1.9297 eV  642.51 nm  f=0.1169  <S**2>=0.000
     175 ->177         0.58788
     176 ->178        -0.35679
 
 Excited State   3:      Singlet-A      3.0341 eV  408.63 nm  f=0.0665  <S**2>=0.000
     167 ->179         0.13133
     168 ->177        -0.27964
     168 ->178         0.17783
     168 ->179         0.41965
     168 ->181        -0.22290
     168 ->186         0.20892
     176 ->178         0.16961
 
 Excited State   4:      Singlet-A      3.0667 eV  404.29 nm  f=0.5097  <S**2>=0.000
     168 ->179        -0.10880
     170 ->177        -0.18345
     170 ->179        -0.15359
     170 ->181        -0.19877
     172 ->177        -0.12163
     173 ->177         0.12953
     175 ->177         0.24910
     176 ->178         0.42544
     176 ->179        -0.11028
 
 Excited State   5:      Singlet-A      3.1015 eV  399.76 nm  f=0.2918  <S**2>=0.000
     169 ->179         0.11048
     169 ->181         0.12023
     170 ->177         0.25511
     170 ->179         0.19673
     170 ->181         0.25261
     170 ->186         0.12414
     170 ->188         0.12108
     173 ->177         0.15950
     175 ->177         0.17634
     176 ->178         0.31598
 SavETr:  write IOETrn=   770 NScale= 10 NData=  16 NLR=1 NState=    5 LETran=     100.
 Leave Link  914 at Wed May  4 22:42:59 2022, MaxMem=  6710886400 cpu:             145.5 elap:               6.1
 (Enter /sw/apps/gaussian-16.0/g16/l601.exe)
 Copying SCF densities to generalized density rwf, IOpCl= 0 IROHF=0.

 **********************************************************************

            Population analysis using the SCF density.

 **********************************************************************

 Orbital symmetries:
       Occupied  (A) (A) (A) (A) (A) (A) (A) (A) (A) (A) (A) (A)
                 (A) (A) (A) (A) (A) (A) (A) (A) (A) (A) (A) (A)
                 (A) (A) (A) (A) (A) (A) (A) (A) (A) (A) (A) (A)
                 (A) (A) (A) (A) (A) (A) (A) (A) (A) (A) (A) (A)
                 (A) (A) (A) (A) (A) (A) (A) (A) (A) (A) (A) (A)
                 (A) (A) (A) (A) (A) (A) (A) (A) (A) (A) (A) (A)
                 (A) (A) (A) (A) (A) (A) (A) (A) (A) (A) (A) (A)
                 (A) (A) (A) (A) (A) (A) (A) (A) (A) (A) (A) (A)
                 (A) (A) (A) (A) (A) (A) (A) (A) (A) (A) (A) (A)
                 (A) (A) (A) (A) (A) (A) (A) (A) (A) (A) (A) (A)
                 (A) (A) (A) (A) (A) (A) (A) (A) (A) (A) (A) (A)
                 (A) (A) (A) (A) (A) (A) (A) (A) (A) (A) (A) (A)
                 (A) (A) (A) (A) (A) (A) (A) (A) (A) (A) (A) (A)
                 (A) (A) (A) (A) (A) (A) (A) (A) (A) (A) (A) (A)
                 (A) (A) (A) (A) (A) (A) (A) (A)
       Virtual   (A) (A) (A) (A) (A) (A) (A) (A) (A) (A) (A) (A)
                 (A) (A) (A) (A) (A) (A) (A) (A) (A) (A) (A) (A)
                 (A) (A) (A) (A) (A) (A) (A) (A) (A) (A) (A) (A)
                 (A) (A) (A) (A) (A) (A) (A) (A) (A) (A) (A) (A)
                 (A) (A) (A) (A) (A) (A) (A) (A) (A) (A) (A) (A)
                 (A) (A) (A) (A) (A) (A) (A) (A) (A) (A) (A) (A)
                 (A) (A) (A) (A) (A) (A) (A) (A) (A) (A) (A) (A)
                 (A) (A) (A) (A) (A) (A) (A) (A) (A) (A) (A) (A)
                 (A) (A) (A) (A) (A) (A) (A) (A) (A) (A) (A) (A)
                 (A) (A) (A) (A) (A) (A) (A) (A) (A) (A) (A) (A)
                 (A) (A) (A) (A) (A) (A) (A) (A) (A) (A) (A) (A)
                 (A) (A) (A) (A) (A) (A) (A) (A) (A) (A) (A) (A)
                 (A) (A) (A) (A) (A) (A) (A) (A) (A) (A) (A) (A)
                 (A) (A) (A) (A) (A) (A)
 The electronic state is 1-A.
 Alpha  occ. eigenvalues --   -1.84598  -1.81670  -1.79756  -1.74437  -1.71005
 Alpha  occ. eigenvalues --   -1.69927  -1.67038  -1.62300  -1.60458  -1.59933
 Alpha  occ. eigenvalues --   -1.56473  -1.51660  -1.50130  -1.49136  -1.45001
 Alpha  occ. eigenvalues --   -1.44511  -1.42492  -1.40387  -1.39244  -1.38194
 Alpha  occ. eigenvalues --   -1.36423  -1.32803  -1.32401  -1.31746  -1.28754
 Alpha  occ. eigenvalues --   -1.26822  -1.24142  -1.22489  -1.20441  -1.18992
 Alpha  occ. eigenvalues --   -1.18031  -1.17081  -1.15622  -1.14640  -1.13207
 Alpha  occ. eigenvalues --   -1.11743  -1.11472  -1.10225  -1.05196  -1.04166
 Alpha  occ. eigenvalues --   -1.02913  -1.01007  -0.99760  -0.98403  -0.97722
 Alpha  occ. eigenvalues --   -0.97083  -0.94745  -0.93233  -0.92911  -0.92307
 Alpha  occ. eigenvalues --   -0.89718  -0.89360  -0.88716  -0.87620  -0.86127
 Alpha  occ. eigenvalues --   -0.84539  -0.83029  -0.82374  -0.81774  -0.81193
 Alpha  occ. eigenvalues --   -0.80897  -0.79145  -0.77928  -0.76779  -0.76186
 Alpha  occ. eigenvalues --   -0.75813  -0.75544  -0.74951  -0.73846  -0.73192
 Alpha  occ. eigenvalues --   -0.72529  -0.72457  -0.72291  -0.72060  -0.70668
 Alpha  occ. eigenvalues --   -0.69933  -0.69260  -0.68886  -0.68577  -0.68091
 Alpha  occ. eigenvalues --   -0.67778  -0.67332  -0.67091  -0.66988  -0.66514
 Alpha  occ. eigenvalues --   -0.65494  -0.65422  -0.64458  -0.64065  -0.63457
 Alpha  occ. eigenvalues --   -0.63236  -0.62872  -0.62662  -0.61912  -0.61665
 Alpha  occ. eigenvalues --   -0.61513  -0.61173  -0.61101  -0.60519  -0.60405
 Alpha  occ. eigenvalues --   -0.59917  -0.59775  -0.59208  -0.58885  -0.58800
 Alpha  occ. eigenvalues --   -0.58036  -0.57650  -0.56828  -0.56591  -0.56533
 Alpha  occ. eigenvalues --   -0.56174  -0.55565  -0.55138  -0.54557  -0.54469
 Alpha  occ. eigenvalues --   -0.54245  -0.53930  -0.53075  -0.52666  -0.52556
 Alpha  occ. eigenvalues --   -0.52242  -0.52012  -0.51904  -0.51814  -0.51506
 Alpha  occ. eigenvalues --   -0.51279  -0.51177  -0.50641  -0.50054  -0.49889
 Alpha  occ. eigenvalues --   -0.49720  -0.49467  -0.49328  -0.49247  -0.48991
 Alpha  occ. eigenvalues --   -0.48763  -0.48473  -0.48200  -0.47835  -0.47591
 Alpha  occ. eigenvalues --   -0.47461  -0.47430  -0.46843  -0.46703  -0.46498
 Alpha  occ. eigenvalues --   -0.46351  -0.46117  -0.45998  -0.45503  -0.45323
 Alpha  occ. eigenvalues --   -0.44895  -0.44564  -0.44341  -0.44160  -0.43669
 Alpha  occ. eigenvalues --   -0.43508  -0.42376  -0.42070  -0.41853  -0.41695
 Alpha  occ. eigenvalues --   -0.41326  -0.40987  -0.40695  -0.39766  -0.38934
 Alpha  occ. eigenvalues --   -0.37977  -0.37021  -0.36427  -0.34302  -0.33859
 Alpha  occ. eigenvalues --   -0.33751  -0.32694  -0.31384  -0.31123  -0.26557
 Alpha  occ. eigenvalues --   -0.21945
 Alpha virt. eigenvalues --   -0.08824  -0.01400  -0.00401   0.00744   0.01470
 Alpha virt. eigenvalues --    0.02439   0.02846   0.03104   0.04828   0.05088
 Alpha virt. eigenvalues --    0.06414   0.06789   0.07279   0.07488   0.08269
 Alpha virt. eigenvalues --    0.08360   0.08680   0.08906   0.09092   0.09930
 Alpha virt. eigenvalues --    0.10059   0.10185   0.10605   0.10728   0.10952
 Alpha virt. eigenvalues --    0.10966   0.11362   0.11653   0.11692   0.12244
 Alpha virt. eigenvalues --    0.12569   0.12711   0.12967   0.13232   0.13536
 Alpha virt. eigenvalues --    0.13694   0.14109   0.14178   0.14383   0.14858
 Alpha virt. eigenvalues --    0.15211   0.15479   0.15516   0.15573   0.15686
 Alpha virt. eigenvalues --    0.15863   0.16317   0.16752   0.16921   0.16944
 Alpha virt. eigenvalues --    0.17243   0.17561   0.17622   0.18099   0.18245
 Alpha virt. eigenvalues --    0.18757   0.18839   0.18970   0.19021   0.19375
 Alpha virt. eigenvalues --    0.19658   0.19865   0.19955   0.20665   0.21425
 Alpha virt. eigenvalues --    0.21881   0.21897   0.22978   0.23634   0.23715
 Alpha virt. eigenvalues --    0.23867   0.24072   0.24163   0.24240   0.24241
 Alpha virt. eigenvalues --    0.24297   0.24343   0.24519   0.24536   0.24718
 Alpha virt. eigenvalues --    0.24726   0.24748   0.24763   0.24805   0.24832
 Alpha virt. eigenvalues --    0.24970   0.25142   0.25337   0.25369   0.25443
 Alpha virt. eigenvalues --    0.25471   0.25598   0.25628   0.25689   0.25766
 Alpha virt. eigenvalues --    0.25948   0.25974   0.25989   0.26080   0.26198
 Alpha virt. eigenvalues --    0.26306   0.26312   0.26389   0.26616   0.26631
 Alpha virt. eigenvalues --    0.26641   0.26805   0.27048   0.27176   0.27287
 Alpha virt. eigenvalues --    0.27335   0.27404   0.27624   0.27836   0.28002
 Alpha virt. eigenvalues --    0.28385   0.28581   0.28874   0.29300   0.29367
 Alpha virt. eigenvalues --    0.29497   0.29949   0.30293   0.31522   0.31560
 Alpha virt. eigenvalues --    0.32455   0.33043   0.33387   0.33445   0.34210
 Alpha virt. eigenvalues --    0.34920   0.35162   0.35856   0.35901   0.36193
 Alpha virt. eigenvalues --    0.36342   0.36684   0.37370   0.37705   0.38266
 Alpha virt. eigenvalues --    0.38705   0.39507   0.39701   0.40080   0.40736
 Alpha virt. eigenvalues --    0.41007   0.41417   0.41684   0.42155   0.43280
 Alpha virt. eigenvalues --    0.44247   0.44636   0.45037   0.46118   0.47270
 Alpha virt. eigenvalues --    0.47527   0.47700   0.48476   0.51388   0.53464
 Alpha virt. eigenvalues --    0.54770   0.57890
          Condensed to atoms (all electrons):
 Mulliken charges:
               1
     1  Mg   0.427246
     2  C   -0.025914
     3  C   -0.094412
     4  C   -0.072457
     5  C   -0.054478
     6  N   -0.302132
     7  C    0.108402
     8  C    0.003866
     9  C   -0.011345
    10  C    0.159342
    11  C   -0.046843
    12  C   -0.018031
    13  C    0.006464
    14  C    0.452570
    15  O   -0.505166
    16  O   -0.278174
    17  N   -0.304957
    18  C    0.123251
    19  C    0.020996
    20  C   -0.053197
    21  C    0.143541
    22  C   -0.031760
    23  C    0.341228
    24  O   -0.506006
    25  C   -0.037826
    26  N   -0.260513
    27  C    0.160751
    28  C    0.003309
    29  C   -0.007240
    30  C    0.099042
    31  C   -0.052289
    32  C   -0.028962
    33  C   -0.062614
    34  N   -0.325599
    35  C    0.077809
    36  C    0.017162
    37  C   -0.083330
    38  C    0.116872
    39  C   -0.041261
    40  C    0.353862
    41  O   -0.512698
    42  C    0.049312
    43  C    0.492847
    44  O   -0.515763
    45  O   -0.271608
    46  C    0.073843
    47  C    0.108174
    48  C   -0.094454
    49  C   -0.005658
    50  C   -0.037643
    51  C   -0.021305
    52  C   -0.021451
    53  C   -0.043520
    54  C   -0.013519
    55  C   -0.068691
    56  C   -0.041720
    57  C   -0.045978
    58  C   -0.042278
    59  C   -0.012307
    60  C   -0.054809
    61  C   -0.033761
    62  C   -0.048176
    63  C   -0.031558
    64  C   -0.009870
    65  C   -0.054375
    66  C   -0.068966
    67  H    0.026319
    68  H    0.042666
    69  H    0.009803
    70  H    0.031147
    71  H    0.032307
    72  H    0.016076
    73  H    0.027459
    74  H    0.038453
    75  H    0.036229
    76  H    0.024450
    77  H    0.051975
    78  H    0.039037
    79  H    0.033872
    80  H    0.034440
    81  H    0.020336
    82  H    0.035732
    83  H    0.027887
    84  H    0.045174
    85  H    0.030411
    86  H    0.032858
    87  H    0.028222
    88  H    0.018535
    89  H    0.026883
    90  H    0.015360
    91  H    0.021718
    92  H    0.025735
    93  H    0.029619
    94  H    0.010290
    95  H    0.033413
    96  H    0.034831
    97  H    0.031147
    98  H    0.037407
    99  H    0.037372
   100  H    0.029343
   101  H    0.051387
   102  H    0.046945
   103  H    0.040976
   104  H    0.032039
   105  H    0.038063
   106  H    0.022682
   107  H    0.020703
   108  H    0.024698
   109  H    0.015593
   110  H    0.026028
   111  H    0.026978
   112  H    0.013163
   113  H    0.003857
   114  H    0.031714
   115  H    0.007049
   116  H    0.019600
   117  H    0.031487
   118  H    0.019010
   119  H    0.021940
   120  H    0.026075
   121  H    0.023991
   122  H    0.012486
   123  H    0.026352
   124  H    0.022647
   125  H    0.010508
   126  H    0.029291
   127  H    0.022627
   128  H    0.021840
   129  H    0.007060
   130  H    0.027132
   131  H    0.002818
   132  H    0.020974
   133  H    0.014782
   134  H    0.036382
   135  H    0.010729
   136  H    0.007996
   137  H    0.026938
   138  H    0.016348
   139  H    0.018590
   140  H    0.018740
 Sum of Mulliken charges =  -0.00000
 Mulliken charges with hydrogens summed into heavy atoms:
               1
     1  Mg   0.427246
     2  C   -0.025914
     3  C   -0.068093
     4  C   -0.029791
     5  C   -0.044675
     6  N   -0.302132
     7  C    0.108402
     8  C    0.035014
     9  C    0.020961
    10  C    0.159342
    11  C    0.035144
    12  C    0.042648
    13  C    0.097476
    14  C    0.452570
    15  O   -0.505166
    16  O   -0.278174
    17  N   -0.304957
    18  C    0.123251
    19  C    0.020996
    20  C   -0.053197
    21  C    0.143541
    22  C    0.056888
    23  C    0.341228
    24  O   -0.506006
    25  C    0.070967
    26  N   -0.260513
    27  C    0.160751
    28  C    0.033720
    29  C    0.025617
    30  C    0.099042
    31  C    0.021351
    32  C    0.008116
    33  C    0.003030
    34  N   -0.325599
    35  C    0.077809
    36  C    0.017162
    37  C   -0.083330
    38  C    0.116872
    39  C    0.058131
    40  C    0.353862
    41  O   -0.512698
    42  C    0.086719
    43  C    0.492847
    44  O   -0.515763
    45  O   -0.271608
    46  C    0.191944
    47  C    0.196095
    48  C   -0.062415
    49  C   -0.005658
    50  C    0.043805
    51  C    0.018985
    52  C    0.031555
    53  C   -0.026500
    54  C    0.018195
    55  C   -0.010555
    56  C   -0.000769
    57  C    0.004088
    58  C   -0.003440
    59  C    0.010340
    60  C    0.007617
    61  C   -0.004860
    62  C   -0.018226
    63  C    0.004198
    64  C    0.026513
    65  C   -0.008712
    66  C   -0.015287
 Charge=              0.0000 electrons
 Dipole moment (field-independent basis, Debye):
    X=             -4.4585    Y=              7.6586    Z=             -0.1261  Tot=              8.8627
 N-N= 4.334477660436D+03 E-N= 0.000000000000D+00  KE=-9.343426164795D+03
 Leave Link  601 at Wed May  4 22:42:59 2022, MaxMem=  6710886400 cpu:               0.7 elap:               0.0
 (Enter /sw/apps/gaussian-16.0/g16/l9999.exe)
 1\1\GINC-BP1-COMPUTE196\SP\RZINDO CIS\STO-3G\C55H74Mg1N4O6\OF15641\04-
 May-2022\0\\#p ZINDO=(nstates=5)\\step_451_chromophore_13 ZINDO\\0,1\M
 g,0,47.596,24.785,28.245\C,0,48.318,26.968,30.959\C,0,46.959,22.372,30
 .637\C,0,47.634,22.568,25.828\C,0,48.671,27.261,26.15\N,0,47.511,24.78
 ,30.455\C,0,47.777,25.787,31.357\C,0,47.432,25.362,32.8\C,0,47.401,23.
 769,32.648\C,0,47.239,23.608,31.125\C,0,48.697,22.936,32.997\C,0,46.17
 7,26.054,33.353\C,0,46.308,26.807,34.692\C,0,45.407,26.329,35.927\O,0,
 44.257,25.871,35.812\O,0,46.011,26.717,37.161\N,0,47.157,22.795,28.195
 \C,0,46.959,21.955,29.248\C,0,46.578,20.598,28.786\C,0,46.825,20.622,2
 7.383\C,0,47.249,22.,27.104\C,0,45.928,19.559,29.595\C,0,46.704,19.501
 ,26.325\O,0,47.074,19.634,25.169\C,0,46.184,18.181,26.78\N,0,48.183,24
 .915,26.282\C,0,48.054,23.836,25.483\C,0,48.286,24.222,24.011\C,0,48.2
 79,25.832,24.006\C,0,48.421,26.042,25.548\C,0,49.553,23.568,23.3\C,0,4
 6.984,26.581,23.388\C,0,45.565,26.166,23.801\N,0,48.349,26.781,28.447\
 C,0,48.721,27.717,27.517\C,0,49.042,28.962,28.138\C,0,48.932,28.709,29
 .573\C,0,48.492,27.356,29.651\C,0,49.41,30.212,27.397\C,0,49.023,29.31
 3,30.847\O,0,49.233,30.393,31.236\C,0,48.758,28.132,31.783\C,0,49.921,
 27.963,32.694\O,0,51.046,27.657,32.351\O,0,49.517,28.092,34.002\C,0,50
 .576,27.729,34.921\C,0,45.192,26.793,38.317\C,0,45.309,25.637,39.278\C
 ,0,44.658,25.452,40.46\C,0,43.745,26.363,41.142\C,0,44.787,24.036,41.0
 29\C,0,43.632,23.192,40.556\C,0,42.697,22.628,41.692\C,0,41.231,22.17,
 41.484\C,0,40.976,21.362,40.114\C,0,40.228,23.386,41.375\C,0,39.425,23
 .56,42.697\C,0,40.143,24.571,43.589\C,0,40.224,24.133,45.099\C,0,38.87
 6,24.18,45.797\C,0,41.103,25.015,45.911\C,0,42.14,24.205,46.786\C,0,43
 .618,24.166,46.342\C,0,44.102,22.752,45.905\C,0,44.794,22.17,47.152\C,
 0,45.176,22.922,44.763\H,0,46.856,21.557,31.355\H,0,47.59,21.832,25.02
 2\H,0,48.949,27.947,25.347\H,0,48.346,25.525,33.371\H,0,46.507,23.358,
 33.117\H,0,48.369,22.306,33.824\H,0,49.429,23.654,33.367\H,0,49.084,22
 .292,32.207\H,0,45.314,25.414,33.535\H,0,45.821,26.768,32.61\H,0,46.03
 4,27.858,34.598\H,0,47.363,26.701,34.945\H,0,46.536,18.657,29.658\H,0,
 44.933,19.344,29.205\H,0,45.758,19.861,30.628\H,0,46.557,17.754,27.711
 \H,0,46.541,17.503,26.005\H,0,45.103,18.05,26.735\H,0,47.436,23.979,23
 .373\H,0,49.071,26.364,23.481\H,0,50.314,24.305,23.043\H,0,49.233,23.0
 73,22.383\H,0,49.95,22.74,23.887\H,0,46.935,26.457,22.306\H,0,47.164,2
 7.636,23.597\H,0,45.055,25.445,23.162\H,0,44.944,26.991,24.151\H,0,45.
 692,25.468,24.628\H,0,50.472,30.184,27.154\H,0,49.244,30.955,28.176\H,
 0,48.857,30.356,26.468\H,0,47.883,28.257,32.421\H,0,50.591,26.639,34.9
 27\H,0,50.461,28.09,35.943\H,0,51.502,28.203,34.595\H,0,44.158,26.748,
 37.976\H,0,45.298,27.778,38.77\H,0,45.942,24.824,38.922\H,0,44.104,26.
 932,41.999\H,0,42.887,25.802,41.514\H,0,43.39,27.008,40.338\H,0,44.944
 ,24.116,42.105\H,0,45.696,23.613,40.602\H,0,44.078,22.386,39.974\H,0,4
 2.901,23.763,39.983\H,0,42.633,23.315,42.536\H,0,43.212,21.776,42.136\
 H,0,41.115,21.552,42.374\H,0,40.634,20.368,40.401\H,0,41.878,21.078,39
 .573\H,0,40.225,21.797,39.455\H,0,39.456,23.287,40.611\H,0,40.805,24.2
 89,41.178\H,0,39.461,22.6,43.213\H,0,38.446,23.911,42.371\H,0,39.492,2
 5.445,43.586\H,0,41.134,24.832,43.217\H,0,40.718,23.164,45.032\H,0,38.
 631,23.118,45.779\H,0,38.185,24.806,45.233\H,0,38.907,24.444,46.854\H,
 0,40.651,25.724,46.606\H,0,41.628,25.625,45.175\H,0,41.775,23.225,47.0
 94\H,0,42.182,24.835,47.674\H,0,44.186,24.563,47.183\H,0,43.818,24.851
 ,45.518\H,0,43.306,22.15,45.467\H,0,45.664,21.55,46.935\H,0,44.068,21.
 489,47.596\H,0,45.155,22.838,47.935\H,0,44.69,22.538,43.866\H,0,46.113
 ,22.4,44.955\H,0,45.492,23.947,44.569\\Version=ES64L-G16RevA.03\State=
 1-A\HF=-474.383463\RMSD=4.481e-09\PG=C01 [X(C55H74Mg1N4O6)]\\@


 NEVER TEACH A PIG TO SING.
 IT WASTES YOUR TIME AND ANNOYS THE PIG.
     -- SEEN ON A GREETING CARD
 Job cpu time:       0 days  0 hours  3 minutes 18.2 seconds.
 Elapsed time:       0 days  0 hours  0 minutes  8.5 seconds.
 File lengths (MBytes):  RWF=   1274 Int=      0 D2E=      0 Chk=     38 Scr=      1
 Normal termination of Gaussian 16 at Wed May  4 22:43:00 2022.
