 Entering Gaussian System, Link 0=g16
 Initial command:
 /sw/apps/gaussian-16.0/g16/l1.exe "/tmp/Gau-42345.inp" -scrdir="/tmp/"
 Entering Link 1 = /sw/apps/gaussian-16.0/g16/l1.exe PID=     42346.
  
 Copyright (c) 1988,1990,1992,1993,1995,1998,2003,2009,2016,
            Gaussian, Inc.  All Rights Reserved.
  
 This is part of the Gaussian(R) 16 program.  It is based on
 the Gaussian(R) 09 system (copyright 2009, Gaussian, Inc.),
 the Gaussian(R) 03 system (copyright 2003, Gaussian, Inc.),
 the Gaussian(R) 98 system (copyright 1998, Gaussian, Inc.),
 the Gaussian(R) 94 system (copyright 1995, Gaussian, Inc.),
 the Gaussian 92(TM) system (copyright 1992, Gaussian, Inc.),
 the Gaussian 90(TM) system (copyright 1990, Gaussian, Inc.),
 the Gaussian 88(TM) system (copyright 1988, Gaussian, Inc.),
 the Gaussian 86(TM) system (copyright 1986, Carnegie Mellon
 University), and the Gaussian 82(TM) system (copyright 1983,
 Carnegie Mellon University). Gaussian is a federally registered
 trademark of Gaussian, Inc.
  
 This software contains proprietary and confidential information,
 including trade secrets, belonging to Gaussian, Inc.
  
 This software is provided under written license and may be
 used, copied, transmitted, or stored only in accord with that
 written license.
  
 The following legend is applicable only to US Government
 contracts under FAR:
  
                    RESTRICTED RIGHTS LEGEND
  
 Use, reproduction and disclosure by the US Government is
 subject to restrictions as set forth in subparagraphs (a)
 and (c) of the Commercial Computer Software - Restricted
 Rights clause in FAR 52.227-19.
  
 Gaussian, Inc.
 340 Quinnipiac St., Bldg. 40, Wallingford CT 06492
  
  
 ---------------------------------------------------------------
 Warning -- This program may not be used in any manner that
 competes with the business of Gaussian, Inc. or will provide
 assistance to any competitor of Gaussian, Inc.  The licensee
 of this program is prohibited from giving any competitor of
 Gaussian, Inc. access to this program.  By using this program,
 the user acknowledges that Gaussian, Inc. is engaged in the
 business of creating and licensing software in the field of
 computational chemistry and represents and warrants to the
 licensee that it is not a competitor of Gaussian, Inc. and that
 it will not use this program in any manner prohibited above.
 ---------------------------------------------------------------
  

 Cite this work as:
 Gaussian 16, Revision A.03,
 M. J. Frisch, G. W. Trucks, H. B. Schlegel, G. E. Scuseria, 
 M. A. Robb, J. R. Cheeseman, G. Scalmani, V. Barone, 
 G. A. Petersson, H. Nakatsuji, X. Li, M. Caricato, A. V. Marenich, 
 J. Bloino, B. G. Janesko, R. Gomperts, B. Mennucci, H. P. Hratchian, 
 J. V. Ortiz, A. F. Izmaylov, J. L. Sonnenberg, D. Williams-Young, 
 F. Ding, F. Lipparini, F. Egidi, J. Goings, B. Peng, A. Petrone, 
 T. Henderson, D. Ranasinghe, V. G. Zakrzewski, J. Gao, N. Rega, 
 G. Zheng, W. Liang, M. Hada, M. Ehara, K. Toyota, R. Fukuda, 
 J. Hasegawa, M. Ishida, T. Nakajima, Y. Honda, O. Kitao, H. Nakai, 
 T. Vreven, K. Throssell, J. A. Montgomery, Jr., J. E. Peralta, 
 F. Ogliaro, M. J. Bearpark, J. J. Heyd, E. N. Brothers, K. N. Kudin, 
 V. N. Staroverov, T. A. Keith, R. Kobayashi, J. Normand, 
 K. Raghavachari, A. P. Rendell, J. C. Burant, S. S. Iyengar, 
 J. Tomasi, M. Cossi, J. M. Millam, M. Klene, C. Adamo, R. Cammi, 
 J. W. Ochterski, R. L. Martin, K. Morokuma, O. Farkas, 
 J. B. Foresman, and D. J. Fox, Gaussian, Inc., Wallingford CT, 2016.
 
 ******************************************
 Gaussian 16:  ES64L-G16RevA.03 25-Dec-2016
                29-Apr-2022 
 ******************************************
 %nproc=24
 Will use up to   24 processors via shared memory.
 %mem=75GB
 -----------------------------------
 #p cam-b3lyp/Def2SVP td=(nstates=5)
 -----------------------------------
 1/38=1,172=1/1;
 2/12=2,17=6,18=5,40=1/2;
 3/5=43,7=101,11=9,25=1,30=1,74=-40/1,2,3,8;
 4//1;
 5/5=2,38=5/2;
 8/6=1,10=1,108=5/1;
 9/41=5,42=1,70=2/14;
 6/7=2,8=2,9=2,10=2/1;
 99/5=1,9=1/99;
 Leave Link    1 at Fri Apr 29 23:18:48 2022, MaxMem= 10066329600 cpu:               0.6 elap:               0.0
 (Enter /sw/apps/gaussian-16.0/g16/l101.exe)
 ------------------------------------------------------
 step_51_chromophore_15 TDDFT with cam-b3lyp functional
 ------------------------------------------------------
 Symbolic Z-matrix:
 Charge =  0 Multiplicity = 1
 Mg                    46.523    34.278    28.179 
 C                     44.556    32.614    30.602 
 C                     46.727    36.755    30.493 
 C                     47.533    36.312    25.618 
 C                     46.139    31.628    25.995 
 N                     45.668    34.593    30.279 
 C                     45.06     33.754    31.124 
 C                     45.236    34.219    32.621 
 C                     45.515    35.688    32.495 
 C                     46.002    35.675    30.995 
 C                     44.243    36.615    32.663 
 C                     46.477    33.508    33.321 
 C                     46.452    33.164    34.847 
 C                     45.492    34.06     35.703 
 O                     44.268    33.895    35.804 
 O                     46.174    35.111    36.27 
 N                     46.944    36.297    28.074 
 C                     47.117    37.106    29.137 
 C                     47.625    38.371    28.746 
 C                     47.913    38.258    27.373 
 C                     47.421    36.877    26.951 
 C                     47.889    39.551    29.681 
 C                     48.596    39.29     26.436 
 O                     48.737    39.138    25.243 
 C                     49.245    40.561    27.017 
 N                     46.6      34.06     26.018 
 C                     47.222    34.972    25.243 
 C                     47.465    34.471    23.82 
 C                     47.155    32.893    23.98 
 C                     46.715    32.814    25.425 
 C                     46.754    35.185    22.57 
 C                     48.233    31.835    23.518 
 C                     47.843    30.527    22.834 
 N                     45.496    32.549    28.221 
 C                     45.549    31.516    27.265 
 C                     44.81     30.341    27.748 
 C                     44.391    30.768    28.987 
 C                     44.833    32.117    29.291 
 C                     44.556    29.04     27.142 
 C                     43.734    30.365    30.158 
 O                     43.155    29.327    30.327 
 C                     43.677    31.519    31.143 
 C                     44.106    30.915    32.482 
 O                     45.163    30.391    32.731 
 O                     43.158    31.09     33.427 
 C                     43.351    30.642    34.813 
 C                     45.306    36.097    36.915 
 C                     46.246    37.086    37.545 
 C                     46.025    38.014    38.542 
 C                     44.76     38.214    39.35 
 C                     47.201    38.918    39.039 
 C                     47.245    40.432    38.813 
 C                     48.64     40.892    38.476 
 C                     48.624    42.099    37.58 
 C                     49.453    42.111    36.275 
 C                     48.956    43.374    38.435 
 C                     47.777    44.156    39.016 
 C                     48.073    45.111    40.154 
 C                     47.852    46.595    39.801 
 C                     48.944    47.452    40.467 
 C                     46.388    47.086    40.111 
 C                     45.366    46.863    38.972 
 C                     44.09     46.013    39.289 
 C                     42.784    46.684    38.928 
 C                     42.193    47.423    40.084 
 C                     41.855    45.627    38.298 
 H                     46.939    37.488    31.274 
 H                     47.98     36.845    24.776 
 H                     46.036    30.781    25.314 
 H                     44.389    34.007    33.274 
 H                     46.182    36.162    33.215 
 H                     44.361    37.367    33.443 
 H                     43.371    35.991    32.858 
 H                     44.016    37.204    31.774 
 H                     47.364    34.079    33.048 
 H                     46.387    32.571    32.77 
 H                     47.451    33.227    35.279 
 H                     46.05     32.154    34.918 
 H                     48.853    40.026    29.495 
 H                     47.797    39.238    30.721 
 H                     47.228    40.379    29.425 
 H                     49.565    41.12     26.139 
 H                     50.156    40.268    27.54 
 H                     48.631    41.137    27.709 
 H                     48.539    34.487    23.639 
 H                     46.215    32.606    23.509 
 H                     45.899    35.779    22.893 
 H                     46.395    34.445    21.855 
 H                     47.459    35.859    22.082 
 H                     48.723    31.453    24.413 
 H                     49.042    32.27     22.931 
 H                     46.76     30.547    22.712 
 H                     48.1      29.651    23.428 
 H                     48.224    30.387    21.822 
 H                     44.605    29.352    26.098 
 H                     43.571    28.665    27.418 
 H                     45.383    28.38     27.404 
 H                     42.672    31.939    31.193 
 H                     42.617    29.862    35.015 
 H                     43.327    31.419    35.576 
 H                     44.32     30.155    34.929 
 H                     44.698    35.599    37.671 
 H                     44.581    36.54     36.232 
 H                     47.211    37.027    37.042 
 H                     44.888    37.831    40.363 
 H                     43.89     37.799    38.842 
 H                     44.497    39.241    39.603 
 H                     48.119    38.391    38.782 
 H                     47.213    38.763    40.118 
 H                     46.865    40.853    39.744 
 H                     46.492    40.643    38.053 
 H                     49.225    40.129    37.963 
 H                     49.075    41.165    39.438 
 H                     47.612    42.276    37.216 
 H                     50.48     42.473    36.332 
 H                     48.952    42.74     35.539 
 H                     49.563    41.147    35.778 
 H                     49.53     44.092    37.848 
 H                     49.685    43.17     39.219 
 H                     47.055    43.428    39.384 
 H                     47.272    44.634    38.176 
 H                     49.06     44.945    40.585 
 H                     47.398    44.953    40.995 
 H                     47.94     46.762    38.727 
 H                     49.674    47.68     39.69 
 H                     49.523    46.931    41.229 
 H                     48.552    48.389    40.862 
 H                     46.449    48.146    40.355 
 H                     46.065    46.481    40.958 
 H                     45.857    46.344    38.149 
 H                     44.906    47.813    38.701 
 H                     44.232    45.682    40.317 
 H                     44.171    45.138    38.643 
 H                     42.988    47.409    38.139 
 H                     41.217    47.203    40.518 
 H                     42.125    48.476    39.814 
 H                     42.964    47.351    40.851 
 H                     41.737    44.731    38.907 
 H                     42.241    45.208    37.369 
 H                     40.961    46.084    37.875 
 
 ITRead=  0  0  0  0  0  0  0  0  0  0  0  0  0  0  0  0  0  0  0  0
 ITRead=  0  0  0  0  0  0  0  0  0  0  0  0  0  0  0  0  0  0  0  0
 ITRead=  0  0  0  0  0  0  0  0  0  0  0  0  0  0  0  0  0  0  0  0
 ITRead=  0  0  0  0  0  0  0  0  0  0  0  0  0  0  0  0  0  0  0  0
 ITRead=  0  0  0  0  0  0  0  0  0  0  0  0  0  0  0  0  0  0  0  0
 ITRead=  0  0  0  0  0  0  0  0  0  0  0  0  0  0  0  0  0  0  0  0
 ITRead=  0  0  0  0  0  0  0  0  0  0  0  0  0  0  0  0  0  0  0  0
 MicOpt= -1 -1 -1 -1 -1 -1 -1 -1 -1 -1 -1 -1 -1 -1 -1 -1 -1 -1 -1 -1
 MicOpt= -1 -1 -1 -1 -1 -1 -1 -1 -1 -1 -1 -1 -1 -1 -1 -1 -1 -1 -1 -1
 MicOpt= -1 -1 -1 -1 -1 -1 -1 -1 -1 -1 -1 -1 -1 -1 -1 -1 -1 -1 -1 -1
 MicOpt= -1 -1 -1 -1 -1 -1 -1 -1 -1 -1 -1 -1 -1 -1 -1 -1 -1 -1 -1 -1
 MicOpt= -1 -1 -1 -1 -1 -1 -1 -1 -1 -1 -1 -1 -1 -1 -1 -1 -1 -1 -1 -1
 MicOpt= -1 -1 -1 -1 -1 -1 -1 -1 -1 -1 -1 -1 -1 -1 -1 -1 -1 -1 -1 -1
 MicOpt= -1 -1 -1 -1 -1 -1 -1 -1 -1 -1 -1 -1 -1 -1 -1 -1 -1 -1 -1 -1
 NAtoms=    140 NQM=      140 NQMF=       0 NMMI=      0 NMMIF=      0
                NMic=       0 NMicF=      0.
                    Isotopes and Nuclear Properties:
 (Nuclear quadrupole moments (NQMom) in fm**2, nuclear magnetic moments (NMagM)
  in nuclear magnetons)

  Atom         1           2           3           4           5           6           7           8           9          10
 IAtWgt=          24          12          12          12          12          14          12          12          12          12
 AtmWgt=  23.9850450  12.0000000  12.0000000  12.0000000  12.0000000  14.0030740  12.0000000  12.0000000  12.0000000  12.0000000
 NucSpn=           0           0           0           0           0           2           0           0           0           0
 AtZEff=  -0.0000000  -0.0000000  -0.0000000  -0.0000000  -0.0000000  -0.0000000  -0.0000000  -0.0000000  -0.0000000  -0.0000000
 NQMom=    0.0000000   0.0000000   0.0000000   0.0000000   0.0000000   2.0440000   0.0000000   0.0000000   0.0000000   0.0000000
 NMagM=    0.0000000   0.0000000   0.0000000   0.0000000   0.0000000   0.4037610   0.0000000   0.0000000   0.0000000   0.0000000
 AtZNuc=  12.0000000   6.0000000   6.0000000   6.0000000   6.0000000   7.0000000   6.0000000   6.0000000   6.0000000   6.0000000

  Atom        11          12          13          14          15          16          17          18          19          20
 IAtWgt=          12          12          12          12          16          16          14          12          12          12
 AtmWgt=  12.0000000  12.0000000  12.0000000  12.0000000  15.9949146  15.9949146  14.0030740  12.0000000  12.0000000  12.0000000
 NucSpn=           0           0           0           0           0           0           2           0           0           0
 AtZEff=  -0.0000000  -0.0000000  -0.0000000  -0.0000000  -0.0000000  -0.0000000  -0.0000000  -0.0000000  -0.0000000  -0.0000000
 NQMom=    0.0000000   0.0000000   0.0000000   0.0000000   0.0000000   0.0000000   2.0440000   0.0000000   0.0000000   0.0000000
 NMagM=    0.0000000   0.0000000   0.0000000   0.0000000   0.0000000   0.0000000   0.4037610   0.0000000   0.0000000   0.0000000
 AtZNuc=   6.0000000   6.0000000   6.0000000   6.0000000   8.0000000   8.0000000   7.0000000   6.0000000   6.0000000   6.0000000

  Atom        21          22          23          24          25          26          27          28          29          30
 IAtWgt=          12          12          12          16          12          14          12          12          12          12
 AtmWgt=  12.0000000  12.0000000  12.0000000  15.9949146  12.0000000  14.0030740  12.0000000  12.0000000  12.0000000  12.0000000
 NucSpn=           0           0           0           0           0           2           0           0           0           0
 AtZEff=  -0.0000000  -0.0000000  -0.0000000  -0.0000000  -0.0000000  -0.0000000  -0.0000000  -0.0000000  -0.0000000  -0.0000000
 NQMom=    0.0000000   0.0000000   0.0000000   0.0000000   0.0000000   2.0440000   0.0000000   0.0000000   0.0000000   0.0000000
 NMagM=    0.0000000   0.0000000   0.0000000   0.0000000   0.0000000   0.4037610   0.0000000   0.0000000   0.0000000   0.0000000
 AtZNuc=   6.0000000   6.0000000   6.0000000   8.0000000   6.0000000   7.0000000   6.0000000   6.0000000   6.0000000   6.0000000

  Atom        31          32          33          34          35          36          37          38          39          40
 IAtWgt=          12          12          12          14          12          12          12          12          12          12
 AtmWgt=  12.0000000  12.0000000  12.0000000  14.0030740  12.0000000  12.0000000  12.0000000  12.0000000  12.0000000  12.0000000
 NucSpn=           0           0           0           2           0           0           0           0           0           0
 AtZEff=  -0.0000000  -0.0000000  -0.0000000  -0.0000000  -0.0000000  -0.0000000  -0.0000000  -0.0000000  -0.0000000  -0.0000000
 NQMom=    0.0000000   0.0000000   0.0000000   2.0440000   0.0000000   0.0000000   0.0000000   0.0000000   0.0000000   0.0000000
 NMagM=    0.0000000   0.0000000   0.0000000   0.4037610   0.0000000   0.0000000   0.0000000   0.0000000   0.0000000   0.0000000
 AtZNuc=   6.0000000   6.0000000   6.0000000   7.0000000   6.0000000   6.0000000   6.0000000   6.0000000   6.0000000   6.0000000

  Atom        41          42          43          44          45          46          47          48          49          50
 IAtWgt=          16          12          12          16          16          12          12          12          12          12
 AtmWgt=  15.9949146  12.0000000  12.0000000  15.9949146  15.9949146  12.0000000  12.0000000  12.0000000  12.0000000  12.0000000
 NucSpn=           0           0           0           0           0           0           0           0           0           0
 AtZEff=  -0.0000000  -0.0000000  -0.0000000  -0.0000000  -0.0000000  -0.0000000  -0.0000000  -0.0000000  -0.0000000  -0.0000000
 NQMom=    0.0000000   0.0000000   0.0000000   0.0000000   0.0000000   0.0000000   0.0000000   0.0000000   0.0000000   0.0000000
 NMagM=    0.0000000   0.0000000   0.0000000   0.0000000   0.0000000   0.0000000   0.0000000   0.0000000   0.0000000   0.0000000
 AtZNuc=   8.0000000   6.0000000   6.0000000   8.0000000   8.0000000   6.0000000   6.0000000   6.0000000   6.0000000   6.0000000

  Atom        51          52          53          54          55          56          57          58          59          60
 IAtWgt=          12          12          12          12          12          12          12          12          12          12
 AtmWgt=  12.0000000  12.0000000  12.0000000  12.0000000  12.0000000  12.0000000  12.0000000  12.0000000  12.0000000  12.0000000
 NucSpn=           0           0           0           0           0           0           0           0           0           0
 AtZEff=  -0.0000000  -0.0000000  -0.0000000  -0.0000000  -0.0000000  -0.0000000  -0.0000000  -0.0000000  -0.0000000  -0.0000000
 NQMom=    0.0000000   0.0000000   0.0000000   0.0000000   0.0000000   0.0000000   0.0000000   0.0000000   0.0000000   0.0000000
 NMagM=    0.0000000   0.0000000   0.0000000   0.0000000   0.0000000   0.0000000   0.0000000   0.0000000   0.0000000   0.0000000
 AtZNuc=   6.0000000   6.0000000   6.0000000   6.0000000   6.0000000   6.0000000   6.0000000   6.0000000   6.0000000   6.0000000

  Atom        61          62          63          64          65          66          67          68          69          70
 IAtWgt=          12          12          12          12          12          12           1           1           1           1
 AtmWgt=  12.0000000  12.0000000  12.0000000  12.0000000  12.0000000  12.0000000   1.0078250   1.0078250   1.0078250   1.0078250
 NucSpn=           0           0           0           0           0           0           1           1           1           1
 AtZEff=  -0.0000000  -0.0000000  -0.0000000  -0.0000000  -0.0000000  -0.0000000  -0.0000000  -0.0000000  -0.0000000  -0.0000000
 NQMom=    0.0000000   0.0000000   0.0000000   0.0000000   0.0000000   0.0000000   0.0000000   0.0000000   0.0000000   0.0000000
 NMagM=    0.0000000   0.0000000   0.0000000   0.0000000   0.0000000   0.0000000   2.7928460   2.7928460   2.7928460   2.7928460
 AtZNuc=   6.0000000   6.0000000   6.0000000   6.0000000   6.0000000   6.0000000   1.0000000   1.0000000   1.0000000   1.0000000

  Atom        71          72          73          74          75          76          77          78          79          80
 IAtWgt=           1           1           1           1           1           1           1           1           1           1
 AtmWgt=   1.0078250   1.0078250   1.0078250   1.0078250   1.0078250   1.0078250   1.0078250   1.0078250   1.0078250   1.0078250
 NucSpn=           1           1           1           1           1           1           1           1           1           1
 AtZEff=  -0.0000000  -0.0000000  -0.0000000  -0.0000000  -0.0000000  -0.0000000  -0.0000000  -0.0000000  -0.0000000  -0.0000000
 NQMom=    0.0000000   0.0000000   0.0000000   0.0000000   0.0000000   0.0000000   0.0000000   0.0000000   0.0000000   0.0000000
 NMagM=    2.7928460   2.7928460   2.7928460   2.7928460   2.7928460   2.7928460   2.7928460   2.7928460   2.7928460   2.7928460
 AtZNuc=   1.0000000   1.0000000   1.0000000   1.0000000   1.0000000   1.0000000   1.0000000   1.0000000   1.0000000   1.0000000

  Atom        81          82          83          84          85          86          87          88          89          90
 IAtWgt=           1           1           1           1           1           1           1           1           1           1
 AtmWgt=   1.0078250   1.0078250   1.0078250   1.0078250   1.0078250   1.0078250   1.0078250   1.0078250   1.0078250   1.0078250
 NucSpn=           1           1           1           1           1           1           1           1           1           1
 AtZEff=  -0.0000000  -0.0000000  -0.0000000  -0.0000000  -0.0000000  -0.0000000  -0.0000000  -0.0000000  -0.0000000  -0.0000000
 NQMom=    0.0000000   0.0000000   0.0000000   0.0000000   0.0000000   0.0000000   0.0000000   0.0000000   0.0000000   0.0000000
 NMagM=    2.7928460   2.7928460   2.7928460   2.7928460   2.7928460   2.7928460   2.7928460   2.7928460   2.7928460   2.7928460
 AtZNuc=   1.0000000   1.0000000   1.0000000   1.0000000   1.0000000   1.0000000   1.0000000   1.0000000   1.0000000   1.0000000

  Atom        91          92          93          94          95          96          97          98          99         100
 IAtWgt=           1           1           1           1           1           1           1           1           1           1
 AtmWgt=   1.0078250   1.0078250   1.0078250   1.0078250   1.0078250   1.0078250   1.0078250   1.0078250   1.0078250   1.0078250
 NucSpn=           1           1           1           1           1           1           1           1           1           1
 AtZEff=  -0.0000000  -0.0000000  -0.0000000  -0.0000000  -0.0000000  -0.0000000  -0.0000000  -0.0000000  -0.0000000  -0.0000000
 NQMom=    0.0000000   0.0000000   0.0000000   0.0000000   0.0000000   0.0000000   0.0000000   0.0000000   0.0000000   0.0000000
 NMagM=    2.7928460   2.7928460   2.7928460   2.7928460   2.7928460   2.7928460   2.7928460   2.7928460   2.7928460   2.7928460
 AtZNuc=   1.0000000   1.0000000   1.0000000   1.0000000   1.0000000   1.0000000   1.0000000   1.0000000   1.0000000   1.0000000

  Atom       101         102         103         104         105         106         107         108         109         110
 IAtWgt=           1           1           1           1           1           1           1           1           1           1
 AtmWgt=   1.0078250   1.0078250   1.0078250   1.0078250   1.0078250   1.0078250   1.0078250   1.0078250   1.0078250   1.0078250
 NucSpn=           1           1           1           1           1           1           1           1           1           1
 AtZEff=  -0.0000000  -0.0000000  -0.0000000  -0.0000000  -0.0000000  -0.0000000  -0.0000000  -0.0000000  -0.0000000  -0.0000000
 NQMom=    0.0000000   0.0000000   0.0000000   0.0000000   0.0000000   0.0000000   0.0000000   0.0000000   0.0000000   0.0000000
 NMagM=    2.7928460   2.7928460   2.7928460   2.7928460   2.7928460   2.7928460   2.7928460   2.7928460   2.7928460   2.7928460
 AtZNuc=   1.0000000   1.0000000   1.0000000   1.0000000   1.0000000   1.0000000   1.0000000   1.0000000   1.0000000   1.0000000

  Atom       111         112         113         114         115         116         117         118         119         120
 IAtWgt=           1           1           1           1           1           1           1           1           1           1
 AtmWgt=   1.0078250   1.0078250   1.0078250   1.0078250   1.0078250   1.0078250   1.0078250   1.0078250   1.0078250   1.0078250
 NucSpn=           1           1           1           1           1           1           1           1           1           1
 AtZEff=  -0.0000000  -0.0000000  -0.0000000  -0.0000000  -0.0000000  -0.0000000  -0.0000000  -0.0000000  -0.0000000  -0.0000000
 NQMom=    0.0000000   0.0000000   0.0000000   0.0000000   0.0000000   0.0000000   0.0000000   0.0000000   0.0000000   0.0000000
 NMagM=    2.7928460   2.7928460   2.7928460   2.7928460   2.7928460   2.7928460   2.7928460   2.7928460   2.7928460   2.7928460
 AtZNuc=   1.0000000   1.0000000   1.0000000   1.0000000   1.0000000   1.0000000   1.0000000   1.0000000   1.0000000   1.0000000

  Atom       121         122         123         124         125         126         127         128         129         130
 IAtWgt=           1           1           1           1           1           1           1           1           1           1
 AtmWgt=   1.0078250   1.0078250   1.0078250   1.0078250   1.0078250   1.0078250   1.0078250   1.0078250   1.0078250   1.0078250
 NucSpn=           1           1           1           1           1           1           1           1           1           1
 AtZEff=  -0.0000000  -0.0000000  -0.0000000  -0.0000000  -0.0000000  -0.0000000  -0.0000000  -0.0000000  -0.0000000  -0.0000000
 NQMom=    0.0000000   0.0000000   0.0000000   0.0000000   0.0000000   0.0000000   0.0000000   0.0000000   0.0000000   0.0000000
 NMagM=    2.7928460   2.7928460   2.7928460   2.7928460   2.7928460   2.7928460   2.7928460   2.7928460   2.7928460   2.7928460
 AtZNuc=   1.0000000   1.0000000   1.0000000   1.0000000   1.0000000   1.0000000   1.0000000   1.0000000   1.0000000   1.0000000

  Atom       131         132         133         134         135         136         137         138         139         140
 IAtWgt=           1           1           1           1           1           1           1           1           1           1
 AtmWgt=   1.0078250   1.0078250   1.0078250   1.0078250   1.0078250   1.0078250   1.0078250   1.0078250   1.0078250   1.0078250
 NucSpn=           1           1           1           1           1           1           1           1           1           1
 AtZEff=  -0.0000000  -0.0000000  -0.0000000  -0.0000000  -0.0000000  -0.0000000  -0.0000000  -0.0000000  -0.0000000  -0.0000000
 NQMom=    0.0000000   0.0000000   0.0000000   0.0000000   0.0000000   0.0000000   0.0000000   0.0000000   0.0000000   0.0000000
 NMagM=    2.7928460   2.7928460   2.7928460   2.7928460   2.7928460   2.7928460   2.7928460   2.7928460   2.7928460   2.7928460
 AtZNuc=   1.0000000   1.0000000   1.0000000   1.0000000   1.0000000   1.0000000   1.0000000   1.0000000   1.0000000   1.0000000
 Leave Link  101 at Fri Apr 29 23:18:48 2022, MaxMem= 10066329600 cpu:               3.3 elap:               0.2
 (Enter /sw/apps/gaussian-16.0/g16/l202.exe)
 Stoichiometry    C55H74MgN4O6
 Framework group  C1[X(C55H74MgN4O6)]
 Deg. of freedom   414
 Full point group                 C1      NOp   1
 Largest Abelian subgroup         C1      NOp   1
 Largest concise Abelian subgroup C1      NOp   1
                         Standard orientation:                         
 ---------------------------------------------------------------------
 Center     Atomic      Atomic             Coordinates (Angstroms)
 Number     Number       Type             X           Y           Z
 ---------------------------------------------------------------------
      1         12           0       -4.831059    1.029187   -0.038096
      2          6           0       -4.257342   -2.366711    0.766665
      3          6           0       -1.444521    1.257161   -0.143606
      4          6           0       -5.253756    4.418753    0.181325
      5          6           0       -8.245483    0.536196    0.158066
      6          7           0       -3.107462   -0.432007    0.328476
      7          6           0       -3.086512   -1.761523    0.468328
      8          6           0       -1.685350   -2.359933    0.059845
      9          6           0       -0.753772   -1.194065    0.216663
     10          6           0       -1.838534   -0.052831    0.126033
     11          6           0        0.002051   -1.139455    1.606371
     12          6           0       -1.666910   -2.845223   -1.456650
     13          6           0       -0.808169   -4.076451   -1.897418
     14          6           0        0.423262   -4.377706   -0.975477
     15          8           0        0.372782   -4.993577    0.098654
     16          8           0        1.565894   -3.797420   -1.474350
     17          7           0       -3.501386    2.600735    0.125710
     18          6           0       -2.173552    2.513707   -0.083243
     19          6           0       -1.572708    3.797480   -0.128898
     20          6           0       -2.636947    4.717707   -0.091213
     21          6           0       -3.903134    3.890442    0.108060
     22          6           0       -0.078651    4.074788   -0.293863
     23          6           0       -2.589513    6.263212   -0.227773
     24          8           0       -3.552369    6.987514   -0.107234
     25          6           0       -1.284241    6.969868   -0.641420
     26          7           0       -6.536601    2.315488    0.361819
     27          6           0       -6.456391    3.653420    0.210961
     28          6           0       -7.826396    4.330150    0.200842
     29          6           0       -8.809434    3.058052    0.035962
     30          6           0       -7.827810    1.907843    0.072003
     31          6           0       -8.234734    5.365347    1.358185
     32          6           0       -9.869105    3.037117   -1.135170
     33          6           0      -11.272368    2.465678   -0.947738
     34          7           0       -6.008869   -0.524918    0.455319
     35          6           0       -7.413724   -0.576252    0.368257
     36          6           0       -7.887485   -1.942542    0.630628
     37          6           0       -6.702478   -2.612458    0.830583
     38          6           0       -5.543756   -1.747886    0.698446
     39          6           0       -9.228822   -2.511133    0.673887
     40          6           0       -6.144520   -3.879500    1.051008
     41          8           0       -6.747910   -4.892468    1.276975
     42          6           0       -4.634790   -3.767423    1.166524
     43          6           0       -4.087992   -4.888115    0.279485
     44          8           0       -4.265417   -5.021135   -0.905695
     45          8           0       -3.293211   -5.725736    0.978819
     46          6           0       -2.605900   -6.857294    0.341537
     47          6           0        2.708678   -3.868206   -0.562934
     48          6           0        3.855373   -3.277701   -1.334307
     49          6           0        5.215626   -3.383686   -1.128118
     50          6           0        5.926997   -4.229400   -0.092837
     51          6           0        6.209249   -2.678870   -2.109519
     52          6           0        7.098499   -1.502293   -1.697077
     53          6           0        7.185278   -0.474041   -2.795422
     54          6           0        7.378873    0.910886   -2.243681
     55          6           0        6.454149    2.064979   -2.694640
     56          6           0        8.881833    1.328241   -2.427533
     57          6           0        9.834717    1.050715   -1.263868
     58          6           0       11.318769    1.056897   -1.567573
     59          6           0       12.093967    2.200731   -0.884624
     60          6           0       13.175942    2.734047   -1.841374
     61          6           0       12.647788    1.802092    0.534829
     62          6           0       11.666352    2.025936    1.708801
     63          6           0       11.295145    0.792266    2.598424
     64          6           0       11.492354    1.007071    4.082056
     65          6           0       12.833145    0.538247    4.544899
     66          6           0       10.298507    0.374980    4.825280
     67          1           0       -0.372077    1.316546   -0.339896
     68          1           0       -5.486200    5.483561    0.110510
     69          1           0       -9.324402    0.374629    0.198170
     70          1           0       -1.368721   -3.230633    0.634641
     71          1           0        0.098078   -1.105013   -0.457419
     72          1           0        1.086316   -1.100466    1.503044
     73          1           0       -0.297140   -1.997343    2.208282
     74          1           0       -0.230016   -0.248733    2.190777
     75          1           0       -1.460540   -1.966739   -2.067400
     76          1           0       -2.714723   -3.146888   -1.484176
     77          1           0       -0.446651   -3.956163   -2.918901
     78          1           0       -1.461380   -4.943382   -1.805271
     79          1           0        0.124171    4.860098   -1.023019
     80          1           0        0.451515    3.156144   -0.544960
     81          1           0        0.307642    4.558201    0.603428
     82          1           0       -1.525412    8.029863   -0.578064
     83          1           0       -1.105125    6.760993   -1.696686
     84          1           0       -0.390632    6.685221   -0.086374
     85          1           0       -7.938003    4.844352   -0.752906
     86          1           0       -9.354175    2.834304    0.953025
     87          1           0       -7.595772    5.246019    2.233216
     88          1           0       -9.265585    5.205564    1.673657
     89          1           0       -8.112772    6.387170    0.997009
     90          1           0       -9.487117    2.375600   -1.912041
     91          1           0       -9.983635    4.000601   -1.632016
     92          1           0      -11.353806    2.169298    0.098063
     93          1           0      -11.451655    1.585287   -1.563391
     94          1           0      -12.094999    3.166590   -1.092331
     95          1           0       -9.762860   -1.606006    0.965828
     96          1           0       -9.297588   -3.295520    1.426904
     97          1           0       -9.492957   -2.826306   -0.335604
     98          1           0       -4.314127   -3.879713    2.202618
     99          1           0       -3.007440   -7.774623    0.771925
    100          1           0       -1.517492   -6.841528    0.381465
    101          1           0       -2.853924   -6.910702   -0.719225
    102          1           0        2.902437   -4.911517   -0.311611
    103          1           0        2.519934   -3.388061    0.397378
    104          1           0        3.459262   -2.643587   -2.127219
    105          1           0        6.390656   -5.098336   -0.561039
    106          1           0        5.267225   -4.489668    0.734298
    107          1           0        6.820467   -3.800585    0.360746
    108          1           0        5.664743   -2.534941   -3.041881
    109          1           0        6.877935   -3.479695   -2.425666
    110          1           0        8.058029   -1.962020   -1.459684
    111          1           0        6.693031   -1.137521   -0.752796
    112          1           0        6.290365   -0.441388   -3.416410
    113          1           0        8.070006   -0.760236   -3.365111
    114          1           0        7.232874    0.902447   -1.163596
    115          1           0        6.753747    2.639303   -3.571803
    116          1           0        6.358023    2.784604   -1.881474
    117          1           0        5.427829    1.781984   -2.929131
    118          1           0        8.962217    2.396816   -2.630648
    119          1           0        9.309261    0.943935   -3.353453
    120          1           0        9.588801    0.064622   -0.871648
    121          1           0        9.558868    1.735382   -0.461218
    122          1           0       11.520435    1.020172   -2.637838
    123          1           0       11.809354    0.161953   -1.185119
    124          1           0       11.437910    3.042267   -0.659866
    125          1           0       12.780402    3.654027   -2.272416
    126          1           0       13.366328    2.097868   -2.705293
    127          1           0       14.108161    2.963950   -1.325844
    128          1           0       13.559964    2.375254    0.696933
    129          1           0       12.834687    0.730365    0.469766
    130          1           0       10.717229    2.389714    1.315606
    131          1           0       12.127990    2.673007    2.454274
    132          1           0       11.805809   -0.046568    2.127160
    133          1           0       10.223242    0.655301    2.450884
    134          1           0       11.429695    2.078707    4.275530
    135          1           0       12.985763   -0.241807    5.291596
    136          1           0       13.369776    1.394472    4.951395
    137          1           0       13.340315    0.268475    3.618662
    138          1           0       10.113505   -0.663274    4.550650
    139          1           0        9.341847    0.836902    4.582325
    140          1           0       10.305357    0.634789    5.883329
 ---------------------------------------------------------------------
 Rotational constants (GHZ):           0.0404340           0.0113144           0.0095348
 Leave Link  202 at Fri Apr 29 23:18:48 2022, MaxMem= 10066329600 cpu:               0.2 elap:               0.0
 (Enter /sw/apps/gaussian-16.0/g16/l301.exe)
 Standard basis: def2SVP (5D, 7F)
 Ernie: Thresh=  0.10000D-02 Tol=  0.10000D-05 Strict=F.
 There are  1364 symmetry adapted cartesian basis functions of A   symmetry.
 There are  1298 symmetry adapted basis functions of A   symmetry.
  1298 basis functions,  2180 primitive gaussians,  1364 cartesian basis functions
   246 alpha electrons      246 beta electrons
       nuclear repulsion energy      9626.3820413671 Hartrees.
 IExCor=20419 DFT=T Ex+Corr=CAM-B3LYP ExCW=0 ScaHFX=  1.000000
 ScaDFX=  1.000000  1.000000  1.000000  0.810000 ScalE2=  1.000000  1.000000
 IRadAn=      5 IRanWt=     -1 IRanGd=            0 ICorTp=0 IEmpDi=  4
 HFx  wShort=  0.000000 wLong=  0.330000 cFull=  0.190000 cShort=  0.000000 cLong=  0.460000
 DFx  wShort=  0.000000 wLong=  0.330000 cFull=  0.190000 cShort=  0.000000 cLong=  0.460000
 NAtoms=  140 NActive=  140 NUniq=  140 SFac= 1.00D+00 NAtFMM=   60 NAOKFM=T Big=T
 Integral buffers will be    131072 words long.
 Raffenetti 1 integral format.
 Two-electron integral symmetry is turned on.
 Leave Link  301 at Fri Apr 29 23:18:48 2022, MaxMem= 10066329600 cpu:               1.4 elap:               0.1
 (Enter /sw/apps/gaussian-16.0/g16/l302.exe)
 NPDir=0 NMtPBC=     1 NCelOv=     1 NCel=       1 NClECP=     1 NCelD=      1
         NCelK=      1 NCelE2=     1 NClLst=     1 CellRange=     0.0.
 One-electron integrals computed using PRISM.
 One-electron integral symmetry used in STVInt
   1 Symmetry operations used in ECPInt.
 ECPInt:  NShTT=  192510 NPrTT=  683786 LenC2=   96267 LenP2D=  209945.
 LDataN:  DoStor=T MaxTD1= 4 Len=   56
 NBasis=  1298 RedAO= T EigKep=  2.93D-04  NBF=  1298
 NBsUse=  1298 1.00D-06 EigRej= -1.00D+00 NBFU=  1298
 Precomputing XC quadrature grid using
 IXCGrd= 4 IRadAn=           5 IRanWt=          -1 IRanGd=           0 AccXCQ= 0.00D+00.
 Generated NRdTot=       0 NPtTot=           0 NUsed=           0 NTot=          32
 NSgBfM=  1179  1179  1179  1179  1179 MxSgAt=   140 MxSgA2=   140.
 Leave Link  302 at Fri Apr 29 23:18:51 2022, MaxMem= 10066329600 cpu:              76.5 elap:               3.2
 (Enter /sw/apps/gaussian-16.0/g16/l303.exe)
 DipDrv:  MaxL=1.
 Leave Link  303 at Fri Apr 29 23:18:51 2022, MaxMem= 10066329600 cpu:               5.9 elap:               0.3
 (Enter /sw/apps/gaussian-16.0/g16/l308.exe)
 Leave Link  308 at Fri Apr 29 23:18:52 2022, MaxMem= 10066329600 cpu:               9.3 elap:               0.5
 (Enter /sw/apps/gaussian-16.0/g16/l401.exe)
 ExpMin= 3.36D-02 ExpMax= 4.95D+03 ExpMxC= 7.45D+02 IAcc=3 IRadAn=         5 AccDes= 0.00D+00
 Harris functional with IExCor=20419 and IRadAn=       5 diagonalized for initial guess.
 HarFok:  IExCor=20419 AccDes= 0.00D+00 IRadAn=         5 IDoV= 1 UseB2=F ITyADJ=14
 ICtDFT=  3500011 ScaDFX=  1.000000  1.000000  1.000000  1.000000
 FoFCou: FMM=F IPFlag=           0 FMFlag=      100000 FMFlg1=        2001
         NFxFlg=           0 DoJE=T BraDBF=F KetDBF=T FulRan=T
         wScrn=  0.000000 ICntrl=       500 IOpCl=  0 I1Cent=   200000004 NGrid=           0
         NMat0=    1 NMatS0=      1 NMatT0=    0 NMatD0=    1 NMtDS0=    0 NMtDT0=    0
 Petite list used in FoFCou.
 Harris En= -2890.84961911078    
 JPrj=0 DoOrth=F DoCkMO=F.
 Leave Link  401 at Fri Apr 29 23:18:57 2022, MaxMem= 10066329600 cpu:             129.4 elap:               5.4
 (Enter /sw/apps/gaussian-16.0/g16/l502.exe)
 Integral symmetry usage will be decided dynamically.
 Closed shell SCF:
 Using DIIS extrapolation, IDIIS=  1040.
 NGot= 10066329600 LenX= 10062561258 LenY= 10060699398
 Requested convergence on RMS density matrix=1.00D-08 within 128 cycles.
 Requested convergence on MAX density matrix=1.00D-06.
 Requested convergence on             energy=1.00D-06.
 No special actions if energy rises.
 Fock matrices will be formed incrementally for  20 cycles.

 Cycle   1  Pass 1  IDiag  1:
 FoFJK:  IHMeth= 1 ICntrl=       0 DoSepK=T KAlg= 0 I1Cent=           0 FoldK=F
 IRaf=         1 NMat=       1 IRICut=       1 DoRegI=T DoRafI=F ISym2E= 0 IDoP0=0 IntGTp=1.
 FoFCou: FMM=T IPFlag=           0 FMFlag=      100000 FMFlg1=        2001
         NFxFlg=           0 DoJE=T BraDBF=F KetDBF=F FulRan=T
         wScrn=  0.000000 ICntrl=       500 IOpCl=  0 I1Cent=           0 NGrid=           0
         NMat0=    1 NMatS0=      1 NMatT0=    0 NMatD0=    1 NMtDS0=    0 NMtDT0=    0
 Symmetry not used in FoFCou.
 FMM levels:  10  Number of levels for PrismC:   9
 E= -3006.50405383581    
 DIIS: error= 2.20D-02 at cycle   1 NSaved=   1.
 NSaved= 1 IEnMin= 1 EnMin= -3006.50405383581     IErMin= 1 ErrMin= 2.20D-02
 ErrMax= 2.20D-02  0.00D+00 EMaxC= 1.00D-01 BMatC= 1.26D+00 BMatP= 1.26D+00
 IDIUse=3 WtCom= 7.80D-01 WtEn= 2.20D-01
 Coeff-Com:  0.100D+01
 Coeff-En:   0.100D+01
 Coeff:      0.100D+01
 Gap=     0.124 Goal=   None    Shift=    0.000
 GapD=    0.124 DampG=1.000 DampE=0.500 DampFc=0.5000 IDamp=-1.
 Damping current iteration by 5.00D-01
 RMSDP=1.53D-03 MaxDP=1.32D-01              OVMax= 2.05D-01

 Cycle   2  Pass 1  IDiag  1:
 RMSU=  7.51D-04    CP:  9.85D-01
 E= -3006.81330534067     Delta-E=       -0.309251504861 Rises=F Damp=T
 DIIS: error= 1.14D-02 at cycle   2 NSaved=   2.
 NSaved= 2 IEnMin= 2 EnMin= -3006.81330534067     IErMin= 2 ErrMin= 1.14D-02
 ErrMax= 1.14D-02  0.00D+00 EMaxC= 1.00D-01 BMatC= 2.28D-01 BMatP= 1.26D+00
 IDIUse=3 WtCom= 8.86D-01 WtEn= 1.14D-01
 Coeff-Com: -0.237D+00 0.124D+01
 Coeff-En:   0.000D+00 0.100D+01
 Coeff:     -0.210D+00 0.121D+01
 Gap=     0.137 Goal=   None    Shift=    0.000
 RMSDP=7.08D-04 MaxDP=8.07D-02 DE=-3.09D-01 OVMax= 1.74D-01

 Cycle   3  Pass 1  IDiag  1:
 RMSU=  6.84D-04    CP:  9.74D-01  1.21D+00
 E= -3007.05286817191     Delta-E=       -0.239562831241 Rises=F Damp=F
 DIIS: error= 1.16D-02 at cycle   3 NSaved=   3.
 NSaved= 3 IEnMin= 3 EnMin= -3007.05286817191     IErMin= 2 ErrMin= 1.14D-02
 ErrMax= 1.16D-02  0.00D+00 EMaxC= 1.00D-01 BMatC= 1.29D-01 BMatP= 2.28D-01
 IDIUse=3 WtCom= 8.84D-01 WtEn= 1.16D-01
 Coeff-Com: -0.264D+00 0.634D+00 0.630D+00
 Coeff-En:   0.000D+00 0.000D+00 0.100D+01
 Coeff:     -0.234D+00 0.560D+00 0.673D+00
 Gap=     0.125 Goal=   None    Shift=    0.000
 RMSDP=4.47D-04 MaxDP=4.15D-02 DE=-2.40D-01 OVMax= 1.21D-01

 Cycle   4  Pass 1  IDiag  1:
 RMSU=  2.57D-04    CP:  9.71D-01  1.49D+00  5.71D-01
 E= -3007.14281742372     Delta-E=       -0.089949251809 Rises=F Damp=F
 DIIS: error= 4.42D-03 at cycle   4 NSaved=   4.
 NSaved= 4 IEnMin= 4 EnMin= -3007.14281742372     IErMin= 4 ErrMin= 4.42D-03
 ErrMax= 4.42D-03  0.00D+00 EMaxC= 1.00D-01 BMatC= 2.74D-02 BMatP= 1.29D-01
 IDIUse=3 WtCom= 9.56D-01 WtEn= 4.42D-02
 Coeff-Com: -0.110D+00 0.225D+00 0.397D+00 0.488D+00
 Coeff-En:   0.000D+00 0.000D+00 0.175D+00 0.825D+00
 Coeff:     -0.106D+00 0.215D+00 0.387D+00 0.503D+00
 Gap=     0.124 Goal=   None    Shift=    0.000
 RMSDP=1.59D-04 MaxDP=1.56D-02 DE=-8.99D-02 OVMax= 3.89D-02

 Cycle   5  Pass 1  IDiag  1:
 RMSU=  5.90D-05    CP:  9.71D-01  1.46D+00  7.14D-01  5.79D-01
 E= -3007.16655886779     Delta-E=       -0.023741444073 Rises=F Damp=F
 DIIS: error= 6.23D-04 at cycle   5 NSaved=   5.
 NSaved= 5 IEnMin= 5 EnMin= -3007.16655886779     IErMin= 5 ErrMin= 6.23D-04
 ErrMax= 6.23D-04  0.00D+00 EMaxC= 1.00D-01 BMatC= 4.37D-04 BMatP= 2.74D-02
 IDIUse=3 WtCom= 9.94D-01 WtEn= 6.23D-03
 Coeff-Com: -0.353D-01 0.689D-01 0.146D+00 0.222D+00 0.598D+00
 Coeff-En:   0.000D+00 0.000D+00 0.000D+00 0.000D+00 0.100D+01
 Coeff:     -0.351D-01 0.685D-01 0.146D+00 0.221D+00 0.600D+00
 Gap=     0.123 Goal=   None    Shift=    0.000
 RMSDP=2.94D-05 MaxDP=4.99D-03 DE=-2.37D-02 OVMax= 1.14D-02

 Cycle   6  Pass 1  IDiag  1:
 RMSU=  2.51D-05    CP:  9.71D-01  1.46D+00  7.13D-01  6.25D-01  8.40D-01
 E= -3007.16689487137     Delta-E=       -0.000336003573 Rises=F Damp=F
 DIIS: error= 3.15D-04 at cycle   6 NSaved=   6.
 NSaved= 6 IEnMin= 6 EnMin= -3007.16689487137     IErMin= 6 ErrMin= 3.15D-04
 ErrMax= 3.15D-04  0.00D+00 EMaxC= 1.00D-01 BMatC= 8.88D-05 BMatP= 4.37D-04
 IDIUse=3 WtCom= 9.97D-01 WtEn= 3.15D-03
 Coeff-Com:  0.223D-02-0.617D-02 0.535D-02 0.242D-01 0.325D+00 0.649D+00
 Coeff-En:   0.000D+00 0.000D+00 0.000D+00 0.000D+00 0.126D+00 0.874D+00
 Coeff:      0.223D-02-0.615D-02 0.534D-02 0.242D-01 0.325D+00 0.650D+00
 Gap=     0.124 Goal=   None    Shift=    0.000
 RMSDP=1.28D-05 MaxDP=1.22D-03 DE=-3.36D-04 OVMax= 5.29D-03

 Cycle   7  Pass 1  IDiag  1:
 RMSU=  8.73D-06    CP:  9.71D-01  1.46D+00  7.18D-01  6.29D-01  9.43D-01
                    CP:  7.55D-01
 E= -3007.16698569007     Delta-E=       -0.000090818705 Rises=F Damp=F
 DIIS: error= 1.04D-04 at cycle   7 NSaved=   7.
 NSaved= 7 IEnMin= 7 EnMin= -3007.16698569007     IErMin= 7 ErrMin= 1.04D-04
 ErrMax= 1.04D-04  0.00D+00 EMaxC= 1.00D-01 BMatC= 9.73D-06 BMatP= 8.88D-05
 IDIUse=3 WtCom= 9.99D-01 WtEn= 1.04D-03
 Coeff-Com:  0.439D-02-0.935D-02-0.103D-01-0.997D-02 0.980D-01 0.317D+00
 Coeff-Com:  0.610D+00
 Coeff-En:   0.000D+00 0.000D+00 0.000D+00 0.000D+00 0.000D+00 0.000D+00
 Coeff-En:   0.100D+01
 Coeff:      0.438D-02-0.934D-02-0.103D-01-0.996D-02 0.979D-01 0.317D+00
 Coeff:      0.611D+00
 Gap=     0.124 Goal=   None    Shift=    0.000
 RMSDP=5.92D-06 MaxDP=1.34D-03 DE=-9.08D-05 OVMax= 3.56D-03

 Cycle   8  Pass 1  IDiag  1:
 RMSU=  4.05D-06    CP:  9.71D-01  1.46D+00  7.19D-01  6.34D-01  9.55D-01
                    CP:  9.07D-01  8.59D-01
 E= -3007.16699849710     Delta-E=       -0.000012807031 Rises=F Damp=F
 DIIS: error= 3.25D-05 at cycle   8 NSaved=   8.
 NSaved= 8 IEnMin= 8 EnMin= -3007.16699849710     IErMin= 8 ErrMin= 3.25D-05
 ErrMax= 3.25D-05  0.00D+00 EMaxC= 1.00D-01 BMatC= 2.63D-06 BMatP= 9.73D-06
 IDIUse=1 WtCom= 1.00D+00 WtEn= 0.00D+00
 Coeff-Com:  0.220D-02-0.431D-02-0.747D-02-0.126D-01-0.205D-01 0.302D-01
 Coeff-Com:  0.367D+00 0.645D+00
 Coeff:      0.220D-02-0.431D-02-0.747D-02-0.126D-01-0.205D-01 0.302D-01
 Coeff:      0.367D+00 0.645D+00
 Gap=     0.124 Goal=   None    Shift=    0.000
 RMSDP=2.85D-06 MaxDP=2.11D-04 DE=-1.28D-05 OVMax= 1.19D-03

 Cycle   9  Pass 1  IDiag  1:
 RMSU=  1.70D-06    CP:  9.71D-01  1.46D+00  7.20D-01  6.35D-01  9.74D-01
                    CP:  9.27D-01  1.07D+00  9.58D-01
 E= -3007.16700302737     Delta-E=       -0.000004530271 Rises=F Damp=F
 DIIS: error= 1.59D-05 at cycle   9 NSaved=   9.
 NSaved= 9 IEnMin= 9 EnMin= -3007.16700302737     IErMin= 9 ErrMin= 1.59D-05
 ErrMax= 1.59D-05  0.00D+00 EMaxC= 1.00D-01 BMatC= 2.99D-07 BMatP= 2.63D-06
 IDIUse=1 WtCom= 1.00D+00 WtEn= 0.00D+00
 Coeff-Com:  0.359D-03-0.589D-03-0.179D-02-0.454D-02-0.244D-01-0.372D-01
 Coeff-Com:  0.103D+00 0.269D+00 0.697D+00
 Coeff:      0.359D-03-0.589D-03-0.179D-02-0.454D-02-0.244D-01-0.372D-01
 Coeff:      0.103D+00 0.269D+00 0.697D+00
 Gap=     0.124 Goal=   None    Shift=    0.000
 RMSDP=1.43D-06 MaxDP=1.43D-04 DE=-4.53D-06 OVMax= 9.80D-04

 Cycle  10  Pass 1  IDiag  1:
 RMSU=  8.22D-07    CP:  9.71D-01  1.46D+00  7.20D-01  6.36D-01  9.78D-01
                    CP:  9.49D-01  1.12D+00  1.16D+00  1.16D+00
 E= -3007.16700400944     Delta-E=       -0.000000982071 Rises=F Damp=F
 DIIS: error= 9.23D-06 at cycle  10 NSaved=  10.
 NSaved=10 IEnMin=10 EnMin= -3007.16700400944     IErMin=10 ErrMin= 9.23D-06
 ErrMax= 9.23D-06  0.00D+00 EMaxC= 1.00D-01 BMatC= 1.30D-07 BMatP= 2.99D-07
 IDIUse=1 WtCom= 1.00D+00 WtEn= 0.00D+00
 Coeff-Com: -0.593D-03 0.120D-02 0.182D-02 0.217D-02-0.330D-02-0.313D-01
 Coeff-Com: -0.613D-01-0.138D+00 0.346D+00 0.884D+00
 Coeff:     -0.593D-03 0.120D-02 0.182D-02 0.217D-02-0.330D-02-0.313D-01
 Coeff:     -0.613D-01-0.138D+00 0.346D+00 0.884D+00
 Gap=     0.124 Goal=   None    Shift=    0.000
 RMSDP=1.31D-06 MaxDP=1.33D-04 DE=-9.82D-07 OVMax= 7.04D-04

 Cycle  11  Pass 1  IDiag  1:
 RMSU=  4.35D-07    CP:  9.71D-01  1.46D+00  7.20D-01  6.36D-01  9.82D-01
                    CP:  9.61D-01  1.19D+00  1.30D+00  1.59D+00  1.44D+00
 E= -3007.16700461227     Delta-E=       -0.000000602824 Rises=F Damp=F
 DIIS: error= 6.13D-06 at cycle  11 NSaved=  11.
 NSaved=11 IEnMin=11 EnMin= -3007.16700461227     IErMin=11 ErrMin= 6.13D-06
 ErrMax= 6.13D-06  0.00D+00 EMaxC= 1.00D-01 BMatC= 3.20D-08 BMatP= 1.30D-07
 IDIUse=1 WtCom= 1.00D+00 WtEn= 0.00D+00
 Coeff-Com: -0.346D-03 0.671D-03 0.127D-02 0.206D-02 0.514D-02-0.628D-02
 Coeff-Com: -0.420D-01-0.150D+00 0.214D-01 0.366D+00 0.802D+00
 Coeff:     -0.346D-03 0.671D-03 0.127D-02 0.206D-02 0.514D-02-0.628D-02
 Coeff:     -0.420D-01-0.150D+00 0.214D-01 0.366D+00 0.802D+00
 Gap=     0.124 Goal=   None    Shift=    0.000
 RMSDP=7.09D-07 MaxDP=5.62D-05 DE=-6.03D-07 OVMax= 4.64D-04

 Cycle  12  Pass 1  IDiag  1:
 RMSU=  2.53D-07    CP:  9.71D-01  1.46D+00  7.20D-01  6.36D-01  9.83D-01
                    CP:  9.65D-01  1.22D+00  1.37D+00  1.81D+00  1.85D+00
                    CP:  1.31D+00
 E= -3007.16700478948     Delta-E=       -0.000000177215 Rises=F Damp=F
 DIIS: error= 2.88D-06 at cycle  12 NSaved=  12.
 NSaved=12 IEnMin=12 EnMin= -3007.16700478948     IErMin=12 ErrMin= 2.88D-06
 ErrMax= 2.88D-06  0.00D+00 EMaxC= 1.00D-01 BMatC= 1.40D-08 BMatP= 3.20D-08
 IDIUse=1 WtCom= 1.00D+00 WtEn= 0.00D+00
 Coeff-Com:  0.450D-04-0.105D-03-0.460D-04 0.183D-03 0.356D-02 0.672D-02
 Coeff-Com:  0.880D-02-0.318D-01-0.837D-01-0.220D+00 0.367D+00 0.949D+00
 Coeff:      0.450D-04-0.105D-03-0.460D-04 0.183D-03 0.356D-02 0.672D-02
 Coeff:      0.880D-02-0.318D-01-0.837D-01-0.220D+00 0.367D+00 0.949D+00
 Gap=     0.124 Goal=   None    Shift=    0.000
 RMSDP=5.64D-07 MaxDP=4.24D-05 DE=-1.77D-07 OVMax= 3.53D-04

 Cycle  13  Pass 1  IDiag  1:
 RMSU=  1.40D-07    CP:  9.71D-01  1.46D+00  7.20D-01  6.36D-01  9.84D-01
                    CP:  9.68D-01  1.24D+00  1.42D+00  1.99D+00  2.17D+00
                    CP:  1.83D+00  1.35D+00
 E= -3007.16700486491     Delta-E=       -0.000000075426 Rises=F Damp=F
 DIIS: error= 1.34D-06 at cycle  13 NSaved=  13.
 NSaved=13 IEnMin=13 EnMin= -3007.16700486491     IErMin=13 ErrMin= 1.34D-06
 ErrMax= 1.34D-06  0.00D+00 EMaxC= 1.00D-01 BMatC= 3.56D-09 BMatP= 1.40D-08
 IDIUse=1 WtCom= 1.00D+00 WtEn= 0.00D+00
 Coeff-Com:  0.143D-03-0.287D-03-0.455D-03-0.602D-03 0.310D-03 0.510D-02
 Coeff-Com:  0.227D-01 0.278D-01-0.320D-01-0.253D+00-0.316D-01 0.515D+00
 Coeff-Com:  0.747D+00
 Coeff:      0.143D-03-0.287D-03-0.455D-03-0.602D-03 0.310D-03 0.510D-02
 Coeff:      0.227D-01 0.278D-01-0.320D-01-0.253D+00-0.316D-01 0.515D+00
 Coeff:      0.747D+00
 Gap=     0.124 Goal=   None    Shift=    0.000
 RMSDP=2.32D-07 MaxDP=1.84D-05 DE=-7.54D-08 OVMax= 1.44D-04

 Cycle  14  Pass 1  IDiag  1:
 RMSU=  7.51D-08    CP:  9.71D-01  1.46D+00  7.20D-01  6.36D-01  9.84D-01
                    CP:  9.68D-01  1.24D+00  1.44D+00  2.05D+00  2.31D+00
                    CP:  2.05D+00  1.76D+00  1.03D+00
 E= -3007.16700487900     Delta-E=       -0.000000014094 Rises=F Damp=F
 DIIS: error= 6.53D-07 at cycle  14 NSaved=  14.
 NSaved=14 IEnMin=14 EnMin= -3007.16700487900     IErMin=14 ErrMin= 6.53D-07
 ErrMax= 6.53D-07  0.00D+00 EMaxC= 1.00D-01 BMatC= 8.81D-10 BMatP= 3.56D-09
 IDIUse=1 WtCom= 1.00D+00 WtEn= 0.00D+00
 Coeff-Com:  0.696D-04-0.137D-03-0.245D-03-0.372D-03-0.535D-03 0.113D-02
 Coeff-Com:  0.111D-01 0.194D-01 0.307D-02-0.102D+00-0.908D-01 0.726D-01
 Coeff-Com:  0.398D+00 0.689D+00
 Coeff:      0.696D-04-0.137D-03-0.245D-03-0.372D-03-0.535D-03 0.113D-02
 Coeff:      0.111D-01 0.194D-01 0.307D-02-0.102D+00-0.908D-01 0.726D-01
 Coeff:      0.398D+00 0.689D+00
 Gap=     0.124 Goal=   None    Shift=    0.000
 RMSDP=1.05D-07 MaxDP=7.77D-06 DE=-1.41D-08 OVMax= 6.68D-05

 Cycle  15  Pass 1  IDiag  1:
 RMSU=  3.44D-08    CP:  9.71D-01  1.46D+00  7.20D-01  6.36D-01  9.84D-01
                    CP:  9.68D-01  1.25D+00  1.44D+00  2.07D+00  2.36D+00
                    CP:  2.17D+00  1.88D+00  1.28D+00  1.03D+00
 E= -3007.16700488199     Delta-E=       -0.000000002987 Rises=F Damp=F
 DIIS: error= 2.94D-07 at cycle  15 NSaved=  15.
 NSaved=15 IEnMin=15 EnMin= -3007.16700488199     IErMin=15 ErrMin= 2.94D-07
 ErrMax= 2.94D-07  0.00D+00 EMaxC= 1.00D-01 BMatC= 1.68D-10 BMatP= 8.81D-10
 IDIUse=1 WtCom= 1.00D+00 WtEn= 0.00D+00
 Coeff-Com: -0.887D-06 0.341D-05-0.679D-05-0.326D-04-0.263D-03-0.760D-03
 Coeff-Com:  0.403D-03 0.961D-03 0.111D-01 0.572D-02-0.264D-01-0.741D-01
 Coeff-Com:  0.414D-03 0.306D+00 0.777D+00
 Coeff:     -0.887D-06 0.341D-05-0.679D-05-0.326D-04-0.263D-03-0.760D-03
 Coeff:      0.403D-03 0.961D-03 0.111D-01 0.572D-02-0.264D-01-0.741D-01
 Coeff:      0.414D-03 0.306D+00 0.777D+00
 Gap=     0.124 Goal=   None    Shift=    0.000
 RMSDP=4.13D-08 MaxDP=3.09D-06 DE=-2.99D-09 OVMax= 2.71D-05

 Cycle  16  Pass 1  IDiag  1:
 RMSU=  1.78D-08    CP:  9.71D-01  1.46D+00  7.20D-01  6.36D-01  9.84D-01
                    CP:  9.68D-01  1.25D+00  1.45D+00  2.08D+00  2.38D+00
                    CP:  2.19D+00  1.95D+00  1.37D+00  1.30D+00  1.25D+00
 E= -3007.16700488271     Delta-E=       -0.000000000722 Rises=F Damp=F
 DIIS: error= 2.00D-07 at cycle  16 NSaved=  16.
 NSaved=16 IEnMin=16 EnMin= -3007.16700488271     IErMin=16 ErrMin= 2.00D-07
 ErrMax= 2.00D-07  0.00D+00 EMaxC= 1.00D-01 BMatC= 4.99D-11 BMatP= 1.68D-10
 IDIUse=1 WtCom= 1.00D+00 WtEn= 0.00D+00
 Coeff-Com: -0.187D-04 0.376D-04 0.614D-04 0.808D-04 0.374D-04-0.706D-03
 Coeff-Com: -0.247D-02-0.546D-02 0.566D-02 0.269D-01 0.136D-01-0.495D-01
 Coeff-Com: -0.115D+00-0.337D-01 0.356D+00 0.805D+00
 Coeff:     -0.187D-04 0.376D-04 0.614D-04 0.808D-04 0.374D-04-0.706D-03
 Coeff:     -0.247D-02-0.546D-02 0.566D-02 0.269D-01 0.136D-01-0.495D-01
 Coeff:     -0.115D+00-0.337D-01 0.356D+00 0.805D+00
 Gap=     0.124 Goal=   None    Shift=    0.000
 RMSDP=2.54D-08 MaxDP=2.12D-06 DE=-7.22D-10 OVMax= 1.52D-05

 Cycle  17  Pass 1  IDiag  1:
 RMSU=  9.83D-09    CP:  9.71D-01  1.46D+00  7.20D-01  6.36D-01  9.84D-01
                    CP:  9.68D-01  1.25D+00  1.45D+00  2.08D+00  2.38D+00
                    CP:  2.21D+00  1.97D+00  1.44D+00  1.44D+00  1.64D+00
                    CP:  1.34D+00
 E= -3007.16700488297     Delta-E=       -0.000000000264 Rises=F Damp=F
 DIIS: error= 1.02D-07 at cycle  17 NSaved=  17.
 NSaved=17 IEnMin=17 EnMin= -3007.16700488297     IErMin=17 ErrMin= 1.02D-07
 ErrMax= 1.02D-07  0.00D+00 EMaxC= 1.00D-01 BMatC= 1.64D-11 BMatP= 4.99D-11
 IDIUse=1 WtCom= 1.00D+00 WtEn= 0.00D+00
 Coeff-Com: -0.785D-05 0.152D-04 0.290D-04 0.440D-04 0.111D-03-0.107D-03
 Coeff-Com: -0.103D-02-0.308D-02 0.186D-03 0.993D-02 0.151D-01 0.165D-02
 Coeff-Com: -0.584D-01-0.111D+00-0.898D-01 0.395D+00 0.841D+00
 Coeff:     -0.785D-05 0.152D-04 0.290D-04 0.440D-04 0.111D-03-0.107D-03
 Coeff:     -0.103D-02-0.308D-02 0.186D-03 0.993D-02 0.151D-01 0.165D-02
 Coeff:     -0.584D-01-0.111D+00-0.898D-01 0.395D+00 0.841D+00
 Gap=     0.124 Goal=   None    Shift=    0.000
 RMSDP=1.70D-08 MaxDP=1.38D-06 DE=-2.64D-10 OVMax= 1.11D-05

 Cycle  18  Pass 1  IDiag  1:
 RMSU=  4.47D-09    CP:  9.71D-01  1.46D+00  7.20D-01  6.36D-01  9.84D-01
                    CP:  9.68D-01  1.25D+00  1.45D+00  2.08D+00  2.38D+00
                    CP:  2.21D+00  1.99D+00  1.47D+00  1.54D+00  1.90D+00
                    CP:  1.82D+00  1.33D+00
 E= -3007.16700488307     Delta-E=       -0.000000000100 Rises=F Damp=F
 DIIS: error= 5.50D-08 at cycle  18 NSaved=  18.
 NSaved=18 IEnMin=18 EnMin= -3007.16700488307     IErMin=18 ErrMin= 5.50D-08
 ErrMax= 5.50D-08  0.00D+00 EMaxC= 1.00D-01 BMatC= 4.14D-12 BMatP= 1.64D-11
 IDIUse=1 WtCom= 1.00D+00 WtEn= 0.00D+00
 Coeff-Com:  0.404D-05-0.838D-05-0.119D-04-0.127D-04 0.501D-04 0.240D-03
 Coeff-Com:  0.613D-03 0.623D-03-0.234D-02-0.791D-02 0.173D-02 0.232D-01
 Coeff-Com:  0.197D-01-0.366D-01-0.194D+00-0.141D+00 0.378D+00 0.957D+00
 Coeff:      0.404D-05-0.838D-05-0.119D-04-0.127D-04 0.501D-04 0.240D-03
 Coeff:      0.613D-03 0.623D-03-0.234D-02-0.791D-02 0.173D-02 0.232D-01
 Coeff:      0.197D-01-0.366D-01-0.194D+00-0.141D+00 0.378D+00 0.957D+00
 Gap=     0.124 Goal=   None    Shift=    0.000
 RMSDP=1.28D-08 MaxDP=1.04D-06 DE=-1.00D-10 OVMax= 7.94D-06

 Cycle  19  Pass 1  IDiag  1:
 RMSU=  2.39D-09    CP:  9.71D-01  1.46D+00  7.20D-01  6.36D-01  9.84D-01
                    CP:  9.68D-01  1.25D+00  1.45D+00  2.08D+00  2.38D+00
                    CP:  2.22D+00  1.99D+00  1.49D+00  1.60D+00  2.10D+00
                    CP:  2.17D+00  1.79D+00  1.27D+00
 E= -3007.16700488311     Delta-E=       -0.000000000033 Rises=F Damp=F
 DIIS: error= 2.09D-08 at cycle  19 NSaved=  19.
 NSaved=19 IEnMin=19 EnMin= -3007.16700488311     IErMin=19 ErrMin= 2.09D-08
 ErrMax= 2.09D-08  0.00D+00 EMaxC= 1.00D-01 BMatC= 9.60D-13 BMatP= 4.14D-12
 IDIUse=1 WtCom= 1.00D+00 WtEn= 0.00D+00
 Coeff-Com:  0.367D-05-0.736D-05-0.121D-04-0.155D-04 0.428D-05 0.138D-03
 Coeff-Com:  0.551D-03 0.949D-03-0.112D-02-0.596D-02-0.210D-02 0.114D-01
 Coeff-Com:  0.213D-01 0.412D-02-0.822D-01-0.146D+00 0.253D-01 0.494D+00
 Coeff-Com:  0.680D+00
 Coeff:      0.367D-05-0.736D-05-0.121D-04-0.155D-04 0.428D-05 0.138D-03
 Coeff:      0.551D-03 0.949D-03-0.112D-02-0.596D-02-0.210D-02 0.114D-01
 Coeff:      0.213D-01 0.412D-02-0.822D-01-0.146D+00 0.253D-01 0.494D+00
 Coeff:      0.680D+00
 Gap=     0.124 Goal=   None    Shift=    0.000
 RMSDP=3.48D-09 MaxDP=2.57D-07 DE=-3.27D-11 OVMax= 2.18D-06

 SCF Done:  E(RCAM-B3LYP) =  -3007.16700488     A.U. after   19 cycles
            NFock= 19  Conv=0.35D-08     -V/T= 2.0106
 KE= 2.975753612919D+03 PE=-2.624446632273D+04 EE= 1.063516366356D+04
 Leave Link  502 at Fri Apr 29 23:25:48 2022, MaxMem= 10066329600 cpu:            9423.9 elap:             410.3
 (Enter /sw/apps/gaussian-16.0/g16/l801.exe)
 DoSCS=F DFT=T ScalE2(SS,OS)=  1.000000  1.000000
 ExpMin= 3.36D-02 ExpMax= 4.95D+03 ExpMxC= 7.45D+02 IAcc=3 IRadAn=         5 AccDes= 0.00D+00
 HarFok:  IExCor=  205 AccDes= 0.00D+00 IRadAn=         5 IDoV=-2 UseB2=F ITyADJ=14
 ICtDFT= 12500011 ScaDFX=  1.000000  1.000000  1.000000  1.000000
 GSVD:  LWork=       -5460 too small for GESVD, short by       25550 words or       25550 for optimal perf.
 Largest valence mixing into a core orbital is  1.94D-04
 Largest core mixing into a valence orbital is  5.14D-05
 Range of M.O.s used for correlation:    71  1298
 NBasis=  1298 NAE=   246 NBE=   246 NFC=    70 NFV=     0
 NROrb=   1228 NOA=   176 NOB=   176 NVA=  1052 NVB=  1052
 Leave Link  801 at Fri Apr 29 23:25:48 2022, MaxMem= 10066329600 cpu:               7.4 elap:               0.3
 (Enter /sw/apps/gaussian-16.0/g16/l914.exe)
 RHF ground state
 Two-electron integrals replicated using symmetry.
 MDV= 10066329600 DFT=T DoStab=F Mixed=T DoRPA=T DoScal=F NonHer=T
 Making orbital integer symmetry assigments:
 Orbital symmetries:
       Occupied  (A) (A) (A) (A) (A) (A) (A) (A) (A) (A) (A) (A)
                 (A) (A) (A) (A) (A) (A) (A) (A) (A) (A) (A) (A)
                 (A) (A) (A) (A) (A) (A) (A) (A) (A) (A) (A) (A)
                 (A) (A) (A) (A) (A) (A) (A) (A) (A) (A) (A) (A)
                 (A) (A) (A) (A) (A) (A) (A) (A) (A) (A) (A) (A)
                 (A) (A) (A) (A) (A) (A) (A) (A) (A) (A) (A) (A)
                 (A) (A) (A) (A) (A) (A) (A) (A) (A) (A) (A) (A)
                 (A) (A) (A) (A) (A) (A) (A) (A) (A) (A) (A) (A)
                 (A) (A) (A) (A) (A) (A) (A) (A) (A) (A) (A) (A)
                 (A) (A) (A) (A) (A) (A) (A) (A) (A) (A) (A) (A)
                 (A) (A) (A) (A) (A) (A) (A) (A) (A) (A) (A) (A)
                 (A) (A) (A) (A) (A) (A) (A) (A) (A) (A) (A) (A)
                 (A) (A) (A) (A) (A) (A) (A) (A) (A) (A) (A) (A)
                 (A) (A) (A) (A) (A) (A) (A) (A) (A) (A) (A) (A)
                 (A) (A) (A) (A) (A) (A) (A) (A) (A) (A) (A) (A)
                 (A) (A) (A) (A) (A) (A) (A) (A) (A) (A) (A) (A)
                 (A) (A) (A) (A) (A) (A) (A) (A) (A) (A) (A) (A)
                 (A) (A) (A) (A) (A) (A) (A) (A) (A) (A) (A) (A)
                 (A) (A) (A) (A) (A) (A) (A) (A) (A) (A) (A) (A)
                 (A) (A) (A) (A) (A) (A) (A) (A) (A) (A) (A) (A)
                 (A) (A) (A) (A) (A) (A)
       Virtual   (A) (A) (A) (A) (A) (A) (A) (A) (A) (A) (A) (A)
                 (A) (A) (A) (A) (A) (A) (A) (A) (A) (A) (A) (A)
                 (A) (A) (A) (A) (A) (A) (A) (A) (A) (A) (A) (A)
                 (A) (A) (A) (A) (A) (A) (A) (A) (A) (A) (A) (A)
                 (A) (A) (A) (A) (A) (A) (A) (A) (A) (A) (A) (A)
                 (A) (A) (A) (A) (A) (A) (A) (A) (A) (A) (A) (A)
                 (A) (A) (A) (A) (A) (A) (A) (A) (A) (A) (A) (A)
                 (A) (A) (A) (A) (A) (A) (A) (A) (A) (A) (A) (A)
                 (A) (A) (A) (A) (A) (A) (A) (A) (A) (A) (A) (A)
                 (A) (A) (A) (A) (A) (A) (A) (A) (A) (A) (A) (A)
                 (A) (A) (A) (A) (A) (A) (A) (A) (A) (A) (A) (A)
                 (A) (A) (A) (A) (A) (A) (A) (A) (A) (A) (A) (A)
                 (A) (A) (A) (A) (A) (A) (A) (A) (A) (A) (A) (A)
                 (A) (A) (A) (A) (A) (A) (A) (A) (A) (A) (A) (A)
                 (A) (A) (A) (A) (A) (A) (A) (A) (A) (A) (A) (A)
                 (A) (A) (A) (A) (A) (A) (A) (A) (A) (A) (A) (A)
                 (A) (A) (A) (A) (A) (A) (A) (A) (A) (A) (A) (A)
                 (A) (A) (A) (A) (A) (A) (A) (A) (A) (A) (A) (A)
                 (A) (A) (A) (A) (A) (A) (A) (A) (A) (A) (A) (A)
                 (A) (A) (A) (A) (A) (A) (A) (A) (A) (A) (A) (A)
                 (A) (A) (A) (A) (A) (A) (A) (A) (A) (A) (A) (A)
                 (A) (A) (A) (A) (A) (A) (A) (A) (A) (A) (A) (A)
                 (A) (A) (A) (A) (A) (A) (A) (A) (A) (A) (A) (A)
                 (A) (A) (A) (A) (A) (A) (A) (A) (A) (A) (A) (A)
                 (A) (A) (A) (A) (A) (A) (A) (A) (A) (A) (A) (A)
                 (A) (A) (A) (A) (A) (A) (A) (A) (A) (A) (A) (A)
                 (A) (A) (A) (A) (A) (A) (A) (A) (A) (A) (A) (A)
                 (A) (A) (A) (A) (A) (A) (A) (A) (A) (A) (A) (A)
                 (A) (A) (A) (A) (A) (A) (A) (A) (A) (A) (A) (A)
                 (A) (A) (A) (A) (A) (A) (A) (A) (A) (A) (A) (A)
                 (A) (A) (A) (A) (A) (A) (A) (A) (A) (A) (A) (A)
                 (A) (A) (A) (A) (A) (A) (A) (A) (A) (A) (A) (A)
                 (A) (A) (A) (A) (A) (A) (A) (A) (A) (A) (A) (A)
                 (A) (A) (A) (A) (A) (A) (A) (A) (A) (A) (A) (A)
                 (A) (A) (A) (A) (A) (A) (A) (A) (A) (A) (A) (A)
                 (A) (A) (A) (A) (A) (A) (A) (A) (A) (A) (A) (A)
                 (A) (A) (A) (A) (A) (A) (A) (A) (A) (A) (A) (A)
                 (A) (A) (A) (A) (A) (A) (A) (A) (A) (A) (A) (A)
                 (A) (A) (A) (A) (A) (A) (A) (A) (A) (A) (A) (A)
                 (A) (A) (A) (A) (A) (A) (A) (A) (A) (A) (A) (A)
                 (A) (A) (A) (A) (A) (A) (A) (A) (A) (A) (A) (A)
                 (A) (A) (A) (A) (A) (A) (A) (A) (A) (A) (A) (A)
                 (A) (A) (A) (A) (A) (A) (A) (A) (A) (A) (A) (A)
                 (A) (A) (A) (A) (A) (A) (A) (A) (A) (A) (A) (A)
                 (A) (A) (A) (A) (A) (A) (A) (A) (A) (A) (A) (A)
                 (A) (A) (A) (A) (A) (A) (A) (A) (A) (A) (A) (A)
                 (A) (A) (A) (A) (A) (A) (A) (A) (A) (A) (A) (A)
                 (A) (A) (A) (A) (A) (A) (A) (A) (A) (A) (A) (A)
                 (A) (A) (A) (A) (A) (A) (A) (A) (A) (A) (A) (A)
                 (A) (A) (A) (A) (A) (A) (A) (A) (A) (A) (A) (A)
                 (A) (A) (A) (A) (A) (A) (A) (A) (A) (A) (A) (A)
                 (A) (A) (A) (A) (A) (A) (A) (A) (A) (A) (A) (A)
                 (A) (A) (A) (A) (A) (A) (A) (A) (A) (A) (A) (A)
                 (A) (A) (A) (A) (A) (A) (A) (A) (A) (A) (A) (A)
                 (A) (A) (A) (A) (A) (A) (A) (A) (A) (A) (A) (A)
                 (A) (A) (A) (A) (A) (A) (A) (A) (A) (A) (A) (A)
                 (A) (A) (A) (A) (A) (A) (A) (A) (A) (A) (A) (A)
                 (A) (A) (A) (A) (A) (A) (A) (A) (A) (A) (A) (A)
                 (A) (A) (A) (A) (A) (A) (A) (A) (A) (A) (A) (A)
                 (A) (A) (A) (A) (A) (A) (A) (A) (A) (A) (A) (A)
                 (A) (A) (A) (A) (A) (A) (A) (A) (A) (A) (A) (A)
                 (A) (A) (A) (A) (A) (A) (A) (A) (A) (A) (A) (A)
                 (A) (A) (A) (A) (A) (A) (A) (A) (A) (A) (A) (A)
                 (A) (A) (A) (A) (A) (A) (A) (A) (A) (A) (A) (A)
                 (A) (A) (A) (A) (A) (A) (A) (A) (A) (A) (A) (A)
                 (A) (A) (A) (A) (A) (A) (A) (A) (A) (A) (A) (A)
                 (A) (A) (A) (A) (A) (A) (A) (A) (A) (A) (A) (A)
                 (A) (A) (A) (A) (A) (A) (A) (A) (A) (A) (A) (A)
                 (A) (A) (A) (A) (A) (A) (A) (A) (A) (A) (A) (A)
                 (A) (A) (A) (A) (A) (A) (A) (A) (A) (A) (A) (A)
                 (A) (A) (A) (A) (A) (A) (A) (A) (A) (A) (A) (A)
                 (A) (A) (A) (A) (A) (A) (A) (A) (A) (A) (A) (A)
                 (A) (A) (A) (A) (A) (A) (A) (A) (A) (A) (A) (A)
                 (A) (A) (A) (A) (A) (A) (A) (A) (A) (A) (A) (A)
                 (A) (A) (A) (A) (A) (A) (A) (A) (A) (A) (A) (A)
                 (A) (A) (A) (A) (A) (A) (A) (A) (A) (A) (A) (A)
                 (A) (A) (A) (A) (A) (A) (A) (A) (A) (A) (A) (A)
                 (A) (A) (A) (A) (A) (A) (A) (A) (A) (A) (A) (A)
                 (A) (A) (A) (A) (A) (A) (A) (A) (A) (A) (A) (A)
                 (A) (A) (A) (A) (A) (A) (A) (A) (A) (A) (A) (A)
                 (A) (A) (A) (A) (A) (A) (A) (A) (A) (A) (A) (A)
                 (A) (A) (A) (A) (A) (A) (A) (A) (A) (A) (A) (A)
                 (A) (A) (A) (A) (A) (A) (A) (A) (A) (A) (A) (A)
                 (A) (A) (A) (A) (A) (A) (A) (A) (A) (A) (A) (A)
                 (A) (A) (A) (A) (A) (A) (A) (A) (A) (A) (A) (A)
                 (A) (A) (A) (A) (A) (A) (A) (A) (A) (A) (A) (A)
                 (A) (A) (A) (A) (A) (A) (A) (A) (A) (A) (A) (A)
                 (A) (A) (A) (A) (A) (A) (A) (A)
    20 initial guesses have been made.
 Convergence on wavefunction:    0.001000000000000
 Davidson Disk Diagonalization:  ConvIn= 1.00D-03 SkipCon=T Conv= 1.00D-03.
 Max sub-space:  2000 roots to seek:    20 dimension of matrix:       370304
 Iteration     1 Dimension    20 NMult     0 NNew     20
 CISAX will form    20 AO SS matrices at one time.
 NMat=    20 NSing=    20 JSym2X= 0.
 FoFJK:  IHMeth= 1 ICntrl=       0 DoSepK=T KAlg= 0 I1Cent=           0 FoldK=F
 IRaf=         1 NMat=      40 IRICut=       1 DoRegI=T DoRafI=F ISym2E= 0 IDoP0=3 IntGTp=3.
 FoFCou: FMM=T IPFlag=           0 FMFlag=      100000 FMFlg1=        2001
         NFxFlg=           0 DoJE=F BraDBF=F KetDBF=F FulRan=T
         wScrn=  0.000000 ICntrl=       500 IOpCl=  0 I1Cent=           0 NGrid=           0
         NMat0=   20 NMatS0=     20 NMatT0=    0 NMatD0=   20 NMtDS0=    0 NMtDT0=    0
 Symmetry not used in FoFCou.
 FMM levels:  10  Number of levels for PrismC:   9
 New state      3 was old state      7
 Excitation Energies [eV] at current iteration:
 Root      1 :     2.159339237874066
 Root      2 :     2.672070129006570
 Root      3 :     3.660630640375500
 Root      4 :     3.874813515699844
 Root      5 :     3.935211116493853
 Root      6 :     4.055400111572411
 Root      7 :     4.245924762516340
 Root      8 :     4.299120880927727
 Root      9 :     4.394928627770328
 Root     10 :     4.498968826448748
 Root     11 :     4.619981753148245
 Root     12 :     4.739248348882521
 Root     13 :     4.978210656074063
 Root     14 :     4.985913365900251
 Root     15 :     5.091424428814827
 Root     16 :     5.262976341360862
 Root     17 :     5.342298897517250
 Root     18 :     5.457419687850069
 Root     19 :     5.762608711672112
 Root     20 :     6.047260734543016
 Iteration     2 Dimension    30 NMult    20 NNew     10
 CISAX will form    10 AO SS matrices at one time.
 NMat=    10 NSing=    10 JSym2X= 0.
 Root      1 not converged, maximum delta is    0.071221554133419
 Root      2 not converged, maximum delta is    0.057444102609613
 New state      3 was old state      5
 Root      3 not converged, maximum delta is    0.249765217890721
 Root      4 not converged, maximum delta is    0.237707477381132
 New state      5 was old state      3
 Root      5 not converged, maximum delta is    0.084126058114782
 Excitation Energies [eV] at current iteration:
 Root      1 :     1.700878578213241   Change is   -0.458460659660825
 Root      2 :     2.278390595641803   Change is   -0.393679533364767
 Root      3 :     3.537717834216652   Change is   -0.397493282277201
 Root      4 :     3.570666628539673   Change is   -0.304146887160171
 Root      5 :     3.594415137487083   Change is   -0.066215502888417
 Iteration     3 Dimension    40 NMult    30 NNew     10
 CISAX will form    10 AO SS matrices at one time.
 NMat=    10 NSing=    10 JSym2X= 0.
 Root      1 not converged, maximum delta is    0.014958160215982
 Root      2 not converged, maximum delta is    0.018766052369768
 Root      3 not converged, maximum delta is    0.098839395286654
 Root      4 not converged, maximum delta is    0.114921095731199
 Root      5 not converged, maximum delta is    0.029165193320623
 Excitation Energies [eV] at current iteration:
 Root      1 :     1.667207564334513   Change is   -0.033671013878727
 Root      2 :     2.255046433778635   Change is   -0.023344161863168
 Root      3 :     3.441479696698034   Change is   -0.096238137518619
 Root      4 :     3.555576188087335   Change is   -0.015090440452338
 Root      5 :     3.590480100841384   Change is   -0.003935036645699
 Iteration     4 Dimension    50 NMult    40 NNew     10
 CISAX will form    10 AO SS matrices at one time.
 NMat=    10 NSing=    10 JSym2X= 0.
 Root      1 not converged, maximum delta is    0.002623984419214
 Root      2 not converged, maximum delta is    0.003657671916884
 Root      3 not converged, maximum delta is    0.025894157449899
 Root      4 not converged, maximum delta is    0.012979913639909
 Root      5 not converged, maximum delta is    0.009222696549434
 Excitation Energies [eV] at current iteration:
 Root      1 :     1.663044810855318   Change is   -0.004162753479196
 Root      2 :     2.251518075817144   Change is   -0.003528357961491
 Root      3 :     3.431242564321948   Change is   -0.010237132376085
 Root      4 :     3.552219239286250   Change is   -0.003356948801084
 Root      5 :     3.589728236986254   Change is   -0.000751863855130
 Iteration     5 Dimension    60 NMult    50 NNew     10
 CISAX will form    10 AO SS matrices at one time.
 NMat=    10 NSing=    10 JSym2X= 0.
 Root      1 not converged, maximum delta is    0.001422808020812
 Root      2 not converged, maximum delta is    0.001074446142114
 Root      3 not converged, maximum delta is    0.012689606331665
 Root      4 not converged, maximum delta is    0.016988759950219
 Root      5 not converged, maximum delta is    0.025885777292882
 Excitation Energies [eV] at current iteration:
 Root      1 :     1.662675437547023   Change is   -0.000369373308295
 Root      2 :     2.251292958952726   Change is   -0.000225116864418
 Root      3 :     3.429541600934628   Change is   -0.001700963387321
 Root      4 :     3.551654868172760   Change is   -0.000564371113491
 Root      5 :     3.589310503254900   Change is   -0.000417733731354
 Iteration     6 Dimension    70 NMult    60 NNew     10
 CISAX will form    10 AO SS matrices at one time.
 NMat=    10 NSing=    10 JSym2X= 0.
 Root      1 has converged.
 Root      2 has converged.
 Root      3 not converged, maximum delta is    0.015842225946071
 Root      4 not converged, maximum delta is    0.276642325322832
 Root      5 not converged, maximum delta is    0.587262001391876
 Excitation Energies [eV] at current iteration:
 Root      1 :     1.662640840680699   Change is   -0.000034596866324
 Root      2 :     2.251268964023811   Change is   -0.000023994928915
 Root      3 :     3.429089111089154   Change is   -0.000452489845473
 Root      4 :     3.548324719850484   Change is   -0.003330148322275
 Root      5 :     3.559256290233166   Change is   -0.030054213021734
 Iteration     7 Dimension    76 NMult    70 NNew      6
 CISAX will form     6 AO SS matrices at one time.
 NMat=     6 NSing=     6 JSym2X= 0.
 Root      1 has converged.
 Root      2 has converged.
 Root      3 not converged, maximum delta is    0.004888644671498
 Root      4 not converged, maximum delta is    0.381622860991604
 Root      5 not converged, maximum delta is    0.290414992590015
 Excitation Energies [eV] at current iteration:
 Root      1 :     1.662640781717463   Change is   -0.000000058963236
 Root      2 :     2.251268847985203   Change is   -0.000000116038608
 Root      3 :     3.428989743440058   Change is   -0.000099367649096
 Root      4 :     3.534938384026890   Change is   -0.013386335823594
 Root      5 :     3.553184753500511   Change is   -0.006071536732655
 Iteration     8 Dimension    82 NMult    76 NNew      6
 CISAX will form     6 AO SS matrices at one time.
 NMat=     6 NSing=     6 JSym2X= 0.
 Root      1 has converged.
 Root      2 has converged.
 Root      3 has converged.
 Root      4 not converged, maximum delta is    0.025451953047340
 Root      5 not converged, maximum delta is    0.020846238814737
 Excitation Energies [eV] at current iteration:
 Root      1 :     1.662640670217363   Change is   -0.000000111500100
 Root      2 :     2.251268574115454   Change is   -0.000000273869749
 Root      3 :     3.428967658046536   Change is   -0.000022085393522
 Root      4 :     3.532083040823029   Change is   -0.002855343203861
 Root      5 :     3.552954372735952   Change is   -0.000230380764558
 Iteration     9 Dimension    86 NMult    82 NNew      4
 CISAX will form     4 AO SS matrices at one time.
 NMat=     4 NSing=     4 JSym2X= 0.
 Root      1 has converged.
 Root      2 has converged.
 Root      3 has converged.
 Root      4 not converged, maximum delta is    0.002346609312864
 Root      5 not converged, maximum delta is    0.001793886653529
 Excitation Energies [eV] at current iteration:
 Root      1 :     1.662640644421072   Change is   -0.000000025796291
 Root      2 :     2.251268516523598   Change is   -0.000000057591856
 Root      3 :     3.428963700645310   Change is   -0.000003957401227
 Root      4 :     3.531740130851337   Change is   -0.000342909971692
 Root      5 :     3.552927362417040   Change is   -0.000027010318912
 Iteration    10 Dimension    90 NMult    86 NNew      4
 CISAX will form     4 AO SS matrices at one time.
 NMat=     4 NSing=     4 JSym2X= 0.
 Root      1 has converged.
 Root      2 has converged.
 Root      3 has converged.
 Root      4 has converged.
 Root      5 has converged.
 Excitation Energies [eV] at current iteration:
 Root      1 :     1.662640625216350   Change is   -0.000000019204721
 Root      2 :     2.251268508409175   Change is   -0.000000008114422
 Root      3 :     3.428962476300757   Change is   -0.000001224344553
 Root      4 :     3.531697819589528   Change is   -0.000042311261809
 Root      5 :     3.552921356381508   Change is   -0.000006006035532
 Convergence achieved on expansion vectors.
 ***********************************************************************
 Excited states from <AA,BB:AA,BB> singles matrix:
 ***********************************************************************
 
 1PDM for each excited state written to RWF  633
 Ground to excited state transition densities written to RWF  633
 Ground to excited state transition electric dipole moments (Au):
       state          X           Y           Z        Dip. S.      Osc.
         1        -2.0370     -2.1199      0.1897      8.6794      0.3535
         2        -0.8238      1.1834     -0.0309      2.0801      0.1147
         3        -0.4515      0.5461     -0.0144      0.5023      0.0422
         4         1.9064     -2.0425      0.0576      7.8093      0.6757
         5        -0.3439      0.4467     -0.0127      0.3180      0.0277
 Ground to excited state transition velocity dipole moments (Au):
       state          X           Y           Z        Dip. S.      Osc.
         1         0.1207      0.1260     -0.0099      0.0306      0.3334
         2         0.0639     -0.0923      0.0024      0.0126      0.1016
         3         0.0546     -0.0674      0.0041      0.0075      0.0399
         4        -0.2415      0.2558     -0.0061      0.1238      0.6361
         5         0.0407     -0.0555      0.0004      0.0047      0.0242
 Ground to excited state transition magnetic dipole moments (Au):
       state          X           Y           Z
         1        -0.0976      0.0052     -1.4910
         2         0.0196      0.0614      0.5527
         3         0.3002      0.6669      0.3581
         4        -0.0050     -0.2019     -2.4636
         5         0.0006     -0.1732     -0.4150
 Ground to excited state transition velocity quadrupole moments (Au):
       state          XX          YY          ZZ          XY          XZ          YZ
         1        -2.1213      0.5143     -0.0187     -0.8681      0.1190      0.0604
         2        -1.0030     -0.3428      0.0233      0.7541     -0.0287     -0.0442
         3        -0.9624      0.0160      0.0061      0.7435     -0.0822     -0.0366
         4         4.0993      0.1982     -0.0455     -3.2014      0.1142      0.1779
         5        -0.4390     -0.5501      0.0021      0.5834     -0.0460      0.1154
 <0|del|b> * <b|rxdel|0> + <0|del|b> * <b|delr+rdel|0>
 Rotatory Strengths (R) in cgs (10**-40 erg-esu-cm/Gauss)
       state          XX          YY          ZZ    R(velocity)    E-M Angle
         1        52.7471      9.8668    -19.7956     14.2728       89.19
         2       -22.1139     -8.7956      4.5344     -8.7917       92.83
         3      -129.2254     36.0011    -59.0478    -50.7574      112.55
         4      -126.1658   -126.0553     59.2424    -64.3262       92.33
         5        19.2862     11.7087     20.2662     17.0870       72.18
 1/2[<0|r|b>*<b|rxdel|0> + (<0|rxdel|b>*<b|r|0>)*]
 Rotatory Strengths (R) in cgs (10**-40 erg-esu-cm/Gauss)
       state          XX          YY          ZZ     R(length)
         1      -140.5467      7.7958    200.0584     22.4358
[...]
 Alpha virt. eigenvalues --    1.31475   1.31720   1.32021   1.32384   1.32910
 Alpha virt. eigenvalues --    1.33875   1.34329   1.34557   1.35310   1.35392
 Alpha virt. eigenvalues --    1.35779   1.36622   1.37229   1.37359   1.37819
 Alpha virt. eigenvalues --    1.37879   1.39386   1.39767   1.39946   1.40189
 Alpha virt. eigenvalues --    1.40775   1.41234   1.41547   1.41805   1.42283
 Alpha virt. eigenvalues --    1.42660   1.42686   1.42877   1.43055   1.43547
 Alpha virt. eigenvalues --    1.44116   1.44183   1.44404   1.44859   1.45234
 Alpha virt. eigenvalues --    1.46196   1.46548   1.47193   1.47608   1.48257
 Alpha virt. eigenvalues --    1.48428   1.48577   1.49296   1.49799   1.49841
 Alpha virt. eigenvalues --    1.50239   1.50667   1.50846   1.51421   1.51529
 Alpha virt. eigenvalues --    1.51965   1.52648   1.53023   1.53506   1.54163
 Alpha virt. eigenvalues --    1.54633   1.54885   1.55376   1.55560   1.56155
 Alpha virt. eigenvalues --    1.56639   1.57037   1.57540   1.57991   1.58287
 Alpha virt. eigenvalues --    1.58603   1.58791   1.59632   1.60102   1.60220
 Alpha virt. eigenvalues --    1.60370   1.60631   1.60872   1.61008   1.61477
 Alpha virt. eigenvalues --    1.61665   1.61719   1.61826   1.62052   1.62238
 Alpha virt. eigenvalues --    1.62386   1.62611   1.62835   1.63046   1.63202
 Alpha virt. eigenvalues --    1.63738   1.64256   1.64331   1.64433   1.64528
 Alpha virt. eigenvalues --    1.64603   1.65342   1.66019   1.66467   1.66499
 Alpha virt. eigenvalues --    1.66982   1.67668   1.67991   1.68026   1.68343
 Alpha virt. eigenvalues --    1.69011   1.69131   1.70244   1.70860   1.71656
 Alpha virt. eigenvalues --    1.71889   1.72268   1.72640   1.73002   1.73319
 Alpha virt. eigenvalues --    1.74483   1.75027   1.75247   1.75841   1.75923
 Alpha virt. eigenvalues --    1.76250   1.76723   1.76799   1.76992   1.77357
 Alpha virt. eigenvalues --    1.77555   1.77729   1.77892   1.78004   1.78596
 Alpha virt. eigenvalues --    1.78705   1.79221   1.79316   1.79568   1.79934
 Alpha virt. eigenvalues --    1.80395   1.80464   1.80660   1.80859   1.81029
 Alpha virt. eigenvalues --    1.81639   1.82169   1.82286   1.82366   1.82465
 Alpha virt. eigenvalues --    1.82559   1.82646   1.82764   1.82899   1.83228
 Alpha virt. eigenvalues --    1.83469   1.83605   1.83836   1.83974   1.84240
 Alpha virt. eigenvalues --    1.84414   1.84669   1.84960   1.84990   1.85149
 Alpha virt. eigenvalues --    1.85650   1.85815   1.86162   1.86307   1.86412
 Alpha virt. eigenvalues --    1.86501   1.86940   1.87096   1.87337   1.87384
 Alpha virt. eigenvalues --    1.87482   1.88211   1.88350   1.88673   1.88721
 Alpha virt. eigenvalues --    1.88811   1.88936   1.89032   1.89556   1.89693
 Alpha virt. eigenvalues --    1.89830   1.89886   1.90127   1.90417   1.90532
 Alpha virt. eigenvalues --    1.90817   1.91118   1.91264   1.91462   1.91605
 Alpha virt. eigenvalues --    1.91763   1.91813   1.92054   1.92365   1.92437
 Alpha virt. eigenvalues --    1.92930   1.93274   1.93420   1.93574   1.93962
 Alpha virt. eigenvalues --    1.94265   1.94453   1.94628   1.94779   1.94883
 Alpha virt. eigenvalues --    1.95290   1.95386   1.95660   1.95850   1.96041
 Alpha virt. eigenvalues --    1.96354   1.96603   1.96739   1.96947   1.97496
 Alpha virt. eigenvalues --    1.97583   1.98105   1.98475   1.98678   1.98845
 Alpha virt. eigenvalues --    1.99184   1.99462   1.99522   1.99939   2.00157
 Alpha virt. eigenvalues --    2.00526   2.00944   2.01523   2.01712   2.02025
 Alpha virt. eigenvalues --    2.02218   2.02323   2.02757   2.03101   2.03138
 Alpha virt. eigenvalues --    2.03550   2.03859   2.03931   2.04119   2.04588
 Alpha virt. eigenvalues --    2.04682   2.05248   2.05281   2.05517   2.05899
 Alpha virt. eigenvalues --    2.06030   2.06582   2.07007   2.07221   2.07396
 Alpha virt. eigenvalues --    2.07882   2.08007   2.08240   2.08459   2.08813
 Alpha virt. eigenvalues --    2.08980   2.09376   2.09730   2.10335   2.10573
 Alpha virt. eigenvalues --    2.10879   2.11004   2.11304   2.11439   2.11511
 Alpha virt. eigenvalues --    2.11918   2.12159   2.12619   2.12783   2.13059
 Alpha virt. eigenvalues --    2.13345   2.13544   2.13866   2.13928   2.14108
 Alpha virt. eigenvalues --    2.14848   2.15125   2.15243   2.15389   2.16134
 Alpha virt. eigenvalues --    2.16549   2.16722   2.16939   2.17308   2.17573
 Alpha virt. eigenvalues --    2.17720   2.18495   2.18851   2.19200   2.19275
 Alpha virt. eigenvalues --    2.19629   2.19721   2.19821   2.19941   2.20796
 Alpha virt. eigenvalues --    2.21010   2.21216   2.21425   2.22336   2.22709
 Alpha virt. eigenvalues --    2.23399   2.24008   2.24081   2.24174   2.24781
 Alpha virt. eigenvalues --    2.25010   2.25174   2.25455   2.26251   2.26465
 Alpha virt. eigenvalues --    2.27250   2.27782   2.28145   2.28931   2.29002
 Alpha virt. eigenvalues --    2.29499   2.29674   2.29955   2.30116   2.30532
 Alpha virt. eigenvalues --    2.31073   2.31759   2.32441   2.32758   2.32878
 Alpha virt. eigenvalues --    2.33229   2.33845   2.34536   2.34598   2.35253
 Alpha virt. eigenvalues --    2.35662   2.35726   2.36155   2.36945   2.37033
 Alpha virt. eigenvalues --    2.37583   2.38389   2.38641   2.39283   2.39339
 Alpha virt. eigenvalues --    2.39819   2.40145   2.40437   2.40675   2.40996
 Alpha virt. eigenvalues --    2.41410   2.41734   2.42113   2.42465   2.43170
 Alpha virt. eigenvalues --    2.43530   2.43845   2.43960   2.44451   2.44605
 Alpha virt. eigenvalues --    2.44702   2.45146   2.45631   2.45757   2.46250
 Alpha virt. eigenvalues --    2.46311   2.46415   2.47323   2.47707   2.47907
 Alpha virt. eigenvalues --    2.48227   2.48660   2.48874   2.49036   2.49345
 Alpha virt. eigenvalues --    2.49606   2.49778   2.50084   2.50392   2.50525
 Alpha virt. eigenvalues --    2.51630   2.52550   2.52661   2.52972   2.53845
 Alpha virt. eigenvalues --    2.54518   2.54719   2.55007   2.55710   2.55965
 Alpha virt. eigenvalues --    2.56144   2.56198   2.56471   2.57703   2.57911
 Alpha virt. eigenvalues --    2.58630   2.58727   2.59278   2.59608   2.60022
 Alpha virt. eigenvalues --    2.60168   2.60609   2.61016   2.61573   2.62118
 Alpha virt. eigenvalues --    2.62542   2.62734   2.62963   2.63478   2.63978
 Alpha virt. eigenvalues --    2.64430   2.64752   2.65481   2.65659   2.66033
 Alpha virt. eigenvalues --    2.66882   2.67128   2.67279   2.67422   2.67727
 Alpha virt. eigenvalues --    2.68054   2.68445   2.69342   2.69782   2.69963
 Alpha virt. eigenvalues --    2.70121   2.70725   2.70923   2.71170   2.71439
 Alpha virt. eigenvalues --    2.72285   2.72727   2.73207   2.73300   2.73326
 Alpha virt. eigenvalues --    2.73848   2.74458   2.74685   2.75106   2.76009
 Alpha virt. eigenvalues --    2.76628   2.77157   2.77638   2.77778   2.77987
 Alpha virt. eigenvalues --    2.78268   2.78451   2.78799   2.79671   2.80117
 Alpha virt. eigenvalues --    2.80482   2.80904   2.81297   2.81655   2.81788
 Alpha virt. eigenvalues --    2.82233   2.82764   2.83057   2.83609   2.83841
 Alpha virt. eigenvalues --    2.84265   2.85284   2.85484   2.85619   2.86054
 Alpha virt. eigenvalues --    2.86163   2.86479   2.87031   2.87187   2.87489
 Alpha virt. eigenvalues --    2.88218   2.88675   2.89086   2.90344   2.90855
 Alpha virt. eigenvalues --    2.91051   2.92348   2.92728   2.92948   2.93583
 Alpha virt. eigenvalues --    2.93845   2.95106   2.96060   2.96288   2.96496
 Alpha virt. eigenvalues --    2.96933   2.97509   2.98017   2.98876   2.98962
 Alpha virt. eigenvalues --    2.99175   2.99595   2.99649   3.00238   3.00664
 Alpha virt. eigenvalues --    3.00879   3.00954   3.01198   3.01660   3.02038
 Alpha virt. eigenvalues --    3.02054   3.02222   3.02575   3.02684   3.03124
 Alpha virt. eigenvalues --    3.03390   3.03428   3.03691   3.04114   3.04396
 Alpha virt. eigenvalues --    3.04410   3.04714   3.05066   3.05197   3.05437
 Alpha virt. eigenvalues --    3.05478   3.05794   3.05982   3.06491   3.06895
 Alpha virt. eigenvalues --    3.06930   3.07606   3.07673   3.08070   3.08656
 Alpha virt. eigenvalues --    3.08686   3.09174   3.09253   3.09413   3.10015
 Alpha virt. eigenvalues --    3.10886   3.11332   3.12409   3.12632   3.12684
 Alpha virt. eigenvalues --    3.12845   3.13195   3.13378   3.13776   3.14011
 Alpha virt. eigenvalues --    3.14801   3.15291   3.16011   3.17305   3.17662
 Alpha virt. eigenvalues --    3.17848   3.18872   3.19207   3.20140   3.21507
 Alpha virt. eigenvalues --    3.22908   3.23517   3.23538   3.24631   3.25254
 Alpha virt. eigenvalues --    3.26493   3.27320   3.28314   3.29392   3.30337
 Alpha virt. eigenvalues --    3.31797   3.32821   3.44214   3.45602   3.47272
 Alpha virt. eigenvalues --    3.48644   3.49553   3.51580   3.55750   3.57113
 Alpha virt. eigenvalues --    3.65780   3.66578   3.68804   3.69291   3.70992
 Alpha virt. eigenvalues --    3.74376   3.79159
          Condensed to atoms (all electrons):
 Mulliken charges:
               1
     1  Mg   0.832047
     2  C    0.001880
     3  C   -0.085438
     4  C   -0.031874
     5  C   -0.097938
     6  N   -0.215656
     7  C   -0.059155
     8  C   -0.044603
     9  C   -0.063911
    10  C    0.029316
    11  C    0.055958
    12  C    0.031811
    13  C    0.137481
    14  C    0.142484
    15  O   -0.255679
    16  O   -0.331564
    17  N   -0.349089
    18  C    0.133350
    19  C   -0.139148
    20  C   -0.059613
    21  C    0.125989
    22  C    0.119865
    23  C    0.013004
    24  O   -0.189681
    25  C    0.024932
    26  N   -0.288651
    27  C    0.000749
    28  C   -0.014915
    29  C   -0.038522
    30  C    0.034778
    31  C    0.064625
    32  C    0.029530
    33  C   -0.005845
    34  N   -0.373116
    35  C    0.138010
    36  C   -0.198437
    37  C    0.076749
    38  C    0.067334
    39  C    0.139839
    40  C   -0.026328
    41  O   -0.161286
    42  C    0.046063
    43  C    0.170764
    44  O   -0.214372
    45  O   -0.318025
    46  C    0.157290
    47  C    0.269359
    48  C   -0.139121
    49  C   -0.125067
    50  C    0.071437
    51  C    0.033555
    52  C    0.021438
    53  C    0.118228
    54  C   -0.116448
    55  C    0.041235
    56  C    0.020924
    57  C    0.023123
    58  C    0.092188
    59  C   -0.171214
    60  C    0.051579
    61  C    0.068992
    62  C    0.010124
    63  C    0.033846
    64  C   -0.133758
    65  C    0.071024
    66  C    0.040285
    67  H   -0.046338
    68  H   -0.003012
    69  H   -0.025511
    70  H    0.012921
    71  H    0.008986
    72  H    0.013480
    73  H    0.022442
    74  H    0.016227
    75  H    0.014825
    76  H    0.037776
    77  H    0.030109
    78  H    0.024676
    79  H    0.015941
    80  H    0.018973
    81  H    0.030174
    82  H    0.027064
    83  H    0.040154
    84  H    0.026607
    85  H    0.010556
    86  H    0.018139
    87  H    0.026480
    88  H    0.019305
    89  H    0.027650
    90  H    0.003894
    91  H    0.010038
    92  H    0.004442
    93  H    0.022620
    94  H    0.017890
    95  H    0.009499
    96  H    0.046947
    97  H    0.044680
    98  H    0.047325
    99  H    0.035340
   100  H    0.055929
   101  H    0.038545
   102  H    0.029419
   103  H    0.037336
   104  H    0.008519
   105  H    0.025050
   106  H    0.016156
   107  H    0.011301
   108  H   -0.006650
   109  H   -0.013112
   110  H    0.007444
   111  H    0.002920
   112  H   -0.004452
   113  H    0.000100
   114  H   -0.005691
   115  H    0.008204
   116  H    0.005538
   117  H   -0.005523
   118  H   -0.022723
   119  H   -0.015964
   120  H   -0.016941
   121  H   -0.002025
   122  H   -0.007758
   123  H   -0.017747
   124  H   -0.004423
   125  H    0.004794
   126  H    0.006356
   127  H    0.001774
   128  H   -0.004660
   129  H   -0.013538
   130  H    0.002389
   131  H   -0.004640
   132  H   -0.008229
   133  H   -0.020534
   134  H   -0.003223
   135  H    0.015645
   136  H   -0.002288
   137  H   -0.002906
   138  H    0.012843
   139  H   -0.010954
   140  H    0.000687
 Sum of Mulliken charges =  -0.00000
 Mulliken charges with hydrogens summed into heavy atoms:
               1
     1  Mg   0.832047
     2  C    0.001880
     3  C   -0.131776
     4  C   -0.034886
     5  C   -0.123449
     6  N   -0.215656
     7  C   -0.059155
     8  C   -0.031681
     9  C   -0.054925
    10  C    0.029316
    11  C    0.108107
    12  C    0.084413
    13  C    0.192267
    14  C    0.142484
    15  O   -0.255679
    16  O   -0.331564
    17  N   -0.349089
    18  C    0.133350
    19  C   -0.139148
    20  C   -0.059613
    21  C    0.125989
    22  C    0.184954
    23  C    0.013004
    24  O   -0.189681
    25  C    0.118757
    26  N   -0.288651
    27  C    0.000749
    28  C   -0.004359
    29  C   -0.020383
    30  C    0.034778
    31  C    0.138061
    32  C    0.043462
    33  C    0.039106
    34  N   -0.373116
    35  C    0.138010
    36  C   -0.198437
    37  C    0.076749
    38  C    0.067334
    39  C    0.240965
    40  C   -0.026328
    41  O   -0.161286
    42  C    0.093388
    43  C    0.170764
    44  O   -0.214372
    45  O   -0.318025
    46  C    0.287104
    47  C    0.336114
    48  C   -0.130602
    49  C   -0.125067
    50  C    0.123943
    51  C    0.013794
    52  C    0.031802
    53  C    0.113876
    54  C   -0.122140
    55  C    0.049454
    56  C   -0.017763
    57  C    0.004157
    58  C    0.066683
    59  C   -0.175637
    60  C    0.064503
    61  C    0.050793
    62  C    0.007874
    63  C    0.005083
    64  C   -0.136981
    65  C    0.081474
    66  C    0.042861
 Electronic spatial extent (au):  <R**2>=         110599.5646
 Charge=             -0.0000 electrons
 Dipole moment (field-independent basis, Debye):
    X=              4.2025    Y=              2.7318    Z=             -2.3308  Tot=              5.5278
 Quadrupole moment (field-independent basis, Debye-Ang):
   XX=           -376.6778   YY=           -435.0496   ZZ=           -406.7426
   XY=            -31.9740   XZ=              8.7001   YZ=              2.1469
 Traceless Quadrupole moment (field-independent basis, Debye-Ang):
   XX=             29.4789   YY=            -28.8929   ZZ=             -0.5859
   XY=            -31.9740   XZ=              8.7001   YZ=              2.1469
 Octapole moment (field-independent basis, Debye-Ang**2):
  XXX=           -361.1300  YYY=           -161.8219  ZZZ=             -5.9462  XYY=            241.6504
  XXY=            238.6508  XXZ=            -56.5080  XZZ=            -12.2401  YZZ=              0.4436
  YYZ=            -42.6394  XYZ=             12.6410
 Hexadecapole moment (field-independent basis, Debye-Ang**3):
 XXXX=        -115311.1641 YYYY=         -28406.8732 ZZZZ=          -6465.3658 XXXY=          -2817.5542
 XXXZ=            401.7509 YYYX=            -50.0898 YYYZ=             91.7125 ZZZX=            -12.1927
 ZZZY=             29.5406 XXYY=         -25347.1250 XXZZ=         -21036.7565 YYZZ=          -5717.9113
 XXYZ=            366.2333 YYXZ=            169.7703 ZZXY=             34.6381
 N-N= 9.626382041367D+03 E-N=-2.624446632193D+04  KE= 2.975753612919D+03
 Leave Link  601 at Fri Apr 29 23:46:33 2022, MaxMem= 10066329600 cpu:              10.1 elap:               0.5
 (Enter /sw/apps/gaussian-16.0/g16/l9999.exe)
 1\1\GINC-BP1-COMPUTE070\SP\RCAM-B3LYP TD-FC\def2SVP\C55H74Mg1N4O6\OF15
 641\29-Apr-2022\0\\#p cam-b3lyp/Def2SVP td=(nstates=5)\\step_51_chromo
 phore_15 TDDFT with cam-b3lyp functional\\0,1\Mg,0,46.523,34.278,28.17
 9\C,0,44.556,32.614,30.602\C,0,46.727,36.755,30.493\C,0,47.533,36.312,
 25.618\C,0,46.139,31.628,25.995\N,0,45.668,34.593,30.279\C,0,45.06,33.
 754,31.124\C,0,45.236,34.219,32.621\C,0,45.515,35.688,32.495\C,0,46.00
 2,35.675,30.995\C,0,44.243,36.615,32.663\C,0,46.477,33.508,33.321\C,0,
 46.452,33.164,34.847\C,0,45.492,34.06,35.703\O,0,44.268,33.895,35.804\
 O,0,46.174,35.111,36.27\N,0,46.944,36.297,28.074\C,0,47.117,37.106,29.
 137\C,0,47.625,38.371,28.746\C,0,47.913,38.258,27.373\C,0,47.421,36.87
 7,26.951\C,0,47.889,39.551,29.681\C,0,48.596,39.29,26.436\O,0,48.737,3
 9.138,25.243\C,0,49.245,40.561,27.017\N,0,46.6,34.06,26.018\C,0,47.222
 ,34.972,25.243\C,0,47.465,34.471,23.82\C,0,47.155,32.893,23.98\C,0,46.
 715,32.814,25.425\C,0,46.754,35.185,22.57\C,0,48.233,31.835,23.518\C,0
 ,47.843,30.527,22.834\N,0,45.496,32.549,28.221\C,0,45.549,31.516,27.26
 5\C,0,44.81,30.341,27.748\C,0,44.391,30.768,28.987\C,0,44.833,32.117,2
 9.291\C,0,44.556,29.04,27.142\C,0,43.734,30.365,30.158\O,0,43.155,29.3
 27,30.327\C,0,43.677,31.519,31.143\C,0,44.106,30.915,32.482\O,0,45.163
 ,30.391,32.731\O,0,43.158,31.09,33.427\C,0,43.351,30.642,34.813\C,0,45
 .306,36.097,36.915\C,0,46.246,37.086,37.545\C,0,46.025,38.014,38.542\C
 ,0,44.76,38.214,39.35\C,0,47.201,38.918,39.039\C,0,47.245,40.432,38.81
 3\C,0,48.64,40.892,38.476\C,0,48.624,42.099,37.58\C,0,49.453,42.111,36
 .275\C,0,48.956,43.374,38.435\C,0,47.777,44.156,39.016\C,0,48.073,45.1
 11,40.154\C,0,47.852,46.595,39.801\C,0,48.944,47.452,40.467\C,0,46.388
 ,47.086,40.111\C,0,45.366,46.863,38.972\C,0,44.09,46.013,39.289\C,0,42
 .784,46.684,38.928\C,0,42.193,47.423,40.084\C,0,41.855,45.627,38.298\H
 ,0,46.939,37.488,31.274\H,0,47.98,36.845,24.776\H,0,46.036,30.781,25.3
 14\H,0,44.389,34.007,33.274\H,0,46.182,36.162,33.215\H,0,44.361,37.367
 ,33.443\H,0,43.371,35.991,32.858\H,0,44.016,37.204,31.774\H,0,47.364,3
 4.079,33.048\H,0,46.387,32.571,32.77\H,0,47.451,33.227,35.279\H,0,46.0
 5,32.154,34.918\H,0,48.853,40.026,29.495\H,0,47.797,39.238,30.721\H,0,
 47.228,40.379,29.425\H,0,49.565,41.12,26.139\H,0,50.156,40.268,27.54\H
 ,0,48.631,41.137,27.709\H,0,48.539,34.487,23.639\H,0,46.215,32.606,23.
 509\H,0,45.899,35.779,22.893\H,0,46.395,34.445,21.855\H,0,47.459,35.85
 9,22.082\H,0,48.723,31.453,24.413\H,0,49.042,32.27,22.931\H,0,46.76,30
 .547,22.712\H,0,48.1,29.651,23.428\H,0,48.224,30.387,21.822\H,0,44.605
 ,29.352,26.098\H,0,43.571,28.665,27.418\H,0,45.383,28.38,27.404\H,0,42
 .672,31.939,31.193\H,0,42.617,29.862,35.015\H,0,43.327,31.419,35.576\H
 ,0,44.32,30.155,34.929\H,0,44.698,35.599,37.671\H,0,44.581,36.54,36.23
 2\H,0,47.211,37.027,37.042\H,0,44.888,37.831,40.363\H,0,43.89,37.799,3
 8.842\H,0,44.497,39.241,39.603\H,0,48.119,38.391,38.782\H,0,47.213,38.
 763,40.118\H,0,46.865,40.853,39.744\H,0,46.492,40.643,38.053\H,0,49.22
 5,40.129,37.963\H,0,49.075,41.165,39.438\H,0,47.612,42.276,37.216\H,0,
 50.48,42.473,36.332\H,0,48.952,42.74,35.539\H,0,49.563,41.147,35.778\H
 ,0,49.53,44.092,37.848\H,0,49.685,43.17,39.219\H,0,47.055,43.428,39.38
 4\H,0,47.272,44.634,38.176\H,0,49.06,44.945,40.585\H,0,47.398,44.953,4
 0.995\H,0,47.94,46.762,38.727\H,0,49.674,47.68,39.69\H,0,49.523,46.931
 ,41.229\H,0,48.552,48.389,40.862\H,0,46.449,48.146,40.355\H,0,46.065,4
 6.481,40.958\H,0,45.857,46.344,38.149\H,0,44.906,47.813,38.701\H,0,44.
 232,45.682,40.317\H,0,44.171,45.138,38.643\H,0,42.988,47.409,38.139\H,
 0,41.217,47.203,40.518\H,0,42.125,48.476,39.814\H,0,42.964,47.351,40.8
 51\H,0,41.737,44.731,38.907\H,0,42.241,45.208,37.369\H,0,40.961,46.084
 ,37.875\\Version=ES64L-G16RevA.03\State=1-A\HF=-3007.1670049\RMSD=3.48
 4e-09\PG=C01 [X(C55H74Mg1N4O6)]\\@


 BUT 'GLORY' DOESN'T MEAN 'A NICE KNOCK DOWN ARGUMENT', ALICE OBJECTED.
 WHEN I USE A WORD, HUMPTY DUMPTY SAID, IN A RATHER SCORNFUL TONE,
 IT MEANS JUST WHAT I CHOOSE IT TO MEAN....
 NEITHER MORE NOR LESS....
 THE QUESTION IS, SAID ALICE,
 WHETHER YOU CAN MAKE WORDS MEAN SO MANY DIFFERENT THINGS...
 THE QUESTION IS, SAID HUMPTY DUMPTY,
 WHICH IS TO BE MASTER....
 THAT IS ALL.....

 ALICE THROUGH THE LOOKING GLASS
 Job cpu time:       0 days 10 hours 54 minutes 38.7 seconds.
 Elapsed time:       0 days  0 hours 27 minutes 45.7 seconds.
 File lengths (MBytes):  RWF=   8929 Int=      0 D2E=      0 Chk=    390 Scr=      1
 Normal termination of Gaussian 16 at Fri Apr 29 23:46:34 2022.
