 Entering Gaussian System, Link 0=g16
 Initial command:
 /sw/apps/gaussian-16.0/g16/l1.exe "/tmp/Gau-33217.inp" -scrdir="/tmp/"
 Entering Link 1 = /sw/apps/gaussian-16.0/g16/l1.exe PID=     33218.
  
 Copyright (c) 1988,1990,1992,1993,1995,1998,2003,2009,2016,
            Gaussian, Inc.  All Rights Reserved.
  
 This is part of the Gaussian(R) 16 program.  It is based on
 the Gaussian(R) 09 system (copyright 2009, Gaussian, Inc.),
 the Gaussian(R) 03 system (copyright 2003, Gaussian, Inc.),
 the Gaussian(R) 98 system (copyright 1998, Gaussian, Inc.),
 the Gaussian(R) 94 system (copyright 1995, Gaussian, Inc.),
 the Gaussian 92(TM) system (copyright 1992, Gaussian, Inc.),
 the Gaussian 90(TM) system (copyright 1990, Gaussian, Inc.),
 the Gaussian 88(TM) system (copyright 1988, Gaussian, Inc.),
 the Gaussian 86(TM) system (copyright 1986, Carnegie Mellon
 University), and the Gaussian 82(TM) system (copyright 1983,
 Carnegie Mellon University). Gaussian is a federally registered
 trademark of Gaussian, Inc.
  
 This software contains proprietary and confidential information,
 including trade secrets, belonging to Gaussian, Inc.
  
 This software is provided under written license and may be
 used, copied, transmitted, or stored only in accord with that
 written license.
  
 The following legend is applicable only to US Government
 contracts under FAR:
  
                    RESTRICTED RIGHTS LEGEND
  
 Use, reproduction and disclosure by the US Government is
 subject to restrictions as set forth in subparagraphs (a)
 and (c) of the Commercial Computer Software - Restricted
 Rights clause in FAR 52.227-19.
  
 Gaussian, Inc.
 340 Quinnipiac St., Bldg. 40, Wallingford CT 06492
  
  
 ---------------------------------------------------------------
 Warning -- This program may not be used in any manner that
 competes with the business of Gaussian, Inc. or will provide
 assistance to any competitor of Gaussian, Inc.  The licensee
 of this program is prohibited from giving any competitor of
 Gaussian, Inc. access to this program.  By using this program,
 the user acknowledges that Gaussian, Inc. is engaged in the
 business of creating and licensing software in the field of
 computational chemistry and represents and warrants to the
 licensee that it is not a competitor of Gaussian, Inc. and that
 it will not use this program in any manner prohibited above.
 ---------------------------------------------------------------
  

 Cite this work as:
 Gaussian 16, Revision A.03,
 M. J. Frisch, G. W. Trucks, H. B. Schlegel, G. E. Scuseria, 
 M. A. Robb, J. R. Cheeseman, G. Scalmani, V. Barone, 
 G. A. Petersson, H. Nakatsuji, X. Li, M. Caricato, A. V. Marenich, 
 J. Bloino, B. G. Janesko, R. Gomperts, B. Mennucci, H. P. Hratchian, 
 J. V. Ortiz, A. F. Izmaylov, J. L. Sonnenberg, D. Williams-Young, 
 F. Ding, F. Lipparini, F. Egidi, J. Goings, B. Peng, A. Petrone, 
 T. Henderson, D. Ranasinghe, V. G. Zakrzewski, J. Gao, N. Rega, 
 G. Zheng, W. Liang, M. Hada, M. Ehara, K. Toyota, R. Fukuda, 
 J. Hasegawa, M. Ishida, T. Nakajima, Y. Honda, O. Kitao, H. Nakai, 
 T. Vreven, K. Throssell, J. A. Montgomery, Jr., J. E. Peralta, 
 F. Ogliaro, M. J. Bearpark, J. J. Heyd, E. N. Brothers, K. N. Kudin, 
 V. N. Staroverov, T. A. Keith, R. Kobayashi, J. Normand, 
 K. Raghavachari, A. P. Rendell, J. C. Burant, S. S. Iyengar, 
 J. Tomasi, M. Cossi, J. M. Millam, M. Klene, C. Adamo, R. Cammi, 
 J. W. Ochterski, R. L. Martin, K. Morokuma, O. Farkas, 
 J. B. Foresman, and D. J. Fox, Gaussian, Inc., Wallingford CT, 2016.
 
 ******************************************
 Gaussian 16:  ES64L-G16RevA.03 25-Dec-2016
                30-Apr-2022 
 ******************************************
 %nproc=24
 Will use up to   24 processors via shared memory.
 %mem=50gb
 --------------------
 #p ZINDO=(nstates=5)
 --------------------
 1/38=1,172=1/1;
 2/12=2,17=6,18=5,40=1/2;
 3/5=2,25=1,41=400000/1,2,3,8;
 4/5=3,35=1/1;
 5/5=2,35=1,38=5/2;
 8/6=1,108=5/1;
 9/41=5,42=1,49=10/14;
 6/7=2,8=2,9=2,10=2/1;
 99/5=1,9=1/99;
 Leave Link    1 at Sat Apr 30 18:24:18 2022, MaxMem=  6710886400 cpu:               0.6 elap:               0.0
 (Enter /sw/apps/gaussian-16.0/g16/l101.exe)
 ----------------------------
 step_851_chromophore_1 ZINDO
 ----------------------------
 Symbolic Z-matrix:
 Charge =  0 Multiplicity = 1
 Mg                   -1.304     18.078    26.611 
 C                    -1.519     15.709    29.338 
 C                    -1.997     20.536    28.823 
 C                    -1.669     20.151    23.919 
 C                    -1.035     15.397    24.442 
 N                    -1.661     17.996    28.849 
 C                    -1.796     17.017    29.73 
 C                    -2.195     17.498    31.123 
 C                    -2.363     19.063    30.974 
 C                    -2.016     19.22     29.442 
 C                    -3.79      19.506    31.276 
 C                    -1.208     17.09     32.328 
 C                    -0.956     18.099    33.506 
 C                    -0.057     17.618    34.671 
 O                     1.014     17.005    34.644 
 O                    -0.692     17.824    35.874 
 N                    -1.658     20.095    26.437 
 C                    -1.936     20.945    27.454 
 C                    -2.126     22.238    26.923 
 C                    -1.903     22.201    25.514 
 C                    -1.806     20.744    25.28 
 C                    -2.442     23.414    27.83 
 C                    -1.721     23.28     24.564 
 O                    -1.664     23.102    23.38 
 C                    -1.828     24.709    25.016 
 N                    -1.523     17.812    24.46 
 C                    -1.449     18.836    23.609 
 C                    -1.596     18.347    22.185 
 C                    -0.934     16.909    22.319 
 C                    -1.172     16.651    23.833 
 C                    -3.051     18.33     21.68 
 C                     0.542     16.737    21.997 
 C                     1.499     17.863    22.504 
 N                    -1.214     15.962    26.834 
 C                    -1.198     14.981    25.809 
 C                    -1.152     13.73     26.433 
 C                    -1.254     14.023    27.819 
 C                    -1.362     15.352    28.05 
 C                    -1.119     12.359    25.758 
 C                    -1.324     13.318    29.053 
 O                    -1.185     12.135    29.366 
 C                    -1.675     14.414    30.056 
 C                    -0.771     14.266    31.256 
 O                     0.37      14.67     31.387 
 O                    -1.323     13.502    32.25 
 C                    -0.674     13.004    33.467 
 C                     0.05      17.296    37.095 
 C                    -0.268     18.277    38.308 
 C                     0.116     18.082    39.602 
 C                     0.852     16.807    40.096 
 C                    -0.237     19.138    40.587 
 C                     0.94      19.975    41.129 
 C                     0.71      21.445    41.199 
 C                     1.755     22.364    40.569 
 C                     1.675     22.338    39. 
 C                     3.189     22.069    40.943 
 C                     3.764     22.942    42.12 
 C                     3.791     22.167    43.453 
 C                     4.502     22.889    44.544 
 C                     6.128     23.       44.296 
 C                     4.011     22.452    45.954 
 C                     2.792     23.355    46.351 
 C                     1.518     22.573    46.62 
 C                     0.268     23.117    45.935 
 C                    -0.454     24.082    46.849 
 C                    -0.639     22.005    45.254 
 H                    -2.19      21.29     29.589 
 H                    -1.973     20.84     23.128 
 H                    -0.883     14.683    23.63 
 H                    -3.182     17.103    31.364 
 H                    -1.685     19.7      31.542 
 H                    -3.687     20.306    32.009 
 H                    -4.409     18.723    31.715 
 H                    -4.33      19.931    30.431 
 H                    -0.234     16.932    31.865 
 H                    -1.646     16.215    32.809 
 H                    -1.793     18.562    34.029 
 H                    -0.424     18.946    33.072 
 H                    -2.13      23.19     28.85 
 H                    -3.462     23.692    27.565 
 H                    -1.746     24.242    27.694 
 H                    -2.645     24.831    25.729 
 H                    -1.796     25.477    24.244 
 H                    -1.026     24.823    25.746 
 H                    -0.984     19.014    21.578 
 H                    -1.373     16.229    21.59 
 H                    -3.319     19.29     21.238 
 H                    -3.815     18.123    22.429 
 H                    -3.203     17.53     20.955 
 H                     0.733     16.521    20.945 
 H                     0.99      15.88     22.499 
 H                     1.635     18.482    21.618 
 H                     2.469     17.386    22.644 
 H                     1.254     18.346    23.45 
 H                    -2.096     12.248    25.286 
 H                    -1.033     11.625    26.558 
 H                    -0.329     12.337    25.008 
 H                    -2.711     14.264    30.361 
 H                    -0.516     11.926    33.501 
 H                    -1.386     13.252    34.254 
 H                     0.271     13.507    33.677 
 H                     1.125     17.413    36.964 
 H                    -0.309     16.269    37.166 
 H                    -0.733     19.238    38.088 
 H                     0.157     16.282    40.751 
 H                     1.83      16.979    40.547 
 H                     1.145     16.131    39.293 
 H                    -0.602     18.597    41.46 
 H                    -1.063     19.769    40.256 
 H                     1.678     19.777    40.352 
 H                     1.307     19.547    42.061 
 H                     0.665     21.749    42.245 
 H                    -0.262     21.698    40.776 
 H                     1.531     23.4      40.824 
 H                     2.512     21.938    38.427 
 H                     1.645     23.394    38.729 
 H                     0.707     21.934    38.706 
 H                     3.862     22.272    40.11 
 H                     3.364     21.031    41.226 
 H                     3.004     23.689    42.349 
 H                     4.747     23.398    42.005 
 H                     4.287     21.227    43.211 
 H                     2.772     21.965    43.785 
 H                     4.335     23.958    44.417 
 H                     6.359     22.378    43.432 
 H                     6.612     22.682    45.219 
 H                     6.361     24.048    44.104 
 H                     4.837     22.49     46.664 
 H                     3.855     21.373    45.934 
 H                     2.569     24.123    45.611 
 H                     3.165     24.096    47.059 
 H                     1.356     22.597    47.698 
 H                     1.548     21.52     46.341 
 H                     0.434     23.703    45.031 
 H                    -1.078     23.368    47.388 
 H                    -0.987     24.817    46.247 
 H                     0.195     24.546    47.592 
 H                    -1.676     22.275    45.455 
 H                    -0.467     21.026    45.703 
 H                    -0.432     22.044    44.185 
 
 ITRead=  0  0  0  0  0  0  0  0  0  0  0  0  0  0  0  0  0  0  0  0
 ITRead=  0  0  0  0  0  0  0  0  0  0  0  0  0  0  0  0  0  0  0  0
 ITRead=  0  0  0  0  0  0  0  0  0  0  0  0  0  0  0  0  0  0  0  0
 ITRead=  0  0  0  0  0  0  0  0  0  0  0  0  0  0  0  0  0  0  0  0
 ITRead=  0  0  0  0  0  0  0  0  0  0  0  0  0  0  0  0  0  0  0  0
 ITRead=  0  0  0  0  0  0  0  0  0  0  0  0  0  0  0  0  0  0  0  0
 ITRead=  0  0  0  0  0  0  0  0  0  0  0  0  0  0  0  0  0  0  0  0
 MicOpt= -1 -1 -1 -1 -1 -1 -1 -1 -1 -1 -1 -1 -1 -1 -1 -1 -1 -1 -1 -1
 MicOpt= -1 -1 -1 -1 -1 -1 -1 -1 -1 -1 -1 -1 -1 -1 -1 -1 -1 -1 -1 -1
 MicOpt= -1 -1 -1 -1 -1 -1 -1 -1 -1 -1 -1 -1 -1 -1 -1 -1 -1 -1 -1 -1
 MicOpt= -1 -1 -1 -1 -1 -1 -1 -1 -1 -1 -1 -1 -1 -1 -1 -1 -1 -1 -1 -1
 MicOpt= -1 -1 -1 -1 -1 -1 -1 -1 -1 -1 -1 -1 -1 -1 -1 -1 -1 -1 -1 -1
 MicOpt= -1 -1 -1 -1 -1 -1 -1 -1 -1 -1 -1 -1 -1 -1 -1 -1 -1 -1 -1 -1
 MicOpt= -1 -1 -1 -1 -1 -1 -1 -1 -1 -1 -1 -1 -1 -1 -1 -1 -1 -1 -1 -1
 NAtoms=    140 NQM=      140 NQMF=       0 NMMI=      0 NMMIF=      0
                NMic=       0 NMicF=      0.
                    Isotopes and Nuclear Properties:
 (Nuclear quadrupole moments (NQMom) in fm**2, nuclear magnetic moments (NMagM)
  in nuclear magnetons)

  Atom         1           2           3           4           5           6           7           8           9          10
 IAtWgt=          24          12          12          12          12          14          12          12          12          12
 AtmWgt=  23.9850450  12.0000000  12.0000000  12.0000000  12.0000000  14.0030740  12.0000000  12.0000000  12.0000000  12.0000000
 NucSpn=           0           0           0           0           0           2           0           0           0           0
 AtZEff=  -0.0000000  -0.0000000  -0.0000000  -0.0000000  -0.0000000  -0.0000000  -0.0000000  -0.0000000  -0.0000000  -0.0000000
 NQMom=    0.0000000   0.0000000   0.0000000   0.0000000   0.0000000   2.0440000   0.0000000   0.0000000   0.0000000   0.0000000
 NMagM=    0.0000000   0.0000000   0.0000000   0.0000000   0.0000000   0.4037610   0.0000000   0.0000000   0.0000000   0.0000000
 AtZNuc=  12.0000000   6.0000000   6.0000000   6.0000000   6.0000000   7.0000000   6.0000000   6.0000000   6.0000000   6.0000000

  Atom        11          12          13          14          15          16          17          18          19          20
 IAtWgt=          12          12          12          12          16          16          14          12          12          12
 AtmWgt=  12.0000000  12.0000000  12.0000000  12.0000000  15.9949146  15.9949146  14.0030740  12.0000000  12.0000000  12.0000000
 NucSpn=           0           0           0           0           0           0           2           0           0           0
 AtZEff=  -0.0000000  -0.0000000  -0.0000000  -0.0000000  -0.0000000  -0.0000000  -0.0000000  -0.0000000  -0.0000000  -0.0000000
 NQMom=    0.0000000   0.0000000   0.0000000   0.0000000   0.0000000   0.0000000   2.0440000   0.0000000   0.0000000   0.0000000
 NMagM=    0.0000000   0.0000000   0.0000000   0.0000000   0.0000000   0.0000000   0.4037610   0.0000000   0.0000000   0.0000000
 AtZNuc=   6.0000000   6.0000000   6.0000000   6.0000000   8.0000000   8.0000000   7.0000000   6.0000000   6.0000000   6.0000000

  Atom        21          22          23          24          25          26          27          28          29          30
 IAtWgt=          12          12          12          16          12          14          12          12          12          12
 AtmWgt=  12.0000000  12.0000000  12.0000000  15.9949146  12.0000000  14.0030740  12.0000000  12.0000000  12.0000000  12.0000000
 NucSpn=           0           0           0           0           0           2           0           0           0           0
 AtZEff=  -0.0000000  -0.0000000  -0.0000000  -0.0000000  -0.0000000  -0.0000000  -0.0000000  -0.0000000  -0.0000000  -0.0000000
 NQMom=    0.0000000   0.0000000   0.0000000   0.0000000   0.0000000   2.0440000   0.0000000   0.0000000   0.0000000   0.0000000
 NMagM=    0.0000000   0.0000000   0.0000000   0.0000000   0.0000000   0.4037610   0.0000000   0.0000000   0.0000000   0.0000000
 AtZNuc=   6.0000000   6.0000000   6.0000000   8.0000000   6.0000000   7.0000000   6.0000000   6.0000000   6.0000000   6.0000000

  Atom        31          32          33          34          35          36          37          38          39          40
 IAtWgt=          12          12          12          14          12          12          12          12          12          12
 AtmWgt=  12.0000000  12.0000000  12.0000000  14.0030740  12.0000000  12.0000000  12.0000000  12.0000000  12.0000000  12.0000000
 NucSpn=           0           0           0           2           0           0           0           0           0           0
 AtZEff=  -0.0000000  -0.0000000  -0.0000000  -0.0000000  -0.0000000  -0.0000000  -0.0000000  -0.0000000  -0.0000000  -0.0000000
 NQMom=    0.0000000   0.0000000   0.0000000   2.0440000   0.0000000   0.0000000   0.0000000   0.0000000   0.0000000   0.0000000
 NMagM=    0.0000000   0.0000000   0.0000000   0.4037610   0.0000000   0.0000000   0.0000000   0.0000000   0.0000000   0.0000000
 AtZNuc=   6.0000000   6.0000000   6.0000000   7.0000000   6.0000000   6.0000000   6.0000000   6.0000000   6.0000000   6.0000000

  Atom        41          42          43          44          45          46          47          48          49          50
 IAtWgt=          16          12          12          16          16          12          12          12          12          12
 AtmWgt=  15.9949146  12.0000000  12.0000000  15.9949146  15.9949146  12.0000000  12.0000000  12.0000000  12.0000000  12.0000000
 NucSpn=           0           0           0           0           0           0           0           0           0           0
 AtZEff=  -0.0000000  -0.0000000  -0.0000000  -0.0000000  -0.0000000  -0.0000000  -0.0000000  -0.0000000  -0.0000000  -0.0000000
 NQMom=    0.0000000   0.0000000   0.0000000   0.0000000   0.0000000   0.0000000   0.0000000   0.0000000   0.0000000   0.0000000
 NMagM=    0.0000000   0.0000000   0.0000000   0.0000000   0.0000000   0.0000000   0.0000000   0.0000000   0.0000000   0.0000000
 AtZNuc=   8.0000000   6.0000000   6.0000000   8.0000000   8.0000000   6.0000000   6.0000000   6.0000000   6.0000000   6.0000000

  Atom        51          52          53          54          55          56          57          58          59          60
 IAtWgt=          12          12          12          12          12          12          12          12          12          12
 AtmWgt=  12.0000000  12.0000000  12.0000000  12.0000000  12.0000000  12.0000000  12.0000000  12.0000000  12.0000000  12.0000000
 NucSpn=           0           0           0           0           0           0           0           0           0           0
 AtZEff=  -0.0000000  -0.0000000  -0.0000000  -0.0000000  -0.0000000  -0.0000000  -0.0000000  -0.0000000  -0.0000000  -0.0000000
 NQMom=    0.0000000   0.0000000   0.0000000   0.0000000   0.0000000   0.0000000   0.0000000   0.0000000   0.0000000   0.0000000
 NMagM=    0.0000000   0.0000000   0.0000000   0.0000000   0.0000000   0.0000000   0.0000000   0.0000000   0.0000000   0.0000000
 AtZNuc=   6.0000000   6.0000000   6.0000000   6.0000000   6.0000000   6.0000000   6.0000000   6.0000000   6.0000000   6.0000000

  Atom        61          62          63          64          65          66          67          68          69          70
 IAtWgt=          12          12          12          12          12          12           1           1           1           1
 AtmWgt=  12.0000000  12.0000000  12.0000000  12.0000000  12.0000000  12.0000000   1.0078250   1.0078250   1.0078250   1.0078250
 NucSpn=           0           0           0           0           0           0           1           1           1           1
 AtZEff=  -0.0000000  -0.0000000  -0.0000000  -0.0000000  -0.0000000  -0.0000000  -0.0000000  -0.0000000  -0.0000000  -0.0000000
 NQMom=    0.0000000   0.0000000   0.0000000   0.0000000   0.0000000   0.0000000   0.0000000   0.0000000   0.0000000   0.0000000
 NMagM=    0.0000000   0.0000000   0.0000000   0.0000000   0.0000000   0.0000000   2.7928460   2.7928460   2.7928460   2.7928460
 AtZNuc=   6.0000000   6.0000000   6.0000000   6.0000000   6.0000000   6.0000000   1.0000000   1.0000000   1.0000000   1.0000000

  Atom        71          72          73          74          75          76          77          78          79          80
 IAtWgt=           1           1           1           1           1           1           1           1           1           1
 AtmWgt=   1.0078250   1.0078250   1.0078250   1.0078250   1.0078250   1.0078250   1.0078250   1.0078250   1.0078250   1.0078250
 NucSpn=           1           1           1           1           1           1           1           1           1           1
 AtZEff=  -0.0000000  -0.0000000  -0.0000000  -0.0000000  -0.0000000  -0.0000000  -0.0000000  -0.0000000  -0.0000000  -0.0000000
 NQMom=    0.0000000   0.0000000   0.0000000   0.0000000   0.0000000   0.0000000   0.0000000   0.0000000   0.0000000   0.0000000
 NMagM=    2.7928460   2.7928460   2.7928460   2.7928460   2.7928460   2.7928460   2.7928460   2.7928460   2.7928460   2.7928460
 AtZNuc=   1.0000000   1.0000000   1.0000000   1.0000000   1.0000000   1.0000000   1.0000000   1.0000000   1.0000000   1.0000000

  Atom        81          82          83          84          85          86          87          88          89          90
 IAtWgt=           1           1           1           1           1           1           1           1           1           1
 AtmWgt=   1.0078250   1.0078250   1.0078250   1.0078250   1.0078250   1.0078250   1.0078250   1.0078250   1.0078250   1.0078250
 NucSpn=           1           1           1           1           1           1           1           1           1           1
 AtZEff=  -0.0000000  -0.0000000  -0.0000000  -0.0000000  -0.0000000  -0.0000000  -0.0000000  -0.0000000  -0.0000000  -0.0000000
 NQMom=    0.0000000   0.0000000   0.0000000   0.0000000   0.0000000   0.0000000   0.0000000   0.0000000   0.0000000   0.0000000
 NMagM=    2.7928460   2.7928460   2.7928460   2.7928460   2.7928460   2.7928460   2.7928460   2.7928460   2.7928460   2.7928460
 AtZNuc=   1.0000000   1.0000000   1.0000000   1.0000000   1.0000000   1.0000000   1.0000000   1.0000000   1.0000000   1.0000000

  Atom        91          92          93          94          95          96          97          98          99         100
 IAtWgt=           1           1           1           1           1           1           1           1           1           1
 AtmWgt=   1.0078250   1.0078250   1.0078250   1.0078250   1.0078250   1.0078250   1.0078250   1.0078250   1.0078250   1.0078250
 NucSpn=           1           1           1           1           1           1           1           1           1           1
 AtZEff=  -0.0000000  -0.0000000  -0.0000000  -0.0000000  -0.0000000  -0.0000000  -0.0000000  -0.0000000  -0.0000000  -0.0000000
 NQMom=    0.0000000   0.0000000   0.0000000   0.0000000   0.0000000   0.0000000   0.0000000   0.0000000   0.0000000   0.0000000
 NMagM=    2.7928460   2.7928460   2.7928460   2.7928460   2.7928460   2.7928460   2.7928460   2.7928460   2.7928460   2.7928460
 AtZNuc=   1.0000000   1.0000000   1.0000000   1.0000000   1.0000000   1.0000000   1.0000000   1.0000000   1.0000000   1.0000000

  Atom       101         102         103         104         105         106         107         108         109         110
 IAtWgt=           1           1           1           1           1           1           1           1           1           1
 AtmWgt=   1.0078250   1.0078250   1.0078250   1.0078250   1.0078250   1.0078250   1.0078250   1.0078250   1.0078250   1.0078250
 NucSpn=           1           1           1           1           1           1           1           1           1           1
 AtZEff=  -0.0000000  -0.0000000  -0.0000000  -0.0000000  -0.0000000  -0.0000000  -0.0000000  -0.0000000  -0.0000000  -0.0000000
 NQMom=    0.0000000   0.0000000   0.0000000   0.0000000   0.0000000   0.0000000   0.0000000   0.0000000   0.0000000   0.0000000
 NMagM=    2.7928460   2.7928460   2.7928460   2.7928460   2.7928460   2.7928460   2.7928460   2.7928460   2.7928460   2.7928460
 AtZNuc=   1.0000000   1.0000000   1.0000000   1.0000000   1.0000000   1.0000000   1.0000000   1.0000000   1.0000000   1.0000000

  Atom       111         112         113         114         115         116         117         118         119         120
 IAtWgt=           1           1           1           1           1           1           1           1           1           1
 AtmWgt=   1.0078250   1.0078250   1.0078250   1.0078250   1.0078250   1.0078250   1.0078250   1.0078250   1.0078250   1.0078250
 NucSpn=           1           1           1           1           1           1           1           1           1           1
 AtZEff=  -0.0000000  -0.0000000  -0.0000000  -0.0000000  -0.0000000  -0.0000000  -0.0000000  -0.0000000  -0.0000000  -0.0000000
 NQMom=    0.0000000   0.0000000   0.0000000   0.0000000   0.0000000   0.0000000   0.0000000   0.0000000   0.0000000   0.0000000
 NMagM=    2.7928460   2.7928460   2.7928460   2.7928460   2.7928460   2.7928460   2.7928460   2.7928460   2.7928460   2.7928460
 AtZNuc=   1.0000000   1.0000000   1.0000000   1.0000000   1.0000000   1.0000000   1.0000000   1.0000000   1.0000000   1.0000000

  Atom       121         122         123         124         125         126         127         128         129         130
 IAtWgt=           1           1           1           1           1           1           1           1           1           1
 AtmWgt=   1.0078250   1.0078250   1.0078250   1.0078250   1.0078250   1.0078250   1.0078250   1.0078250   1.0078250   1.0078250
 NucSpn=           1           1           1           1           1           1           1           1           1           1
 AtZEff=  -0.0000000  -0.0000000  -0.0000000  -0.0000000  -0.0000000  -0.0000000  -0.0000000  -0.0000000  -0.0000000  -0.0000000
 NQMom=    0.0000000   0.0000000   0.0000000   0.0000000   0.0000000   0.0000000   0.0000000   0.0000000   0.0000000   0.0000000
 NMagM=    2.7928460   2.7928460   2.7928460   2.7928460   2.7928460   2.7928460   2.7928460   2.7928460   2.7928460   2.7928460
 AtZNuc=   1.0000000   1.0000000   1.0000000   1.0000000   1.0000000   1.0000000   1.0000000   1.0000000   1.0000000   1.0000000

  Atom       131         132         133         134         135         136         137         138         139         140
 IAtWgt=           1           1           1           1           1           1           1           1           1           1
 AtmWgt=   1.0078250   1.0078250   1.0078250   1.0078250   1.0078250   1.0078250   1.0078250   1.0078250   1.0078250   1.0078250
 NucSpn=           1           1           1           1           1           1           1           1           1           1
 AtZEff=  -0.0000000  -0.0000000  -0.0000000  -0.0000000  -0.0000000  -0.0000000  -0.0000000  -0.0000000  -0.0000000  -0.0000000
 NQMom=    0.0000000   0.0000000   0.0000000   0.0000000   0.0000000   0.0000000   0.0000000   0.0000000   0.0000000   0.0000000
 NMagM=    2.7928460   2.7928460   2.7928460   2.7928460   2.7928460   2.7928460   2.7928460   2.7928460   2.7928460   2.7928460
 AtZNuc=   1.0000000   1.0000000   1.0000000   1.0000000   1.0000000   1.0000000   1.0000000   1.0000000   1.0000000   1.0000000
 Leave Link  101 at Sat Apr 30 18:24:18 2022, MaxMem=  6710886400 cpu:               2.7 elap:               0.1
 (Enter /sw/apps/gaussian-16.0/g16/l202.exe)
 Stoichiometry    C55H74MgN4O6
 Framework group  C1[X(C55H74MgN4O6)]
 Deg. of freedom   414
 Full point group                 C1      NOp   1
 Largest Abelian subgroup         C1      NOp   1
 Largest concise Abelian subgroup C1      NOp   1
                         Standard orientation:                         
 ---------------------------------------------------------------------
 Center     Atomic      Atomic             Coordinates (Angstroms)
 Number     Number       Type             X           Y           Z
 ---------------------------------------------------------------------
      1         12           0        6.072074    0.503030    0.108496
      2          6           0        3.982677   -2.390020   -0.491172
      3          6           0        3.551883    2.437597   -1.040872
      4          6           0        8.291827    3.100918    0.141483
      5          6           0        8.672194   -1.657468    0.840827
      6          7           0        3.999363   -0.050972   -0.626193
      7          6           0        3.380603   -1.194238   -0.877006
      8          6           0        2.010241   -1.018675   -1.526851
      9          6           0        1.855575    0.542747   -1.720995
     10          6           0        3.235257    1.020284   -1.120564
     11          6           0        1.723495    0.915341   -3.193241
     12          6           0        0.762867   -1.675630   -0.748953
     13          6           0       -0.625764   -0.940186   -0.739244
     14          6           0       -1.803898   -1.659761   -0.038530
     15          8           0       -1.838106   -2.255892    1.041746
     16          8           0       -2.892412   -1.712007   -0.878339
     17          7           0        5.879584    2.511953   -0.280164
     18          6           0        4.772366    3.127567   -0.758871
     19          6           0        5.045941    4.504283   -0.899298
     20          6           0        6.369737    4.766469   -0.435400
     21          6           0        6.882697    3.392031   -0.248829
     22          6           0        3.982987    5.461913   -1.407781
     23          6           0        7.025666    6.021973   -0.129897
     24          8           0        8.191763    6.099070    0.136681
     25          6           0        6.310636    7.322824   -0.362949
     26          7           0        8.235303    0.700012    0.273280
     27          6           0        8.826523    1.881048    0.457303
     28          6           0       10.324465    1.705680    0.575298
     29          6           0       10.380042    0.270251    1.253898
     30          6           0        9.019631   -0.302455    0.767387
     31          6           0       11.069832    1.800032   -0.769271
     32          6           0       10.466016    0.166600    2.768397
     33          6           0        9.574253    1.156884    3.583794
     34          7           0        6.284611   -1.612341    0.232269
     35          6           0        7.473050   -2.353587    0.459006
     36          6           0        7.126571   -3.708611    0.440175
     37          6           0        5.750023   -3.716063    0.090445
     38          6           0        5.268676   -2.466046   -0.101981
     39          6           0        8.056985   -4.905277    0.636836
     40          6           0        4.722931   -4.666630   -0.166822
     41          8           0        4.645000   -5.889466   -0.042816
     42          6           0        3.590539   -3.807454   -0.723536
     43          6           0        2.308163   -4.209050   -0.035530
     44          8           0        1.896802   -3.845041    1.050996
     45          8           0        1.609096   -5.165088   -0.723812
     46          6           0        0.428499   -5.911651   -0.277576
     47          6           0       -4.086944   -2.488980   -0.340199
     48          6           0       -5.403071   -1.786826   -0.896657
     49          6           0       -6.674515   -2.252927   -0.735115
     50          6           0       -7.012355   -3.605638   -0.051453
     51          6           0       -7.780869   -1.429016   -1.289300
     52          6           0       -8.684528   -0.729157   -0.253317
     53          6           0       -9.019052    0.693128   -0.542970
     54          6           0       -8.789313    1.722115    0.562422
     55          6           0       -7.260595    2.029792    0.755271
     56          6           0       -9.339676    1.350715    1.919779
     57          6           0      -10.755724    1.952618    2.252352
     58          6           0      -11.880463    0.912387    2.075927
     59          6           0      -13.206118    1.384615    2.562469
     60          6           0      -13.276952    1.541428    4.202010
     61          6           0      -14.384505    0.659715    1.851081
     62          6           0      -14.740846    1.461134    0.551186
     63          6           0      -14.611718    0.643218   -0.722117
     64          6           0      -13.846705    1.323446   -1.853358
     65          6           0      -14.800781    2.074462   -2.755366
     66          6           0      -12.799303    0.383628   -2.590002
     67          1           0        2.691233    3.012425   -1.389260
     68          1           0        8.961971    3.942847   -0.045284
     69          1           0        9.575934   -2.183340    1.155399
     70          1           0        2.034796   -1.453216   -2.526274
     71          1           0        1.056584    1.042956   -1.173746
     72          1           0        0.832868    1.541345   -3.246158
     73          1           0        1.574043    0.058659   -3.851064
     74          1           0        2.542368    1.511357   -3.593819
     75          1           0        1.069881   -1.734365    0.295223
     76          1           0        0.560418   -2.631604   -1.232645
     77          1           0       -1.078437   -0.596485   -1.669526
     78          1           0       -0.479206   -0.021793   -0.170154
     79          1           0        2.993839    5.025792   -1.268833
     80          1           0        4.359205    5.792487   -2.375815
     81          1           0        3.818019    6.298084   -0.728002
     82          1           0        5.743056    7.292926   -1.294453
     83          1           0        6.886839    8.237039   -0.224989
     84          1           0        5.443461    7.277245    0.296619
     85          1           0       10.661025    2.484664    1.259252
     86          1           0       11.300837   -0.238450    0.971192
     87          1           0       11.341222    2.832653   -0.990245
     88          1           0       10.527156    1.440848   -1.643362
     89          1           0       11.961387    1.172460   -0.765970
     90          1           0       11.489516    0.178205    3.145433
     91          1           0       10.083678   -0.778568    3.152625
     92          1           0       10.272994    1.949404    3.848985
     93          1           0        9.368721    0.658492    4.531101
     94          1           0        8.606335    1.428830    3.162596
     95          1           0        8.706163   -4.911043   -0.239616
     96          1           0        7.425967   -5.792517    0.609020
     97          1           0        8.643976   -4.769735    1.544665
     98          1           0        3.510878   -4.016023   -1.790764
     99          1           0        0.593613   -6.972736   -0.090386
    100          1           0       -0.255110   -5.834393   -1.122872
    101          1           0       -0.045079   -5.467141    0.598934
    102          1           0       -4.174608   -2.349678    0.736548
    103          1           0       -3.877110   -3.506717   -0.670098
    104          1           0       -5.310759   -0.799809   -1.349892
    105          1           0       -7.410199   -4.255821   -0.830336
    106          1           0       -7.654277   -3.535809    0.827483
    107          1           0       -6.150038   -4.096656    0.399042
    108          1           0       -8.443131   -2.141952   -1.780388
    109          1           0       -7.449190   -0.739987   -2.067262
    110          1           0       -8.025577   -0.759743    0.614108
    111          1           0       -9.556011   -1.346108   -0.037944
    112          1           0      -10.080892    0.768409   -0.778313
    113          1           0       -8.494071    1.032666   -1.435624
    114          1           0       -9.212007    2.681017    0.261864
    115          1           0       -6.773013    1.758265    1.691986
    116          1           0       -7.215664    3.119323    0.735738
    117          1           0       -6.722891    1.699910   -0.132833
    118          1           0       -8.699351    1.724050    2.718923
    119          1           0       -9.425435    0.275847    2.079352
    120          1           0      -10.998594    2.636024    1.438706
    121          1           0      -10.913540    2.420049    3.223975
    122          1           0      -11.538233    0.043826    2.638654
    123          1           0      -11.978203    0.647229    1.022586
    124          1           0      -13.278310    2.456659    2.382778
    125          1           0      -12.356352    1.116286    4.600118
    126          1           0      -14.183392    1.033574    4.530280
    127          1           0      -13.352620    2.605689    4.428020
    128          1           0      -15.220760    0.544046    2.540370
    129          1           0      -14.111980   -0.390065    1.738524
    130          1           0      -14.150547    2.369231    0.432606
    131          1           0      -15.642593    2.034075    0.770422
    132          1           0      -15.625144    0.438392   -1.068408
    133          1           0      -14.128239   -0.326694   -0.607798
    134          1           0      -13.129023    2.087458   -1.554381
    135          1           0      -15.059984    1.264007   -3.437765
    136          1           0      -14.281761    2.921848   -3.201767
    137          1           0      -15.726790    2.368559   -2.260836
    138          1           0      -12.866657    0.607564   -3.654890
    139          1           0      -13.056555   -0.668793   -2.464076
    140          1           0      -11.815639    0.647992   -2.203159
 ---------------------------------------------------------------------
 Rotational constants (GHZ):           0.0513988           0.0085728           0.0077421
 Leave Link  202 at Sat Apr 30 18:24:18 2022, MaxMem=  6710886400 cpu:               0.2 elap:               0.0
 (Enter /sw/apps/gaussian-16.0/g16/l301.exe)
 Standard basis: VSTO-6G (5D, 7F)
 Ernie: Thresh=  0.10000D-02 Tol=  0.10000D-05 Strict=F.
 There are   338 symmetry adapted cartesian basis functions of A   symmetry.
 There are   338 symmetry adapted basis functions of A   symmetry.
   338 basis functions,  2028 primitive gaussians,   338 cartesian basis functions
   176 alpha electrons      176 beta electrons
       nuclear repulsion energy      4742.8160334370 Hartrees.
 IExCor=    0 DFT=F Ex=HF Corr=None ExCW=0 ScaHFX=  1.000000
 ScaDFX=  1.000000  1.000000  1.000000  1.000000 ScalE2=  1.000000  1.000000
 IRadAn=      5 IRanWt=     -1 IRanGd=            0 ICorTp=0 IEmpDi=  4
 Integral buffers will be    131072 words long.
 Regular integral format.
 Two-electron integral symmetry is turned off.
 Leave Link  301 at Sat Apr 30 18:24:19 2022, MaxMem=  6710886400 cpu:               1.1 elap:               0.1
 (Enter /sw/apps/gaussian-16.0/g16/l302.exe)
 Do NDO integrals.
 NPDir=0 NMtPBC=     1 NCelOv=     1 NCel=       1 NClECP=     1 NCelD=      1
         NCelK=      1 NCelE2=     1 NClLst=     1 CellRange=     0.0.
 One-electron integrals computed using PRISM.
 Generate ZINDO/S integrals.
 NDO Nuclear repulsion=  4257.364517175623 Hartrees.
 NBasis=   338 RedAO= F EigKep=  0.00D+00  NBF=   338
 NBsUse=   338 1.00D-04 EigRej=  0.00D+00 NBFU=   338
 Leave Link  302 at Sat Apr 30 18:24:19 2022, MaxMem=  6710886400 cpu:               7.5 elap:               0.3
 (Enter /sw/apps/gaussian-16.0/g16/l303.exe)
 DipDrv:  MaxL=1.
 DipDrv:  will hold  3 matrices at once.
 Leave Link  303 at Sat Apr 30 18:24:19 2022, MaxMem=  6710886400 cpu:               0.7 elap:               0.0
 (Enter /sw/apps/gaussian-16.0/g16/l308.exe)
 Leave Link  308 at Sat Apr 30 18:24:19 2022, MaxMem=  6710886400 cpu:               4.3 elap:               0.2
 (Enter /sw/apps/gaussian-16.0/g16/l401.exe)
 Simple Huckel Guess.
 JPrj=0 DoOrth=F DoCkMO=F.
 Leave Link  401 at Sat Apr 30 18:24:19 2022, MaxMem=  6710886400 cpu:               2.4 elap:               0.1
 (Enter /sw/apps/gaussian-16.0/g16/l502.exe)
 Two-electron integral symmetry not used.
 Closed shell SCF:
 Using DIIS extrapolation, IDIIS=  1040.
 Overlap will be assumed to be unity.
 NGot=  6710886400 LenX=  6710643598 LenY=  6710528913
 Requested convergence on RMS density matrix=1.00D-08 within 128 cycles.
 Requested convergence on MAX density matrix=1.00D-06.
 Requested convergence on             energy=1.00D-06.
 No special actions if energy rises.
 Fock matrices will be formed incrementally for  20 cycles.

 Cycle   1  Pass 1  IDiag  1:
 E= -472.414077695779    
 DIIS: error= 6.17D-02 at cycle   1 NSaved=   1.
 NSaved= 1 IEnMin= 1 EnMin= -472.414077695779     IErMin= 1 ErrMin= 6.17D-02
 ErrMax= 6.17D-02  0.00D+00 EMaxC= 1.00D-01 BMatC= 8.32D-01 BMatP= 8.32D-01
 IDIUse=3 WtCom= 3.83D-01 WtEn= 6.17D-01
 Coeff-Com:  0.100D+01
 Coeff-En:   0.100D+01
 Coeff:      0.100D+01
 GapD=    2.000 DampG=2.000 DampE=0.500 DampFc=1.0000 IDamp=-1.
 RMSDP=4.02D-03 MaxDP=1.77D-01              OVMax= 0.00D+00

 Cycle   2  Pass 1  IDiag  1:
 RMSU=  4.02D-03    CP:  9.95D-01
 E= -474.247506033487     Delta-E=       -1.833428337708 Rises=F Damp=F
 DIIS: error= 2.09D-02 at cycle   2 NSaved=   2.
 NSaved= 2 IEnMin= 2 EnMin= -474.247506033487     IErMin= 2 ErrMin= 2.09D-02
 ErrMax= 2.09D-02  0.00D+00 EMaxC= 1.00D-01 BMatC= 5.21D-02 BMatP= 8.32D-01
 IDIUse=3 WtCom= 7.91D-01 WtEn= 2.09D-01
 Coeff-Com: -0.725D-01 0.107D+01
 Coeff-En:   0.000D+00 0.100D+01
 Coeff:     -0.574D-01 0.106D+01
 RMSDP=1.12D-03 MaxDP=5.63D-02 DE=-1.83D+00 OVMax= 0.00D+00

 Cycle   3  Pass 1  IDiag  1:
 RMSU=  1.06D-03    CP:  9.93D-01  1.09D+00
 E= -474.349046852728     Delta-E=       -0.101540819241 Rises=F Damp=F
 DIIS: error= 8.88D-03 at cycle   3 NSaved=   3.
 NSaved= 3 IEnMin= 3 EnMin= -474.349046852728     IErMin= 3 ErrMin= 8.88D-03
 ErrMax= 8.88D-03  0.00D+00 EMaxC= 1.00D-01 BMatC= 7.41D-03 BMatP= 5.21D-02
 IDIUse=3 WtCom= 9.11D-01 WtEn= 8.88D-02
 Coeff-Com: -0.677D-01 0.245D+00 0.823D+00
 Coeff-En:   0.000D+00 0.000D+00 0.100D+01
 Coeff:     -0.617D-01 0.223D+00 0.839D+00
 RMSDP=4.01D-04 MaxDP=1.86D-02 DE=-1.02D-01 OVMax= 0.00D+00

 Cycle   4  Pass 1  IDiag  1:
 RMSU=  2.66D-04    CP:  9.93D-01  1.16D+00  8.99D-01
 E= -474.362268414056     Delta-E=       -0.013221561328 Rises=F Damp=F
 DIIS: error= 1.20D-03 at cycle   4 NSaved=   4.
 NSaved= 4 IEnMin= 4 EnMin= -474.362268414056     IErMin= 4 ErrMin= 1.20D-03
 ErrMax= 1.20D-03  0.00D+00 EMaxC= 1.00D-01 BMatC= 3.67D-04 BMatP= 7.41D-03
 IDIUse=3 WtCom= 9.88D-01 WtEn= 1.20D-02
 Coeff-Com: -0.316D-02-0.247D-01 0.724D-01 0.955D+00
 Coeff-En:   0.000D+00 0.000D+00 0.000D+00 0.100D+01
 Coeff:     -0.312D-02-0.244D-01 0.715D-01 0.956D+00
 RMSDP=1.38D-04 MaxDP=7.25D-03 DE=-1.32D-02 OVMax= 0.00D+00

 Cycle   5  Pass 1  IDiag  1:
 RMSU=  9.11D-05    CP:  9.92D-01  1.16D+00  9.96D-01  9.70D-01
 E= -474.363347935911     Delta-E=       -0.001079521856 Rises=F Damp=F
 DIIS: error= 5.77D-04 at cycle   5 NSaved=   5.
 NSaved= 5 IEnMin= 5 EnMin= -474.363347935911     IErMin= 5 ErrMin= 5.77D-04
 ErrMax= 5.77D-04  0.00D+00 EMaxC= 1.00D-01 BMatC= 6.68D-05 BMatP= 3.67D-04
 IDIUse=3 WtCom= 9.94D-01 WtEn= 5.77D-03
 Coeff-Com:  0.644D-02-0.280D-01-0.956D-01 0.195D+00 0.922D+00
 Coeff-En:   0.000D+00 0.000D+00 0.000D+00 0.000D+00 0.100D+01
 Coeff:      0.640D-02-0.279D-01-0.951D-01 0.194D+00 0.922D+00
 RMSDP=6.40D-05 MaxDP=3.16D-03 DE=-1.08D-03 OVMax= 0.00D+00

 Cycle   6  Pass 1  IDiag  1:
 RMSU=  3.36D-05    CP:  9.92D-01  1.17D+00  1.01D+00  1.16D+00  1.00D+00
 E= -474.363559865303     Delta-E=       -0.000211929391 Rises=F Damp=F
 DIIS: error= 2.38D-04 at cycle   6 NSaved=   6.
 NSaved= 6 IEnMin= 6 EnMin= -474.363559865303     IErMin= 6 ErrMin= 2.38D-04
 ErrMax= 2.38D-04  0.00D+00 EMaxC= 1.00D-01 BMatC= 7.07D-06 BMatP= 6.68D-05
 IDIUse=3 WtCom= 9.98D-01 WtEn= 2.38D-03
 Coeff-Com:  0.438D-03 0.327D-02-0.223D-01-0.855D-01 0.913D-01 0.101D+01
 Coeff-En:   0.000D+00 0.000D+00 0.000D+00 0.000D+00 0.000D+00 0.100D+01
 Coeff:      0.437D-03 0.327D-02-0.223D-01-0.853D-01 0.911D-01 0.101D+01
 RMSDP=2.21D-05 MaxDP=1.16D-03 DE=-2.12D-04 OVMax= 0.00D+00

 Cycle   7  Pass 1  IDiag  1:
 RMSU=  1.03D-05    CP:  9.92D-01  1.17D+00  1.02D+00  1.19D+00  1.17D+00
                    CP:  1.17D+00
 E= -474.363586021614     Delta-E=       -0.000026156311 Rises=F Damp=F
 DIIS: error= 5.19D-05 at cycle   7 NSaved=   7.
 NSaved= 7 IEnMin= 7 EnMin= -474.363586021614     IErMin= 7 ErrMin= 5.19D-05
 ErrMax= 5.19D-05  0.00D+00 EMaxC= 1.00D-01 BMatC= 6.24D-07 BMatP= 7.07D-06
 IDIUse=1 WtCom= 1.00D+00 WtEn= 0.00D+00
 Coeff-Com: -0.590D-03 0.325D-02 0.544D-02-0.239D-01-0.796D-01 0.471D-01
 Coeff-Com:  0.105D+01
 Coeff:     -0.590D-03 0.325D-02 0.544D-02-0.239D-01-0.796D-01 0.471D-01
 Coeff:      0.105D+01
 RMSDP=1.21D-05 MaxDP=6.66D-04 DE=-2.62D-05 OVMax= 0.00D+00

 Cycle   8  Pass 1  IDiag  1:
 RMSU=  6.21D-06    CP:  9.92D-01  1.17D+00  1.02D+00  1.20D+00  1.20D+00
                    CP:  1.43D+00  1.29D+00
 E= -474.363590715330     Delta-E=       -0.000004693717 Rises=F Damp=F
 DIIS: error= 3.51D-05 at cycle   8 NSaved=   8.
 NSaved= 8 IEnMin= 8 EnMin= -474.363590715330     IErMin= 8 ErrMin= 3.51D-05
 ErrMax= 3.51D-05  0.00D+00 EMaxC= 1.00D-01 BMatC= 2.38D-07 BMatP= 6.24D-07
 IDIUse=1 WtCom= 1.00D+00 WtEn= 0.00D+00
 Coeff-Com: -0.968D-04-0.323D-03 0.361D-02 0.137D-01-0.203D-01-0.189D+00
 Coeff-Com:  0.283D+00 0.909D+00
 Coeff:     -0.968D-04-0.323D-03 0.361D-02 0.137D-01-0.203D-01-0.189D+00
 Coeff:      0.283D+00 0.909D+00
 RMSDP=5.89D-06 MaxDP=2.66D-04 DE=-4.69D-06 OVMax= 0.00D+00

 Cycle   9  Pass 1  IDiag  1:
 RMSU=  2.13D-06    CP:  9.92D-01  1.17D+00  1.02D+00  1.21D+00  1.21D+00
                    CP:  1.52D+00  1.62D+00  1.43D+00
 E= -474.363592253554     Delta-E=       -0.000001538224 Rises=F Damp=F
 DIIS: error= 1.65D-05 at cycle   9 NSaved=   9.
 NSaved= 9 IEnMin= 9 EnMin= -474.363592253554     IErMin= 9 ErrMin= 1.65D-05
 ErrMax= 1.65D-05  0.00D+00 EMaxC= 1.00D-01 BMatC= 6.25D-08 BMatP= 2.38D-07
 IDIUse=1 WtCom= 1.00D+00 WtEn= 0.00D+00
 Coeff-Com:  0.125D-03-0.651D-03-0.121D-02 0.367D-02 0.205D-01-0.302D-01
 Coeff-Com: -0.117D+00-0.395D+00 0.152D+01
 Coeff:      0.125D-03-0.651D-03-0.121D-02 0.367D-02 0.205D-01-0.302D-01
 Coeff:     -0.117D+00-0.395D+00 0.152D+01
 RMSDP=7.17D-06 MaxDP=3.04D-04 DE=-1.54D-06 OVMax= 0.00D+00

 Cycle  10  Pass 1  IDiag  1:
 RMSU=  1.42D-06    CP:  9.92D-01  1.17D+00  1.02D+00  1.21D+00  1.21D+00
                    CP:  1.62D+00  1.88D+00  2.17D+00  2.34D+00
 E= -474.363593350511     Delta-E=       -0.000001096957 Rises=F Damp=F
 DIIS: error= 1.11D-05 at cycle  10 NSaved=  10.
 NSaved=10 IEnMin=10 EnMin= -474.363593350511     IErMin=10 ErrMin= 1.11D-05
 ErrMax= 1.11D-05  0.00D+00 EMaxC= 1.00D-01 BMatC= 3.78D-08 BMatP= 6.25D-08
 IDIUse=1 WtCom= 1.00D+00 WtEn= 0.00D+00
 Coeff-Com: -0.322D-05 0.188D-03-0.535D-03-0.485D-02 0.799D-02 0.215D-01
 Coeff-Com:  0.464D-01-0.338D+00 0.502D-01 0.122D+01
 Coeff:     -0.322D-05 0.188D-03-0.535D-03-0.485D-02 0.799D-02 0.215D-01
 Coeff:      0.464D-01-0.338D+00 0.502D-01 0.122D+01
 RMSDP=4.87D-06 MaxDP=1.94D-04 DE=-1.10D-06 OVMax= 0.00D+00

 Cycle  11  Pass 1  IDiag  1:
 RMSU=  1.37D-06    CP:  9.92D-01  1.17D+00  1.02D+00  1.22D+00  1.20D+00
                    CP:  1.67D+00  2.02D+00  2.64D+00  3.00D+00  1.98D+00
 E= -474.363593924331     Delta-E=       -0.000000573820 Rises=F Damp=F
 DIIS: error= 9.25D-06 at cycle  11 NSaved=  11.
 NSaved=11 IEnMin=11 EnMin= -474.363593924331     IErMin=11 ErrMin= 9.25D-06
 ErrMax= 9.25D-06  0.00D+00 EMaxC= 1.00D-01 BMatC= 2.21D-08 BMatP= 3.78D-08
 IDIUse=1 WtCom= 1.00D+00 WtEn= 0.00D+00
 Coeff-Com: -0.588D-04 0.267D-03 0.871D-03-0.269D-02-0.425D-02-0.143D-01
 Coeff-Com:  0.111D+00 0.121D+00-0.665D+00-0.739D+00 0.219D+01
 Coeff:     -0.588D-04 0.267D-03 0.871D-03-0.269D-02-0.425D-02-0.143D-01
 Coeff:      0.111D+00 0.121D+00-0.665D+00-0.739D+00 0.219D+01
 RMSDP=8.87D-06 MaxDP=3.54D-04 DE=-5.74D-07 OVMax= 0.00D+00

 Cycle  12  Pass 1  IDiag  1:
 RMSU=  4.19D-06    CP:  9.92D-01  1.17D+00  1.02D+00  1.22D+00  1.19D+00
                    CP:  1.76D+00  2.22D+00  3.00D+00  3.00D+00  3.00D+00
                    CP:  3.00D+00
 E= -474.363594627997     Delta-E=       -0.000000703666 Rises=F Damp=F
 DIIS: error= 6.96D-06 at cycle  12 NSaved=  12.
 NSaved=12 IEnMin=12 EnMin= -474.363594627997     IErMin=12 ErrMin= 6.96D-06
 ErrMax= 6.96D-06  0.00D+00 EMaxC= 1.00D-01 BMatC= 8.90D-09 BMatP= 2.21D-08
 IDIUse=1 WtCom= 1.00D+00 WtEn= 0.00D+00
 Coeff-Com:  0.255D-04-0.254D-03 0.311D-03 0.305D-02 0.215D-02-0.327D-01
 Coeff-Com: -0.243D-01 0.158D+00 0.325D+00-0.112D+01-0.136D+00 0.182D+01
 Coeff:      0.255D-04-0.254D-03 0.311D-03 0.305D-02 0.215D-02-0.327D-01
 Coeff:     -0.243D-01 0.158D+00 0.325D+00-0.112D+01-0.136D+00 0.182D+01
 RMSDP=8.05D-06 MaxDP=3.24D-04 DE=-7.04D-07 OVMax= 0.00D+00

 Cycle  13  Pass 1  IDiag  1:
 RMSU=  1.91D-06    CP:  9.92D-01  1.17D+00  1.02D+00  1.23D+00  1.18D+00
                    CP:  1.83D+00  2.38D+00  3.00D+00  3.00D+00  3.00D+00
                    CP:  3.00D+00  2.66D+00
 E= -474.363594920880     Delta-E=       -0.000000292883 Rises=F Damp=F
 DIIS: error= 2.39D-06 at cycle  13 NSaved=  13.
 NSaved=13 IEnMin=13 EnMin= -474.363594920880     IErMin=13 ErrMin= 2.39D-06
 ErrMax= 2.39D-06  0.00D+00 EMaxC= 1.00D-01 BMatC= 8.92D-10 BMatP= 8.90D-09
 IDIUse=1 WtCom= 1.00D+00 WtEn= 0.00D+00
 Coeff-Com:  0.206D-04-0.124D-03-0.164D-03 0.108D-02 0.310D-02-0.589D-02
 Coeff-Com: -0.318D-01-0.807D-02 0.235D+00-0.290D-01-0.524D+00 0.270D+00
 Coeff-Com:  0.109D+01
 Coeff:      0.206D-04-0.124D-03-0.164D-03 0.108D-02 0.310D-02-0.589D-02
 Coeff:     -0.318D-01-0.807D-02 0.235D+00-0.290D-01-0.524D+00 0.270D+00
 Coeff:      0.109D+01
 RMSDP=2.28D-06 MaxDP=9.49D-05 DE=-2.93D-07 OVMax= 0.00D+00

 Cycle  14  Pass 1  IDiag  1:
 RMSU=  5.93D-07    CP:  9.92D-01  1.17D+00  1.02D+00  1.23D+00  1.18D+00
                    CP:  1.85D+00  2.42D+00  3.00D+00  3.00D+00  3.00D+00
                    CP:  3.00D+00  3.00D+00  1.29D+00
 E= -474.363594941384     Delta-E=       -0.000000020504 Rises=F Damp=F
 DIIS: error= 1.25D-06 at cycle  14 NSaved=  14.
 NSaved=14 IEnMin=14 EnMin= -474.363594941384     IErMin=14 ErrMin= 1.25D-06
 ErrMax= 1.25D-06  0.00D+00 EMaxC= 1.00D-01 BMatC= 8.26D-11 BMatP= 8.92D-10
 IDIUse=1 WtCom= 1.00D+00 WtEn= 0.00D+00
 Coeff-Com: -0.436D-05 0.385D-04-0.411D-04-0.506D-03 0.606D-04 0.348D-02
 Coeff-Com:  0.402D-02-0.180D-01-0.530D-01 0.154D+00 0.155D-01-0.218D+00
 Coeff-Com: -0.305D-01 0.114D+01
 Coeff:     -0.436D-05 0.385D-04-0.411D-04-0.506D-03 0.606D-04 0.348D-02
 Coeff:      0.402D-02-0.180D-01-0.530D-01 0.154D+00 0.155D-01-0.218D+00
 Coeff:     -0.305D-01 0.114D+01
 RMSDP=3.03D-07 MaxDP=1.45D-05 DE=-2.05D-08 OVMax= 0.00D+00

 Cycle  15  Pass 1  IDiag  1:
 RMSU=  7.45D-08    CP:  9.92D-01  1.17D+00  1.02D+00  1.23D+00  1.18D+00
                    CP:  1.85D+00  2.43D+00  3.00D+00  3.00D+00  3.00D+00
                    CP:  3.00D+00  3.00D+00  1.35D+00  1.41D+00
 E= -474.363594942208     Delta-E=       -0.000000000824 Rises=F Damp=F
 DIIS: error= 7.23D-07 at cycle  15 NSaved=  15.
 NSaved=15 IEnMin=15 EnMin= -474.363594942208     IErMin=15 ErrMin= 7.23D-07
 ErrMax= 7.23D-07  0.00D+00 EMaxC= 1.00D-01 BMatC= 1.51D-11 BMatP= 8.26D-11
 IDIUse=1 WtCom= 1.00D+00 WtEn= 0.00D+00
 Coeff-Com: -0.327D-05 0.198D-04 0.251D-04-0.189D-03-0.406D-03 0.831D-03
 Coeff-Com:  0.549D-02 0.167D-02-0.383D-01 0.174D-01 0.610D-01-0.383D-01
 Coeff-Com: -0.168D+00 0.531D-01 0.111D+01
 Coeff:     -0.327D-05 0.198D-04 0.251D-04-0.189D-03-0.406D-03 0.831D-03
 Coeff:      0.549D-02 0.167D-02-0.383D-01 0.174D-01 0.610D-01-0.383D-01
 Coeff:     -0.168D+00 0.531D-01 0.111D+01
 RMSDP=1.11D-07 MaxDP=5.35D-06 DE=-8.24D-10 OVMax= 0.00D+00

 Cycle  16  Pass 1  IDiag  1:
 RMSU=  2.75D-08    CP:  9.92D-01  1.17D+00  1.02D+00  1.23D+00  1.18D+00
                    CP:  1.85D+00  2.43D+00  3.00D+00  3.00D+00  3.00D+00
                    CP:  3.00D+00  3.00D+00  1.37D+00  1.55D+00  1.41D+00
 E= -474.363594942365     Delta-E=       -0.000000000157 Rises=F Damp=F
 DIIS: error= 3.74D-07 at cycle  16 NSaved=  16.
 NSaved=16 IEnMin=16 EnMin= -474.363594942365     IErMin=16 ErrMin= 3.74D-07
 ErrMax= 3.74D-07  0.00D+00 EMaxC= 1.00D-01 BMatC= 2.92D-12 BMatP= 1.51D-11
 IDIUse=1 WtCom= 1.00D+00 WtEn= 0.00D+00
 Coeff-Com:  0.173D-05-0.127D-04 0.446D-05 0.140D-03 0.873D-04-0.907D-03
 Coeff-Com: -0.188D-02 0.215D-02 0.191D-01-0.283D-01-0.244D-01 0.565D-01
 Coeff-Com:  0.458D-01-0.230D+00-0.287D+00 0.145D+01
 Coeff:      0.173D-05-0.127D-04 0.446D-05 0.140D-03 0.873D-04-0.907D-03
 Coeff:     -0.188D-02 0.215D-02 0.191D-01-0.283D-01-0.244D-01 0.565D-01
 Coeff:      0.458D-01-0.230D+00-0.287D+00 0.145D+01
 RMSDP=3.65D-08 MaxDP=3.66D-06 DE=-1.57D-10 OVMax= 0.00D+00

 Cycle  17  Pass 1  IDiag  1:
 RMSU=  1.15D-08    CP:  9.92D-01  1.17D+00  1.02D+00  1.23D+00  1.18D+00
                    CP:  1.85D+00  2.43D+00  3.00D+00  3.00D+00  3.00D+00
                    CP:  3.00D+00  3.00D+00  1.37D+00  1.56D+00  1.70D+00
                    CP:  1.95D+00
 E= -474.363594942422     Delta-E=       -0.000000000056 Rises=F Damp=F
 DIIS: error= 1.34D-07 at cycle  17 NSaved=  17.
 NSaved=17 IEnMin=17 EnMin= -474.363594942422     IErMin=17 ErrMin= 1.34D-07
 ErrMax= 1.34D-07  0.00D+00 EMaxC= 1.00D-01 BMatC= 4.70D-13 BMatP= 2.92D-12
 IDIUse=1 WtCom= 1.00D+00 WtEn= 0.00D+00
 Coeff-Com:  0.715D-06-0.449D-05-0.480D-05 0.453D-04 0.746D-04-0.209D-03
 Coeff-Com: -0.103D-02-0.269D-03 0.840D-02-0.492D-02-0.131D-01 0.100D-01
 Coeff-Com:  0.325D-01-0.295D-01-0.200D+00 0.102D+00 0.110D+01
 Coeff:      0.715D-06-0.449D-05-0.480D-05 0.453D-04 0.746D-04-0.209D-03
 Coeff:     -0.103D-02-0.269D-03 0.840D-02-0.492D-02-0.131D-01 0.100D-01
 Coeff:      0.325D-01-0.295D-01-0.200D+00 0.102D+00 0.110D+01
 RMSDP=1.66D-08 MaxDP=1.39D-06 DE=-5.64D-11 OVMax= 0.00D+00

 Cycle  18  Pass 1  IDiag  1:
 RMSU=  5.98D-09    CP:  9.92D-01  1.17D+00  1.02D+00  1.23D+00  1.18D+00
                    CP:  1.85D+00  2.43D+00  3.00D+00  3.00D+00  3.00D+00
                    CP:  3.00D+00  3.00D+00  1.37D+00  1.57D+00  1.79D+00
                    CP:  2.27D+00  1.30D+00
 E= -474.363594942406     Delta-E=        0.000000000015 Rises=F Damp=F
 DIIS: error= 4.70D-08 at cycle  18 NSaved=  18.
 NSaved=18 IEnMin=17 EnMin= -474.363594942422     IErMin=18 ErrMin= 4.70D-08
 ErrMax= 4.70D-08  0.00D+00 EMaxC= 1.00D-01 BMatC= 1.10D-13 BMatP= 4.70D-13
 IDIUse=1 WtCom= 1.00D+00 WtEn= 0.00D+00
 Coeff-Com: -0.327D-06 0.246D-05-0.175D-05-0.267D-04-0.116D-04 0.175D-03
 Coeff-Com:  0.333D-03-0.532D-03-0.339D-02 0.499D-02 0.522D-02-0.117D-01
 Coeff-Com: -0.656D-02 0.437D-01 0.612D-01-0.299D+00-0.960D-02 0.122D+01
 Coeff:     -0.327D-06 0.246D-05-0.175D-05-0.267D-04-0.116D-04 0.175D-03
 Coeff:      0.333D-03-0.532D-03-0.339D-02 0.499D-02 0.522D-02-0.117D-01
 Coeff:     -0.656D-02 0.437D-01 0.612D-01-0.299D+00-0.960D-02 0.122D+01
 RMSDP=7.09D-09 MaxDP=5.81D-07 DE= 1.55D-11 OVMax= 0.00D+00

 SCF Done:  E(RZINDO/S) =  -474.363594942     A.U. after   18 cycles
            NFock= 18  Conv=0.71D-08     -V/T= 0.9484
 KE=-9.189497972845D+03 PE= 9.547911759000D-07 EE= 4.457769859772D+03
 Leave Link  502 at Sat Apr 30 18:24:20 2022, MaxMem=  6710886400 cpu:              20.0 elap:               0.9
 (Enter /sw/apps/gaussian-16.0/g16/l801.exe)
 Range of M.O.s used for correlation:     1   338
 NBasis=   338 NAE=   176 NBE=   176 NFC=     0 NFV=     0
 NROrb=    338 NOA=   176 NOB=   176 NVA=   162 NVB=   162
 Leave Link  801 at Sat Apr 30 18:24:20 2022, MaxMem=  6710886400 cpu:               0.4 elap:               0.0
 (Enter /sw/apps/gaussian-16.0/g16/l914.exe)
 RHF ground state
 Two-electron integral symmetry not used.
 MDV=  6710886400 DFT=F DoStab=F Mixed=F DoRPA=F DoScal=F NonHer=F
 Making orbital integer symmetry assigments:
 Orbital symmetries:
       Occupied  (A) (A) (A) (A) (A) (A) (A) (A) (A) (A) (A) (A)
                 (A) (A) (A) (A) (A) (A) (A) (A) (A) (A) (A) (A)
                 (A) (A) (A) (A) (A) (A) (A) (A) (A) (A) (A) (A)
                 (A) (A) (A) (A) (A) (A) (A) (A) (A) (A) (A) (A)
                 (A) (A) (A) (A) (A) (A) (A) (A) (A) (A) (A) (A)
                 (A) (A) (A) (A) (A) (A) (A) (A) (A) (A) (A) (A)
                 (A) (A) (A) (A) (A) (A) (A) (A) (A) (A) (A) (A)
                 (A) (A) (A) (A) (A) (A) (A) (A) (A) (A) (A) (A)
                 (A) (A) (A) (A) (A) (A) (A) (A) (A) (A) (A) (A)
                 (A) (A) (A) (A) (A) (A) (A) (A) (A) (A) (A) (A)
                 (A) (A) (A) (A) (A) (A) (A) (A) (A) (A) (A) (A)
                 (A) (A) (A) (A) (A) (A) (A) (A) (A) (A) (A) (A)
                 (A) (A) (A) (A) (A) (A) (A) (A) (A) (A) (A) (A)
                 (A) (A) (A) (A) (A) (A) (A) (A) (A) (A) (A) (A)
                 (A) (A) (A) (A) (A) (A) (A) (A)
       Virtual   (A) (A) (A) (A) (A) (A) (A) (A) (A) (A) (A) (A)
                 (A) (A) (A) (A) (A) (A) (A) (A) (A) (A) (A) (A)
                 (A) (A) (A) (A) (A) (A) (A) (A) (A) (A) (A) (A)
                 (A) (A) (A) (A) (A) (A) (A) (A) (A) (A) (A) (A)
                 (A) (A) (A) (A) (A) (A) (A) (A) (A) (A) (A) (A)
                 (A) (A) (A) (A) (A) (A) (A) (A) (A) (A) (A) (A)
                 (A) (A) (A) (A) (A) (A) (A) (A) (A) (A) (A) (A)
                 (A) (A) (A) (A) (A) (A) (A) (A) (A) (A) (A) (A)
                 (A) (A) (A) (A) (A) (A) (A) (A) (A) (A) (A) (A)
                 (A) (A) (A) (A) (A) (A) (A) (A) (A) (A) (A) (A)
                 (A) (A) (A) (A) (A) (A) (A) (A) (A) (A) (A) (A)
                 (A) (A) (A) (A) (A) (A) (A) (A) (A) (A) (A) (A)
                 (A) (A) (A) (A) (A) (A) (A) (A) (A) (A) (A) (A)
                 (A) (A) (A) (A) (A) (A)
    20 initial guesses have been made.
 Convergence on wavefunction:    0.001000000000000
 Davidson Disk Diagonalization:  ConvIn= 1.00D-03 SkipCon=T Conv= 1.00D-03.
 Max sub-space:  2000 roots to seek:    20 dimension of matrix:        57024
 Iteration     1 Dimension    20 NMult     0 NNew     20
 CISAX will form    20 AO SS matrices at one time.
 NMat=    20 NSing=    20 JSym2X= 0.
 New state      3 was old state      7
 New state      5 was old state      8
 Excitation Energies [eV] at current iteration:
 Root      1 :     1.601051124476702
 Root      2 :     2.114094503579584
 Root      3 :     3.200198039693814
 Root      4 :     3.401058994484550
 Root      5 :     3.440487929811042
 Root      6 :     3.509273723754103
 Root      7 :     3.601516552521128
 Root      8 :     3.759815646110971
 Root      9 :     3.879055714841316
 Root     10 :     3.991193194857630
 Root     11 :     4.128691136185538
 Root     12 :     4.181590413508154
 Root     13 :     4.271948062608693
 Root     14 :     4.352974058140657
 Root     15 :     4.449647603961002
 Root     16 :     4.613925235715233
 Root     17 :     4.844579635800315
 Root     18 :     4.885152916582490
 Root     19 :     4.947948613937614
 Root     20 :     6.167384370124165
 Iteration     2 Dimension    40 NMult    20 NNew     20
 CISAX will form    20 AO SS matrices at one time.
 NMat=    20 NSing=    20 JSym2X= 0.
 Root      1 not converged, maximum delta is    0.041362363007449
 Root      2 not converged, maximum delta is    0.029219816645508
 Root      3 not converged, maximum delta is    0.123365547155201
 New state      4 was old state      5
 Root      4 not converged, maximum delta is    0.352020230989615
 New state      5 was old state      4
 Root      5 not converged, maximum delta is    0.219411080933872
 Excitation Energies [eV] at current iteration:
 Root      1 :     1.244618929464662   Change is   -0.356432195012040
 Root      2 :     1.896323396327204   Change is   -0.217771107252380
 Root      3 :     2.988618800186040   Change is   -0.211579239507774
 Root      4 :     3.116849706561482   Change is   -0.323638223249560
 Root      5 :     3.178193040107767   Change is   -0.222865954376783
 Root      6 :     3.244949747123504   Change is   -0.264323976630600
 Root      7 :     3.394989697042382   Change is   -0.364825949068589
 Root      8 :     3.448507733830445   Change is   -0.680183402355094
 Root      9 :     3.532781210053689   Change is   -0.068735342467439
 Root     10 :     3.620483584971218   Change is   -0.258572129870097
 Root     11 :     3.662299529208360   Change is   -0.328893665649270
 Root     12 :     3.757471931474590   Change is   -0.595502126666067
 Root     13 :     3.845051853797570   Change is   -0.336538559710584
 Root     14 :     4.006273001418384   Change is   -0.265675061190309
 Root     15 :     4.146285963327308   Change is   -0.303361640633694
 Root     16 :     4.439372862540798   Change is   -0.174552373174435
 Root     17 :     4.657134293252130   Change is   -0.187445342548185
 Root     18 :     4.819081646437787   Change is   -0.066071270144702
 Root     19 :     4.942273345082369   Change is   -0.005675268855244
 Root     20 :     5.593007614427187
 Iteration     3 Dimension    45 NMult    40 NNew      5
 CISAX will form     5 AO SS matrices at one time.
 NMat=     5 NSing=     5 JSym2X= 0.
 Root      1 not converged, maximum delta is    0.009680065768439
 Root      2 not converged, maximum delta is    0.016166916345638
 Root      3 not converged, maximum delta is    0.031710468799304
 Root      4 not converged, maximum delta is    0.085691052875079
 Root      5 not converged, maximum delta is    0.123926961757762
 Excitation Energies [eV] at current iteration:
 Root      1 :     1.227821412649633   Change is   -0.016797516815029
 Root      2 :     1.871531575468891   Change is   -0.024791820858313
 Root      3 :     2.951320222245887   Change is   -0.037298577940153
 Root      4 :     3.093921035485465   Change is   -0.022928671076017
 Root      5 :     3.111522818873103   Change is   -0.066670221234664
 Iteration     4 Dimension    50 NMult    45 NNew      5
 CISAX will form     5 AO SS matrices at one time.
 NMat=     5 NSing=     5 JSym2X= 0.
 Root      1 not converged, maximum delta is    0.002597097537298
 Root      2 not converged, maximum delta is    0.002006591030697
 Root      3 not converged, maximum delta is    0.100557830491291
 New state      4 was old state      5
 Root      4 not converged, maximum delta is    0.198579115320965
 New state      5 was old state      4
 Root      5 not converged, maximum delta is    0.132130206532072
 Excitation Energies [eV] at current iteration:
 Root      1 :     1.227023848829038   Change is   -0.000797563820595
 Root      2 :     1.870866139986499   Change is   -0.000665435482392
 Root      3 :     2.922818530646722   Change is   -0.028501691599165
 Root      4 :     3.013957787969491   Change is   -0.097565030903613
 Root      5 :     3.092004290409137   Change is   -0.001916745076328
 Iteration     5 Dimension    55 NMult    50 NNew      5
 CISAX will form     5 AO SS matrices at one time.
 NMat=     5 NSing=     5 JSym2X= 0.
 Root      1 has converged.
 Root      2 has converged.
 Root      3 not converged, maximum delta is    0.140243711942540
 Root      4 not converged, maximum delta is    0.198745578872873
 Root      5 not converged, maximum delta is    0.456066002204531
 Excitation Energies [eV] at current iteration:
 Root      1 :     1.226975430322220   Change is   -0.000048418506817
 Root      2 :     1.870809449879840   Change is   -0.000056690106659
 Root      3 :     2.877632529675555   Change is   -0.045186000971167
 Root      4 :     2.890899789488042   Change is   -0.123057998481449
 Root      5 :     3.011809475219733   Change is   -0.080194815189405
 Iteration     6 Dimension    58 NMult    55 NNew      3
 CISAX will form     3 AO SS matrices at one time.
 NMat=     3 NSing=     3 JSym2X= 0.
 Root      1 has converged.
 Root      2 has converged.
 Root      3 not converged, maximum delta is    0.144763839454673
 Root      4 not converged, maximum delta is    0.148812235021699
 Root      5 not converged, maximum delta is    0.039701460871998
 Excitation Energies [eV] at current iteration:
 Root      1 :     1.226975299342580   Change is   -0.000000130979641
 Root      2 :     1.870806584035358   Change is   -0.000002865844482
 Root      3 :     2.856593865635866   Change is   -0.021038664039689
 Root      4 :     2.863178982667825   Change is   -0.027720806820217
 Root      5 :     2.997649591399291   Change is   -0.014159883820442
 Iteration     7 Dimension    61 NMult    58 NNew      3
 CISAX will form     3 AO SS matrices at one time.
 NMat=     3 NSing=     3 JSym2X= 0.
 Root      1 has converged.
 Root      2 has converged.
 Root      3 not converged, maximum delta is    0.022772025047691
 Root      4 not converged, maximum delta is    0.024504655657312
 Root      5 not converged, maximum delta is    0.014328413908144
 Excitation Energies [eV] at current iteration:
 Root      1 :     1.226975236314189   Change is   -0.000000063028391
 Root      2 :     1.870805701883933   Change is   -0.000000882151425
 Root      3 :     2.852307188392774   Change is   -0.004286677243092
 Root      4 :     2.859763265766757   Change is   -0.003415716901068
 Root      5 :     2.995185221078356   Change is   -0.002464370320935
 Iteration     8 Dimension    64 NMult    61 NNew      3
 CISAX will form     3 AO SS matrices at one time.
 NMat=     3 NSing=     3 JSym2X= 0.
 Root      1 has converged.
 Root      2 has converged.
 Root      3 not converged, maximum delta is    0.004287676277978
 Root      4 not converged, maximum delta is    0.004215123900910
 Root      5 not converged, maximum delta is    0.003108200361198
 Excitation Energies [eV] at current iteration:
 Root      1 :     1.226975169412604   Change is   -0.000000066901585
 Root      2 :     1.870805684320649   Change is   -0.000000017563284
 Root      3 :     2.851795828512476   Change is   -0.000511359880298
 Root      4 :     2.859401717611890   Change is   -0.000361548154867
 Root      5 :     2.994872317396491   Change is   -0.000312903681865
 Iteration     9 Dimension    67 NMult    64 NNew      3
 CISAX will form     3 AO SS matrices at one time.
 NMat=     3 NSing=     3 JSym2X= 0.
 Root      1 has converged.
 Root      2 has converged.
 Root      3 has converged.
 Root      4 has converged.
 Root      5 has converged.
 Excitation Energies [eV] at current iteration:
 Root      1 :     1.226975142507958   Change is   -0.000000026904646
 Root      2 :     1.870805554476043   Change is   -0.000000129844606
 Root      3 :     2.851740578610439   Change is   -0.000055249902037
 Root      4 :     2.859358982644419   Change is   -0.000042734967471
 Root      5 :     2.994831625118005   Change is   -0.000040692278486
 Convergence achieved on expansion vectors.
 ***********************************************************************
 Excited states from <AA,BB:AA,BB> singles matrix:
 ***********************************************************************
 
 1PDM for each excited state written to RWF  633
 Ground to excited state transition densities written to RWF  633
 Ground to excited state transition electric dipole moments (Au):
       state          X           Y           Z        Dip. S.      Osc.
         1         0.8421     -4.3453      0.6619     20.0294      0.6021
         2         1.5249      0.6980      0.2640      2.8823      0.1321
         3        -0.0395      0.1804     -0.0242      0.0347      0.0024
         4         0.1641      0.0862      0.0969      0.0437      0.0031
         5        -1.1170     -0.3463     -0.3358      1.4804      0.1086
 Ground to excited state transition velocity dipole moments (Au):
       state          X           Y           Z        Dip. S.      Osc.
         1         0.0408     -0.0545      0.0094      0.0047      0.0697
         2        -0.0153     -0.0105     -0.0006      0.0003      0.0033
         3        -0.0023      0.0018      0.0026      0.0000      0.0001
         4        -0.0019      0.0014      0.0071      0.0001      0.0004
         5         0.0316      0.0259      0.0179      0.0020      0.0121
 Ground to excited state transition magnetic dipole moments (Au):
       state          X           Y           Z
         1         0.0381     -0.1075     -0.7069
         2        -0.0154      0.0192     -0.2013
         3        -0.2902      0.3231     -0.2199
         4        -0.6451     -0.5975      0.2673
         5         0.0755     -0.5409     -0.2106
 Ground to excited state transition velocity quadrupole moments (Au):
       state          XX          YY          ZZ          XY          XZ          YZ
         1         0.7897      0.1161     -0.0254     -0.6641      0.0499     -0.0064
         2        -0.2177      0.0912     -0.0342      0.0005     -0.0541     -0.0008
         3        -0.0844      0.0615      0.0313      0.0509      0.0960      0.1296
         4         0.1178      0.0023     -0.0109     -0.0999      0.0701      0.0024
         5         0.3380      0.0330     -0.0007      0.4017      0.2013      0.0033
 <0|del|b> * <b|rxdel|0> + <0|del|b> * <b|delr+rdel|0>
 Rotatory Strengths (R) in cgs (10**-40 erg-esu-cm/Gauss)
       state          XX          YY          ZZ    R(velocity)    E-M Angle
         1       -34.1260      6.9909     38.8150      3.8933       89.13
         2        -3.3364      1.8897      3.0246      0.5260       87.66
         3        -0.0890     -1.1520      5.7780      1.5123       69.25
         4         0.8034     12.9484      1.7265      5.1594       70.43
         5       -50.6315    -27.3021    -20.8722    -32.9353      126.09
 1/2[<0|r|b>*<b|rxdel|0> + (<0|rxdel|b>*<b|r|0>)*]
 Rotatory Strengths (R) in cgs (10**-40 erg-esu-cm/Gauss)
       state          XX          YY          ZZ     R(length)
         1       -22.7153   -330.3566    330.9020     -7.3899
         2        16.6022     -9.4967     37.5869     14.8974
         3        -8.1029    -41.2235     -3.7563    -17.6942
         4        74.8441     36.4407    -18.3112     30.9912
         5        59.6326   -132.4591    -50.0000    -40.9422
  1/2[<0|del|b>*<b|r|0> + (<0|r|b>*<b|del|0>)*] (Au)
       state          X           Y           Z        Dip. S.   Osc.(frdel)
         1         0.0343      0.2367      0.0062     -0.2772     -0.1848
         2        -0.0234     -0.0073     -0.0002      0.0308      0.0205
         3         0.0001      0.0003     -0.0001     -0.0004     -0.0002
         4        -0.0003      0.0001      0.0007     -0.0005     -0.0003
         5        -0.0353     -0.0090     -0.0060      0.0503      0.0335

 Excitation energies and oscillator strengths:
 
 Excited State   1:      Singlet-A      1.2270 eV 1010.49 nm  f=0.6021  <S**2>=0.000
     175 ->178        -0.19501
     176 ->177         0.66115
 This state for optimization and/or second-order correction.
 Total Energy, E(CIS/TDA) =  -474.318504436    
 Copying the excited state density for this state as the 1-particle RhoCI density.
 
 Excited State   2:      Singlet-A      1.8708 eV  662.73 nm  f=0.1321  <S**2>=0.000
     175 ->177         0.58970
     176 ->178         0.35889
 
 Excited State   3:      Singlet-A      2.8517 eV  434.77 nm  f=0.0024  <S**2>=0.000
     168 ->179        -0.12880
     169 ->179         0.28431
     169 ->186         0.16116
     170 ->177         0.29857
     170 ->180        -0.26367
     170 ->187         0.12079
     171 ->177         0.10399
     172 ->177         0.26002
     173 ->179         0.10206
 
 Excited State   4:      Singlet-A      2.8594 eV  433.61 nm  f=0.0031  <S**2>=0.000
     168 ->177        -0.13440
     168 ->180         0.10989
     169 ->177         0.29231
     169 ->180        -0.26039
     169 ->187         0.11443
     170 ->179         0.31610
     170 ->186         0.17835
     172 ->179         0.10756
     173 ->177         0.22005
 
 Excited State   5:      Singlet-A      2.9948 eV  413.99 nm  f=0.1086  <S**2>=0.000
     169 ->177         0.13224
     170 ->177        -0.12869
     171 ->177        -0.14501
     172 ->177         0.43332
     173 ->177        -0.32816
     176 ->178         0.22960
 SavETr:  write IOETrn=   770 NScale= 10 NData=  16 NLR=1 NState=    5 LETran=     100.
 Leave Link  914 at Sat Apr 30 18:24:23 2022, MaxMem=  6710886400 cpu:              69.5 elap:               2.9
 (Enter /sw/apps/gaussian-16.0/g16/l601.exe)
 Copying SCF densities to generalized density rwf, IOpCl= 0 IROHF=0.

 **********************************************************************

            Population analysis using the SCF density.

 **********************************************************************

 Orbital symmetries:
       Occupied  (A) (A) (A) (A) (A) (A) (A) (A) (A) (A) (A) (A)
                 (A) (A) (A) (A) (A) (A) (A) (A) (A) (A) (A) (A)
                 (A) (A) (A) (A) (A) (A) (A) (A) (A) (A) (A) (A)
                 (A) (A) (A) (A) (A) (A) (A) (A) (A) (A) (A) (A)
                 (A) (A) (A) (A) (A) (A) (A) (A) (A) (A) (A) (A)
                 (A) (A) (A) (A) (A) (A) (A) (A) (A) (A) (A) (A)
                 (A) (A) (A) (A) (A) (A) (A) (A) (A) (A) (A) (A)
                 (A) (A) (A) (A) (A) (A) (A) (A) (A) (A) (A) (A)
                 (A) (A) (A) (A) (A) (A) (A) (A) (A) (A) (A) (A)
                 (A) (A) (A) (A) (A) (A) (A) (A) (A) (A) (A) (A)
                 (A) (A) (A) (A) (A) (A) (A) (A) (A) (A) (A) (A)
                 (A) (A) (A) (A) (A) (A) (A) (A) (A) (A) (A) (A)
                 (A) (A) (A) (A) (A) (A) (A) (A) (A) (A) (A) (A)
                 (A) (A) (A) (A) (A) (A) (A) (A) (A) (A) (A) (A)
                 (A) (A) (A) (A) (A) (A) (A) (A)
       Virtual   (A) (A) (A) (A) (A) (A) (A) (A) (A) (A) (A) (A)
                 (A) (A) (A) (A) (A) (A) (A) (A) (A) (A) (A) (A)
                 (A) (A) (A) (A) (A) (A) (A) (A) (A) (A) (A) (A)
                 (A) (A) (A) (A) (A) (A) (A) (A) (A) (A) (A) (A)
                 (A) (A) (A) (A) (A) (A) (A) (A) (A) (A) (A) (A)
                 (A) (A) (A) (A) (A) (A) (A) (A) (A) (A) (A) (A)
                 (A) (A) (A) (A) (A) (A) (A) (A) (A) (A) (A) (A)
                 (A) (A) (A) (A) (A) (A) (A) (A) (A) (A) (A) (A)
                 (A) (A) (A) (A) (A) (A) (A) (A) (A) (A) (A) (A)
                 (A) (A) (A) (A) (A) (A) (A) (A) (A) (A) (A) (A)
                 (A) (A) (A) (A) (A) (A) (A) (A) (A) (A) (A) (A)
                 (A) (A) (A) (A) (A) (A) (A) (A) (A) (A) (A) (A)
                 (A) (A) (A) (A) (A) (A) (A) (A) (A) (A) (A) (A)
                 (A) (A) (A) (A) (A) (A)
 The electronic state is 1-A.
 Alpha  occ. eigenvalues --   -1.86133  -1.83575  -1.80413  -1.72596  -1.71153
 Alpha  occ. eigenvalues --   -1.69978  -1.67109  -1.62003  -1.61626  -1.59529
 Alpha  occ. eigenvalues --   -1.56035  -1.50583  -1.49343  -1.47049  -1.45610
 Alpha  occ. eigenvalues --   -1.42961  -1.41982  -1.40400  -1.38960  -1.37926
 Alpha  occ. eigenvalues --   -1.36807  -1.32695  -1.32463  -1.31166  -1.29237
 Alpha  occ. eigenvalues --   -1.26406  -1.24107  -1.22416  -1.20575  -1.18761
 Alpha  occ. eigenvalues --   -1.17407  -1.16525  -1.15393  -1.14860  -1.13300
 Alpha  occ. eigenvalues --   -1.12217  -1.11159  -1.10759  -1.06103  -1.04430
 Alpha  occ. eigenvalues --   -1.03769  -1.01324  -0.99898  -0.99059  -0.98173
 Alpha  occ. eigenvalues --   -0.96065  -0.94358  -0.93195  -0.92520  -0.91941
 Alpha  occ. eigenvalues --   -0.90065  -0.89099  -0.87477  -0.87408  -0.85797
 Alpha  occ. eigenvalues --   -0.84908  -0.83224  -0.81742  -0.81193  -0.80905
 Alpha  occ. eigenvalues --   -0.79641  -0.79125  -0.77986  -0.77282  -0.77078
 Alpha  occ. eigenvalues --   -0.76011  -0.75490  -0.74953  -0.74844  -0.74402
 Alpha  occ. eigenvalues --   -0.73046  -0.72265  -0.71677  -0.71092  -0.70861
 Alpha  occ. eigenvalues --   -0.69774  -0.69095  -0.68606  -0.68278  -0.68152
 Alpha  occ. eigenvalues --   -0.67793  -0.67746  -0.66567  -0.66039  -0.65797
 Alpha  occ. eigenvalues --   -0.64577  -0.64049  -0.63831  -0.63505  -0.63051
 Alpha  occ. eigenvalues --   -0.62804  -0.62690  -0.62276  -0.62042  -0.61858
 Alpha  occ. eigenvalues --   -0.61330  -0.61040  -0.60932  -0.60672  -0.60043
 Alpha  occ. eigenvalues --   -0.59838  -0.59190  -0.58971  -0.58819  -0.57939
 Alpha  occ. eigenvalues --   -0.57846  -0.57665  -0.57408  -0.57052  -0.56946
 Alpha  occ. eigenvalues --   -0.56535  -0.55773  -0.55248  -0.55143  -0.54849
 Alpha  occ. eigenvalues --   -0.54222  -0.53823  -0.53719  -0.52996  -0.52675
 Alpha  occ. eigenvalues --   -0.52433  -0.52005  -0.51525  -0.51370  -0.51075
 Alpha  occ. eigenvalues --   -0.50932  -0.50733  -0.50444  -0.50250  -0.49915
 Alpha  occ. eigenvalues --   -0.49506  -0.49419  -0.48957  -0.48870  -0.48773
 Alpha  occ. eigenvalues --   -0.48712  -0.48396  -0.48065  -0.47906  -0.47543
 Alpha  occ. eigenvalues --   -0.47301  -0.47217  -0.46958  -0.46488  -0.46101
 Alpha  occ. eigenvalues --   -0.45743  -0.45646  -0.45380  -0.45265  -0.45081
 Alpha  occ. eigenvalues --   -0.44741  -0.44717  -0.44459  -0.44192  -0.44113
 Alpha  occ. eigenvalues --   -0.43359  -0.42954  -0.42303  -0.41710  -0.41609
 Alpha  occ. eigenvalues --   -0.41451  -0.40815  -0.40085  -0.38636  -0.38198
 Alpha  occ. eigenvalues --   -0.37763  -0.36976  -0.34998  -0.34813  -0.34737
 Alpha  occ. eigenvalues --   -0.32750  -0.32583  -0.32156  -0.32015  -0.26533
 Alpha  occ. eigenvalues --   -0.22412
 Alpha virt. eigenvalues --   -0.09256  -0.02135  -0.00474   0.01301   0.01999
 Alpha virt. eigenvalues --    0.02103   0.02742   0.03397   0.04826   0.05039
 Alpha virt. eigenvalues --    0.06336   0.06891   0.07524   0.07965   0.08294
 Alpha virt. eigenvalues --    0.08513   0.08653   0.08962   0.09340   0.09503
 Alpha virt. eigenvalues --    0.09696   0.09903   0.10343   0.10528   0.10866
 Alpha virt. eigenvalues --    0.11128   0.11681   0.11871   0.11929   0.12473
 Alpha virt. eigenvalues --    0.12648   0.12967   0.13086   0.13301   0.13425
 Alpha virt. eigenvalues --    0.13735   0.13829   0.14441   0.14546   0.14801
 Alpha virt. eigenvalues --    0.14929   0.15475   0.15600   0.15740   0.15831
 Alpha virt. eigenvalues --    0.15967   0.16194   0.16586   0.16859   0.17027
 Alpha virt. eigenvalues --    0.17410   0.17488   0.17692   0.17739   0.18340
 Alpha virt. eigenvalues --    0.18545   0.18735   0.18967   0.19151   0.19602
 Alpha virt. eigenvalues --    0.19717   0.19807   0.20079   0.20408   0.21013
 Alpha virt. eigenvalues --    0.21468   0.21601   0.22617   0.23299   0.23505
 Alpha virt. eigenvalues --    0.23631   0.23832   0.23931   0.24197   0.24309
 Alpha virt. eigenvalues --    0.24324   0.24548   0.24624   0.24744   0.24793
 Alpha virt. eigenvalues --    0.24849   0.24871   0.24895   0.25168   0.25176
 Alpha virt. eigenvalues --    0.25208   0.25276   0.25380   0.25452   0.25686
 Alpha virt. eigenvalues --    0.25763   0.25774   0.25795   0.25884   0.25980
 Alpha virt. eigenvalues --    0.26146   0.26208   0.26230   0.26296   0.26316
 Alpha virt. eigenvalues --    0.26370   0.26475   0.26485   0.26565   0.26683
 Alpha virt. eigenvalues --    0.26687   0.26806   0.26859   0.26960   0.27031
 Alpha virt. eigenvalues --    0.27044   0.27280   0.27315   0.27452   0.27649
 Alpha virt. eigenvalues --    0.27669   0.27766   0.28975   0.29485   0.29727
 Alpha virt. eigenvalues --    0.29871   0.30484   0.31097   0.31304   0.31592
 Alpha virt. eigenvalues --    0.32693   0.32726   0.33136   0.33227   0.34277
 Alpha virt. eigenvalues --    0.34629   0.35036   0.35402   0.36114   0.36326
 Alpha virt. eigenvalues --    0.36344   0.36638   0.37419   0.37899   0.38450
 Alpha virt. eigenvalues --    0.39526   0.40270   0.40421   0.40503   0.41012
 Alpha virt. eigenvalues --    0.41204   0.41245   0.41809   0.42221   0.43139
 Alpha virt. eigenvalues --    0.43823   0.44916   0.45008   0.45738   0.46884
 Alpha virt. eigenvalues --    0.47855   0.48124   0.48847   0.51833   0.53322
 Alpha virt. eigenvalues --    0.54812   0.56693
          Condensed to atoms (all electrons):
 Mulliken charges:
               1
     1  Mg   0.429271
     2  C   -0.025439
     3  C   -0.069535
     4  C   -0.089498
     5  C   -0.073284
     6  N   -0.262744
     7  C    0.145762
     8  C   -0.000797
     9  C   -0.001537
    10  C    0.090296
    11  C   -0.050143
    12  C   -0.020588
    13  C    0.003946
    14  C    0.458813
    15  O   -0.513825
    16  O   -0.287697
    17  N   -0.298013
    18  C    0.096717
    19  C    0.011774
    20  C   -0.060678
    21  C    0.142857
    22  C   -0.056272
    23  C    0.338121
    24  O   -0.526477
    25  C   -0.036784
    26  N   -0.278166
    27  C    0.146144
    28  C    0.008193
    29  C    0.005612
    30  C    0.139041
    31  C   -0.042966
    32  C   -0.029849
    33  C   -0.063225
    34  N   -0.362846
    35  C    0.105298
    36  C    0.029250
    37  C   -0.039920
    38  C    0.127302
    39  C   -0.040503
    40  C    0.331302
    41  O   -0.527257
    42  C    0.067015
    43  C    0.491156
    44  O   -0.527771
    45  O   -0.293629
    46  C    0.085039
    47  C    0.097452
    48  C   -0.104295
    49  C   -0.005201
    50  C   -0.045171
    51  C   -0.018353
    52  C   -0.025294
    53  C   -0.020265
    54  C   -0.001826
    55  C   -0.067549
    56  C   -0.031858
    57  C   -0.053635
    58  C   -0.027543
    59  C   -0.027723
    60  C   -0.071755
    61  C   -0.032900
    62  C   -0.035546
    63  C   -0.019751
    64  C   -0.021674
    65  C   -0.058590
    66  C   -0.065256
    67  H    0.025003
    68  H    0.051161
    69  H    0.022040
    70  H    0.030557
    71  H    0.042484
    72  H    0.011811
    73  H    0.022200
    74  H    0.025496
    75  H    0.055314
    76  H    0.032865
    77  H    0.035292
    78  H    0.036160
    79  H    0.029749
    80  H    0.045561
    81  H    0.022629
    82  H    0.032670
    83  H    0.046447
    84  H    0.027433
    85  H    0.027440
    86  H    0.026052
    87  H    0.024304
    88  H    0.023516
    89  H    0.015630
    90  H    0.018233
    91  H    0.015425
    92  H    0.021928
    93  H    0.009279
    94  H    0.040497
    95  H    0.030111
    96  H    0.040485
    97  H    0.035719
    98  H    0.056117
    99  H    0.046556
   100  H    0.026279
   101  H    0.053569
   102  H    0.064173
   103  H    0.057725
   104  H    0.038904
   105  H    0.030471
   106  H    0.030899
   107  H    0.019404
   108  H    0.010722
   109  H    0.025979
   110  H    0.018153
   111  H    0.024713
   112  H    0.009142
   113  H    0.016008
   114  H    0.019809
   115  H    0.031206
   116  H    0.006784
   117  H    0.016852
   118  H    0.013160
   119  H    0.022234
   120  H    0.014047
   121  H    0.031388
   122  H    0.014390
   123  H    0.014863
   124  H    0.012357
   125  H    0.025526
   126  H    0.022037
   127  H    0.021720
   128  H    0.013325
   129  H    0.020071
   130  H    0.017010
   131  H    0.022325
   132  H    0.015784
   133  H    0.020429
   134  H    0.011978
   135  H    0.018946
   136  H    0.021761
   137  H    0.019977
   138  H    0.016225
   139  H    0.021862
   140  H    0.024898
 Sum of Mulliken charges =  -0.00000
 Mulliken charges with hydrogens summed into heavy atoms:
               1
     1  Mg   0.429271
     2  C   -0.025439
     3  C   -0.044532
     4  C   -0.038338
     5  C   -0.051244
     6  N   -0.262744
     7  C    0.145762
     8  C    0.029759
     9  C    0.040947
    10  C    0.090296
    11  C    0.009364
    12  C    0.067591
    13  C    0.075398
    14  C    0.458813
    15  O   -0.513825
    16  O   -0.287697
    17  N   -0.298013
    18  C    0.096717
    19  C    0.011774
    20  C   -0.060678
    21  C    0.142857
    22  C    0.041667
    23  C    0.338121
    24  O   -0.526477
    25  C    0.069766
    26  N   -0.278166
    27  C    0.146144
    28  C    0.035633
    29  C    0.031665
    30  C    0.139041
    31  C    0.020484
    32  C    0.003809
    33  C    0.008479
    34  N   -0.362846
    35  C    0.105298
    36  C    0.029250
    37  C   -0.039920
    38  C    0.127302
    39  C    0.065812
    40  C    0.331302
    41  O   -0.527257
    42  C    0.123131
    43  C    0.491156
    44  O   -0.527771
    45  O   -0.293629
    46  C    0.211442
    47  C    0.219350
    48  C   -0.065391
    49  C   -0.005201
    50  C    0.035603
    51  C    0.018348
    52  C    0.017572
    53  C    0.004885
    54  C    0.017982
    55  C   -0.012707
    56  C    0.003536
    57  C   -0.008200
    58  C    0.001710
    59  C   -0.015366
    60  C   -0.002472
    61  C    0.000496
    62  C    0.003788
    63  C    0.016462
    64  C   -0.009696
    65  C    0.002094
    66  C   -0.002271
 Charge=              0.0000 electrons
 Dipole moment (field-independent basis, Debye):
    X=             -3.3494    Y=              4.7996    Z=             -6.1643  Tot=              8.5002
 N-N= 4.257364517176D+03 E-N= 0.000000000000D+00  KE=-9.189497972845D+03
 Leave Link  601 at Sat Apr 30 18:24:23 2022, MaxMem=  6710886400 cpu:               0.7 elap:               0.0
 (Enter /sw/apps/gaussian-16.0/g16/l9999.exe)
 1\1\GINC-BP1-COMPUTE161\SP\RZINDO CIS\STO-3G\C55H74Mg1N4O6\OF15641\30-
 Apr-2022\0\\#p ZINDO=(nstates=5)\\step_851_chromophore_1 ZINDO\\0,1\Mg
 ,0,-1.304,18.078,26.611\C,0,-1.519,15.709,29.338\C,0,-1.997,20.536,28.
 823\C,0,-1.669,20.151,23.919\C,0,-1.035,15.397,24.442\N,0,-1.661,17.99
 6,28.849\C,0,-1.796,17.017,29.73\C,0,-2.195,17.498,31.123\C,0,-2.363,1
 9.063,30.974\C,0,-2.016,19.22,29.442\C,0,-3.79,19.506,31.276\C,0,-1.20
 8,17.09,32.328\C,0,-0.956,18.099,33.506\C,0,-0.057,17.618,34.671\O,0,1
 .014,17.005,34.644\O,0,-0.692,17.824,35.874\N,0,-1.658,20.095,26.437\C
 ,0,-1.936,20.945,27.454\C,0,-2.126,22.238,26.923\C,0,-1.903,22.201,25.
 514\C,0,-1.806,20.744,25.28\C,0,-2.442,23.414,27.83\C,0,-1.721,23.28,2
 4.564\O,0,-1.664,23.102,23.38\C,0,-1.828,24.709,25.016\N,0,-1.523,17.8
 12,24.46\C,0,-1.449,18.836,23.609\C,0,-1.596,18.347,22.185\C,0,-0.934,
 16.909,22.319\C,0,-1.172,16.651,23.833\C,0,-3.051,18.33,21.68\C,0,0.54
 2,16.737,21.997\C,0,1.499,17.863,22.504\N,0,-1.214,15.962,26.834\C,0,-
 1.198,14.981,25.809\C,0,-1.152,13.73,26.433\C,0,-1.254,14.023,27.819\C
 ,0,-1.362,15.352,28.05\C,0,-1.119,12.359,25.758\C,0,-1.324,13.318,29.0
 53\O,0,-1.185,12.135,29.366\C,0,-1.675,14.414,30.056\C,0,-0.771,14.266
 ,31.256\O,0,0.37,14.67,31.387\O,0,-1.323,13.502,32.25\C,0,-0.674,13.00
 4,33.467\C,0,0.05,17.296,37.095\C,0,-0.268,18.277,38.308\C,0,0.116,18.
 082,39.602\C,0,0.852,16.807,40.096\C,0,-0.237,19.138,40.587\C,0,0.94,1
 9.975,41.129\C,0,0.71,21.445,41.199\C,0,1.755,22.364,40.569\C,0,1.675,
 22.338,39.\C,0,3.189,22.069,40.943\C,0,3.764,22.942,42.12\C,0,3.791,22
 .167,43.453\C,0,4.502,22.889,44.544\C,0,6.128,23.,44.296\C,0,4.011,22.
 452,45.954\C,0,2.792,23.355,46.351\C,0,1.518,22.573,46.62\C,0,0.268,23
 .117,45.935\C,0,-0.454,24.082,46.849\C,0,-0.639,22.005,45.254\H,0,-2.1
 9,21.29,29.589\H,0,-1.973,20.84,23.128\H,0,-0.883,14.683,23.63\H,0,-3.
 182,17.103,31.364\H,0,-1.685,19.7,31.542\H,0,-3.687,20.306,32.009\H,0,
 -4.409,18.723,31.715\H,0,-4.33,19.931,30.431\H,0,-0.234,16.932,31.865\
 H,0,-1.646,16.215,32.809\H,0,-1.793,18.562,34.029\H,0,-0.424,18.946,33
 .072\H,0,-2.13,23.19,28.85\H,0,-3.462,23.692,27.565\H,0,-1.746,24.242,
 27.694\H,0,-2.645,24.831,25.729\H,0,-1.796,25.477,24.244\H,0,-1.026,24
 .823,25.746\H,0,-0.984,19.014,21.578\H,0,-1.373,16.229,21.59\H,0,-3.31
 9,19.29,21.238\H,0,-3.815,18.123,22.429\H,0,-3.203,17.53,20.955\H,0,0.
 733,16.521,20.945\H,0,0.99,15.88,22.499\H,0,1.635,18.482,21.618\H,0,2.
 469,17.386,22.644\H,0,1.254,18.346,23.45\H,0,-2.096,12.248,25.286\H,0,
 -1.033,11.625,26.558\H,0,-0.329,12.337,25.008\H,0,-2.711,14.264,30.361
 \H,0,-0.516,11.926,33.501\H,0,-1.386,13.252,34.254\H,0,0.271,13.507,33
 .677\H,0,1.125,17.413,36.964\H,0,-0.309,16.269,37.166\H,0,-0.733,19.23
 8,38.088\H,0,0.157,16.282,40.751\H,0,1.83,16.979,40.547\H,0,1.145,16.1
 31,39.293\H,0,-0.602,18.597,41.46\H,0,-1.063,19.769,40.256\H,0,1.678,1
 9.777,40.352\H,0,1.307,19.547,42.061\H,0,0.665,21.749,42.245\H,0,-0.26
 2,21.698,40.776\H,0,1.531,23.4,40.824\H,0,2.512,21.938,38.427\H,0,1.64
 5,23.394,38.729\H,0,0.707,21.934,38.706\H,0,3.862,22.272,40.11\H,0,3.3
 64,21.031,41.226\H,0,3.004,23.689,42.349\H,0,4.747,23.398,42.005\H,0,4
 .287,21.227,43.211\H,0,2.772,21.965,43.785\H,0,4.335,23.958,44.417\H,0
 ,6.359,22.378,43.432\H,0,6.612,22.682,45.219\H,0,6.361,24.048,44.104\H
 ,0,4.837,22.49,46.664\H,0,3.855,21.373,45.934\H,0,2.569,24.123,45.611\
 H,0,3.165,24.096,47.059\H,0,1.356,22.597,47.698\H,0,1.548,21.52,46.341
 \H,0,0.434,23.703,45.031\H,0,-1.078,23.368,47.388\H,0,-0.987,24.817,46
 .247\H,0,0.195,24.546,47.592\H,0,-1.676,22.275,45.455\H,0,-0.467,21.02
 6,45.703\H,0,-0.432,22.044,44.185\\Version=ES64L-G16RevA.03\State=1-A\
 HF=-474.3635949\RMSD=7.090e-09\PG=C01 [X(C55H74Mg1N4O6)]\\@


 Age does not diminish the extreme disappointment of
 having a scoop of ice cream fall from the cone.
 -- Jim Fiebig
 Job cpu time:       0 days  0 hours  1 minutes 51.7 seconds.
 Elapsed time:       0 days  0 hours  0 minutes  4.9 seconds.
 File lengths (MBytes):  RWF=   1252 Int=      0 D2E=      0 Chk=     38 Scr=      1
 Normal termination of Gaussian 16 at Sat Apr 30 18:24:23 2022.
