 Entering Gaussian System, Link 0=g16
 Initial command:
 /sw/apps/gaussian-16.0/g16/l1.exe "/tmp/Gau-154239.inp" -scrdir="/tmp/"
 Entering Link 1 = /sw/apps/gaussian-16.0/g16/l1.exe PID=    154241.
  
 Copyright (c) 1988,1990,1992,1993,1995,1998,2003,2009,2016,
            Gaussian, Inc.  All Rights Reserved.
  
 This is part of the Gaussian(R) 16 program.  It is based on
 the Gaussian(R) 09 system (copyright 2009, Gaussian, Inc.),
 the Gaussian(R) 03 system (copyright 2003, Gaussian, Inc.),
 the Gaussian(R) 98 system (copyright 1998, Gaussian, Inc.),
 the Gaussian(R) 94 system (copyright 1995, Gaussian, Inc.),
 the Gaussian 92(TM) system (copyright 1992, Gaussian, Inc.),
 the Gaussian 90(TM) system (copyright 1990, Gaussian, Inc.),
 the Gaussian 88(TM) system (copyright 1988, Gaussian, Inc.),
 the Gaussian 86(TM) system (copyright 1986, Carnegie Mellon
 University), and the Gaussian 82(TM) system (copyright 1983,
 Carnegie Mellon University). Gaussian is a federally registered
 trademark of Gaussian, Inc.
  
 This software contains proprietary and confidential information,
 including trade secrets, belonging to Gaussian, Inc.
  
 This software is provided under written license and may be
 used, copied, transmitted, or stored only in accord with that
 written license.
  
 The following legend is applicable only to US Government
 contracts under FAR:
  
                    RESTRICTED RIGHTS LEGEND
  
 Use, reproduction and disclosure by the US Government is
 subject to restrictions as set forth in subparagraphs (a)
 and (c) of the Commercial Computer Software - Restricted
 Rights clause in FAR 52.227-19.
  
 Gaussian, Inc.
 340 Quinnipiac St., Bldg. 40, Wallingford CT 06492
  
  
 ---------------------------------------------------------------
 Warning -- This program may not be used in any manner that
 competes with the business of Gaussian, Inc. or will provide
 assistance to any competitor of Gaussian, Inc.  The licensee
 of this program is prohibited from giving any competitor of
 Gaussian, Inc. access to this program.  By using this program,
 the user acknowledges that Gaussian, Inc. is engaged in the
 business of creating and licensing software in the field of
 computational chemistry and represents and warrants to the
 licensee that it is not a competitor of Gaussian, Inc. and that
 it will not use this program in any manner prohibited above.
 ---------------------------------------------------------------
  

 Cite this work as:
 Gaussian 16, Revision A.03,
 M. J. Frisch, G. W. Trucks, H. B. Schlegel, G. E. Scuseria, 
 M. A. Robb, J. R. Cheeseman, G. Scalmani, V. Barone, 
 G. A. Petersson, H. Nakatsuji, X. Li, M. Caricato, A. V. Marenich, 
 J. Bloino, B. G. Janesko, R. Gomperts, B. Mennucci, H. P. Hratchian, 
 J. V. Ortiz, A. F. Izmaylov, J. L. Sonnenberg, D. Williams-Young, 
 F. Ding, F. Lipparini, F. Egidi, J. Goings, B. Peng, A. Petrone, 
 T. Henderson, D. Ranasinghe, V. G. Zakrzewski, J. Gao, N. Rega, 
 G. Zheng, W. Liang, M. Hada, M. Ehara, K. Toyota, R. Fukuda, 
 J. Hasegawa, M. Ishida, T. Nakajima, Y. Honda, O. Kitao, H. Nakai, 
 T. Vreven, K. Throssell, J. A. Montgomery, Jr., J. E. Peralta, 
 F. Ogliaro, M. J. Bearpark, J. J. Heyd, E. N. Brothers, K. N. Kudin, 
 V. N. Staroverov, T. A. Keith, R. Kobayashi, J. Normand, 
 K. Raghavachari, A. P. Rendell, J. C. Burant, S. S. Iyengar, 
 J. Tomasi, M. Cossi, J. M. Millam, M. Klene, C. Adamo, R. Cammi, 
 J. W. Ochterski, R. L. Martin, K. Morokuma, O. Farkas, 
 J. B. Foresman, and D. J. Fox, Gaussian, Inc., Wallingford CT, 2016.
 
 ******************************************
 Gaussian 16:  ES64L-G16RevA.03 25-Dec-2016
                27-Apr-2022 
 ******************************************
 %nproc=24
 Will use up to   24 processors via shared memory.
 %mem=75GB
 -----------------------------------
 #p cam-b3lyp/Def2SVP td=(nstates=5)
 -----------------------------------
 1/38=1,172=1/1;
 2/12=2,17=6,18=5,40=1/2;
 3/5=43,7=101,11=9,25=1,30=1,74=-40/1,2,3,8;
 4//1;
 5/5=2,38=5/2;
 8/6=1,10=1,108=5/1;
 9/41=5,42=1,70=2/14;
 6/7=2,8=2,9=2,10=2/1;
 99/5=1,9=1/99;
 Leave Link    1 at Wed Apr 27 01:41:15 2022, MaxMem= 10066329600 cpu:               0.8 elap:               0.0
 (Enter /sw/apps/gaussian-16.0/g16/l101.exe)
 --------------------------------------------------------
 step_1051_chromophore_14 TDDFT with cam-b3lyp functional
 --------------------------------------------------------
 Symbolic Z-matrix:
 Charge =  0 Multiplicity = 1
 Mg                    46.892    46.137    43.993 
 C                     43.569    44.963    43.571 
 C                     47.935    42.878    43.132 
 C                     50.085    47.409    43.662 
 C                     45.611    49.331    44.444 
 N                     45.834    44.126    43.401 
 C                     44.475    43.895    43.389 
 C                     44.199    42.421    43.067 
 C                     45.626    41.82     43.028 
 C                     46.516    43.031    43.26 
 C                     45.858    40.687    44.067 
 C                     43.381    42.069    41.775 
 C                     43.383    43.155    40.656 
 C                     43.262    42.81     39.218 
 O                     42.34     42.198    38.696 
 O                     44.428    43.033    38.549 
 N                     48.728    45.319    43.403 
 C                     48.933    43.945    43.187 
 C                     50.347    43.722    42.923 
 C                     50.998    45.009    42.993 
 C                     49.96     46.013    43.351 
 C                     50.992    42.332    42.674 
 C                     52.419    45.221    42.695 
 O                     53.125    44.292    42.352 
 C                     53.048    46.549    42.776 
 N                     47.741    48.073    43.952 
 C                     49.079    48.321    43.964 
 C                     49.304    49.815    43.955 
 C                     47.941    50.442    44.286 
 C                     47.051    49.183    44.223 
 C                     50.565    50.39     44.792 
 C                     47.535    51.683    43.406 
 C                     46.955    52.815    44.292 
 N                     44.984    46.995    43.977 
 C                     44.566    48.34     44.241 
 C                     43.12     48.396    44.233 
 C                     42.748    47.032    43.988 
 C                     43.891    46.242    43.849 
 C                     42.338    49.655    44.479 
 C                     41.571    46.15     43.855 
 O                     40.345    46.381    43.975 
 C                     42.098    44.806    43.522 
 C                     41.606    43.948    44.612 
 O                     40.959    42.921    44.467 
 O                     42.157    44.359    45.848 
 C                     41.764    43.512    46.97 
 C                     44.41     42.634    37.091 
 C                     45.519    43.154    36.144 
 C                     46.173    42.49     35.156 
 C                     45.794    41.059    34.858 
 C                     47.206    43.189    34.386 
 C                     46.944    43.251    32.873 
 C                     45.532    43.838    32.477 
 C                     45.431    43.945    30.991 
 C                     44.876    45.322    30.489 
 C                     44.531    42.757    30.43 
 C                     45.185    42.224    29.108 
 C                     44.227    42.371    27.961 
 C                     44.921    43.211    26.747 
 C                     44.372    44.661    26.668 
 C                     44.729    42.582    25.361 
 C                     45.891    42.96     24.376 
 C                     46.898    41.874    24.212 
 C                     46.826    41.123    22.86 
 C                     46.282    39.715    23.089 
 C                     48.233    41.069    22.243 
 H                     48.309    41.91     42.791 
 H                     51.083    47.846    43.586 
 H                     45.305    50.318    44.797 
 H                     43.596    42.005    43.873 
 H                     45.896    41.405    42.057 
 H                     46.905    40.766    44.36 
 H                     45.703    39.736    43.557 
 H                     45.169    40.775    44.907 
 H                     42.328    41.973    42.037 
 H                     43.839    41.201    41.301 
 H                     44.248    43.766    40.913 
 H                     42.51     43.795    40.784 
 H                     51.374    42.238    41.657 
 H                     50.259    41.527    42.718 
 H                     51.705    42.144    43.476 
 H                     52.782    47.027    43.719 
 H                     52.727    47.199    41.962 
 H                     54.123    46.368    42.77 
 H                     49.51     49.991    42.899 
 H                     47.836    50.749    45.326 
 H                     50.956    49.536    45.344 
 H                     50.224    51.097    45.549 
 H                     51.342    50.795    44.143 
 H                     46.728    51.435    42.716 
 H                     48.383    52.033    42.818 
 H                     47.697    53.607    44.188 
 H                     46.676    52.564    45.316 
 H                     46.037    53.183    43.834 
 H                     42.789    50.289    45.242 
 H                     41.322    49.367    44.748 
 H                     42.212    50.205    43.546 
 H                     41.74     44.381    42.584 
 H                     42.298    43.787    47.88 
 H                     41.656    42.463    46.694 
 H                     40.79     43.874    47.299 
 H                     43.505    43.068    36.665 
 H                     44.431    41.546    37.039 
 H                     45.888    44.139    36.429 
 H                     46.474    40.596    34.143 
 H                     44.742    41.089    34.576 
 H                     45.948    40.63     35.848 
 H                     48.151    42.708    34.637 
 H                     47.317    44.21     34.752 
 H                     47.197    42.303    32.398 
 H                     47.701    43.95     32.515 
 H                     45.556    44.847    32.889 
 H                     44.793    43.208    32.973 
 H                     46.419    43.87     30.537 
 H                     44.635    45.973    31.329 
 H                     44.06     45.23     29.772 
 H                     45.591    45.87     29.875 
 H                     43.517    43.148    30.344 
 H                     44.561    41.839    31.018 
 H                     45.255    41.148    29.266 
 H                     46.218    42.526    28.932 
 H                     43.347    42.935    28.271 
 H                     43.806    41.43     27.606 
 H                     45.986    43.381    26.9 
 H                     45.182    45.374    26.822 
 H                     43.658    44.91     27.453 
 H                     43.9      44.859    25.705 
 H                     43.873    42.983    24.819 
 H                     44.515    41.515    25.432 
 H                     46.324    43.901    24.718 
 H                     45.465    43.143    23.39 
 H                     46.99     41.167    25.037 
 H                     47.888    42.329    24.27 
 H                     46.234    41.605    22.082 
 H                     46.865    38.909    22.644 
 H                     45.324    39.517    22.609 
 H                     46.034    39.532    24.134 
 H                     48.09     41.108    21.163 
 H                     48.737    40.134    22.489 
 H                     48.915    41.868    22.533 
 
 ITRead=  0  0  0  0  0  0  0  0  0  0  0  0  0  0  0  0  0  0  0  0
 ITRead=  0  0  0  0  0  0  0  0  0  0  0  0  0  0  0  0  0  0  0  0
 ITRead=  0  0  0  0  0  0  0  0  0  0  0  0  0  0  0  0  0  0  0  0
 ITRead=  0  0  0  0  0  0  0  0  0  0  0  0  0  0  0  0  0  0  0  0
 ITRead=  0  0  0  0  0  0  0  0  0  0  0  0  0  0  0  0  0  0  0  0
 ITRead=  0  0  0  0  0  0  0  0  0  0  0  0  0  0  0  0  0  0  0  0
 ITRead=  0  0  0  0  0  0  0  0  0  0  0  0  0  0  0  0  0  0  0  0
 MicOpt= -1 -1 -1 -1 -1 -1 -1 -1 -1 -1 -1 -1 -1 -1 -1 -1 -1 -1 -1 -1
 MicOpt= -1 -1 -1 -1 -1 -1 -1 -1 -1 -1 -1 -1 -1 -1 -1 -1 -1 -1 -1 -1
 MicOpt= -1 -1 -1 -1 -1 -1 -1 -1 -1 -1 -1 -1 -1 -1 -1 -1 -1 -1 -1 -1
 MicOpt= -1 -1 -1 -1 -1 -1 -1 -1 -1 -1 -1 -1 -1 -1 -1 -1 -1 -1 -1 -1
 MicOpt= -1 -1 -1 -1 -1 -1 -1 -1 -1 -1 -1 -1 -1 -1 -1 -1 -1 -1 -1 -1
 MicOpt= -1 -1 -1 -1 -1 -1 -1 -1 -1 -1 -1 -1 -1 -1 -1 -1 -1 -1 -1 -1
 MicOpt= -1 -1 -1 -1 -1 -1 -1 -1 -1 -1 -1 -1 -1 -1 -1 -1 -1 -1 -1 -1
 NAtoms=    140 NQM=      140 NQMF=       0 NMMI=      0 NMMIF=      0
                NMic=       0 NMicF=      0.
                    Isotopes and Nuclear Properties:
 (Nuclear quadrupole moments (NQMom) in fm**2, nuclear magnetic moments (NMagM)
  in nuclear magnetons)

  Atom         1           2           3           4           5           6           7           8           9          10
 IAtWgt=          24          12          12          12          12          14          12          12          12          12
 AtmWgt=  23.9850450  12.0000000  12.0000000  12.0000000  12.0000000  14.0030740  12.0000000  12.0000000  12.0000000  12.0000000
 NucSpn=           0           0           0           0           0           2           0           0           0           0
 AtZEff=  -0.0000000  -0.0000000  -0.0000000  -0.0000000  -0.0000000  -0.0000000  -0.0000000  -0.0000000  -0.0000000  -0.0000000
 NQMom=    0.0000000   0.0000000   0.0000000   0.0000000   0.0000000   2.0440000   0.0000000   0.0000000   0.0000000   0.0000000
 NMagM=    0.0000000   0.0000000   0.0000000   0.0000000   0.0000000   0.4037610   0.0000000   0.0000000   0.0000000   0.0000000
 AtZNuc=  12.0000000   6.0000000   6.0000000   6.0000000   6.0000000   7.0000000   6.0000000   6.0000000   6.0000000   6.0000000

  Atom        11          12          13          14          15          16          17          18          19          20
 IAtWgt=          12          12          12          12          16          16          14          12          12          12
 AtmWgt=  12.0000000  12.0000000  12.0000000  12.0000000  15.9949146  15.9949146  14.0030740  12.0000000  12.0000000  12.0000000
 NucSpn=           0           0           0           0           0           0           2           0           0           0
 AtZEff=  -0.0000000  -0.0000000  -0.0000000  -0.0000000  -0.0000000  -0.0000000  -0.0000000  -0.0000000  -0.0000000  -0.0000000
 NQMom=    0.0000000   0.0000000   0.0000000   0.0000000   0.0000000   0.0000000   2.0440000   0.0000000   0.0000000   0.0000000
 NMagM=    0.0000000   0.0000000   0.0000000   0.0000000   0.0000000   0.0000000   0.4037610   0.0000000   0.0000000   0.0000000
 AtZNuc=   6.0000000   6.0000000   6.0000000   6.0000000   8.0000000   8.0000000   7.0000000   6.0000000   6.0000000   6.0000000

  Atom        21          22          23          24          25          26          27          28          29          30
 IAtWgt=          12          12          12          16          12          14          12          12          12          12
 AtmWgt=  12.0000000  12.0000000  12.0000000  15.9949146  12.0000000  14.0030740  12.0000000  12.0000000  12.0000000  12.0000000
 NucSpn=           0           0           0           0           0           2           0           0           0           0
 AtZEff=  -0.0000000  -0.0000000  -0.0000000  -0.0000000  -0.0000000  -0.0000000  -0.0000000  -0.0000000  -0.0000000  -0.0000000
 NQMom=    0.0000000   0.0000000   0.0000000   0.0000000   0.0000000   2.0440000   0.0000000   0.0000000   0.0000000   0.0000000
 NMagM=    0.0000000   0.0000000   0.0000000   0.0000000   0.0000000   0.4037610   0.0000000   0.0000000   0.0000000   0.0000000
 AtZNuc=   6.0000000   6.0000000   6.0000000   8.0000000   6.0000000   7.0000000   6.0000000   6.0000000   6.0000000   6.0000000

  Atom        31          32          33          34          35          36          37          38          39          40
 IAtWgt=          12          12          12          14          12          12          12          12          12          12
 AtmWgt=  12.0000000  12.0000000  12.0000000  14.0030740  12.0000000  12.0000000  12.0000000  12.0000000  12.0000000  12.0000000
 NucSpn=           0           0           0           2           0           0           0           0           0           0
 AtZEff=  -0.0000000  -0.0000000  -0.0000000  -0.0000000  -0.0000000  -0.0000000  -0.0000000  -0.0000000  -0.0000000  -0.0000000
 NQMom=    0.0000000   0.0000000   0.0000000   2.0440000   0.0000000   0.0000000   0.0000000   0.0000000   0.0000000   0.0000000
 NMagM=    0.0000000   0.0000000   0.0000000   0.4037610   0.0000000   0.0000000   0.0000000   0.0000000   0.0000000   0.0000000
 AtZNuc=   6.0000000   6.0000000   6.0000000   7.0000000   6.0000000   6.0000000   6.0000000   6.0000000   6.0000000   6.0000000

  Atom        41          42          43          44          45          46          47          48          49          50
 IAtWgt=          16          12          12          16          16          12          12          12          12          12
 AtmWgt=  15.9949146  12.0000000  12.0000000  15.9949146  15.9949146  12.0000000  12.0000000  12.0000000  12.0000000  12.0000000
 NucSpn=           0           0           0           0           0           0           0           0           0           0
 AtZEff=  -0.0000000  -0.0000000  -0.0000000  -0.0000000  -0.0000000  -0.0000000  -0.0000000  -0.0000000  -0.0000000  -0.0000000
 NQMom=    0.0000000   0.0000000   0.0000000   0.0000000   0.0000000   0.0000000   0.0000000   0.0000000   0.0000000   0.0000000
 NMagM=    0.0000000   0.0000000   0.0000000   0.0000000   0.0000000   0.0000000   0.0000000   0.0000000   0.0000000   0.0000000
 AtZNuc=   8.0000000   6.0000000   6.0000000   8.0000000   8.0000000   6.0000000   6.0000000   6.0000000   6.0000000   6.0000000

  Atom        51          52          53          54          55          56          57          58          59          60
 IAtWgt=          12          12          12          12          12          12          12          12          12          12
 AtmWgt=  12.0000000  12.0000000  12.0000000  12.0000000  12.0000000  12.0000000  12.0000000  12.0000000  12.0000000  12.0000000
 NucSpn=           0           0           0           0           0           0           0           0           0           0
 AtZEff=  -0.0000000  -0.0000000  -0.0000000  -0.0000000  -0.0000000  -0.0000000  -0.0000000  -0.0000000  -0.0000000  -0.0000000
 NQMom=    0.0000000   0.0000000   0.0000000   0.0000000   0.0000000   0.0000000   0.0000000   0.0000000   0.0000000   0.0000000
 NMagM=    0.0000000   0.0000000   0.0000000   0.0000000   0.0000000   0.0000000   0.0000000   0.0000000   0.0000000   0.0000000
 AtZNuc=   6.0000000   6.0000000   6.0000000   6.0000000   6.0000000   6.0000000   6.0000000   6.0000000   6.0000000   6.0000000

  Atom        61          62          63          64          65          66          67          68          69          70
 IAtWgt=          12          12          12          12          12          12           1           1           1           1
 AtmWgt=  12.0000000  12.0000000  12.0000000  12.0000000  12.0000000  12.0000000   1.0078250   1.0078250   1.0078250   1.0078250
 NucSpn=           0           0           0           0           0           0           1           1           1           1
 AtZEff=  -0.0000000  -0.0000000  -0.0000000  -0.0000000  -0.0000000  -0.0000000  -0.0000000  -0.0000000  -0.0000000  -0.0000000
 NQMom=    0.0000000   0.0000000   0.0000000   0.0000000   0.0000000   0.0000000   0.0000000   0.0000000   0.0000000   0.0000000
 NMagM=    0.0000000   0.0000000   0.0000000   0.0000000   0.0000000   0.0000000   2.7928460   2.7928460   2.7928460   2.7928460
 AtZNuc=   6.0000000   6.0000000   6.0000000   6.0000000   6.0000000   6.0000000   1.0000000   1.0000000   1.0000000   1.0000000

  Atom        71          72          73          74          75          76          77          78          79          80
 IAtWgt=           1           1           1           1           1           1           1           1           1           1
 AtmWgt=   1.0078250   1.0078250   1.0078250   1.0078250   1.0078250   1.0078250   1.0078250   1.0078250   1.0078250   1.0078250
 NucSpn=           1           1           1           1           1           1           1           1           1           1
 AtZEff=  -0.0000000  -0.0000000  -0.0000000  -0.0000000  -0.0000000  -0.0000000  -0.0000000  -0.0000000  -0.0000000  -0.0000000
 NQMom=    0.0000000   0.0000000   0.0000000   0.0000000   0.0000000   0.0000000   0.0000000   0.0000000   0.0000000   0.0000000
 NMagM=    2.7928460   2.7928460   2.7928460   2.7928460   2.7928460   2.7928460   2.7928460   2.7928460   2.7928460   2.7928460
 AtZNuc=   1.0000000   1.0000000   1.0000000   1.0000000   1.0000000   1.0000000   1.0000000   1.0000000   1.0000000   1.0000000

  Atom        81          82          83          84          85          86          87          88          89          90
 IAtWgt=           1           1           1           1           1           1           1           1           1           1
 AtmWgt=   1.0078250   1.0078250   1.0078250   1.0078250   1.0078250   1.0078250   1.0078250   1.0078250   1.0078250   1.0078250
 NucSpn=           1           1           1           1           1           1           1           1           1           1
 AtZEff=  -0.0000000  -0.0000000  -0.0000000  -0.0000000  -0.0000000  -0.0000000  -0.0000000  -0.0000000  -0.0000000  -0.0000000
 NQMom=    0.0000000   0.0000000   0.0000000   0.0000000   0.0000000   0.0000000   0.0000000   0.0000000   0.0000000   0.0000000
 NMagM=    2.7928460   2.7928460   2.7928460   2.7928460   2.7928460   2.7928460   2.7928460   2.7928460   2.7928460   2.7928460
 AtZNuc=   1.0000000   1.0000000   1.0000000   1.0000000   1.0000000   1.0000000   1.0000000   1.0000000   1.0000000   1.0000000

  Atom        91          92          93          94          95          96          97          98          99         100
 IAtWgt=           1           1           1           1           1           1           1           1           1           1
 AtmWgt=   1.0078250   1.0078250   1.0078250   1.0078250   1.0078250   1.0078250   1.0078250   1.0078250   1.0078250   1.0078250
 NucSpn=           1           1           1           1           1           1           1           1           1           1
 AtZEff=  -0.0000000  -0.0000000  -0.0000000  -0.0000000  -0.0000000  -0.0000000  -0.0000000  -0.0000000  -0.0000000  -0.0000000
 NQMom=    0.0000000   0.0000000   0.0000000   0.0000000   0.0000000   0.0000000   0.0000000   0.0000000   0.0000000   0.0000000
 NMagM=    2.7928460   2.7928460   2.7928460   2.7928460   2.7928460   2.7928460   2.7928460   2.7928460   2.7928460   2.7928460
 AtZNuc=   1.0000000   1.0000000   1.0000000   1.0000000   1.0000000   1.0000000   1.0000000   1.0000000   1.0000000   1.0000000

  Atom       101         102         103         104         105         106         107         108         109         110
 IAtWgt=           1           1           1           1           1           1           1           1           1           1
 AtmWgt=   1.0078250   1.0078250   1.0078250   1.0078250   1.0078250   1.0078250   1.0078250   1.0078250   1.0078250   1.0078250
 NucSpn=           1           1           1           1           1           1           1           1           1           1
 AtZEff=  -0.0000000  -0.0000000  -0.0000000  -0.0000000  -0.0000000  -0.0000000  -0.0000000  -0.0000000  -0.0000000  -0.0000000
 NQMom=    0.0000000   0.0000000   0.0000000   0.0000000   0.0000000   0.0000000   0.0000000   0.0000000   0.0000000   0.0000000
 NMagM=    2.7928460   2.7928460   2.7928460   2.7928460   2.7928460   2.7928460   2.7928460   2.7928460   2.7928460   2.7928460
 AtZNuc=   1.0000000   1.0000000   1.0000000   1.0000000   1.0000000   1.0000000   1.0000000   1.0000000   1.0000000   1.0000000

  Atom       111         112         113         114         115         116         117         118         119         120
 IAtWgt=           1           1           1           1           1           1           1           1           1           1
 AtmWgt=   1.0078250   1.0078250   1.0078250   1.0078250   1.0078250   1.0078250   1.0078250   1.0078250   1.0078250   1.0078250
 NucSpn=           1           1           1           1           1           1           1           1           1           1
 AtZEff=  -0.0000000  -0.0000000  -0.0000000  -0.0000000  -0.0000000  -0.0000000  -0.0000000  -0.0000000  -0.0000000  -0.0000000
 NQMom=    0.0000000   0.0000000   0.0000000   0.0000000   0.0000000   0.0000000   0.0000000   0.0000000   0.0000000   0.0000000
 NMagM=    2.7928460   2.7928460   2.7928460   2.7928460   2.7928460   2.7928460   2.7928460   2.7928460   2.7928460   2.7928460
 AtZNuc=   1.0000000   1.0000000   1.0000000   1.0000000   1.0000000   1.0000000   1.0000000   1.0000000   1.0000000   1.0000000

  Atom       121         122         123         124         125         126         127         128         129         130
 IAtWgt=           1           1           1           1           1           1           1           1           1           1
 AtmWgt=   1.0078250   1.0078250   1.0078250   1.0078250   1.0078250   1.0078250   1.0078250   1.0078250   1.0078250   1.0078250
 NucSpn=           1           1           1           1           1           1           1           1           1           1
 AtZEff=  -0.0000000  -0.0000000  -0.0000000  -0.0000000  -0.0000000  -0.0000000  -0.0000000  -0.0000000  -0.0000000  -0.0000000
 NQMom=    0.0000000   0.0000000   0.0000000   0.0000000   0.0000000   0.0000000   0.0000000   0.0000000   0.0000000   0.0000000
 NMagM=    2.7928460   2.7928460   2.7928460   2.7928460   2.7928460   2.7928460   2.7928460   2.7928460   2.7928460   2.7928460
 AtZNuc=   1.0000000   1.0000000   1.0000000   1.0000000   1.0000000   1.0000000   1.0000000   1.0000000   1.0000000   1.0000000

  Atom       131         132         133         134         135         136         137         138         139         140
 IAtWgt=           1           1           1           1           1           1           1           1           1           1
 AtmWgt=   1.0078250   1.0078250   1.0078250   1.0078250   1.0078250   1.0078250   1.0078250   1.0078250   1.0078250   1.0078250
 NucSpn=           1           1           1           1           1           1           1           1           1           1
 AtZEff=  -0.0000000  -0.0000000  -0.0000000  -0.0000000  -0.0000000  -0.0000000  -0.0000000  -0.0000000  -0.0000000  -0.0000000
 NQMom=    0.0000000   0.0000000   0.0000000   0.0000000   0.0000000   0.0000000   0.0000000   0.0000000   0.0000000   0.0000000
 NMagM=    2.7928460   2.7928460   2.7928460   2.7928460   2.7928460   2.7928460   2.7928460   2.7928460   2.7928460   2.7928460
 AtZNuc=   1.0000000   1.0000000   1.0000000   1.0000000   1.0000000   1.0000000   1.0000000   1.0000000   1.0000000   1.0000000
 Leave Link  101 at Wed Apr 27 01:41:15 2022, MaxMem= 10066329600 cpu:               2.8 elap:               0.1
 (Enter /sw/apps/gaussian-16.0/g16/l202.exe)
 Stoichiometry    C55H74MgN4O6
 Framework group  C1[X(C55H74MgN4O6)]
 Deg. of freedom   414
 Full point group                 C1      NOp   1
 Largest Abelian subgroup         C1      NOp   1
 Largest concise Abelian subgroup C1      NOp   1
                         Standard orientation:                         
 ---------------------------------------------------------------------
 Center     Atomic      Atomic             Coordinates (Angstroms)
 Number     Number       Type             X           Y           Z
 ---------------------------------------------------------------------
      1         12           0        5.381392    0.804596   -0.170539
      2          6           0        4.626177   -2.653599    0.092578
      3          6           0        3.789098    0.703656   -3.317706
      4          6           0        5.426261    4.257066   -0.135516
      5          6           0        6.555395    0.705026    3.094090
      6          7           0        4.306306   -0.830916   -1.467937
      7          6           0        4.212758   -2.173548   -1.169650
      8          6           0        3.543284   -2.920531   -2.329976
      9          6           0        3.390323   -1.805681   -3.394290
     10          6           0        3.921838   -0.572793   -2.680202
     11          6           0        4.133658   -2.104307   -4.726698
     12          6           0        2.188729   -3.667932   -2.067554
     13          6           0        1.361132   -3.160306   -0.847325
     14          6           0       -0.119755   -3.242629   -0.806003
     15          8           0       -0.790694   -4.261048   -0.904877
     16          8           0       -0.693155   -2.009616   -0.893964
     17          7           0        4.649773    2.280435   -1.464661
     18          6           0        4.116557    2.004337   -2.735884
     19          6           0        3.834979    3.265672   -3.405637
     20          6           0        4.222595    4.320977   -2.499460
     21          6           0        4.789042    3.676876   -1.283773
     22          6           0        3.274593    3.395860   -4.847561
     23          6           0        4.011837    5.747358   -2.771503
     24          8           0        3.471278    6.108362   -3.799412
     25          6           0        4.419473    6.795672   -1.822474
     26          7           0        5.819848    2.286669    1.272303
     27          6           0        5.917035    3.615860    0.997171
     28          6           0        6.268878    4.357812    2.265420
     29          6           0        6.712823    3.280592    3.266903
     30          6           0        6.333960    2.012639    2.473235
     31          6           0        7.243546    5.644274    2.137542
     32          6           0        6.146183    3.439245    4.727404
     33          6           0        7.264858    3.209784    5.775609
     34          7           0        5.532716   -0.659410    1.316294
     35          6           0        6.101421   -0.596483    2.630090
     36          6           0        6.078454   -1.918087    3.219117
     37          6           0        5.508071   -2.723200    2.177310
     38          6           0        5.207352   -1.928686    1.069075
     39          6           0        6.601994   -2.221798    4.594176
     40          6           0        5.145442   -4.115872    1.845789
     41          8           0        5.292819   -5.184517    2.483845
     42          6           0        4.512131   -4.069916    0.507223
     43          6           0        5.356246   -4.948145   -0.318919
     44          8           0        4.957865   -5.899159   -0.975599
     45          8           0        6.665219   -4.421647   -0.416932
     46          6           0        7.544982   -5.207454   -1.276739
     47          6           0       -2.204300   -2.013425   -0.935376
     48          6           0       -2.977957   -0.697990   -0.674273
     49          6           0       -4.082648   -0.222299   -1.305249
     50          6           0       -4.720602   -1.052139   -2.393636
     51          6           0       -4.643274    1.067517   -0.892135
     52          6           0       -6.102746    1.007231   -0.414681
     53          6           0       -6.375200   -0.052432    0.724623
     54          6           0       -7.794550    0.049904    1.177190
     55          6           0       -7.964686    0.078483    2.734879
     56          6           0       -8.640230   -1.149098    0.558089
     57          6           0      -10.037998   -0.591239    0.117037
     58          6           0      -11.135574   -1.306298    0.851203
     59          6           0      -12.100392   -0.233768    1.612674
     60          6           0      -11.842287   -0.218591    3.143456
     61          6           0      -13.599890   -0.488684    1.412613
     62          6           0      -14.443247    0.829418    1.533889
     63          6           0      -14.841486    1.394908    0.214052
     64          6           0      -16.334684    1.204327   -0.148063
     65          6           0      -16.458711    0.173470   -1.267346
     66          6           0      -16.918867    2.556886   -0.586889
     67          1           0        3.234629    0.742344   -4.258051
     68          1           0        5.476343    5.347289   -0.094831
     69          1           0        7.127387    0.734958    4.023790
     70          1           0        4.214815   -3.714187   -2.654717
     71          1           0        2.353913   -1.599600   -3.661406
     72          1           0        4.457656   -1.135334   -5.106720
     73          1           0        3.408703   -2.532695   -5.419121
     74          1           0        4.956648   -2.801907   -4.571437
     75          1           0        2.399449   -4.707536   -1.819584
     76          1           0        1.530617   -3.501505   -2.920230
     77          1           0        1.773400   -2.166985   -0.671416
     78          1           0        1.620744   -3.756420    0.027526
     79          1           0        2.272249    3.825137   -4.856367
     80          1           0        3.110948    2.423983   -5.312240
     81          1           0        4.022573    3.905549   -5.453910
     82          1           0        5.443793    6.618720   -1.493922
     83          1           0        3.777712    6.815723   -0.941635
     84          1           0        4.391725    7.729823   -2.383734
     85          1           0        5.289554    4.724011    2.574243
     86          1           0        7.793743    3.181887    3.360412
     87          1           0        7.583665    5.644405    1.102544
     88          1           0        8.140373    5.499033    2.740687
     89          1           0        6.725270    6.578853    2.354120
     90          1           0        5.401161    2.675094    4.950718
     91          1           0        5.675427    4.413663    4.854866
     92          1           0        7.367324    4.191765    6.238057
     93          1           0        8.193791    2.752505    5.432975
     94          1           0        6.889753    2.537320    6.546971
     95          1           0        7.502882   -1.658421    4.836111
     96          1           0        6.774472   -3.296181    4.653441
     97          1           0        5.824699   -2.043683    5.337784
     98          1           0        3.492980   -4.453911    0.457098
     99          1           0        8.504663   -4.710517   -1.421466
    100          1           0        7.024801   -5.651993   -2.125289
    101          1           0        7.931495   -6.017716   -0.658642
    102          1           0       -2.532344   -2.653716   -0.116065
    103          1           0       -2.513733   -2.375912   -1.915041
    104          1           0       -2.459140   -0.034902    0.017649
    105          1           0       -5.511791   -0.509747   -2.911154
    106          1           0       -5.008035   -1.988100   -1.915633
    107          1           0       -3.858565   -1.167224   -3.050526
    108          1           0       -4.495563    1.746808   -1.731260
    109          1           0       -4.042321    1.495299   -0.089280
    110          1           0       -6.784947    0.954958   -1.263332
    111          1           0       -6.268781    1.997018    0.012598
    112          1           0       -5.734160    0.285419    1.539071
    113          1           0       -6.058368   -1.015605    0.323435
    114          1           0       -8.233743    0.988673    0.839986
    115          1           0       -6.998643   -0.002692    3.232527
    116          1           0       -8.698914   -0.635590    3.108265
    117          1           0       -8.416114    1.002716    3.096171
    118          1           0       -8.650546   -1.942043    1.306155
    119          1           0       -8.287539   -1.510725   -0.408453
    120          1           0      -10.139699   -0.926289   -0.914970
    121          1           0      -10.116503    0.494025    0.044185
    122          1           0      -10.717501   -1.955329    1.620988
    123          1           0      -11.712897   -1.994546    0.233335
    124          1           0      -11.890282    0.799211    1.338187
    125          1           0      -11.506800    0.770950    3.454007
    126          1           0      -11.034815   -0.876210    3.465245
    127          1           0      -12.739452   -0.483868    3.703885
    128          1           0      -14.047467   -1.082907    2.208776
    129          1           0      -13.789528   -1.074932    0.512792
    130          1           0      -13.878311    1.530189    2.150088
    131          1           0      -15.365412    0.603948    2.068619
    132          1           0      -14.207153    1.140793   -0.635645
    133          1           0      -14.657161    2.469868    0.245257
    134          1           0      -16.986888    0.909130    0.673861
    135          1           0      -17.071417    0.474941   -2.116614
    136          1           0      -16.990891   -0.735381   -0.987806
    137          1           0      -15.492566   -0.233043   -1.564547
    138          1           0      -17.961042    2.552846   -0.267165
    139          1           0      -16.892942    2.665604   -1.671447
    140          1           0      -16.433354    3.443769   -0.180268
 ---------------------------------------------------------------------
 Rotational constants (GHZ):           0.0379166           0.0094694           0.0088543
 Leave Link  202 at Wed Apr 27 01:41:15 2022, MaxMem= 10066329600 cpu:               1.1 elap:               0.1
 (Enter /sw/apps/gaussian-16.0/g16/l301.exe)
 Standard basis: def2SVP (5D, 7F)
 Ernie: Thresh=  0.10000D-02 Tol=  0.10000D-05 Strict=F.
 There are  1364 symmetry adapted cartesian basis functions of A   symmetry.
 There are  1298 symmetry adapted basis functions of A   symmetry.
  1298 basis functions,  2180 primitive gaussians,  1364 cartesian basis functions
   246 alpha electrons      246 beta electrons
       nuclear repulsion energy      9522.5659095092 Hartrees.
 IExCor=20419 DFT=T Ex+Corr=CAM-B3LYP ExCW=0 ScaHFX=  1.000000
 ScaDFX=  1.000000  1.000000  1.000000  0.810000 ScalE2=  1.000000  1.000000
 IRadAn=      5 IRanWt=     -1 IRanGd=            0 ICorTp=0 IEmpDi=  4
 HFx  wShort=  0.000000 wLong=  0.330000 cFull=  0.190000 cShort=  0.000000 cLong=  0.460000
 DFx  wShort=  0.000000 wLong=  0.330000 cFull=  0.190000 cShort=  0.000000 cLong=  0.460000
 NAtoms=  140 NActive=  140 NUniq=  140 SFac= 1.00D+00 NAtFMM=   60 NAOKFM=T Big=T
 Integral buffers will be    131072 words long.
 Raffenetti 1 integral format.
 Two-electron integral symmetry is turned on.
 Leave Link  301 at Wed Apr 27 01:41:16 2022, MaxMem= 10066329600 cpu:               1.3 elap:               0.1
 (Enter /sw/apps/gaussian-16.0/g16/l302.exe)
 NPDir=0 NMtPBC=     1 NCelOv=     1 NCel=       1 NClECP=     1 NCelD=      1
         NCelK=      1 NCelE2=     1 NClLst=     1 CellRange=     0.0.
 One-electron integrals computed using PRISM.
 One-electron integral symmetry used in STVInt
   1 Symmetry operations used in ECPInt.
 ECPInt:  NShTT=  192510 NPrTT=  683786 LenC2=   93723 LenP2D=  205753.
 LDataN:  DoStor=T MaxTD1= 4 Len=   56
 NBasis=  1298 RedAO= T EigKep=  1.91D-04  NBF=  1298
 NBsUse=  1298 1.00D-06 EigRej= -1.00D+00 NBFU=  1298
 Precomputing XC quadrature grid using
 IXCGrd= 4 IRadAn=           5 IRanWt=          -1 IRanGd=           0 AccXCQ= 0.00D+00.
 Generated NRdTot=       0 NPtTot=           0 NUsed=           0 NTot=          32
 NSgBfM=  1053  1053  1053  1053  1053 MxSgAt=   140 MxSgA2=   140.
 Leave Link  302 at Wed Apr 27 01:41:19 2022, MaxMem= 10066329600 cpu:              92.3 elap:               3.9
 (Enter /sw/apps/gaussian-16.0/g16/l303.exe)
 DipDrv:  MaxL=1.
 Leave Link  303 at Wed Apr 27 01:41:20 2022, MaxMem= 10066329600 cpu:               6.1 elap:               0.3
 (Enter /sw/apps/gaussian-16.0/g16/l308.exe)
 Leave Link  308 at Wed Apr 27 01:41:20 2022, MaxMem= 10066329600 cpu:               8.2 elap:               0.4
 (Enter /sw/apps/gaussian-16.0/g16/l401.exe)
 ExpMin= 3.36D-02 ExpMax= 4.95D+03 ExpMxC= 7.45D+02 IAcc=3 IRadAn=         5 AccDes= 0.00D+00
 Harris functional with IExCor=20419 and IRadAn=       5 diagonalized for initial guess.
 HarFok:  IExCor=20419 AccDes= 0.00D+00 IRadAn=         5 IDoV= 1 UseB2=F ITyADJ=14
 ICtDFT=  3500011 ScaDFX=  1.000000  1.000000  1.000000  1.000000
 FoFCou: FMM=F IPFlag=           0 FMFlag=      100000 FMFlg1=        2001
         NFxFlg=           0 DoJE=T BraDBF=F KetDBF=T FulRan=T
         wScrn=  0.000000 ICntrl=       500 IOpCl=  0 I1Cent=   200000004 NGrid=           0
         NMat0=    1 NMatS0=      1 NMatT0=    0 NMatD0=    1 NMtDS0=    0 NMtDT0=    0
 Petite list used in FoFCou.
 Harris En= -2890.85185965118    
 JPrj=0 DoOrth=F DoCkMO=F.
 Leave Link  401 at Wed Apr 27 01:41:25 2022, MaxMem= 10066329600 cpu:             126.8 elap:               5.3
 (Enter /sw/apps/gaussian-16.0/g16/l502.exe)
 Integral symmetry usage will be decided dynamically.
 Closed shell SCF:
 Using DIIS extrapolation, IDIIS=  1040.
 NGot= 10066329600 LenX= 10062561258 LenY= 10060699398
 Requested convergence on RMS density matrix=1.00D-08 within 128 cycles.
 Requested convergence on MAX density matrix=1.00D-06.
 Requested convergence on             energy=1.00D-06.
 No special actions if energy rises.
 Fock matrices will be formed incrementally for  20 cycles.

 Cycle   1  Pass 1  IDiag  1:
 FoFJK:  IHMeth= 1 ICntrl=       0 DoSepK=T KAlg= 0 I1Cent=           0 FoldK=F
 IRaf=         1 NMat=       1 IRICut=       1 DoRegI=T DoRafI=F ISym2E= 0 IDoP0=0 IntGTp=1.
 FoFCou: FMM=T IPFlag=           0 FMFlag=      100000 FMFlg1=        2001
         NFxFlg=           0 DoJE=T BraDBF=F KetDBF=F FulRan=T
         wScrn=  0.000000 ICntrl=       500 IOpCl=  0 I1Cent=           0 NGrid=           0
         NMat0=    1 NMatS0=      1 NMatT0=    0 NMatD0=    1 NMtDS0=    0 NMtDT0=    0
 Symmetry not used in FoFCou.
 FMM levels:  10  Number of levels for PrismC:   9
 E= -3006.49318555116    
 DIIS: error= 2.34D-02 at cycle   1 NSaved=   1.
 NSaved= 1 IEnMin= 1 EnMin= -3006.49318555116     IErMin= 1 ErrMin= 2.34D-02
 ErrMax= 2.34D-02  0.00D+00 EMaxC= 1.00D-01 BMatC= 1.26D+00 BMatP= 1.26D+00
 IDIUse=3 WtCom= 7.66D-01 WtEn= 2.34D-01
 Coeff-Com:  0.100D+01
 Coeff-En:   0.100D+01
 Coeff:      0.100D+01
 Gap=     0.128 Goal=   None    Shift=    0.000
 GapD=    0.128 DampG=1.000 DampE=0.500 DampFc=0.5000 IDamp=-1.
 Damping current iteration by 5.00D-01
 RMSDP=1.57D-03 MaxDP=1.89D-01              OVMax= 1.81D-01

 Cycle   2  Pass 1  IDiag  1:
 RMSU=  7.72D-04    CP:  9.84D-01
 E= -3006.79655286650     Delta-E=       -0.303367315331 Rises=F Damp=T
 DIIS: error= 1.02D-02 at cycle   2 NSaved=   2.
 NSaved= 2 IEnMin= 2 EnMin= -3006.79655286650     IErMin= 2 ErrMin= 1.02D-02
 ErrMax= 1.02D-02  0.00D+00 EMaxC= 1.00D-01 BMatC= 2.30D-01 BMatP= 1.26D+00
 IDIUse=3 WtCom= 8.98D-01 WtEn= 1.02D-01
 Coeff-Com: -0.228D+00 0.123D+01
 Coeff-En:   0.000D+00 0.100D+01
 Coeff:     -0.205D+00 0.121D+01
 Gap=     0.135 Goal=   None    Shift=    0.000
 RMSDP=7.25D-04 MaxDP=1.01D-01 DE=-3.03D-01 OVMax= 1.52D-01

 Cycle   3  Pass 1  IDiag  1:
 RMSU=  7.01D-04    CP:  9.73D-01  1.19D+00
 E= -3007.02685831437     Delta-E=       -0.230305447874 Rises=F Damp=F
 DIIS: error= 1.60D-02 at cycle   3 NSaved=   3.
 NSaved= 3 IEnMin= 3 EnMin= -3007.02685831437     IErMin= 2 ErrMin= 1.02D-02
 ErrMax= 1.60D-02  0.00D+00 EMaxC= 1.00D-01 BMatC= 1.42D-01 BMatP= 2.30D-01
 IDIUse=3 WtCom= 8.40D-01 WtEn= 1.60D-01
 Coeff-Com: -0.269D+00 0.649D+00 0.621D+00
 Coeff-En:   0.000D+00 0.000D+00 0.100D+01
 Coeff:     -0.226D+00 0.545D+00 0.682D+00
 Gap=     0.126 Goal=   None    Shift=    0.000
 RMSDP=4.73D-04 MaxDP=5.34D-02 DE=-2.30D-01 OVMax= 1.06D-01

 Cycle   4  Pass 1  IDiag  1:
 RMSU=  2.59D-04    CP:  9.69D-01  1.52D+00  5.63D-01
 E= -3007.11907474648     Delta-E=       -0.092216432113 Rises=F Damp=F
 DIIS: error= 8.13D-03 at cycle   4 NSaved=   4.
 NSaved= 4 IEnMin= 4 EnMin= -3007.11907474648     IErMin= 4 ErrMin= 8.13D-03
 ErrMax= 8.13D-03  0.00D+00 EMaxC= 1.00D-01 BMatC= 3.65D-02 BMatP= 1.42D-01
 IDIUse=3 WtCom= 9.19D-01 WtEn= 8.13D-02
 Coeff-Com: -0.108D+00 0.222D+00 0.410D+00 0.477D+00
 Coeff-En:   0.000D+00 0.000D+00 0.215D+00 0.785D+00
 Coeff:     -0.995D-01 0.204D+00 0.394D+00 0.502D+00
 Gap=     0.124 Goal=   None    Shift=    0.000
 RMSDP=1.75D-04 MaxDP=2.30D-02 DE=-9.22D-02 OVMax= 3.89D-02

 Cycle   5  Pass 1  IDiag  1:
 RMSU=  7.01D-05    CP:  9.69D-01  1.46D+00  7.16D-01  5.72D-01
 E= -3007.14938971839     Delta-E=       -0.030314971908 Rises=F Damp=F
 DIIS: error= 6.74D-04 at cycle   5 NSaved=   5.
 NSaved= 5 IEnMin= 5 EnMin= -3007.14938971839     IErMin= 5 ErrMin= 6.74D-04
 ErrMax= 6.74D-04  0.00D+00 EMaxC= 1.00D-01 BMatC= 6.56D-04 BMatP= 3.65D-02
 IDIUse=3 WtCom= 9.93D-01 WtEn= 6.74D-03
 Coeff-Com: -0.356D-01 0.696D-01 0.161D+00 0.239D+00 0.566D+00
 Coeff-En:   0.000D+00 0.000D+00 0.000D+00 0.000D+00 0.100D+01
 Coeff:     -0.353D-01 0.691D-01 0.160D+00 0.238D+00 0.569D+00
 Gap=     0.123 Goal=   None    Shift=    0.000
 RMSDP=3.16D-05 MaxDP=4.76D-03 DE=-3.03D-02 OVMax= 1.05D-02

 Cycle   6  Pass 1  IDiag  1:
 RMSU=  2.42D-05    CP:  9.69D-01  1.46D+00  7.15D-01  6.16D-01  7.62D-01
 E= -3007.14990167076     Delta-E=       -0.000511952368 Rises=F Damp=F
 DIIS: error= 2.41D-04 at cycle   6 NSaved=   6.
 NSaved= 6 IEnMin= 6 EnMin= -3007.14990167076     IErMin= 6 ErrMin= 2.41D-04
 ErrMax= 2.41D-04  0.00D+00 EMaxC= 1.00D-01 BMatC= 1.04D-04 BMatP= 6.56D-04
 IDIUse=3 WtCom= 9.98D-01 WtEn= 2.41D-03
 Coeff-Com:  0.214D-02-0.612D-02 0.802D-02 0.326D-01 0.312D+00 0.651D+00
 Coeff-En:   0.000D+00 0.000D+00 0.000D+00 0.000D+00 0.112D+00 0.888D+00
 Coeff:      0.214D-02-0.611D-02 0.800D-02 0.325D-01 0.312D+00 0.652D+00
 Gap=     0.124 Goal=   None    Shift=    0.000
 RMSDP=1.49D-05 MaxDP=3.32D-03 DE=-5.12D-04 OVMax= 5.49D-03

 Cycle   7  Pass 1  IDiag  1:
 RMSU=  9.61D-06    CP:  9.69D-01  1.47D+00  7.20D-01  6.24D-01  8.78D-01
                    CP:  7.33D-01
 E= -3007.15000693010     Delta-E=       -0.000105259338 Rises=F Damp=F
 DIIS: error= 7.51D-05 at cycle   7 NSaved=   7.
 NSaved= 7 IEnMin= 7 EnMin= -3007.15000693010     IErMin= 7 ErrMin= 7.51D-05
 ErrMax= 7.51D-05  0.00D+00 EMaxC= 1.00D-01 BMatC= 1.14D-05 BMatP= 1.04D-04
 IDIUse=1 WtCom= 1.00D+00 WtEn= 0.00D+00
 Coeff-Com:  0.424D-02-0.913D-02-0.988D-02-0.643D-02 0.102D+00 0.329D+00
 Coeff-Com:  0.590D+00
 Coeff:      0.424D-02-0.913D-02-0.988D-02-0.643D-02 0.102D+00 0.329D+00
 Coeff:      0.590D+00
 Gap=     0.124 Goal=   None    Shift=    0.000
 RMSDP=4.98D-06 MaxDP=3.88D-04 DE=-1.05D-04 OVMax= 2.39D-03

 Cycle   8  Pass 1  IDiag  1:
 RMSU=  3.45D-06    CP:  9.69D-01  1.47D+00  7.21D-01  6.26D-01  8.80D-01
                    CP:  8.53D-01  7.97D-01
 E= -3007.15002009991     Delta-E=       -0.000013169813 Rises=F Damp=F
 DIIS: error= 3.09D-05 at cycle   8 NSaved=   8.
 NSaved= 8 IEnMin= 8 EnMin= -3007.15002009991     IErMin= 8 ErrMin= 3.09D-05
 ErrMax= 3.09D-05  0.00D+00 EMaxC= 1.00D-01 BMatC= 2.12D-06 BMatP= 1.14D-05
 IDIUse=1 WtCom= 1.00D+00 WtEn= 0.00D+00
 Coeff-Com:  0.210D-02-0.414D-02-0.773D-02-0.120D-01-0.103D-01 0.461D-01
 Coeff-Com:  0.323D+00 0.663D+00
 Coeff:      0.210D-02-0.414D-02-0.773D-02-0.120D-01-0.103D-01 0.461D-01
 Coeff:      0.323D+00 0.663D+00
 Gap=     0.124 Goal=   None    Shift=    0.000
 RMSDP=2.65D-06 MaxDP=6.31D-04 DE=-1.32D-05 OVMax= 1.28D-03

 Cycle   9  Pass 1  IDiag  1:
 RMSU=  1.54D-06    CP:  9.69D-01  1.47D+00  7.22D-01  6.26D-01  8.99D-01
                    CP:  8.66D-01  9.60D-01  9.03D-01
 E= -3007.15002317787     Delta-E=       -0.000003077961 Rises=F Damp=F
 DIIS: error= 1.08D-05 at cycle   9 NSaved=   9.
 NSaved= 9 IEnMin= 9 EnMin= -3007.15002317787     IErMin= 9 ErrMin= 1.08D-05
 ErrMax= 1.08D-05  0.00D+00 EMaxC= 1.00D-01 BMatC= 2.51D-07 BMatP= 2.12D-06
 IDIUse=1 WtCom= 1.00D+00 WtEn= 0.00D+00
 Coeff-Com:  0.413D-03-0.723D-03-0.221D-02-0.484D-02-0.177D-01-0.218D-01
 Coeff-Com:  0.754D-01 0.309D+00 0.663D+00
 Coeff:      0.413D-03-0.723D-03-0.221D-02-0.484D-02-0.177D-01-0.218D-01
 Coeff:      0.754D-01 0.309D+00 0.663D+00
 Gap=     0.124 Goal=   None    Shift=    0.000
 RMSDP=8.76D-07 MaxDP=7.45D-05 DE=-3.08D-06 OVMax= 4.21D-04

 Cycle  10  Pass 1  IDiag  1:
 RMSU=  6.50D-07    CP:  9.69D-01  1.47D+00  7.22D-01  6.26D-01  9.01D-01
                    CP:  8.76D-01  9.85D-01  1.03D+00  1.06D+00
 E= -3007.15002371358     Delta-E=       -0.000000535712 Rises=F Damp=F
 DIIS: error= 8.76D-06 at cycle  10 NSaved=  10.
 NSaved=10 IEnMin=10 EnMin= -3007.15002371358     IErMin=10 ErrMin= 8.76D-06
 ErrMax= 8.76D-06  0.00D+00 EMaxC= 1.00D-01 BMatC= 4.81D-08 BMatP= 2.51D-07
 IDIUse=1 WtCom= 1.00D+00 WtEn= 0.00D+00
 Coeff-Com: -0.329D-03 0.683D-03 0.916D-03 0.699D-03-0.538D-02-0.219D-01
 Coeff-Com: -0.469D-01-0.194D-01 0.264D+00 0.828D+00
 Coeff:     -0.329D-03 0.683D-03 0.916D-03 0.699D-03-0.538D-02-0.219D-01
 Coeff:     -0.469D-01-0.194D-01 0.264D+00 0.828D+00
 Gap=     0.124 Goal=   None    Shift=    0.000
 RMSDP=7.35D-07 MaxDP=1.14D-04 DE=-5.36D-07 OVMax= 4.76D-04

 Cycle  11  Pass 1  IDiag  1:
 RMSU=  3.65D-07    CP:  9.69D-01  1.47D+00  7.22D-01  6.26D-01  9.03D-01
                    CP:  8.81D-01  1.02D+00  1.10D+00  1.30D+00  1.38D+00
 E= -3007.15002394862     Delta-E=       -0.000000235039 Rises=F Damp=F
 DIIS: error= 3.75D-06 at cycle  11 NSaved=  11.
 NSaved=11 IEnMin=11 EnMin= -3007.15002394862     IErMin=11 ErrMin= 3.75D-06
 ErrMax= 3.75D-06  0.00D+00 EMaxC= 1.00D-01 BMatC= 1.71D-08 BMatP= 4.81D-08
 IDIUse=1 WtCom= 1.00D+00 WtEn= 0.00D+00
 Coeff-Com: -0.233D-03 0.456D-03 0.897D-03 0.141D-02 0.172D-02-0.419D-02
 Coeff-Com: -0.393D-01-0.754D-01-0.546D-01 0.398D+00 0.771D+00
 Coeff:     -0.233D-03 0.456D-03 0.897D-03 0.141D-02 0.172D-02-0.419D-02
 Coeff:     -0.393D-01-0.754D-01-0.546D-01 0.398D+00 0.771D+00
 Gap=     0.124 Goal=   None    Shift=    0.000
 RMSDP=4.44D-07 MaxDP=3.02D-05 DE=-2.35D-07 OVMax= 3.14D-04

 Cycle  12  Pass 1  IDiag  1:
 RMSU=  1.88D-07    CP:  9.69D-01  1.47D+00  7.22D-01  6.26D-01  9.04D-01
                    CP:  8.82D-01  1.02D+00  1.14D+00  1.43D+00  1.80D+00
                    CP:  1.33D+00
 E= -3007.15002404450     Delta-E=       -0.000000095875 Rises=F Damp=F
 DIIS: error= 2.28D-06 at cycle  12 NSaved=  12.
 NSaved=12 IEnMin=12 EnMin= -3007.15002404450     IErMin=12 ErrMin= 2.28D-06
 ErrMax= 2.28D-06  0.00D+00 EMaxC= 1.00D-01 BMatC= 4.89D-09 BMatP= 1.71D-08
 IDIUse=1 WtCom= 1.00D+00 WtEn= 0.00D+00
 Coeff-Com:  0.152D-04-0.424D-04 0.499D-04 0.328D-03 0.211D-02 0.608D-02
 Coeff-Com: -0.270D-03-0.139D-01-0.111D+00-0.122D+00 0.212D+00 0.103D+01
 Coeff:      0.152D-04-0.424D-04 0.499D-04 0.328D-03 0.211D-02 0.608D-02
 Coeff:     -0.270D-03-0.139D-01-0.111D+00-0.122D+00 0.212D+00 0.103D+01
 Gap=     0.124 Goal=   None    Shift=    0.000
 RMSDP=3.89D-07 MaxDP=2.72D-05 DE=-9.59D-08 OVMax= 2.65D-04

 Cycle  13  Pass 1  IDiag  1:
 RMSU=  1.01D-07    CP:  9.69D-01  1.47D+00  7.22D-01  6.26D-01  9.04D-01
                    CP:  8.83D-01  1.03D+00  1.17D+00  1.54D+00  2.17D+00
                    CP:  1.84D+00  1.64D+00
 E= -3007.15002409258     Delta-E=       -0.000000048087 Rises=F Damp=F
 DIIS: error= 1.22D-06 at cycle  13 NSaved=  13.
 NSaved=13 IEnMin=13 EnMin= -3007.15002409258     IErMin=13 ErrMin= 1.22D-06
 ErrMax= 1.22D-06  0.00D+00 EMaxC= 1.00D-01 BMatC= 1.84D-09 BMatP= 4.89D-09
 IDIUse=1 WtCom= 1.00D+00 WtEn= 0.00D+00
 Coeff-Com:  0.109D-03-0.220D-03-0.374D-03-0.448D-03 0.286D-04 0.485D-02
 Coeff-Com:  0.154D-01 0.300D-01-0.302D-01-0.206D+00-0.233D+00 0.478D+00
 Coeff-Com:  0.942D+00
 Coeff:      0.109D-03-0.220D-03-0.374D-03-0.448D-03 0.286D-04 0.485D-02
 Coeff:      0.154D-01 0.300D-01-0.302D-01-0.206D+00-0.233D+00 0.478D+00
 Coeff:      0.942D+00
 Gap=     0.124 Goal=   None    Shift=    0.000
 RMSDP=2.78D-07 MaxDP=3.72D-05 DE=-4.81D-08 OVMax= 2.05D-04

 Cycle  14  Pass 1  IDiag  1:
 RMSU=  6.42D-08    CP:  9.69D-01  1.47D+00  7.22D-01  6.26D-01  9.04D-01
                    CP:  8.84D-01  1.03D+00  1.18D+00  1.60D+00  2.42D+00
                    CP:  2.21D+00  2.33D+00  1.32D+00
 E= -3007.15002410845     Delta-E=       -0.000000015865 Rises=F Damp=F
 DIIS: error= 6.91D-07 at cycle  14 NSaved=  14.
 NSaved=14 IEnMin=14 EnMin= -3007.15002410845     IErMin=14 ErrMin= 6.91D-07
 ErrMax= 6.91D-07  0.00D+00 EMaxC= 1.00D-01 BMatC= 7.37D-10 BMatP= 1.84D-09
 IDIUse=1 WtCom= 1.00D+00 WtEn= 0.00D+00
 Coeff-Com:  0.618D-04-0.122D-03-0.237D-03-0.337D-03-0.508D-03 0.159D-02
 Coeff-Com:  0.868D-02 0.214D-01 0.460D-02-0.990D-01-0.199D+00 0.292D-01
 Coeff-Com:  0.573D+00 0.661D+00
 Coeff:      0.618D-04-0.122D-03-0.237D-03-0.337D-03-0.508D-03 0.159D-02
 Coeff:      0.868D-02 0.214D-01 0.460D-02-0.990D-01-0.199D+00 0.292D-01
 Coeff:      0.573D+00 0.661D+00
 Gap=     0.124 Goal=   None    Shift=    0.000
 RMSDP=1.19D-07 MaxDP=8.37D-06 DE=-1.59D-08 OVMax= 6.98D-05

 Cycle  15  Pass 1  IDiag  1:
 RMSU=  2.99D-08    CP:  9.69D-01  1.47D+00  7.22D-01  6.26D-01  9.03D-01
                    CP:  8.84D-01  1.03D+00  1.19D+00  1.62D+00  2.52D+00
                    CP:  2.37D+00  2.58D+00  1.61D+00  8.92D-01
 E= -3007.15002411114     Delta-E=       -0.000000002692 Rises=F Damp=F
 DIIS: error= 2.18D-07 at cycle  15 NSaved=  15.
 NSaved=15 IEnMin=15 EnMin= -3007.15002411114     IErMin=15 ErrMin= 2.18D-07
 ErrMax= 2.18D-07  0.00D+00 EMaxC= 1.00D-01 BMatC= 1.06D-10 BMatP= 7.37D-10
 IDIUse=1 WtCom= 1.00D+00 WtEn= 0.00D+00
 Coeff-Com:  0.290D-05-0.425D-05-0.225D-04-0.519D-04-0.291D-03-0.411D-03
 Coeff-Com:  0.948D-04 0.360D-02 0.951D-02 0.684D-02-0.365D-01-0.979D-01
 Coeff-Com:  0.575D-01 0.332D+00 0.726D+00
 Coeff:      0.290D-05-0.425D-05-0.225D-04-0.519D-04-0.291D-03-0.411D-03
 Coeff:      0.948D-04 0.360D-02 0.951D-02 0.684D-02-0.365D-01-0.979D-01
 Coeff:      0.575D-01 0.332D+00 0.726D+00
 Gap=     0.124 Goal=   None    Shift=    0.000
 RMSDP=3.28D-08 MaxDP=7.13D-06 DE=-2.69D-09 OVMax= 2.51D-05

 Cycle  16  Pass 1  IDiag  1:
 RMSU=  1.27D-08    CP:  9.69D-01  1.47D+00  7.22D-01  6.26D-01  9.03D-01
                    CP:  8.84D-01  1.03D+00  1.19D+00  1.62D+00  2.54D+00
                    CP:  2.40D+00  2.67D+00  1.70D+00  1.11D+00  8.83D-01
 E= -3007.15002411145     Delta-E=       -0.000000000313 Rises=F Damp=F
 DIIS: error= 1.06D-07 at cycle  16 NSaved=  16.
 NSaved=16 IEnMin=16 EnMin= -3007.15002411145     IErMin=16 ErrMin= 1.06D-07
 ErrMax= 1.06D-07  0.00D+00 EMaxC= 1.00D-01 BMatC= 3.14D-11 BMatP= 1.06D-10
 IDIUse=1 WtCom= 1.00D+00 WtEn= 0.00D+00
 Coeff-Com: -0.935D-05 0.192D-04 0.293D-04 0.299D-04-0.836D-04-0.499D-03
 Coeff-Com: -0.158D-02-0.178D-02 0.422D-02 0.205D-01 0.130D-01-0.635D-01
 Coeff-Com: -0.747D-01 0.618D-01 0.422D+00 0.620D+00
 Coeff:     -0.935D-05 0.192D-04 0.293D-04 0.299D-04-0.836D-04-0.499D-03
 Coeff:     -0.158D-02-0.178D-02 0.422D-02 0.205D-01 0.130D-01-0.635D-01
 Coeff:     -0.747D-01 0.618D-01 0.422D+00 0.620D+00
 Gap=     0.124 Goal=   None    Shift=    0.000
 RMSDP=1.63D-08 MaxDP=1.06D-06 DE=-3.13D-10 OVMax= 9.11D-06

 Cycle  17  Pass 1  IDiag  1:
 RMSU=  5.83D-09    CP:  9.69D-01  1.47D+00  7.22D-01  6.26D-01  9.03D-01
                    CP:  8.84D-01  1.03D+00  1.19D+00  1.62D+00  2.55D+00
                    CP:  2.42D+00  2.71D+00  1.75D+00  1.14D+00  1.05D+00
                    CP:  8.42D-01
 E= -3007.15002411164     Delta-E=       -0.000000000187 Rises=F Damp=F
 DIIS: error= 4.87D-08 at cycle  17 NSaved=  17.
 NSaved=17 IEnMin=17 EnMin= -3007.15002411164     IErMin=17 ErrMin= 4.87D-08
 ErrMax= 4.87D-08  0.00D+00 EMaxC= 1.00D-01 BMatC= 4.04D-12 BMatP= 3.14D-11
 IDIUse=1 WtCom= 1.00D+00 WtEn= 0.00D+00
 Coeff-Com: -0.554D-05 0.110D-04 0.201D-04 0.252D-04 0.632D-05-0.178D-03
 Coeff-Com: -0.916D-03-0.153D-02 0.637D-03 0.107D-01 0.146D-01-0.138D-01
 Coeff-Com: -0.512D-01-0.302D-01 0.102D+00 0.310D+00 0.660D+00
 Coeff:     -0.554D-05 0.110D-04 0.201D-04 0.252D-04 0.632D-05-0.178D-03
 Coeff:     -0.916D-03-0.153D-02 0.637D-03 0.107D-01 0.146D-01-0.138D-01
 Coeff:     -0.512D-01-0.302D-01 0.102D+00 0.310D+00 0.660D+00
 Gap=     0.124 Goal=   None    Shift=    0.000
 RMSDP=4.13D-09 MaxDP=9.29D-07 DE=-1.87D-10 OVMax= 2.12D-06

 SCF Done:  E(RCAM-B3LYP) =  -3007.15002411     A.U. after   17 cycles
            NFock= 17  Conv=0.41D-08     -V/T= 2.0107
 KE= 2.975320920802D+03 PE=-2.603624587176D+04 EE= 1.053120901734D+04
 Leave Link  502 at Wed Apr 27 01:47:13 2022, MaxMem= 10066329600 cpu:            7977.1 elap:             347.8
 (Enter /sw/apps/gaussian-16.0/g16/l801.exe)
 DoSCS=F DFT=T ScalE2(SS,OS)=  1.000000  1.000000
 ExpMin= 3.36D-02 ExpMax= 4.95D+03 ExpMxC= 7.45D+02 IAcc=3 IRadAn=         5 AccDes= 0.00D+00
 HarFok:  IExCor=  205 AccDes= 0.00D+00 IRadAn=         5 IDoV=-2 UseB2=F ITyADJ=14
 ICtDFT= 12500011 ScaDFX=  1.000000  1.000000  1.000000  1.000000
 GSVD:  LWork=       -5460 too small for GESVD, short by       25550 words or       25550 for optimal perf.
 Largest valence mixing into a core orbital is  1.39D-04
 Largest core mixing into a valence orbital is  5.25D-05
 Range of M.O.s used for correlation:    71  1298
 NBasis=  1298 NAE=   246 NBE=   246 NFC=    70 NFV=     0
 NROrb=   1228 NOA=   176 NOB=   176 NVA=  1052 NVB=  1052
 Leave Link  801 at Wed Apr 27 01:47:14 2022, MaxMem= 10066329600 cpu:               6.7 elap:               0.3
 (Enter /sw/apps/gaussian-16.0/g16/l914.exe)
 RHF ground state
 Two-electron integrals replicated using symmetry.
 MDV= 10066329600 DFT=T DoStab=F Mixed=T DoRPA=T DoScal=F NonHer=T
 Making orbital integer symmetry assigments:
 Orbital symmetries:
       Occupied  (A) (A) (A) (A) (A) (A) (A) (A) (A) (A) (A) (A)
                 (A) (A) (A) (A) (A) (A) (A) (A) (A) (A) (A) (A)
                 (A) (A) (A) (A) (A) (A) (A) (A) (A) (A) (A) (A)
                 (A) (A) (A) (A) (A) (A) (A) (A) (A) (A) (A) (A)
                 (A) (A) (A) (A) (A) (A) (A) (A) (A) (A) (A) (A)
                 (A) (A) (A) (A) (A) (A) (A) (A) (A) (A) (A) (A)
                 (A) (A) (A) (A) (A) (A) (A) (A) (A) (A) (A) (A)
                 (A) (A) (A) (A) (A) (A) (A) (A) (A) (A) (A) (A)
                 (A) (A) (A) (A) (A) (A) (A) (A) (A) (A) (A) (A)
                 (A) (A) (A) (A) (A) (A) (A) (A) (A) (A) (A) (A)
                 (A) (A) (A) (A) (A) (A) (A) (A) (A) (A) (A) (A)
                 (A) (A) (A) (A) (A) (A) (A) (A) (A) (A) (A) (A)
                 (A) (A) (A) (A) (A) (A) (A) (A) (A) (A) (A) (A)
                 (A) (A) (A) (A) (A) (A) (A) (A) (A) (A) (A) (A)
                 (A) (A) (A) (A) (A) (A) (A) (A) (A) (A) (A) (A)
                 (A) (A) (A) (A) (A) (A) (A) (A) (A) (A) (A) (A)
                 (A) (A) (A) (A) (A) (A) (A) (A) (A) (A) (A) (A)
                 (A) (A) (A) (A) (A) (A) (A) (A) (A) (A) (A) (A)
                 (A) (A) (A) (A) (A) (A) (A) (A) (A) (A) (A) (A)
                 (A) (A) (A) (A) (A) (A) (A) (A) (A) (A) (A) (A)
                 (A) (A) (A) (A) (A) (A)
       Virtual   (A) (A) (A) (A) (A) (A) (A) (A) (A) (A) (A) (A)
                 (A) (A) (A) (A) (A) (A) (A) (A) (A) (A) (A) (A)
                 (A) (A) (A) (A) (A) (A) (A) (A) (A) (A) (A) (A)
                 (A) (A) (A) (A) (A) (A) (A) (A) (A) (A) (A) (A)
                 (A) (A) (A) (A) (A) (A) (A) (A) (A) (A) (A) (A)
                 (A) (A) (A) (A) (A) (A) (A) (A) (A) (A) (A) (A)
                 (A) (A) (A) (A) (A) (A) (A) (A) (A) (A) (A) (A)
                 (A) (A) (A) (A) (A) (A) (A) (A) (A) (A) (A) (A)
                 (A) (A) (A) (A) (A) (A) (A) (A) (A) (A) (A) (A)
                 (A) (A) (A) (A) (A) (A) (A) (A) (A) (A) (A) (A)
                 (A) (A) (A) (A) (A) (A) (A) (A) (A) (A) (A) (A)
                 (A) (A) (A) (A) (A) (A) (A) (A) (A) (A) (A) (A)
                 (A) (A) (A) (A) (A) (A) (A) (A) (A) (A) (A) (A)
                 (A) (A) (A) (A) (A) (A) (A) (A) (A) (A) (A) (A)
                 (A) (A) (A) (A) (A) (A) (A) (A) (A) (A) (A) (A)
                 (A) (A) (A) (A) (A) (A) (A) (A) (A) (A) (A) (A)
                 (A) (A) (A) (A) (A) (A) (A) (A) (A) (A) (A) (A)
                 (A) (A) (A) (A) (A) (A) (A) (A) (A) (A) (A) (A)
                 (A) (A) (A) (A) (A) (A) (A) (A) (A) (A) (A) (A)
                 (A) (A) (A) (A) (A) (A) (A) (A) (A) (A) (A) (A)
                 (A) (A) (A) (A) (A) (A) (A) (A) (A) (A) (A) (A)
                 (A) (A) (A) (A) (A) (A) (A) (A) (A) (A) (A) (A)
                 (A) (A) (A) (A) (A) (A) (A) (A) (A) (A) (A) (A)
                 (A) (A) (A) (A) (A) (A) (A) (A) (A) (A) (A) (A)
                 (A) (A) (A) (A) (A) (A) (A) (A) (A) (A) (A) (A)
                 (A) (A) (A) (A) (A) (A) (A) (A) (A) (A) (A) (A)
                 (A) (A) (A) (A) (A) (A) (A) (A) (A) (A) (A) (A)
                 (A) (A) (A) (A) (A) (A) (A) (A) (A) (A) (A) (A)
                 (A) (A) (A) (A) (A) (A) (A) (A) (A) (A) (A) (A)
                 (A) (A) (A) (A) (A) (A) (A) (A) (A) (A) (A) (A)
                 (A) (A) (A) (A) (A) (A) (A) (A) (A) (A) (A) (A)
                 (A) (A) (A) (A) (A) (A) (A) (A) (A) (A) (A) (A)
                 (A) (A) (A) (A) (A) (A) (A) (A) (A) (A) (A) (A)
                 (A) (A) (A) (A) (A) (A) (A) (A) (A) (A) (A) (A)
                 (A) (A) (A) (A) (A) (A) (A) (A) (A) (A) (A) (A)
                 (A) (A) (A) (A) (A) (A) (A) (A) (A) (A) (A) (A)
                 (A) (A) (A) (A) (A) (A) (A) (A) (A) (A) (A) (A)
                 (A) (A) (A) (A) (A) (A) (A) (A) (A) (A) (A) (A)
                 (A) (A) (A) (A) (A) (A) (A) (A) (A) (A) (A) (A)
                 (A) (A) (A) (A) (A) (A) (A) (A) (A) (A) (A) (A)
                 (A) (A) (A) (A) (A) (A) (A) (A) (A) (A) (A) (A)
                 (A) (A) (A) (A) (A) (A) (A) (A) (A) (A) (A) (A)
                 (A) (A) (A) (A) (A) (A) (A) (A) (A) (A) (A) (A)
                 (A) (A) (A) (A) (A) (A) (A) (A) (A) (A) (A) (A)
                 (A) (A) (A) (A) (A) (A) (A) (A) (A) (A) (A) (A)
                 (A) (A) (A) (A) (A) (A) (A) (A) (A) (A) (A) (A)
                 (A) (A) (A) (A) (A) (A) (A) (A) (A) (A) (A) (A)
                 (A) (A) (A) (A) (A) (A) (A) (A) (A) (A) (A) (A)
                 (A) (A) (A) (A) (A) (A) (A) (A) (A) (A) (A) (A)
                 (A) (A) (A) (A) (A) (A) (A) (A) (A) (A) (A) (A)
                 (A) (A) (A) (A) (A) (A) (A) (A) (A) (A) (A) (A)
                 (A) (A) (A) (A) (A) (A) (A) (A) (A) (A) (A) (A)
                 (A) (A) (A) (A) (A) (A) (A) (A) (A) (A) (A) (A)
                 (A) (A) (A) (A) (A) (A) (A) (A) (A) (A) (A) (A)
                 (A) (A) (A) (A) (A) (A) (A) (A) (A) (A) (A) (A)
                 (A) (A) (A) (A) (A) (A) (A) (A) (A) (A) (A) (A)
                 (A) (A) (A) (A) (A) (A) (A) (A) (A) (A) (A) (A)
                 (A) (A) (A) (A) (A) (A) (A) (A) (A) (A) (A) (A)
                 (A) (A) (A) (A) (A) (A) (A) (A) (A) (A) (A) (A)
                 (A) (A) (A) (A) (A) (A) (A) (A) (A) (A) (A) (A)
                 (A) (A) (A) (A) (A) (A) (A) (A) (A) (A) (A) (A)
                 (A) (A) (A) (A) (A) (A) (A) (A) (A) (A) (A) (A)
                 (A) (A) (A) (A) (A) (A) (A) (A) (A) (A) (A) (A)
                 (A) (A) (A) (A) (A) (A) (A) (A) (A) (A) (A) (A)
                 (A) (A) (A) (A) (A) (A) (A) (A) (A) (A) (A) (A)
                 (A) (A) (A) (A) (A) (A) (A) (A) (A) (A) (A) (A)
                 (A) (A) (A) (A) (A) (A) (A) (A) (A) (A) (A) (A)
                 (A) (A) (A) (A) (A) (A) (A) (A) (A) (A) (A) (A)
                 (A) (A) (A) (A) (A) (A) (A) (A) (A) (A) (A) (A)
                 (A) (A) (A) (A) (A) (A) (A) (A) (A) (A) (A) (A)
                 (A) (A) (A) (A) (A) (A) (A) (A) (A) (A) (A) (A)
                 (A) (A) (A) (A) (A) (A) (A) (A) (A) (A) (A) (A)
                 (A) (A) (A) (A) (A) (A) (A) (A) (A) (A) (A) (A)
                 (A) (A) (A) (A) (A) (A) (A) (A) (A) (A) (A) (A)
                 (A) (A) (A) (A) (A) (A) (A) (A) (A) (A) (A) (A)
                 (A) (A) (A) (A) (A) (A) (A) (A) (A) (A) (A) (A)
                 (A) (A) (A) (A) (A) (A) (A) (A) (A) (A) (A) (A)
                 (A) (A) (A) (A) (A) (A) (A) (A) (A) (A) (A) (A)
                 (A) (A) (A) (A) (A) (A) (A) (A) (A) (A) (A) (A)
                 (A) (A) (A) (A) (A) (A) (A) (A) (A) (A) (A) (A)
                 (A) (A) (A) (A) (A) (A) (A) (A) (A) (A) (A) (A)
                 (A) (A) (A) (A) (A) (A) (A) (A) (A) (A) (A) (A)
                 (A) (A) (A) (A) (A) (A) (A) (A) (A) (A) (A) (A)
                 (A) (A) (A) (A) (A) (A) (A) (A) (A) (A) (A) (A)
                 (A) (A) (A) (A) (A) (A) (A) (A) (A) (A) (A) (A)
                 (A) (A) (A) (A) (A) (A) (A) (A) (A) (A) (A) (A)
                 (A) (A) (A) (A) (A) (A) (A) (A) (A) (A) (A) (A)
                 (A) (A) (A) (A) (A) (A) (A) (A)
    20 initial guesses have been made.
 Convergence on wavefunction:    0.001000000000000
 Davidson Disk Diagonalization:  ConvIn= 1.00D-03 SkipCon=T Conv= 1.00D-03.
 Max sub-space:  2000 roots to seek:    20 dimension of matrix:       370304
 Iteration     1 Dimension    20 NMult     0 NNew     20
 CISAX will form    20 AO SS matrices at one time.
 NMat=    20 NSing=    20 JSym2X= 0.
 FoFJK:  IHMeth= 1 ICntrl=       0 DoSepK=T KAlg= 0 I1Cent=           0 FoldK=F
 IRaf=         1 NMat=      40 IRICut=       1 DoRegI=T DoRafI=F ISym2E= 0 IDoP0=3 IntGTp=3.
 FoFCou: FMM=T IPFlag=           0 FMFlag=      100000 FMFlg1=        2001
         NFxFlg=           0 DoJE=F BraDBF=F KetDBF=F FulRan=T
         wScrn=  0.000000 ICntrl=       500 IOpCl=  0 I1Cent=           0 NGrid=           0
         NMat0=   20 NMatS0=     20 NMatT0=    0 NMatD0=   20 NMtDS0=    0 NMtDT0=    0
 Symmetry not used in FoFCou.
 FMM levels:  10  Number of levels for PrismC:   9
 New state      3 was old state      5
 New state      4 was old state      6
 New state      5 was old state     12
 Excitation Energies [eV] at current iteration:
 Root      1 :     2.196583073162673
 Root      2 :     2.629051448293707
 Root      3 :     3.599119247525125
 Root      4 :     3.778912493448356
 Root      5 :     3.950977943972391
 Root      6 :     4.030788738987471
 Root      7 :     4.064454332268135
 Root      8 :     4.224481965932883
 Root      9 :     4.390539482501831
 Root     10 :     4.408248939975198
 Root     11 :     4.445999605420777
 Root     12 :     4.543673681799987
 Root     13 :     4.653094466548939
 Root     14 :     5.004759338704055
 Root     15 :     5.090427495613805
 Root     16 :     5.219664844711695
 Root     17 :     5.345227626339564
 Root     18 :     5.907526659648921
 Root     19 :     6.304084028394990
 Root     20 :     6.376375279466055
 Iteration     2 Dimension    30 NMult    20 NNew     10
 CISAX will form    10 AO SS matrices at one time.
 NMat=    10 NSing=    10 JSym2X= 0.
 Root      1 not converged, maximum delta is    0.075141163071870
 Root      2 not converged, maximum delta is    0.057201797195248
 Root      3 not converged, maximum delta is    0.066000525963940
 Root      4 not converged, maximum delta is    0.068282037683036
 Root      5 not converged, maximum delta is    0.212425395591160
 Excitation Energies [eV] at current iteration:
 Root      1 :     1.738457416702224   Change is   -0.458125656460449
 Root      2 :     2.251561264063344   Change is   -0.377490184230363
 Root      3 :     3.272781177519898   Change is   -0.326338070005226
 Root      4 :     3.426388731091127   Change is   -0.352523762357229
 Root      5 :     3.786776694364871   Change is   -0.164201249607520
 Iteration     3 Dimension    40 NMult    30 NNew     10
 CISAX will form    10 AO SS matrices at one time.
 NMat=    10 NSing=    10 JSym2X= 0.
 Root      1 not converged, maximum delta is    0.019127060858091
 Root      2 not converged, maximum delta is    0.014239181117300
 Root      3 not converged, maximum delta is    0.009506655653100
 Root      4 not converged, maximum delta is    0.135331259937308
 Root      5 not converged, maximum delta is    0.346692007907833
 Excitation Energies [eV] at current iteration:
 Root      1 :     1.701692571010630   Change is   -0.036764845691593
 Root      2 :     2.230474318637061   Change is   -0.021086945426282
 Root      3 :     3.260805803222484   Change is   -0.011975374297414
 Root      4 :     3.385659357209619   Change is   -0.040729373881509
 Root      5 :     3.567575830871813   Change is   -0.219200863493058
 Iteration     4 Dimension    50 NMult    40 NNew     10
 CISAX will form    10 AO SS matrices at one time.
 NMat=    10 NSing=    10 JSym2X= 0.
 Root      1 not converged, maximum delta is    0.003488396083954
 Root      2 not converged, maximum delta is    0.004453566653349
 Root      3 not converged, maximum delta is    0.005768624867942
 Root      4 not converged, maximum delta is    0.049016365653692
 Root      5 not converged, maximum delta is    0.101026514543766
 Excitation Energies [eV] at current iteration:
 Root      1 :     1.697801353723511   Change is   -0.003891217287120
 Root      2 :     2.227112568657110   Change is   -0.003361749979952
 Root      3 :     3.258104733262722   Change is   -0.002701069959763
 Root      4 :     3.371546115212490   Change is   -0.014113241997129
 Root      5 :     3.524047319379058   Change is   -0.043528511492755
 Iteration     5 Dimension    60 NMult    50 NNew     10
 CISAX will form    10 AO SS matrices at one time.
 NMat=    10 NSing=    10 JSym2X= 0.
 Root      1 not converged, maximum delta is    0.001316356618067
 Root      2 not converged, maximum delta is    0.001113141194761
 Root      3 not converged, maximum delta is    0.007209213748229
 Root      4 not converged, maximum delta is    0.054292985881902
 Root      5 not converged, maximum delta is    0.306451846754405
 Excitation Energies [eV] at current iteration:
 Root      1 :     1.697435126146664   Change is   -0.000366227576847
 Root      2 :     2.226834363967817   Change is   -0.000278204689292
 Root      3 :     3.257784636836353   Change is   -0.000320096426369
 Root      4 :     3.366850405420378   Change is   -0.004695709792112
 Root      5 :     3.499444731344138   Change is   -0.024602588034920
 Iteration     6 Dimension    70 NMult    60 NNew     10
 CISAX will form    10 AO SS matrices at one time.
 NMat=    10 NSing=    10 JSym2X= 0.
 Root      1 has converged.
 Root      2 has converged.
 Root      3 not converged, maximum delta is    0.003236356398560
 Root      4 not converged, maximum delta is    0.047922901011128
 Root      5 not converged, maximum delta is    0.270612514751159
 Excitation Energies [eV] at current iteration:
 Root      1 :     1.697402597432997   Change is   -0.000032528713666
 Root      2 :     2.226803601647497   Change is   -0.000030762320320
 Root      3 :     3.257718658561579   Change is   -0.000065978274773
 Root      4 :     3.364482455161569   Change is   -0.002367950258809
 Root      5 :     3.450681810672171   Change is   -0.048762920671967
 Iteration     7 Dimension    76 NMult    70 NNew      6
 CISAX will form     6 AO SS matrices at one time.
 NMat=     6 NSing=     6 JSym2X= 0.
 Root      1 has converged.
 Root      2 has converged.
 Root      3 not converged, maximum delta is    0.001115688715078
 Root      4 not converged, maximum delta is    0.008635538415418
 Root      5 not converged, maximum delta is    0.020609950731998
 Excitation Energies [eV] at current iteration:
 Root      1 :     1.697402499913255   Change is   -0.000000097519742
 Root      2 :     2.226803443232853   Change is   -0.000000158414644
 Root      3 :     3.257703362613841   Change is   -0.000015295947738
 Root      4 :     3.364057518094695   Change is   -0.000424937066874
 Root      5 :     3.444894804904058   Change is   -0.005787005768113
 Iteration     8 Dimension    82 NMult    76 NNew      6
 CISAX will form     6 AO SS matrices at one time.
 NMat=     6 NSing=     6 JSym2X= 0.
 Root      1 has converged.
 Root      2 has converged.
 Root      3 not converged, maximum delta is    0.001473270504523
 Root      4 not converged, maximum delta is    0.003782949050589
 Root      5 not converged, maximum delta is    0.013796176422737
 Excitation Energies [eV] at current iteration:
 Root      1 :     1.697402437944551   Change is   -0.000000061968704
 Root      2 :     2.226803265344039   Change is   -0.000000177888815
 Root      3 :     3.257693022004590   Change is   -0.000010340609251
 Root      4 :     3.363960043714804   Change is   -0.000097474379891
 Root      5 :     3.443849969843288   Change is   -0.001044835060770
 Iteration     9 Dimension    88 NMult    82 NNew      6
 CISAX will form     6 AO SS matrices at one time.
 NMat=     6 NSing=     6 JSym2X= 0.
 Root      1 has converged.
 Root      2 has converged.
 Root      3 not converged, maximum delta is    0.001026709038844
 Root      4 not converged, maximum delta is    0.003197145076710
 Root      5 not converged, maximum delta is    0.016945616177665
 Excitation Energies [eV] at current iteration:
 Root      1 :     1.697402380859469   Change is   -0.000000057085082
 Root      2 :     2.226803026482590   Change is   -0.000000238861449
 Root      3 :     3.257687248359719   Change is   -0.000005773644872
 Root      4 :     3.363933023842774   Change is   -0.000027019872031
 Root      5 :     3.443554036886422   Change is   -0.000295932956866
 Iteration    10 Dimension    94 NMult    88 NNew      6
 CISAX will form     6 AO SS matrices at one time.
 NMat=     6 NSing=     6 JSym2X= 0.
 Root      1 has converged.
 Root      2 has converged.
 Root      3 has converged.
 Root      4 not converged, maximum delta is    0.001280945160479
 Root      5 not converged, maximum delta is    0.010034162675766
 Excitation Energies [eV] at current iteration:
 Root      1 :     1.697402308236780   Change is   -0.000000072622689
 Root      2 :     2.226802997978572   Change is   -0.000000028504018
 Root      3 :     3.257685527347760   Change is   -0.000001721011959
 Root      4 :     3.363926815509221   Change is   -0.000006208333553
 Root      5 :     3.443463646983925   Change is   -0.000090389902496
 Iteration    11 Dimension    98 NMult    94 NNew      4
 CISAX will form     4 AO SS matrices at one time.
 NMat=     4 NSing=     4 JSym2X= 0.
 Root      1 has converged.
 Root      2 has converged.
 Root      3 has converged.
 Root      4 has converged.
 Root      5 not converged, maximum delta is    0.003865831702108
 Excitation Energies [eV] at current iteration:
 Root      1 :     1.697402259468571   Change is   -0.000000048768209
 Root      2 :     2.226802988583087   Change is   -0.000000009395485
 Root      3 :     3.257685193398244   Change is   -0.000000333949516
 Root      4 :     3.363925467040607   Change is   -0.000001348468614
 Root      5 :     3.443440415467066   Change is   -0.000023231516860
 Iteration    12 Dimension   100 NMult    98 NNew      2
 CISAX will form     2 AO SS matrices at one time.
 NMat=     2 NSing=     2 JSym2X= 0.
 Root      1 has converged.
 Root      2 has converged.
 Root      3 has converged.
 Root      4 has converged.
 Root      5 has converged.
 Excitation Energies [eV] at current iteration:
 Root      1 :     1.697402235997034   Change is   -0.000000023471537
 Root      2 :     2.226802981542850   Change is   -0.000000007040237
 Root      3 :     3.257685134087612   Change is   -0.000000059310632
 Root      4 :     3.363925307113408   Change is   -0.000000159927199
 Root      5 :     3.443436257664359   Change is   -0.000004157802707
 Convergence achieved on expansion vectors.
 ***********************************************************************
 Excited states from <AA,BB:AA,BB> singles matrix:
 ***********************************************************************
 
 1PDM for each excited state written to RWF  633
 Ground to excited state transition densities written to RWF  633
 Ground to excited state transition electric dipole moments (Au):
       state          X           Y           Z        Dip. S.      Osc.
         1        -0.6200      1.9710     -2.0522      8.4808      0.3527
         2        -0.3723     -0.9999     -0.6140      1.5153      0.0827
         3         0.0735      0.0218      0.1046      0.0168      0.0013
         4         0.6073      1.4678      0.7277      3.0529      0.2516
         5         0.3191      0.9276      0.4621      1.1758      0.0992
 Ground to excited state transition velocity dipole moments (Au):
       state          X           Y           Z        Dip. S.      Osc.
         1         0.0364     -0.1193      0.1235      0.0308      0.3293
         2         0.0279      0.0770      0.0463      0.0088      0.0721
         3        -0.0084     -0.0015     -0.0117      0.0002      0.0012
         4        -0.0698     -0.1764     -0.0834      0.0430      0.2317
         5        -0.0401     -0.1146     -0.0553      0.0178      0.0938
 Ground to excited state transition magnetic dipole moments (Au):
       state          X           Y           Z
         1        -0.0005     -1.2176     -1.2031
         2         0.4406     -0.4967      0.5657
         3         0.8559      0.0263     -0.3473
         4        -0.3901      1.1552     -1.7824
         5        -0.0408     -0.0908     -0.7909
 Ground to excited state transition velocity quadrupole moments (Au):
       state          XX          YY          ZZ          XY          XZ          YZ
         1         0.7262     -0.2766     -0.0668     -1.0726      1.1779      0.2397
         2         0.4410      0.1674      0.0766      0.7741      0.5156     -0.0155
         3        -0.2069      0.4439     -0.1916     -0.0790     -0.1893     -0.0939
         4        -0.9484     -0.5173      0.0591     -1.9053     -0.7968     -0.3131
         5        -0.5776     -0.2646      0.0333     -1.2406     -0.5643     -0.1482
 <0|del|b> * <b|rxdel|0> + <0|del|b> * <b|delr+rdel|0>
 Rotatory Strengths (R) in cgs (10**-40 erg-esu-cm/Gauss)
       state          XX          YY          ZZ    R(velocity)    E-M Angle
         1        27.3523    -42.0765    -22.7089    -12.4777       90.63
         2       -69.0577      9.5078     61.1845      0.5448       89.87
         3        13.8058     -9.5598    -22.7780     -6.1773      103.58
         4      -104.9917    111.0336   -165.4632    -53.1404       93.57
         5       162.4689    -48.3918    197.7783    103.9518       58.35
 1/2[<0|r|b>*<b|rxdel|0> + (<0|rxdel|b>*<b|r|0>)*]
 Rotatory Strengths (R) in cgs (10**-40 erg-esu-cm/Gauss)
       state          XX          YY          ZZ     R(length)
         1        -0.2295   1697.0746  -1746.0863    -16.4137
         2       115.9728   -351.2466    245.6141      3.4468
         3       -44.4803     -0.4067     25.6920     -6.3983
         4       167.5393  -1199.0525    917.1877    -38.1085
         5         9.1964     59.5484    258.4261    109.0570
  1/2[<0|del|b>*<b|r|0> + (<0|r|b>*<b|del|0>)*] (Au)
       state          X           Y           Z        Dip. S.   Osc.(frdel)
         1        -0.0226     -0.2352     -0.2534      0.5112      0.3408
         2        -0.0104     -0.0770     -0.0284      0.1158      0.0772
         3        -0.0006     -0.0000     -0.0012      0.0019      0.0012
         4        -0.0424     -0.2590     -0.0607      0.3621      0.2414
         5        -0.0128     -0.1063     -0.0256      0.1447      0.0964

 Excitation energies and oscillator strengths:
 
 Excited State   1:      Singlet-A      1.6974 eV  730.43 nm  f=0.3527  <S**2>=0.000
     245 -> 248       -0.19416
[...]
 Alpha virt. eigenvalues --    1.24770   1.24897   1.25409   1.26099   1.26307
 Alpha virt. eigenvalues --    1.26714   1.27426   1.27838   1.28425   1.28581
 Alpha virt. eigenvalues --    1.28936   1.29259   1.29443   1.30029   1.30441
 Alpha virt. eigenvalues --    1.30933   1.31306   1.31609   1.32502   1.32915
 Alpha virt. eigenvalues --    1.33278   1.33645   1.34478   1.34833   1.35095
 Alpha virt. eigenvalues --    1.35692   1.36647   1.37323   1.37463   1.37721
 Alpha virt. eigenvalues --    1.38175   1.38299   1.39056   1.39712   1.39770
 Alpha virt. eigenvalues --    1.40512   1.40914   1.41269   1.42458   1.42514
 Alpha virt. eigenvalues --    1.43031   1.43330   1.43775   1.43929   1.44155
 Alpha virt. eigenvalues --    1.44487   1.44632   1.44857   1.45365   1.45508
 Alpha virt. eigenvalues --    1.45695   1.46223   1.47066   1.47154   1.47758
 Alpha virt. eigenvalues --    1.48339   1.48935   1.49104   1.49505   1.49737
 Alpha virt. eigenvalues --    1.50522   1.50616   1.51207   1.51543   1.52014
 Alpha virt. eigenvalues --    1.52109   1.52558   1.53341   1.53838   1.54330
 Alpha virt. eigenvalues --    1.54894   1.54932   1.55365   1.56032   1.56428
 Alpha virt. eigenvalues --    1.57273   1.57420   1.57469   1.58167   1.58303
 Alpha virt. eigenvalues --    1.58405   1.58679   1.58713   1.58882   1.59301
 Alpha virt. eigenvalues --    1.59677   1.59740   1.59813   1.60426   1.60674
 Alpha virt. eigenvalues --    1.61218   1.61368   1.61428   1.61640   1.61884
 Alpha virt. eigenvalues --    1.62086   1.62241   1.62614   1.62797   1.62875
 Alpha virt. eigenvalues --    1.63314   1.63647   1.64097   1.64354   1.64579
 Alpha virt. eigenvalues --    1.64730   1.65005   1.65187   1.65730   1.66546
 Alpha virt. eigenvalues --    1.67166   1.67432   1.67633   1.68227   1.68848
 Alpha virt. eigenvalues --    1.69117   1.69289   1.70058   1.70368   1.70938
 Alpha virt. eigenvalues --    1.71753   1.72194   1.72384   1.72744   1.74067
 Alpha virt. eigenvalues --    1.74456   1.75005   1.75258   1.75870   1.76207
 Alpha virt. eigenvalues --    1.76305   1.76616   1.76881   1.77179   1.77524
 Alpha virt. eigenvalues --    1.77581   1.77701   1.77892   1.78056   1.78360
 Alpha virt. eigenvalues --    1.78593   1.78645   1.78934   1.79786   1.79928
 Alpha virt. eigenvalues --    1.80037   1.80493   1.80664   1.81061   1.81159
 Alpha virt. eigenvalues --    1.81316   1.81469   1.81522   1.81752   1.81903
 Alpha virt. eigenvalues --    1.82540   1.82707   1.83029   1.83188   1.83588
 Alpha virt. eigenvalues --    1.83733   1.83800   1.84035   1.84114   1.84272
 Alpha virt. eigenvalues --    1.84408   1.84870   1.85267   1.85550   1.85621
 Alpha virt. eigenvalues --    1.85743   1.85929   1.86248   1.86388   1.86498
 Alpha virt. eigenvalues --    1.87002   1.87285   1.87488   1.87514   1.87590
 Alpha virt. eigenvalues --    1.87998   1.88098   1.88205   1.88341   1.88472
 Alpha virt. eigenvalues --    1.88721   1.89241   1.89340   1.89550   1.89700
 Alpha virt. eigenvalues --    1.89907   1.90280   1.90933   1.90998   1.91122
 Alpha virt. eigenvalues --    1.91208   1.91428   1.91571   1.91989   1.92073
 Alpha virt. eigenvalues --    1.92127   1.92169   1.92413   1.92743   1.92875
 Alpha virt. eigenvalues --    1.93453   1.93590   1.93666   1.93971   1.93993
 Alpha virt. eigenvalues --    1.94202   1.94387   1.94536   1.94866   1.95065
 Alpha virt. eigenvalues --    1.95391   1.95713   1.95938   1.96179   1.96372
 Alpha virt. eigenvalues --    1.96415   1.96940   1.97023   1.97121   1.97318
 Alpha virt. eigenvalues --    1.97458   1.97598   1.97715   1.97885   1.98488
 Alpha virt. eigenvalues --    1.98782   1.99217   1.99468   1.99957   1.99997
 Alpha virt. eigenvalues --    2.00384   2.00434   2.00871   2.01476   2.01514
 Alpha virt. eigenvalues --    2.01818   2.02033   2.02144   2.02373   2.02834
 Alpha virt. eigenvalues --    2.03420   2.03544   2.03649   2.04079   2.04093
 Alpha virt. eigenvalues --    2.04309   2.04915   2.04998   2.05249   2.05585
 Alpha virt. eigenvalues --    2.05902   2.06237   2.06350   2.06678   2.07228
 Alpha virt. eigenvalues --    2.07497   2.07587   2.08195   2.08786   2.09028
 Alpha virt. eigenvalues --    2.09324   2.09455   2.09659   2.09936   2.10184
 Alpha virt. eigenvalues --    2.10238   2.10675   2.11057   2.11455   2.11699
 Alpha virt. eigenvalues --    2.11889   2.12047   2.12573   2.12806   2.12962
 Alpha virt. eigenvalues --    2.13574   2.13727   2.14309   2.14514   2.15031
 Alpha virt. eigenvalues --    2.15559   2.15765   2.16025   2.16449   2.16718
 Alpha virt. eigenvalues --    2.16916   2.17267   2.17342   2.17507   2.17966
 Alpha virt. eigenvalues --    2.18278   2.18591   2.18843   2.18944   2.19503
 Alpha virt. eigenvalues --    2.19697   2.19882   2.20120   2.20780   2.21051
 Alpha virt. eigenvalues --    2.21185   2.21549   2.21748   2.22272   2.22695
 Alpha virt. eigenvalues --    2.22990   2.23152   2.23728   2.24792   2.25118
 Alpha virt. eigenvalues --    2.25220   2.25947   2.26401   2.26690   2.27197
 Alpha virt. eigenvalues --    2.27538   2.27697   2.28093   2.28680   2.29010
 Alpha virt. eigenvalues --    2.29401   2.29570   2.29994   2.30137   2.30437
 Alpha virt. eigenvalues --    2.31310   2.32026   2.32740   2.32908   2.33566
 Alpha virt. eigenvalues --    2.33846   2.34106   2.34434   2.34530   2.34760
 Alpha virt. eigenvalues --    2.34912   2.34995   2.35590   2.36310   2.36547
 Alpha virt. eigenvalues --    2.36782   2.37830   2.38416   2.38445   2.38578
 Alpha virt. eigenvalues --    2.38876   2.39079   2.39225   2.39937   2.40172
 Alpha virt. eigenvalues --    2.40249   2.40837   2.40949   2.41461   2.41698
 Alpha virt. eigenvalues --    2.42316   2.42795   2.43143   2.43644   2.44062
 Alpha virt. eigenvalues --    2.44590   2.44833   2.45139   2.45692   2.45917
 Alpha virt. eigenvalues --    2.46089   2.46545   2.46843   2.47302   2.47600
 Alpha virt. eigenvalues --    2.47873   2.48085   2.48498   2.49246   2.49380
 Alpha virt. eigenvalues --    2.49735   2.50008   2.50294   2.50454   2.51195
 Alpha virt. eigenvalues --    2.51321   2.51415   2.51679   2.51794   2.52744
 Alpha virt. eigenvalues --    2.53482   2.53596   2.54656   2.54907   2.55515
 Alpha virt. eigenvalues --    2.55823   2.56204   2.56575   2.57227   2.57518
 Alpha virt. eigenvalues --    2.57989   2.58876   2.59168   2.59713   2.60015
 Alpha virt. eigenvalues --    2.60752   2.61112   2.61352   2.61741   2.62223
 Alpha virt. eigenvalues --    2.62444   2.62714   2.63371   2.63923   2.64118
 Alpha virt. eigenvalues --    2.64202   2.64727   2.64987   2.65431   2.65985
 Alpha virt. eigenvalues --    2.66556   2.66858   2.67373   2.67629   2.68141
 Alpha virt. eigenvalues --    2.68346   2.68540   2.68677   2.69505   2.69745
 Alpha virt. eigenvalues --    2.70250   2.70268   2.71069   2.71172   2.71396
 Alpha virt. eigenvalues --    2.71659   2.72302   2.72970   2.73113   2.73997
 Alpha virt. eigenvalues --    2.74240   2.74807   2.74994   2.75416   2.75667
 Alpha virt. eigenvalues --    2.75835   2.76321   2.76458   2.76775   2.76847
 Alpha virt. eigenvalues --    2.77252   2.77603   2.78275   2.78926   2.79432
 Alpha virt. eigenvalues --    2.79819   2.80358   2.80551   2.80681   2.81334
 Alpha virt. eigenvalues --    2.81730   2.82036   2.83249   2.84148   2.84523
 Alpha virt. eigenvalues --    2.84772   2.85194   2.85388   2.86436   2.86617
 Alpha virt. eigenvalues --    2.86794   2.87923   2.88357   2.88885   2.89530
 Alpha virt. eigenvalues --    2.90071   2.90323   2.90825   2.91723   2.92387
 Alpha virt. eigenvalues --    2.92516   2.92732   2.93180   2.93580   2.94230
 Alpha virt. eigenvalues --    2.94497   2.95221   2.95355   2.95595   2.96361
 Alpha virt. eigenvalues --    2.96514   2.96929   2.97036   2.97247   2.97538
 Alpha virt. eigenvalues --    2.97865   2.97983   2.98129   2.99048   2.99428
 Alpha virt. eigenvalues --    2.99462   2.99567   3.00125   3.00427   3.00590
 Alpha virt. eigenvalues --    3.01346   3.01476   3.01796   3.02251   3.02472
 Alpha virt. eigenvalues --    3.02801   3.03052   3.03377   3.03451   3.03806
 Alpha virt. eigenvalues --    3.04241   3.04395   3.04487   3.04724   3.04798
 Alpha virt. eigenvalues --    3.05171   3.05408   3.05856   3.06451   3.06557
 Alpha virt. eigenvalues --    3.06653   3.07199   3.07429   3.07508   3.08478
 Alpha virt. eigenvalues --    3.08701   3.09174   3.09566   3.10279   3.10386
 Alpha virt. eigenvalues --    3.10649   3.10791   3.10839   3.11568   3.11827
 Alpha virt. eigenvalues --    3.12102   3.12403   3.13480   3.13611   3.13668
 Alpha virt. eigenvalues --    3.14937   3.15777   3.16003   3.16319   3.17527
 Alpha virt. eigenvalues --    3.19249   3.19698   3.20045   3.20616   3.20710
 Alpha virt. eigenvalues --    3.20849   3.21337   3.22548   3.22636   3.22908
 Alpha virt. eigenvalues --    3.23607   3.24762   3.26605   3.27551   3.28612
 Alpha virt. eigenvalues --    3.30444   3.34242   3.41832   3.43243   3.46294
 Alpha virt. eigenvalues --    3.47307   3.47976   3.49868   3.53737   3.56052
 Alpha virt. eigenvalues --    3.61858   3.66311   3.66911   3.70248   3.71630
 Alpha virt. eigenvalues --    3.72285   3.72436
          Condensed to atoms (all electrons):
 Mulliken charges:
               1
     1  Mg   0.820158
     2  C   -0.077543
     3  C   -0.079989
     4  C   -0.079191
     5  C   -0.078058
     6  N   -0.206384
     7  C   -0.111835
     8  C    0.036002
     9  C   -0.094074
    10  C    0.039241
    11  C    0.073720
    12  C    0.072919
    13  C    0.025173
    14  C    0.147476
    15  O   -0.242669
    16  O   -0.340323
    17  N   -0.421776
    18  C    0.151450
    19  C   -0.158073
    20  C   -0.019857
    21  C    0.165966
    22  C    0.153582
    23  C   -0.053585
    24  O   -0.204784
    25  C    0.059748
    26  N   -0.283744
    27  C    0.055411
    28  C   -0.062219
    29  C   -0.027473
    30  C    0.032099
    31  C    0.066976
    32  C    0.044229
    33  C   -0.019895
    34  N   -0.373127
    35  C    0.110804
    36  C   -0.165980
    37  C   -0.025836
    38  C    0.227219
    39  C    0.121603
    40  C    0.036703
    41  O   -0.196361
    42  C    0.064347
    43  C    0.191300
    44  O   -0.200378
    45  O   -0.364310
    46  C    0.187738
    47  C    0.275333
    48  C   -0.139896
    49  C   -0.224080
    50  C    0.089740
    51  C    0.143905
    52  C   -0.055752
    53  C    0.096508
    54  C   -0.121902
    55  C    0.051067
    56  C    0.029302
    57  C    0.019488
    58  C    0.077113
    59  C   -0.141170
    60  C    0.038452
    61  C    0.047337
    62  C    0.028641
    63  C    0.073937
    64  C   -0.145641
    65  C    0.051254
    66  C    0.031540
    67  H   -0.003419
    68  H   -0.044955
    69  H   -0.033353
    70  H    0.018442
    71  H    0.021646
    72  H    0.012736
    73  H    0.018386
    74  H    0.021468
    75  H    0.034792
    76  H    0.022088
    77  H    0.034007
    78  H    0.026871
    79  H    0.040865
    80  H   -0.018620
    81  H    0.041846
    82  H    0.034712
    83  H    0.042771
    84  H    0.026360
    85  H    0.025981
    86  H    0.012332
    87  H    0.015071
    88  H    0.018660
    89  H    0.026169
    90  H    0.016536
    91  H    0.012751
    92  H    0.020419
    93  H    0.027954
    94  H    0.011303
    95  H    0.026069
    96  H    0.031482
    97  H    0.029926
    98  H    0.036944
    99  H    0.031234
   100  H    0.051474
   101  H    0.020774
   102  H    0.040931
   103  H    0.016798
   104  H   -0.006362
   105  H    0.014535
   106  H    0.046377
   107  H    0.040019
   108  H    0.002209
   109  H   -0.014029
   110  H   -0.001025
   111  H   -0.001300
   112  H   -0.015920
   113  H    0.013111
   114  H   -0.002638
   115  H    0.008889
   116  H   -0.001438
   117  H   -0.000920
   118  H    0.012745
   119  H   -0.006043
   120  H   -0.013374
   121  H    0.007626
   122  H   -0.012057
   123  H   -0.007298
   124  H   -0.000463
   125  H    0.000627
   126  H    0.005004
   127  H    0.006461
   128  H   -0.013763
   129  H   -0.013639
   130  H   -0.007182
   131  H   -0.012017
   132  H   -0.011463
   133  H   -0.027699
   134  H    0.003449
   135  H    0.002323
   136  H   -0.009408
   137  H    0.007851
   138  H    0.002818
   139  H    0.004185
   140  H    0.008782
 Sum of Mulliken charges =  -0.00000
 Mulliken charges with hydrogens summed into heavy atoms:
               1
     1  Mg   0.820158
     2  C   -0.077543
     3  C   -0.083408
     4  C   -0.124147
     5  C   -0.111411
     6  N   -0.206384
     7  C   -0.111835
     8  C    0.054445
     9  C   -0.072429
    10  C    0.039241
    11  C    0.126310
    12  C    0.129799
    13  C    0.086052
    14  C    0.147476
    15  O   -0.242669
    16  O   -0.340323
    17  N   -0.421776
    18  C    0.151450
    19  C   -0.158073
    20  C   -0.019857
    21  C    0.165966
    22  C    0.217672
    23  C   -0.053585
    24  O   -0.204784
    25  C    0.163592
    26  N   -0.283744
    27  C    0.055411
    28  C   -0.036239
    29  C   -0.015141
    30  C    0.032099
    31  C    0.126876
    32  C    0.073516
    33  C    0.039781
    34  N   -0.373127
    35  C    0.110804
    36  C   -0.165980
    37  C   -0.025836
    38  C    0.227219
    39  C    0.209081
    40  C    0.036703
    41  O   -0.196361
    42  C    0.101291
    43  C    0.191300
    44  O   -0.200378
    45  O   -0.364310
    46  C    0.291219
    47  C    0.333061
    48  C   -0.146257
    49  C   -0.224080
    50  C    0.190671
    51  C    0.132086
    52  C   -0.058077
    53  C    0.093699
    54  C   -0.124539
    55  C    0.057598
    56  C    0.036004
    57  C    0.013739
    58  C    0.057759
    59  C   -0.141633
    60  C    0.050544
    61  C    0.019934
    62  C    0.009442
    63  C    0.034776
    64  C   -0.142192
    65  C    0.052020
    66  C    0.047325
 Electronic spatial extent (au):  <R**2>=         124553.6033
 Charge=              0.0000 electrons
 Dipole moment (field-independent basis, Debye):
    X=              2.5115    Y=              5.7381    Z=              0.5924  Tot=              6.2916
 Quadrupole moment (field-independent basis, Debye-Ang):
   XX=           -351.7862   YY=           -451.9457   ZZ=           -395.5889
   XY=             20.3157   XZ=              6.1129   YZ=             38.5813
 Traceless Quadrupole moment (field-independent basis, Debye-Ang):
   XX=             47.9874   YY=            -52.1721   ZZ=              4.1847
   XY=             20.3157   XZ=              6.1129   YZ=             38.5813
 Octapole moment (field-independent basis, Debye-Ang**2):
  XXX=            395.5390  YYY=            216.1765  ZZZ=             21.6377  XYY=             -5.7212
  XXY=             64.0960  XXZ=             33.4349  XZZ=             89.4926  YZZ=            -62.2741
  YYZ=             93.7667  XYZ=            179.8941
 Hexadecapole moment (field-independent basis, Debye-Ang**3):
 XXXX=        -132464.6966 YYYY=         -24604.3753 ZZZZ=         -13609.5085 XXXY=            589.7597
 XXXZ=           -320.8128 YYYX=            786.1783 YYYZ=           1188.9966 ZZZX=            445.2688
 ZZZY=            473.3433 XXYY=         -26377.6584 XXZZ=         -24725.5699 YYZZ=          -6680.7645
 XXYZ=           1093.3980 YYXZ=             24.5486 ZZXY=           -111.6958
 N-N= 9.522565909509D+03 E-N=-2.603624589725D+04  KE= 2.975320920802D+03
 Leave Link  601 at Wed Apr 27 02:10:07 2022, MaxMem= 10066329600 cpu:              10.6 elap:               0.5
 (Enter /sw/apps/gaussian-16.0/g16/l9999.exe)
 1\1\GINC-BP1-COMPUTE139\SP\RCAM-B3LYP TD-FC\def2SVP\C55H74Mg1N4O6\OF15
 641\27-Apr-2022\0\\#p cam-b3lyp/Def2SVP td=(nstates=5)\\step_1051_chro
 mophore_14 TDDFT with cam-b3lyp functional\\0,1\Mg,0,46.892,46.137,43.
 993\C,0,43.569,44.963,43.571\C,0,47.935,42.878,43.132\C,0,50.085,47.40
 9,43.662\C,0,45.611,49.331,44.444\N,0,45.834,44.126,43.401\C,0,44.475,
 43.895,43.389\C,0,44.199,42.421,43.067\C,0,45.626,41.82,43.028\C,0,46.
 516,43.031,43.26\C,0,45.858,40.687,44.067\C,0,43.381,42.069,41.775\C,0
 ,43.383,43.155,40.656\C,0,43.262,42.81,39.218\O,0,42.34,42.198,38.696\
 O,0,44.428,43.033,38.549\N,0,48.728,45.319,43.403\C,0,48.933,43.945,43
 .187\C,0,50.347,43.722,42.923\C,0,50.998,45.009,42.993\C,0,49.96,46.01
 3,43.351\C,0,50.992,42.332,42.674\C,0,52.419,45.221,42.695\O,0,53.125,
 44.292,42.352\C,0,53.048,46.549,42.776\N,0,47.741,48.073,43.952\C,0,49
 .079,48.321,43.964\C,0,49.304,49.815,43.955\C,0,47.941,50.442,44.286\C
 ,0,47.051,49.183,44.223\C,0,50.565,50.39,44.792\C,0,47.535,51.683,43.4
 06\C,0,46.955,52.815,44.292\N,0,44.984,46.995,43.977\C,0,44.566,48.34,
 44.241\C,0,43.12,48.396,44.233\C,0,42.748,47.032,43.988\C,0,43.891,46.
 242,43.849\C,0,42.338,49.655,44.479\C,0,41.571,46.15,43.855\O,0,40.345
 ,46.381,43.975\C,0,42.098,44.806,43.522\C,0,41.606,43.948,44.612\O,0,4
 0.959,42.921,44.467\O,0,42.157,44.359,45.848\C,0,41.764,43.512,46.97\C
 ,0,44.41,42.634,37.091\C,0,45.519,43.154,36.144\C,0,46.173,42.49,35.15
 6\C,0,45.794,41.059,34.858\C,0,47.206,43.189,34.386\C,0,46.944,43.251,
 32.873\C,0,45.532,43.838,32.477\C,0,45.431,43.945,30.991\C,0,44.876,45
 .322,30.489\C,0,44.531,42.757,30.43\C,0,45.185,42.224,29.108\C,0,44.22
 7,42.371,27.961\C,0,44.921,43.211,26.747\C,0,44.372,44.661,26.668\C,0,
 44.729,42.582,25.361\C,0,45.891,42.96,24.376\C,0,46.898,41.874,24.212\
 C,0,46.826,41.123,22.86\C,0,46.282,39.715,23.089\C,0,48.233,41.069,22.
 243\H,0,48.309,41.91,42.791\H,0,51.083,47.846,43.586\H,0,45.305,50.318
 ,44.797\H,0,43.596,42.005,43.873\H,0,45.896,41.405,42.057\H,0,46.905,4
 0.766,44.36\H,0,45.703,39.736,43.557\H,0,45.169,40.775,44.907\H,0,42.3
 28,41.973,42.037\H,0,43.839,41.201,41.301\H,0,44.248,43.766,40.913\H,0
 ,42.51,43.795,40.784\H,0,51.374,42.238,41.657\H,0,50.259,41.527,42.718
 \H,0,51.705,42.144,43.476\H,0,52.782,47.027,43.719\H,0,52.727,47.199,4
 1.962\H,0,54.123,46.368,42.77\H,0,49.51,49.991,42.899\H,0,47.836,50.74
 9,45.326\H,0,50.956,49.536,45.344\H,0,50.224,51.097,45.549\H,0,51.342,
 50.795,44.143\H,0,46.728,51.435,42.716\H,0,48.383,52.033,42.818\H,0,47
 .697,53.607,44.188\H,0,46.676,52.564,45.316\H,0,46.037,53.183,43.834\H
 ,0,42.789,50.289,45.242\H,0,41.322,49.367,44.748\H,0,42.212,50.205,43.
 546\H,0,41.74,44.381,42.584\H,0,42.298,43.787,47.88\H,0,41.656,42.463,
 46.694\H,0,40.79,43.874,47.299\H,0,43.505,43.068,36.665\H,0,44.431,41.
 546,37.039\H,0,45.888,44.139,36.429\H,0,46.474,40.596,34.143\H,0,44.74
 2,41.089,34.576\H,0,45.948,40.63,35.848\H,0,48.151,42.708,34.637\H,0,4
 7.317,44.21,34.752\H,0,47.197,42.303,32.398\H,0,47.701,43.95,32.515\H,
 0,45.556,44.847,32.889\H,0,44.793,43.208,32.973\H,0,46.419,43.87,30.53
 7\H,0,44.635,45.973,31.329\H,0,44.06,45.23,29.772\H,0,45.591,45.87,29.
 875\H,0,43.517,43.148,30.344\H,0,44.561,41.839,31.018\H,0,45.255,41.14
 8,29.266\H,0,46.218,42.526,28.932\H,0,43.347,42.935,28.271\H,0,43.806,
 41.43,27.606\H,0,45.986,43.381,26.9\H,0,45.182,45.374,26.822\H,0,43.65
 8,44.91,27.453\H,0,43.9,44.859,25.705\H,0,43.873,42.983,24.819\H,0,44.
 515,41.515,25.432\H,0,46.324,43.901,24.718\H,0,45.465,43.143,23.39\H,0
 ,46.99,41.167,25.037\H,0,47.888,42.329,24.27\H,0,46.234,41.605,22.082\
 H,0,46.865,38.909,22.644\H,0,45.324,39.517,22.609\H,0,46.034,39.532,24
 .134\H,0,48.09,41.108,21.163\H,0,48.737,40.134,22.489\H,0,48.915,41.86
 8,22.533\\Version=ES64L-G16RevA.03\State=1-A\HF=-3007.1500241\RMSD=4.1
 29e-09\PG=C01 [X(C55H74Mg1N4O6)]\\@


 EVERYBODY NEEDS BEAUTY AS WELL AS BREAD, PLACES TO PLAY IN AND PRAY IN,
 WHERE NATURE MAY HEAL AND CHEER AND GIVE STRENGTH TO BODY AND SOUL ALIKE.

                                    -- JOHN MUIR
 Job cpu time:       0 days 11 hours 21 minutes 14.2 seconds.
 Elapsed time:       0 days  0 hours 28 minutes 51.9 seconds.
 File lengths (MBytes):  RWF=   8929 Int=      0 D2E=      0 Chk=    390 Scr=      1
 Normal termination of Gaussian 16 at Wed Apr 27 02:10:08 2022.
