 Entering Gaussian System, Link 0=g16
 Initial command:
 /sw/apps/gaussian-16.0/g16/l1.exe "/tmp/Gau-216250.inp" -scrdir="/tmp/"
 Entering Link 1 = /sw/apps/gaussian-16.0/g16/l1.exe PID=    216251.
  
 Copyright (c) 1988,1990,1992,1993,1995,1998,2003,2009,2016,
            Gaussian, Inc.  All Rights Reserved.
  
 This is part of the Gaussian(R) 16 program.  It is based on
 the Gaussian(R) 09 system (copyright 2009, Gaussian, Inc.),
 the Gaussian(R) 03 system (copyright 2003, Gaussian, Inc.),
 the Gaussian(R) 98 system (copyright 1998, Gaussian, Inc.),
 the Gaussian(R) 94 system (copyright 1995, Gaussian, Inc.),
 the Gaussian 92(TM) system (copyright 1992, Gaussian, Inc.),
 the Gaussian 90(TM) system (copyright 1990, Gaussian, Inc.),
 the Gaussian 88(TM) system (copyright 1988, Gaussian, Inc.),
 the Gaussian 86(TM) system (copyright 1986, Carnegie Mellon
 University), and the Gaussian 82(TM) system (copyright 1983,
 Carnegie Mellon University). Gaussian is a federally registered
 trademark of Gaussian, Inc.
  
 This software contains proprietary and confidential information,
 including trade secrets, belonging to Gaussian, Inc.
  
 This software is provided under written license and may be
 used, copied, transmitted, or stored only in accord with that
 written license.
  
 The following legend is applicable only to US Government
 contracts under FAR:
  
                    RESTRICTED RIGHTS LEGEND
  
 Use, reproduction and disclosure by the US Government is
 subject to restrictions as set forth in subparagraphs (a)
 and (c) of the Commercial Computer Software - Restricted
 Rights clause in FAR 52.227-19.
  
 Gaussian, Inc.
 340 Quinnipiac St., Bldg. 40, Wallingford CT 06492
  
  
 ---------------------------------------------------------------
 Warning -- This program may not be used in any manner that
 competes with the business of Gaussian, Inc. or will provide
 assistance to any competitor of Gaussian, Inc.  The licensee
 of this program is prohibited from giving any competitor of
 Gaussian, Inc. access to this program.  By using this program,
 the user acknowledges that Gaussian, Inc. is engaged in the
 business of creating and licensing software in the field of
 computational chemistry and represents and warrants to the
 licensee that it is not a competitor of Gaussian, Inc. and that
 it will not use this program in any manner prohibited above.
 ---------------------------------------------------------------
  

 Cite this work as:
 Gaussian 16, Revision A.03,
 M. J. Frisch, G. W. Trucks, H. B. Schlegel, G. E. Scuseria, 
 M. A. Robb, J. R. Cheeseman, G. Scalmani, V. Barone, 
 G. A. Petersson, H. Nakatsuji, X. Li, M. Caricato, A. V. Marenich, 
 J. Bloino, B. G. Janesko, R. Gomperts, B. Mennucci, H. P. Hratchian, 
 J. V. Ortiz, A. F. Izmaylov, J. L. Sonnenberg, D. Williams-Young, 
 F. Ding, F. Lipparini, F. Egidi, J. Goings, B. Peng, A. Petrone, 
 T. Henderson, D. Ranasinghe, V. G. Zakrzewski, J. Gao, N. Rega, 
 G. Zheng, W. Liang, M. Hada, M. Ehara, K. Toyota, R. Fukuda, 
 J. Hasegawa, M. Ishida, T. Nakajima, Y. Honda, O. Kitao, H. Nakai, 
 T. Vreven, K. Throssell, J. A. Montgomery, Jr., J. E. Peralta, 
 F. Ogliaro, M. J. Bearpark, J. J. Heyd, E. N. Brothers, K. N. Kudin, 
 V. N. Staroverov, T. A. Keith, R. Kobayashi, J. Normand, 
 K. Raghavachari, A. P. Rendell, J. C. Burant, S. S. Iyengar, 
 J. Tomasi, M. Cossi, J. M. Millam, M. Klene, C. Adamo, R. Cammi, 
 J. W. Ochterski, R. L. Martin, K. Morokuma, O. Farkas, 
 J. B. Foresman, and D. J. Fox, Gaussian, Inc., Wallingford CT, 2016.
 
 ******************************************
 Gaussian 16:  ES64L-G16RevA.03 25-Dec-2016
                 4-May-2022 
 ******************************************
 %nproc=24
 Will use up to   24 processors via shared memory.
 %mem=75GB
 --------------------------------
 #p wB97XD/Def2SVP td=(nstates=5)
 --------------------------------
 1/38=1,172=1/1;
 2/12=2,17=6,18=5,40=1/2;
 3/5=43,7=101,11=9,25=1,30=1,74=-58/1,2,3,8;
 4//1;
 5/5=2,38=5/2;
 8/6=1,10=1,108=5/1;
 9/41=5,42=1,70=2/14;
 6/7=2,8=2,9=2,10=2/1;
 99/5=1,9=1/99;
 Leave Link    1 at Wed May  4 04:04:20 2022, MaxMem= 10066329600 cpu:               1.6 elap:               0.1
 (Enter /sw/apps/gaussian-16.0/g16/l101.exe)
 -----------------------------------------------------
 step_1351_chromophore_18 TDDFT with wB97XD functional
 -----------------------------------------------------
 Symbolic Z-matrix:
 Charge =  0 Multiplicity = 1
 Mg                    34.648    49.247    25.196 
 C                     34.597    47.385    28.221 
 C                     32.973    51.702    26.78 
 C                     33.861    50.512    22.131 
 C                     35.429    46.161    23.561 
 N                     33.903    49.464    27.377 
 C                     34.199    48.691    28.454 
 C                     33.801    49.445    29.714 
 C                     33.105    50.789    29.242 
 C                     33.333    50.677    27.715 
 C                     31.625    51.068    29.628 
 C                     34.928    49.576    30.76 
 C                     34.555    49.209    32.205 
 C                     33.167    49.278    32.804 
 O                     32.483    48.268    32.983 
 O                     32.797    50.653    32.922 
 N                     33.754    51.011    24.565 
 C                     33.19     51.901    25.445 
 C                     32.869    53.086    24.652 
 C                     32.994    52.688    23.281 
 C                     33.477    51.304    23.263 
 C                     32.512    54.366    25.311 
 C                     32.641    53.565    22.023 
 O                     32.768    53.061    20.912 
 C                     32.125    54.936    22.146 
 N                     34.734    48.474    23.031 
 C                     34.401    49.246    21.993 
 C                     34.583    48.402    20.637 
 C                     35.063    46.997    21.177 
 C                     35.104    47.222    22.654 
 C                     33.361    48.341    19.633 
 C                     36.476    46.496    20.568 
 C                     37.697    47.067    21.236 
 N                     35.112    47.222    25.735 
 C                     35.394    46.166    24.974 
 C                     35.598    44.975    25.834 
 C                     35.326    45.445    27.103 
 C                     34.951    46.831    27.018 
 C                     35.995    43.573    25.405 
 C                     35.174    45.       28.462 
 O                     35.278    43.898    28.954 
 C                     34.696    46.221    29.261 
 C                     33.48     45.911    29.976 
 O                     32.347    46.015    29.563 
 O                     33.756    45.453    31.242 
 C                     32.516    45.245    32.055 
 C                     31.411    50.766    33.412 
 C                     31.013    52.205    33.597 
 C                     31.217    52.987    34.718 
 C                     31.945    52.591    35.967 
 C                     30.638    54.366    34.572 
 C                     31.598    55.498    34.746 
 C                     31.264    56.883    34.102 
 C                     31.582    57.938    35.146 
 C                     33.144    58.251    35.159 
 C                     30.782    59.233    35.1 
 C                     29.232    59.043    35.475 
 C                     28.782    59.855    36.734 
 C                     28.249    61.31     36.376 
 C                     29.352    62.315    36.238 
 C                     27.224    61.822    37.36 
 C                     26.382    63.028    36.725 
 C                     26.665    64.366    37.278 
 C                     25.462    65.308    37.733 
 C                     25.695    66.75     37.284 
 C                     25.161    65.283    39.267 
 H                     32.591    52.547    27.357 
 H                     33.751    50.974    21.148 
 H                     35.769    45.328    22.942 
 H                     32.961    48.956    30.208 
 H                     33.67     51.685    29.499 
 H                     31.643    52.089    30.009 
 H                     31.224    50.39     30.382 
 H                     30.968    50.975    28.763 
 H                     35.269    50.608    30.844 
 H                     35.768    48.946    30.469 
 H                     35.263    49.644    32.911 
 H                     34.834    48.157    32.266 
 H                     31.425    54.431    25.334 
 H                     32.878    55.292    24.869 
 H                     33.001    54.215    26.274 
 H                     31.177    54.706    22.632 
 H                     31.895    55.371    21.173 
 H                     32.756    55.487    22.843 
 H                     35.522    48.833    20.289 
 H                     34.394    46.181    20.905 
 H                     33.581    48.612    18.6 
 H                     32.61     49.115    19.792 
 H                     32.991    47.316    19.651 
 H                     36.506    46.652    19.489 
 H                     36.482    45.457    20.895 
 H                     37.544    47.859    21.968 
 H                     38.405    47.53     20.547 
 H                     38.257    46.26     21.71 
 H                     35.448    43.474    24.468 
 H                     35.554    42.889    26.13 
 H                     37.076    43.552    25.267 
 H                     35.577    46.376    29.884 
 H                     32.87     45.271    33.085 
 H                     31.991    44.318    31.826 
 H                     31.814    46.058    31.871 
 H                     31.439    50.36     34.423 
 H                     30.667    50.321    32.751 
 H                     30.415    52.62     32.786 
 H                     31.254    52.119    36.667 
 H                     32.396    53.467    36.434 
 H                     32.716    51.852    35.748 
 H                     29.872    54.418    35.346 
 H                     30.07     54.379    33.641 
 H                     32.51     55.116    34.287 
 H                     31.596    55.55     35.835 
 H                     30.2      57.041    33.923 
 H                     31.888    57.115    33.24 
 H                     31.345    57.511    36.12 
 H                     33.662    57.43     34.663 
 H                     33.468    58.133    36.192 
 H                     33.464    59.222    34.78 
 H                     30.736    59.646    34.092 
 H                     31.297    60.022    35.646 
 H                     28.932    58.       35.577 
 H                     28.756    59.495    34.604 
 H                     29.669    59.921    37.364 
 H                     28.15     59.224    37.359 
 H                     27.782    61.206    35.396 
 H                     29.376    62.907    37.153 
 H                     29.197    62.875    35.316 
 H                     30.323    61.862    36.042 
 H                     27.696    62.093    38.304 
 H                     26.55     61.036    37.699 
 H                     25.319    62.8      36.807 
 H                     26.642    63.258    35.691 
 H                     27.337    64.915    36.619 
 H                     27.212    64.207    38.207 
 H                     24.515    65.077    37.245 
 H                     24.826    67.056    36.701 
 H                     26.488    66.765    36.536 
 H                     25.971    67.448    38.074 
 H                     24.723    66.228    39.588 
 H                     26.035    65.019    39.863 
 H                     24.427    64.492    39.42 
 
 ITRead=  0  0  0  0  0  0  0  0  0  0  0  0  0  0  0  0  0  0  0  0
 ITRead=  0  0  0  0  0  0  0  0  0  0  0  0  0  0  0  0  0  0  0  0
 ITRead=  0  0  0  0  0  0  0  0  0  0  0  0  0  0  0  0  0  0  0  0
 ITRead=  0  0  0  0  0  0  0  0  0  0  0  0  0  0  0  0  0  0  0  0
 ITRead=  0  0  0  0  0  0  0  0  0  0  0  0  0  0  0  0  0  0  0  0
 ITRead=  0  0  0  0  0  0  0  0  0  0  0  0  0  0  0  0  0  0  0  0
 ITRead=  0  0  0  0  0  0  0  0  0  0  0  0  0  0  0  0  0  0  0  0
 MicOpt= -1 -1 -1 -1 -1 -1 -1 -1 -1 -1 -1 -1 -1 -1 -1 -1 -1 -1 -1 -1
 MicOpt= -1 -1 -1 -1 -1 -1 -1 -1 -1 -1 -1 -1 -1 -1 -1 -1 -1 -1 -1 -1
 MicOpt= -1 -1 -1 -1 -1 -1 -1 -1 -1 -1 -1 -1 -1 -1 -1 -1 -1 -1 -1 -1
 MicOpt= -1 -1 -1 -1 -1 -1 -1 -1 -1 -1 -1 -1 -1 -1 -1 -1 -1 -1 -1 -1
 MicOpt= -1 -1 -1 -1 -1 -1 -1 -1 -1 -1 -1 -1 -1 -1 -1 -1 -1 -1 -1 -1
 MicOpt= -1 -1 -1 -1 -1 -1 -1 -1 -1 -1 -1 -1 -1 -1 -1 -1 -1 -1 -1 -1
 MicOpt= -1 -1 -1 -1 -1 -1 -1 -1 -1 -1 -1 -1 -1 -1 -1 -1 -1 -1 -1 -1
 NAtoms=    140 NQM=      140 NQMF=       0 NMMI=      0 NMMIF=      0
                NMic=       0 NMicF=      0.
                    Isotopes and Nuclear Properties:
 (Nuclear quadrupole moments (NQMom) in fm**2, nuclear magnetic moments (NMagM)
  in nuclear magnetons)

  Atom         1           2           3           4           5           6           7           8           9          10
 IAtWgt=          24          12          12          12          12          14          12          12          12          12
 AtmWgt=  23.9850450  12.0000000  12.0000000  12.0000000  12.0000000  14.0030740  12.0000000  12.0000000  12.0000000  12.0000000
 NucSpn=           0           0           0           0           0           2           0           0           0           0
 AtZEff=  -0.0000000  -0.0000000  -0.0000000  -0.0000000  -0.0000000  -0.0000000  -0.0000000  -0.0000000  -0.0000000  -0.0000000
 NQMom=    0.0000000   0.0000000   0.0000000   0.0000000   0.0000000   2.0440000   0.0000000   0.0000000   0.0000000   0.0000000
 NMagM=    0.0000000   0.0000000   0.0000000   0.0000000   0.0000000   0.4037610   0.0000000   0.0000000   0.0000000   0.0000000
 AtZNuc=  12.0000000   6.0000000   6.0000000   6.0000000   6.0000000   7.0000000   6.0000000   6.0000000   6.0000000   6.0000000

  Atom        11          12          13          14          15          16          17          18          19          20
 IAtWgt=          12          12          12          12          16          16          14          12          12          12
 AtmWgt=  12.0000000  12.0000000  12.0000000  12.0000000  15.9949146  15.9949146  14.0030740  12.0000000  12.0000000  12.0000000
 NucSpn=           0           0           0           0           0           0           2           0           0           0
 AtZEff=  -0.0000000  -0.0000000  -0.0000000  -0.0000000  -0.0000000  -0.0000000  -0.0000000  -0.0000000  -0.0000000  -0.0000000
 NQMom=    0.0000000   0.0000000   0.0000000   0.0000000   0.0000000   0.0000000   2.0440000   0.0000000   0.0000000   0.0000000
 NMagM=    0.0000000   0.0000000   0.0000000   0.0000000   0.0000000   0.0000000   0.4037610   0.0000000   0.0000000   0.0000000
 AtZNuc=   6.0000000   6.0000000   6.0000000   6.0000000   8.0000000   8.0000000   7.0000000   6.0000000   6.0000000   6.0000000

  Atom        21          22          23          24          25          26          27          28          29          30
 IAtWgt=          12          12          12          16          12          14          12          12          12          12
 AtmWgt=  12.0000000  12.0000000  12.0000000  15.9949146  12.0000000  14.0030740  12.0000000  12.0000000  12.0000000  12.0000000
 NucSpn=           0           0           0           0           0           2           0           0           0           0
 AtZEff=  -0.0000000  -0.0000000  -0.0000000  -0.0000000  -0.0000000  -0.0000000  -0.0000000  -0.0000000  -0.0000000  -0.0000000
 NQMom=    0.0000000   0.0000000   0.0000000   0.0000000   0.0000000   2.0440000   0.0000000   0.0000000   0.0000000   0.0000000
 NMagM=    0.0000000   0.0000000   0.0000000   0.0000000   0.0000000   0.4037610   0.0000000   0.0000000   0.0000000   0.0000000
 AtZNuc=   6.0000000   6.0000000   6.0000000   8.0000000   6.0000000   7.0000000   6.0000000   6.0000000   6.0000000   6.0000000

  Atom        31          32          33          34          35          36          37          38          39          40
 IAtWgt=          12          12          12          14          12          12          12          12          12          12
 AtmWgt=  12.0000000  12.0000000  12.0000000  14.0030740  12.0000000  12.0000000  12.0000000  12.0000000  12.0000000  12.0000000
 NucSpn=           0           0           0           2           0           0           0           0           0           0
 AtZEff=  -0.0000000  -0.0000000  -0.0000000  -0.0000000  -0.0000000  -0.0000000  -0.0000000  -0.0000000  -0.0000000  -0.0000000
 NQMom=    0.0000000   0.0000000   0.0000000   2.0440000   0.0000000   0.0000000   0.0000000   0.0000000   0.0000000   0.0000000
 NMagM=    0.0000000   0.0000000   0.0000000   0.4037610   0.0000000   0.0000000   0.0000000   0.0000000   0.0000000   0.0000000
 AtZNuc=   6.0000000   6.0000000   6.0000000   7.0000000   6.0000000   6.0000000   6.0000000   6.0000000   6.0000000   6.0000000

  Atom        41          42          43          44          45          46          47          48          49          50
 IAtWgt=          16          12          12          16          16          12          12          12          12          12
 AtmWgt=  15.9949146  12.0000000  12.0000000  15.9949146  15.9949146  12.0000000  12.0000000  12.0000000  12.0000000  12.0000000
 NucSpn=           0           0           0           0           0           0           0           0           0           0
 AtZEff=  -0.0000000  -0.0000000  -0.0000000  -0.0000000  -0.0000000  -0.0000000  -0.0000000  -0.0000000  -0.0000000  -0.0000000
 NQMom=    0.0000000   0.0000000   0.0000000   0.0000000   0.0000000   0.0000000   0.0000000   0.0000000   0.0000000   0.0000000
 NMagM=    0.0000000   0.0000000   0.0000000   0.0000000   0.0000000   0.0000000   0.0000000   0.0000000   0.0000000   0.0000000
 AtZNuc=   8.0000000   6.0000000   6.0000000   8.0000000   8.0000000   6.0000000   6.0000000   6.0000000   6.0000000   6.0000000

  Atom        51          52          53          54          55          56          57          58          59          60
 IAtWgt=          12          12          12          12          12          12          12          12          12          12
 AtmWgt=  12.0000000  12.0000000  12.0000000  12.0000000  12.0000000  12.0000000  12.0000000  12.0000000  12.0000000  12.0000000
 NucSpn=           0           0           0           0           0           0           0           0           0           0
 AtZEff=  -0.0000000  -0.0000000  -0.0000000  -0.0000000  -0.0000000  -0.0000000  -0.0000000  -0.0000000  -0.0000000  -0.0000000
 NQMom=    0.0000000   0.0000000   0.0000000   0.0000000   0.0000000   0.0000000   0.0000000   0.0000000   0.0000000   0.0000000
 NMagM=    0.0000000   0.0000000   0.0000000   0.0000000   0.0000000   0.0000000   0.0000000   0.0000000   0.0000000   0.0000000
 AtZNuc=   6.0000000   6.0000000   6.0000000   6.0000000   6.0000000   6.0000000   6.0000000   6.0000000   6.0000000   6.0000000

  Atom        61          62          63          64          65          66          67          68          69          70
 IAtWgt=          12          12          12          12          12          12           1           1           1           1
 AtmWgt=  12.0000000  12.0000000  12.0000000  12.0000000  12.0000000  12.0000000   1.0078250   1.0078250   1.0078250   1.0078250
 NucSpn=           0           0           0           0           0           0           1           1           1           1
 AtZEff=  -0.0000000  -0.0000000  -0.0000000  -0.0000000  -0.0000000  -0.0000000  -0.0000000  -0.0000000  -0.0000000  -0.0000000
 NQMom=    0.0000000   0.0000000   0.0000000   0.0000000   0.0000000   0.0000000   0.0000000   0.0000000   0.0000000   0.0000000
 NMagM=    0.0000000   0.0000000   0.0000000   0.0000000   0.0000000   0.0000000   2.7928460   2.7928460   2.7928460   2.7928460
 AtZNuc=   6.0000000   6.0000000   6.0000000   6.0000000   6.0000000   6.0000000   1.0000000   1.0000000   1.0000000   1.0000000

  Atom        71          72          73          74          75          76          77          78          79          80
 IAtWgt=           1           1           1           1           1           1           1           1           1           1
 AtmWgt=   1.0078250   1.0078250   1.0078250   1.0078250   1.0078250   1.0078250   1.0078250   1.0078250   1.0078250   1.0078250
 NucSpn=           1           1           1           1           1           1           1           1           1           1
 AtZEff=  -0.0000000  -0.0000000  -0.0000000  -0.0000000  -0.0000000  -0.0000000  -0.0000000  -0.0000000  -0.0000000  -0.0000000
 NQMom=    0.0000000   0.0000000   0.0000000   0.0000000   0.0000000   0.0000000   0.0000000   0.0000000   0.0000000   0.0000000
 NMagM=    2.7928460   2.7928460   2.7928460   2.7928460   2.7928460   2.7928460   2.7928460   2.7928460   2.7928460   2.7928460
 AtZNuc=   1.0000000   1.0000000   1.0000000   1.0000000   1.0000000   1.0000000   1.0000000   1.0000000   1.0000000   1.0000000

  Atom        81          82          83          84          85          86          87          88          89          90
 IAtWgt=           1           1           1           1           1           1           1           1           1           1
 AtmWgt=   1.0078250   1.0078250   1.0078250   1.0078250   1.0078250   1.0078250   1.0078250   1.0078250   1.0078250   1.0078250
 NucSpn=           1           1           1           1           1           1           1           1           1           1
 AtZEff=  -0.0000000  -0.0000000  -0.0000000  -0.0000000  -0.0000000  -0.0000000  -0.0000000  -0.0000000  -0.0000000  -0.0000000
 NQMom=    0.0000000   0.0000000   0.0000000   0.0000000   0.0000000   0.0000000   0.0000000   0.0000000   0.0000000   0.0000000
 NMagM=    2.7928460   2.7928460   2.7928460   2.7928460   2.7928460   2.7928460   2.7928460   2.7928460   2.7928460   2.7928460
 AtZNuc=   1.0000000   1.0000000   1.0000000   1.0000000   1.0000000   1.0000000   1.0000000   1.0000000   1.0000000   1.0000000

  Atom        91          92          93          94          95          96          97          98          99         100
 IAtWgt=           1           1           1           1           1           1           1           1           1           1
 AtmWgt=   1.0078250   1.0078250   1.0078250   1.0078250   1.0078250   1.0078250   1.0078250   1.0078250   1.0078250   1.0078250
 NucSpn=           1           1           1           1           1           1           1           1           1           1
 AtZEff=  -0.0000000  -0.0000000  -0.0000000  -0.0000000  -0.0000000  -0.0000000  -0.0000000  -0.0000000  -0.0000000  -0.0000000
 NQMom=    0.0000000   0.0000000   0.0000000   0.0000000   0.0000000   0.0000000   0.0000000   0.0000000   0.0000000   0.0000000
 NMagM=    2.7928460   2.7928460   2.7928460   2.7928460   2.7928460   2.7928460   2.7928460   2.7928460   2.7928460   2.7928460
 AtZNuc=   1.0000000   1.0000000   1.0000000   1.0000000   1.0000000   1.0000000   1.0000000   1.0000000   1.0000000   1.0000000

  Atom       101         102         103         104         105         106         107         108         109         110
 IAtWgt=           1           1           1           1           1           1           1           1           1           1
 AtmWgt=   1.0078250   1.0078250   1.0078250   1.0078250   1.0078250   1.0078250   1.0078250   1.0078250   1.0078250   1.0078250
 NucSpn=           1           1           1           1           1           1           1           1           1           1
 AtZEff=  -0.0000000  -0.0000000  -0.0000000  -0.0000000  -0.0000000  -0.0000000  -0.0000000  -0.0000000  -0.0000000  -0.0000000
 NQMom=    0.0000000   0.0000000   0.0000000   0.0000000   0.0000000   0.0000000   0.0000000   0.0000000   0.0000000   0.0000000
 NMagM=    2.7928460   2.7928460   2.7928460   2.7928460   2.7928460   2.7928460   2.7928460   2.7928460   2.7928460   2.7928460
 AtZNuc=   1.0000000   1.0000000   1.0000000   1.0000000   1.0000000   1.0000000   1.0000000   1.0000000   1.0000000   1.0000000

  Atom       111         112         113         114         115         116         117         118         119         120
 IAtWgt=           1           1           1           1           1           1           1           1           1           1
 AtmWgt=   1.0078250   1.0078250   1.0078250   1.0078250   1.0078250   1.0078250   1.0078250   1.0078250   1.0078250   1.0078250
 NucSpn=           1           1           1           1           1           1           1           1           1           1
 AtZEff=  -0.0000000  -0.0000000  -0.0000000  -0.0000000  -0.0000000  -0.0000000  -0.0000000  -0.0000000  -0.0000000  -0.0000000
 NQMom=    0.0000000   0.0000000   0.0000000   0.0000000   0.0000000   0.0000000   0.0000000   0.0000000   0.0000000   0.0000000
 NMagM=    2.7928460   2.7928460   2.7928460   2.7928460   2.7928460   2.7928460   2.7928460   2.7928460   2.7928460   2.7928460
 AtZNuc=   1.0000000   1.0000000   1.0000000   1.0000000   1.0000000   1.0000000   1.0000000   1.0000000   1.0000000   1.0000000

  Atom       121         122         123         124         125         126         127         128         129         130
 IAtWgt=           1           1           1           1           1           1           1           1           1           1
 AtmWgt=   1.0078250   1.0078250   1.0078250   1.0078250   1.0078250   1.0078250   1.0078250   1.0078250   1.0078250   1.0078250
 NucSpn=           1           1           1           1           1           1           1           1           1           1
 AtZEff=  -0.0000000  -0.0000000  -0.0000000  -0.0000000  -0.0000000  -0.0000000  -0.0000000  -0.0000000  -0.0000000  -0.0000000
 NQMom=    0.0000000   0.0000000   0.0000000   0.0000000   0.0000000   0.0000000   0.0000000   0.0000000   0.0000000   0.0000000
 NMagM=    2.7928460   2.7928460   2.7928460   2.7928460   2.7928460   2.7928460   2.7928460   2.7928460   2.7928460   2.7928460
 AtZNuc=   1.0000000   1.0000000   1.0000000   1.0000000   1.0000000   1.0000000   1.0000000   1.0000000   1.0000000   1.0000000

  Atom       131         132         133         134         135         136         137         138         139         140
 IAtWgt=           1           1           1           1           1           1           1           1           1           1
 AtmWgt=   1.0078250   1.0078250   1.0078250   1.0078250   1.0078250   1.0078250   1.0078250   1.0078250   1.0078250   1.0078250
 NucSpn=           1           1           1           1           1           1           1           1           1           1
 AtZEff=  -0.0000000  -0.0000000  -0.0000000  -0.0000000  -0.0000000  -0.0000000  -0.0000000  -0.0000000  -0.0000000  -0.0000000
 NQMom=    0.0000000   0.0000000   0.0000000   0.0000000   0.0000000   0.0000000   0.0000000   0.0000000   0.0000000   0.0000000
 NMagM=    2.7928460   2.7928460   2.7928460   2.7928460   2.7928460   2.7928460   2.7928460   2.7928460   2.7928460   2.7928460
 AtZNuc=   1.0000000   1.0000000   1.0000000   1.0000000   1.0000000   1.0000000   1.0000000   1.0000000   1.0000000   1.0000000
 Leave Link  101 at Wed May  4 04:04:20 2022, MaxMem= 10066329600 cpu:               4.2 elap:               0.2
 (Enter /sw/apps/gaussian-16.0/g16/l202.exe)
 Stoichiometry    C55H74MgN4O6
 Framework group  C1[X(C55H74MgN4O6)]
 Deg. of freedom   414
 Full point group                 C1      NOp   1
 Largest Abelian subgroup         C1      NOp   1
 Largest concise Abelian subgroup C1      NOp   1
                         Standard orientation:                         
 ---------------------------------------------------------------------
 Center     Atomic      Atomic             Coordinates (Angstroms)
 Number     Number       Type             X           Y           Z
 ---------------------------------------------------------------------
      1         12           0        5.338198    1.220736    0.510516
      2          6           0        4.768191   -2.275250    0.239512
      3          6           0        2.052625    1.711810   -0.042259
      4          6           0        6.075359    4.470295   -0.204170
      5          6           0        8.803071    0.476886    0.012600
      6          7           0        3.582938   -0.248897    0.166836
      7          6           0        3.563537   -1.597512    0.327879
      8          6           0        2.114296   -2.058708    0.366855
      9          6           0        1.219446   -0.777882    0.098041
     10          6           0        2.321496    0.308999    0.077239
     11          6           0        0.285603   -0.736306   -1.144314
     12          6           0        1.751536   -2.913950    1.599078
     13          6           0        0.991517   -4.219308    1.315786
     14          6           0        0.105600   -4.483792    0.117743
     15          8           0        0.481818   -5.174326   -0.831793
     16          8           0       -1.067370   -3.677197    0.240197
     17          7           0        4.177376    2.908529    0.174450
     18          6           0        2.811347    2.844946    0.053955
     19          6           0        2.354056    4.233059    0.042005
     20          6           0        3.527829    5.032648   -0.149267
     21          6           0        4.683155    4.130293   -0.156097
     22          6           0        0.917683    4.560149    0.215137
     23          6           0        3.566441    6.592592   -0.352701
     24          8           0        4.655018    7.124633   -0.543482
     25          6           0        2.344211    7.409269   -0.367465
     26          7           0        7.256900    2.405955    0.056658
     27          6           0        7.240431    3.727918   -0.134284
     28          6           0        8.740517    4.231725   -0.417332
     29          6           0        9.564028    2.884589   -0.361860
     30          6           0        8.503055    1.876494   -0.058683
     31          6           0        8.995700    5.108740   -1.709906
     32          6           0       10.771072    2.884970    0.715867
     33          6           0       10.361833    2.585826    2.132251
     34          7           0        6.596903   -0.509931    0.346517
     35          6           0        7.912351   -0.610101    0.163915
     36          6           0        8.293123   -2.040648    0.073114
     37          6           0        7.082117   -2.699866    0.137473
     38          6           0        6.025433   -1.728681    0.232672
     39          6           0        9.686994   -2.626301   -0.073135
     40          6           0        6.504899   -4.012103    0.024055
     41          8           0        7.016950   -5.091031   -0.178436
     42          6           0        4.983044   -3.816525    0.082647
     43          6           0        4.351921   -4.426220   -1.064496
     44          8           0        4.153738   -3.914068   -2.143151
     45          8           0        3.985192   -5.722752   -0.793922
     46          6           0        3.212919   -6.342102   -1.917236
     47          6           0       -1.916306   -3.830109   -0.955541
     48          6           0       -3.185597   -3.032380   -0.829528
     49          6           0       -4.366544   -3.436321   -0.236251
     50          6           0       -4.615033   -4.731989    0.475294
     51          6           0       -5.448935   -2.399287   -0.342023
     52          6           0       -6.037793   -1.937181    0.951424
     53          6           0       -6.733678   -0.538420    1.012478
     54          6           0       -8.022376   -0.725570    1.792425
     55          6           0       -7.728289   -0.716645    3.358125
     56          6           0       -9.181290    0.206617    1.465185
     57          6           0       -9.799015   -0.027477    0.001340
     58          6           0      -11.306245   -0.445922    0.010674
     59          6           0      -12.295782    0.797404   -0.054390
     60          6           0      -12.553228    1.405886    1.290656
     61          6           0      -13.612742    0.469821   -0.717210
     62          6           0      -14.357683    1.807358   -1.189102
     63          6           0      -15.554742    2.180555   -0.411981
     64          6           0      -16.908822    2.550392   -1.167814
     65          6           0      -17.575669    3.769805   -0.532518
     66          6           0      -17.942496    1.380996   -1.259542
     67          1           0        0.967335    1.834308   -0.046488
     68          1           0        6.319630    5.531503   -0.281644
     69          1           0        9.891771    0.399110   -0.023917
     70          1           0        1.873303   -2.651113   -0.516172
     71          1           0        0.614057   -0.482520    0.954987
     72          1           0       -0.668893   -0.397499   -0.741732
     73          1           0        0.164977   -1.697166   -1.645512
     74          1           0        0.667002   -0.050480   -1.901084
     75          1           0        1.081647   -2.374716    2.269030
     76          1           0        2.660788   -3.175583    2.139439
     77          1           0        0.483064   -4.574788    2.212466
     78          1           0        1.793848   -4.953098    1.237807
     79          1           0        0.492488    4.705251   -0.777072
     80          1           0        0.657284    5.437821    0.805627
     81          1           0        0.592322    3.665414    0.747003
     82          1           0        1.888144    6.996516   -1.267153
     83          1           0        2.561170    8.459436   -0.564777
     84          1           0        1.733179    7.141669    0.494278
     85          1           0        8.965438    4.663816    0.558011
     86          1           0       10.087038    2.662375   -1.291635
     87          1           0        9.517235    6.052547   -1.548167
     88          1           0        8.095919    5.552229   -2.136601
     89          1           0        9.587695    4.498156   -2.391505
     90          1           0       11.338941    3.814177    0.656064
     91          1           0       11.307754    1.984068    0.421191
     92          1           0        9.294978    2.529514    2.344729
     93          1           0       10.697785    3.327889    2.858083
     94          1           0       10.828751    1.653187    2.451149
     95          1           0       10.154177   -1.900853   -0.738300
     96          1           0        9.575168   -3.563938   -0.617463
     97          1           0       10.150201   -2.654285    0.913121
     98          1           0        4.782761   -4.301597    1.038108
     99          1           0        2.675143   -7.163280   -1.444631
    100          1           0        3.836382   -6.682954   -2.743377
    101          1           0        2.514415   -5.614271   -2.329525
    102          1           0       -2.245182   -4.868887   -0.932683
    103          1           0       -1.440719   -3.511644   -1.883377
    104          1           0       -3.178322   -2.078651   -1.356689
    105          1           0       -4.945709   -5.490088   -0.236187
    106          1           0       -5.374596   -4.598839    1.246138
    107          1           0       -3.696201   -5.109478    0.924486
    108          1           0       -6.222453   -2.879912   -0.941361
    109          1           0       -5.071992   -1.606371   -0.989133
    110          1           0       -5.176269   -1.922403    1.619187
    111          1           0       -6.750053   -2.747752    1.107271
    112          1           0       -7.091996   -0.181590    0.046361
    113          1           0       -6.154821    0.203197    1.561271
    114          1           0       -8.402368   -1.718930    1.555747
    115          1           0       -6.664568   -0.902231    3.507914
    116          1           0       -8.175812   -1.626443    3.755592
    117          1           0       -8.075089    0.145453    3.928561
    118          1           0       -8.865281    1.249459    1.428186
    119          1           0       -9.906584    0.217212    2.277403
    120          1           0       -9.222796   -0.722194   -0.609883
    121          1           0       -9.739876    0.982009   -0.407270
    122          1           0      -11.445698   -0.992515    0.943313
    123          1           0      -11.457828   -1.251614   -0.707722
    124          1           0      -11.771560    1.544021   -0.651935
    125          1           0      -13.532137    1.063396    1.626366
    126          1           0      -12.431392    2.485962    1.211276
    127          1           0      -11.784463    1.166170    2.024143
    128          1           0      -14.231482   -0.145486   -0.064586
    129          1           0      -13.491243   -0.206226   -1.562900
    130          1           0      -14.603467    1.721608   -2.247834
    131          1           0      -13.793011    2.721901   -1.003598
    132          1           0      -15.310483    2.957001    0.312405
    133          1           0      -15.833895    1.300631    0.167104
    134          1           0      -16.760401    2.891042   -2.192628
    135          1           0      -17.723260    4.509644   -1.319627
    136          1           0      -16.856740    4.268982    0.117514
    137          1           0      -18.467774    3.561727    0.057678
    138          1           0      -18.958935    1.770290   -1.316226
    139          1           0      -17.831083    0.656684   -0.452233
    140          1           0      -17.722351    0.852608   -2.187005
 ---------------------------------------------------------------------
 Rotational constants (GHZ):           0.0439547           0.0089972           0.0076629
 Leave Link  202 at Wed May  4 04:04:20 2022, MaxMem= 10066329600 cpu:               0.3 elap:               0.0
 (Enter /sw/apps/gaussian-16.0/g16/l301.exe)
 Standard basis: def2SVP (5D, 7F)
 Ernie: Thresh=  0.10000D-02 Tol=  0.10000D-05 Strict=F.
 There are  1364 symmetry adapted cartesian basis functions of A   symmetry.
 There are  1298 symmetry adapted basis functions of A   symmetry.
  1298 basis functions,  2180 primitive gaussians,  1364 cartesian basis functions
   246 alpha electrons      246 beta electrons
       nuclear repulsion energy      9455.9562420615 Hartrees.
 IExCor= 4639 DFT=T Ex+Corr=wB97XD ExCW=0 ScaHFX=  1.000000
 ScaDFX=  1.000000  1.000000  1.000000  1.000000 ScalE2=  1.000000  1.000000
 IRadAn=      5 IRanWt=     -1 IRanGd=            0 ICorTp=0 IEmpDi=121
 HFx  wShort=  0.000000 wLong=  0.200000 cFull=  0.222036 cShort=  0.000000 cLong=  0.777964
 DFx  wShort=  0.000000 wLong=  0.200000 cFull=  0.000000 cShort=  0.000000 cLong=  1.000000
 NAtoms=  140 NActive=  140 NUniq=  140 SFac= 1.00D+00 NAtFMM=   60 NAOKFM=T Big=T
 Integral buffers will be    131072 words long.
 Raffenetti 1 integral format.
 Two-electron integral symmetry is turned on.
 R6Disp:  Grimme-D2 Dispersion energy=       -0.1359831967 Hartrees.
 Nuclear repulsion after empirical dispersion term =     9455.8202588648 Hartrees.
 Leave Link  301 at Wed May  4 04:04:20 2022, MaxMem= 10066329600 cpu:               2.0 elap:               0.1
 (Enter /sw/apps/gaussian-16.0/g16/l302.exe)
 NPDir=0 NMtPBC=     1 NCelOv=     1 NCel=       1 NClECP=     1 NCelD=      1
         NCelK=      1 NCelE2=     1 NClLst=     1 CellRange=     0.0.
 One-electron integrals computed using PRISM.
 One-electron integral symmetry used in STVInt
   1 Symmetry operations used in ECPInt.
 ECPInt:  NShTT=  192510 NPrTT=  683786 LenC2=   92053 LenP2D=  203107.
 LDataN:  DoStor=T MaxTD1= 4 Len=   56
 NBasis=  1298 RedAO= T EigKep=  2.64D-04  NBF=  1298
 NBsUse=  1298 1.00D-06 EigRej= -1.00D+00 NBFU=  1298
 Precomputing XC quadrature grid using
 IXCGrd= 4 IRadAn=           5 IRanWt=          -1 IRanGd=           0 AccXCQ= 0.00D+00.
 Generated NRdTot=       0 NPtTot=           0 NUsed=           0 NTot=          32
 NSgBfM=  1048  1048  1048  1048  1048 MxSgAt=   140 MxSgA2=   137.
 Leave Link  302 at Wed May  4 04:04:24 2022, MaxMem= 10066329600 cpu:              82.1 elap:               3.4
 (Enter /sw/apps/gaussian-16.0/g16/l303.exe)
 DipDrv:  MaxL=1.
 Leave Link  303 at Wed May  4 04:04:24 2022, MaxMem= 10066329600 cpu:               6.8 elap:               0.3
 (Enter /sw/apps/gaussian-16.0/g16/l308.exe)
 Leave Link  308 at Wed May  4 04:04:24 2022, MaxMem= 10066329600 cpu:               9.7 elap:               0.5
 (Enter /sw/apps/gaussian-16.0/g16/l401.exe)
 ExpMin= 3.36D-02 ExpMax= 4.95D+03 ExpMxC= 7.45D+02 IAcc=3 IRadAn=         5 AccDes= 0.00D+00
 Harris functional with IExCor= 4639 and IRadAn=       5 diagonalized for initial guess.
 HarFok:  IExCor= 4639 AccDes= 0.00D+00 IRadAn=         5 IDoV= 1 UseB2=F ITyADJ=14
 ICtDFT=  3500011 ScaDFX=  1.000000  1.000000  1.000000  1.000000
 FoFCou: FMM=F IPFlag=           0 FMFlag=      100000 FMFlg1=        2001
         NFxFlg=           0 DoJE=T BraDBF=F KetDBF=T FulRan=T
         wScrn=  0.000000 ICntrl=       500 IOpCl=  0 I1Cent=   200000004 NGrid=           0
         NMat0=    1 NMatS0=      1 NMatT0=    0 NMatD0=    1 NMtDS0=    0 NMtDT0=    0
 Petite list used in FoFCou.
 Harris En= -2877.98460091587    
 JPrj=0 DoOrth=F DoCkMO=F.
 Leave Link  401 at Wed May  4 04:04:30 2022, MaxMem= 10066329600 cpu:             142.9 elap:               6.0
 (Enter /sw/apps/gaussian-16.0/g16/l502.exe)
 Integral symmetry usage will be decided dynamically.
 Closed shell SCF:
 Using DIIS extrapolation, IDIIS=  1040.
 NGot= 10066329600 LenX= 10062561258 LenY= 10060699398
 Requested convergence on RMS density matrix=1.00D-08 within 128 cycles.
 Requested convergence on MAX density matrix=1.00D-06.
 Requested convergence on             energy=1.00D-06.
 No special actions if energy rises.
 Fock matrices will be formed incrementally for  20 cycles.

 Cycle   1  Pass 1  IDiag  1:
 FoFJK:  IHMeth= 1 ICntrl=       0 DoSepK=T KAlg= 0 I1Cent=           0 FoldK=F
 IRaf=         1 NMat=       1 IRICut=       1 DoRegI=T DoRafI=F ISym2E= 0 IDoP0=0 IntGTp=1.
 FoFCou: FMM=T IPFlag=           0 FMFlag=      100000 FMFlg1=        2001
         NFxFlg=           0 DoJE=T BraDBF=F KetDBF=F FulRan=T
         wScrn=  0.000000 ICntrl=       500 IOpCl=  0 I1Cent=           0 NGrid=           0
         NMat0=    1 NMatS0=      1 NMatT0=    0 NMatD0=    1 NMtDS0=    0 NMtDT0=    0
 Symmetry not used in FoFCou.
 FMM levels:  10  Number of levels for PrismC:   9
 E= -3007.16867120576    
 DIIS: error= 2.34D-02 at cycle   1 NSaved=   1.
 NSaved= 1 IEnMin= 1 EnMin= -3007.16867120576     IErMin= 1 ErrMin= 2.34D-02
 ErrMax= 2.34D-02  0.00D+00 EMaxC= 1.00D-01 BMatC= 1.49D+00 BMatP= 1.49D+00
 IDIUse=3 WtCom= 7.66D-01 WtEn= 2.34D-01
 Coeff-Com:  0.100D+01
 Coeff-En:   0.100D+01
 Coeff:      0.100D+01
 Gap=     0.165 Goal=   None    Shift=    0.000
 GapD=    0.165 DampG=1.000 DampE=0.500 DampFc=0.5000 IDamp=-1.
 Damping current iteration by 5.00D-01
 RMSDP=1.53D-03 MaxDP=1.69D-01              OVMax= 1.59D-01

 Cycle   2  Pass 1  IDiag  1:
 RMSU=  7.54D-04    CP:  9.86D-01
 E= -3007.49164324313     Delta-E=       -0.322972037377 Rises=F Damp=T
 DIIS: error= 1.24D-02 at cycle   2 NSaved=   2.
 NSaved= 2 IEnMin= 2 EnMin= -3007.49164324313     IErMin= 2 ErrMin= 1.24D-02
 ErrMax= 1.24D-02  0.00D+00 EMaxC= 1.00D-01 BMatC= 2.88D-01 BMatP= 1.49D+00
 IDIUse=3 WtCom= 8.76D-01 WtEn= 1.24D-01
 Coeff-Com: -0.355D+00 0.135D+01
 Coeff-En:   0.000D+00 0.100D+01
 Coeff:     -0.311D+00 0.131D+01
 Gap=     0.182 Goal=   None    Shift=    0.000
 RMSDP=6.95D-04 MaxDP=6.79D-02 DE=-3.23D-01 OVMax= 1.37D-01

 Cycle   3  Pass 1  IDiag  1:
 RMSU=  6.42D-04    CP:  9.79D-01  1.34D+00
 E= -3007.73031862972     Delta-E=       -0.238675386592 Rises=F Damp=F
 DIIS: error= 9.66D-03 at cycle   3 NSaved=   3.
 NSaved= 3 IEnMin= 3 EnMin= -3007.73031862972     IErMin= 3 ErrMin= 9.66D-03
 ErrMax= 9.66D-03  0.00D+00 EMaxC= 1.00D-01 BMatC= 1.34D-01 BMatP= 2.88D-01
 IDIUse=3 WtCom= 9.03D-01 WtEn= 9.66D-02
 Coeff-Com: -0.309D+00 0.683D+00 0.626D+00
 Coeff-En:   0.000D+00 0.000D+00 0.100D+01
 Coeff:     -0.279D+00 0.617D+00 0.662D+00
 Gap=     0.166 Goal=   None    Shift=    0.000
 RMSDP=3.92D-04 MaxDP=4.61D-02 DE=-2.39D-01 OVMax= 7.59D-02

 Cycle   4  Pass 1  IDiag  1:
 RMSU=  2.09D-04    CP:  9.74D-01  1.61D+00  6.04D-01
 E= -3007.83030432124     Delta-E=       -0.099985691519 Rises=F Damp=F
 DIIS: error= 4.05D-03 at cycle   4 NSaved=   4.
 NSaved= 4 IEnMin= 4 EnMin= -3007.83030432124     IErMin= 4 ErrMin= 4.05D-03
 ErrMax= 4.05D-03  0.00D+00 EMaxC= 1.00D-01 BMatC= 1.60D-02 BMatP= 1.34D-01
 IDIUse=3 WtCom= 9.59D-01 WtEn= 4.05D-02
 Coeff-Com: -0.120D+00 0.240D+00 0.356D+00 0.523D+00
 Coeff-En:   0.000D+00 0.000D+00 0.488D-01 0.951D+00
 Coeff:     -0.115D+00 0.230D+00 0.344D+00 0.541D+00
 Gap=     0.164 Goal=   None    Shift=    0.000
 RMSDP=1.11D-04 MaxDP=1.40D-02 DE=-1.00D-01 OVMax= 1.84D-02

 Cycle   5  Pass 1  IDiag  1:
 RMSU=  5.78D-05    CP:  9.74D-01  1.59D+00  7.07D-01  6.83D-01
 E= -3007.84319060940     Delta-E=       -0.012886288161 Rises=F Damp=F
 DIIS: error= 7.07D-04 at cycle   5 NSaved=   5.
 NSaved= 5 IEnMin= 5 EnMin= -3007.84319060940     IErMin= 5 ErrMin= 7.07D-04
 ErrMax= 7.07D-04  0.00D+00 EMaxC= 1.00D-01 BMatC= 4.44D-04 BMatP= 1.60D-02
 IDIUse=3 WtCom= 9.93D-01 WtEn= 7.07D-03
 Coeff-Com: -0.342D-01 0.655D-01 0.122D+00 0.242D+00 0.606D+00
 Coeff-En:   0.000D+00 0.000D+00 0.000D+00 0.000D+00 0.100D+01
 Coeff:     -0.339D-01 0.651D-01 0.121D+00 0.240D+00 0.608D+00
 Gap=     0.164 Goal=   None    Shift=    0.000
 RMSDP=2.34D-05 MaxDP=3.82D-03 DE=-1.29D-02 OVMax= 4.87D-03

 Cycle   6  Pass 1  IDiag  1:
 RMSU=  2.02D-05    CP:  9.74D-01  1.60D+00  7.11D-01  7.29D-01  9.06D-01
 E= -3007.84353564116     Delta-E=       -0.000345031760 Rises=F Damp=F
 DIIS: error= 3.43D-04 at cycle   6 NSaved=   6.
 NSaved= 6 IEnMin= 6 EnMin= -3007.84353564116     IErMin= 6 ErrMin= 3.43D-04
 ErrMax= 3.43D-04  0.00D+00 EMaxC= 1.00D-01 BMatC= 6.55D-05 BMatP= 4.44D-04
 IDIUse=3 WtCom= 9.97D-01 WtEn= 3.43D-03
 Coeff-Com:  0.988D-02-0.213D-01-0.166D-01-0.226D-02 0.279D+00 0.751D+00
 Coeff-En:   0.000D+00 0.000D+00 0.000D+00 0.000D+00 0.000D+00 0.100D+01
 Coeff:      0.985D-02-0.212D-01-0.166D-01-0.225D-02 0.278D+00 0.752D+00
 Gap=     0.165 Goal=   None    Shift=    0.000
 RMSDP=1.13D-05 MaxDP=1.65D-03 DE=-3.45D-04 OVMax= 3.21D-03

 Cycle   7  Pass 1  IDiag  1:
 RMSU=  7.55D-06    CP:  9.74D-01  1.60D+00  7.16D-01  7.49D-01  1.01D+00
                    CP:  9.72D-01
 E= -3007.84360865653     Delta-E=       -0.000073015368 Rises=F Damp=F
 DIIS: error= 6.96D-05 at cycle   7 NSaved=   7.
 NSaved= 7 IEnMin= 7 EnMin= -3007.84360865653     IErMin= 7 ErrMin= 6.96D-05
 ErrMax= 6.96D-05  0.00D+00 EMaxC= 1.00D-01 BMatC= 5.33D-06 BMatP= 6.55D-05
 IDIUse=1 WtCom= 1.00D+00 WtEn= 0.00D+00
 Coeff-Com:  0.649D-02-0.132D-01-0.158D-01-0.229D-01 0.429D-01 0.272D+00
 Coeff-Com:  0.731D+00
 Coeff:      0.649D-02-0.132D-01-0.158D-01-0.229D-01 0.429D-01 0.272D+00
 Coeff:      0.731D+00
 Gap=     0.165 Goal=   None    Shift=    0.000
 RMSDP=4.30D-06 MaxDP=9.69D-04 DE=-7.30D-05 OVMax= 1.41D-03

 Cycle   8  Pass 1  IDiag  1:
 RMSU=  2.97D-06    CP:  9.74D-01  1.60D+00  7.18D-01  7.53D-01  1.04D+00
                    CP:  1.07D+00  1.05D+00
 E= -3007.84361672616     Delta-E=       -0.000008069630 Rises=F Damp=F
 DIIS: error= 3.95D-05 at cycle   8 NSaved=   8.
 NSaved= 8 IEnMin= 8 EnMin= -3007.84361672616     IErMin= 8 ErrMin= 3.95D-05
 ErrMax= 3.95D-05  0.00D+00 EMaxC= 1.00D-01 BMatC= 1.43D-06 BMatP= 5.33D-06
 IDIUse=1 WtCom= 1.00D+00 WtEn= 0.00D+00
 Coeff-Com:  0.158D-02-0.297D-02-0.498D-02-0.118D-01-0.283D-01 0.312D-02
 Coeff-Com:  0.368D+00 0.675D+00
 Coeff:      0.158D-02-0.297D-02-0.498D-02-0.118D-01-0.283D-01 0.312D-02
 Coeff:      0.368D+00 0.675D+00
 Gap=     0.165 Goal=   None    Shift=    0.000
 RMSDP=2.06D-06 MaxDP=3.52D-04 DE=-8.07D-06 OVMax= 8.92D-04

 Cycle   9  Pass 1  IDiag  1:
 RMSU=  1.32D-06    CP:  9.74D-01  1.60D+00  7.18D-01  7.55D-01  1.05D+00
                    CP:  1.11D+00  1.19D+00  1.06D+00
 E= -3007.84361915084     Delta-E=       -0.000002424673 Rises=F Damp=F
 DIIS: error= 1.02D-05 at cycle   9 NSaved=   9.
 NSaved= 9 IEnMin= 9 EnMin= -3007.84361915084     IErMin= 9 ErrMin= 1.02D-05
 ErrMax= 1.02D-05  0.00D+00 EMaxC= 1.00D-01 BMatC= 1.77D-07 BMatP= 1.43D-06
 IDIUse=1 WtCom= 1.00D+00 WtEn= 0.00D+00
 Coeff-Com: -0.410D-03 0.906D-03 0.608D-03-0.114D-02-0.172D-01-0.422D-01
 Coeff-Com:  0.369D-01 0.248D+00 0.774D+00
 Coeff:     -0.410D-03 0.906D-03 0.608D-03-0.114D-02-0.172D-01-0.422D-01
 Coeff:      0.369D-01 0.248D+00 0.774D+00
 Gap=     0.165 Goal=   None    Shift=    0.000
 RMSDP=1.13D-06 MaxDP=2.04D-04 DE=-2.42D-06 OVMax= 6.23D-04

 Cycle  10  Pass 1  IDiag  1:
 RMSU=  6.49D-07    CP:  9.74D-01  1.60D+00  7.18D-01  7.55D-01  1.05D+00
                    CP:  1.13D+00  1.26D+00  1.27D+00  1.21D+00
 E= -3007.84361978335     Delta-E=       -0.000000632514 Rises=F Damp=F
 DIIS: error= 5.85D-06 at cycle  10 NSaved=  10.
 NSaved=10 IEnMin=10 EnMin= -3007.84361978335     IErMin=10 ErrMin= 5.85D-06
 ErrMax= 5.85D-06  0.00D+00 EMaxC= 1.00D-01 BMatC= 4.83D-08 BMatP= 1.77D-07
 IDIUse=1 WtCom= 1.00D+00 WtEn= 0.00D+00
 Coeff-Com: -0.563D-03 0.111D-02 0.153D-02 0.248D-02 0.105D-02-0.183D-01
 Coeff-Com: -0.760D-01-0.933D-01 0.279D+00 0.903D+00
 Coeff:     -0.563D-03 0.111D-02 0.153D-02 0.248D-02 0.105D-02-0.183D-01
 Coeff:     -0.760D-01-0.933D-01 0.279D+00 0.903D+00
 Gap=     0.165 Goal=   None    Shift=    0.000
 RMSDP=8.64D-07 MaxDP=1.32D-04 DE=-6.33D-07 OVMax= 5.29D-04

 Cycle  11  Pass 1  IDiag  1:
 RMSU=  3.61D-07    CP:  9.74D-01  1.60D+00  7.18D-01  7.56D-01  1.05D+00
                    CP:  1.14D+00  1.30D+00  1.40D+00  1.57D+00  1.40D+00
 E= -3007.84362009832     Delta-E=       -0.000000314971 Rises=F Damp=F
 DIIS: error= 4.70D-06 at cycle  11 NSaved=  11.
 NSaved=11 IEnMin=11 EnMin= -3007.84362009832     IErMin=11 ErrMin= 4.70D-06
 ErrMax= 4.70D-06  0.00D+00 EMaxC= 1.00D-01 BMatC= 1.62D-08 BMatP= 4.83D-08
 IDIUse=1 WtCom= 1.00D+00 WtEn= 0.00D+00
 Coeff-Com: -0.128D-03 0.238D-03 0.454D-03 0.111D-02 0.376D-02 0.894D-03
 Coeff-Com: -0.321D-01-0.881D-01-0.530D-01 0.356D+00 0.811D+00
 Coeff:     -0.128D-03 0.238D-03 0.454D-03 0.111D-02 0.376D-02 0.894D-03
 Coeff:     -0.321D-01-0.881D-01-0.530D-01 0.356D+00 0.811D+00
 Gap=     0.165 Goal=   None    Shift=    0.000
 RMSDP=5.08D-07 MaxDP=6.23D-05 DE=-3.15D-07 OVMax= 3.50D-04

 Cycle  12  Pass 1  IDiag  1:
 RMSU=  1.92D-07    CP:  9.74D-01  1.60D+00  7.18D-01  7.56D-01  1.05D+00
                    CP:  1.14D+00  1.32D+00  1.47D+00  1.74D+00  1.82D+00
                    CP:  1.47D+00
 E= -3007.84362022624     Delta-E=       -0.000000127922 Rises=F Damp=F
 DIIS: error= 3.25D-06 at cycle  12 NSaved=  12.
 NSaved=12 IEnMin=12 EnMin= -3007.84362022624     IErMin=12 ErrMin= 3.25D-06
 ErrMax= 3.25D-06  0.00D+00 EMaxC= 1.00D-01 BMatC= 6.92D-09 BMatP= 1.62D-08
 IDIUse=1 WtCom= 1.00D+00 WtEn= 0.00D+00
 Coeff-Com:  0.222D-03-0.442D-03-0.572D-03-0.830D-03 0.429D-03 0.813D-02
 Coeff-Com:  0.303D-01 0.180D-01-0.144D+00-0.321D+00 0.221D+00 0.119D+01
 Coeff:      0.222D-03-0.442D-03-0.572D-03-0.830D-03 0.429D-03 0.813D-02
 Coeff:      0.303D-01 0.180D-01-0.144D+00-0.321D+00 0.221D+00 0.119D+01
 Gap=     0.165 Goal=   None    Shift=    0.000
 RMSDP=5.68D-07 MaxDP=4.41D-05 DE=-1.28D-07 OVMax= 4.00D-04

 Cycle  13  Pass 1  IDiag  1:
 RMSU=  1.24D-07    CP:  9.74D-01  1.60D+00  7.18D-01  7.56D-01  1.05D+00
                    CP:  1.14D+00  1.33D+00  1.53D+00  1.92D+00  2.28D+00
                    CP:  2.36D+00  1.78D+00
 E= -3007.84362032413     Delta-E=       -0.000000097883 Rises=F Damp=F
 DIIS: error= 1.82D-06 at cycle  13 NSaved=  13.
 NSaved=13 IEnMin=13 EnMin= -3007.84362032413     IErMin=13 ErrMin= 1.82D-06
 ErrMax= 1.82D-06  0.00D+00 EMaxC= 1.00D-01 BMatC= 2.55D-09 BMatP= 6.92D-09
 IDIUse=1 WtCom= 1.00D+00 WtEn= 0.00D+00
 Coeff-Com:  0.177D-03-0.346D-03-0.514D-03-0.948D-03-0.156D-02 0.342D-02
 Coeff-Com:  0.316D-01 0.492D-01-0.466D-01-0.330D+00-0.262D+00 0.540D+00
 Coeff-Com:  0.102D+01
 Coeff:      0.177D-03-0.346D-03-0.514D-03-0.948D-03-0.156D-02 0.342D-02
 Coeff:      0.316D-01 0.492D-01-0.466D-01-0.330D+00-0.262D+00 0.540D+00
 Coeff:      0.102D+01
 Gap=     0.165 Goal=   None    Shift=    0.000
 RMSDP=4.47D-07 MaxDP=3.41D-05 DE=-9.79D-08 OVMax= 3.23D-04

 Cycle  14  Pass 1  IDiag  1:
 RMSU=  7.45D-08    CP:  9.74D-01  1.60D+00  7.18D-01  7.56D-01  1.05D+00
                    CP:  1.14D+00  1.34D+00  1.56D+00  2.04D+00  2.63D+00
                    CP:  3.00D+00  2.63D+00  1.48D+00
 E= -3007.84362036330     Delta-E=       -0.000000039179 Rises=F Damp=F
 DIIS: error= 8.48D-07 at cycle  14 NSaved=  14.
 NSaved=14 IEnMin=14 EnMin= -3007.84362036330     IErMin=14 ErrMin= 8.48D-07
 ErrMax= 8.48D-07  0.00D+00 EMaxC= 1.00D-01 BMatC= 7.23D-10 BMatP= 2.55D-09
 IDIUse=1 WtCom= 1.00D+00 WtEn= 0.00D+00
 Coeff-Com:  0.129D-05 0.586D-06-0.221D-04-0.107D-03-0.694D-03-0.126D-02
 Coeff-Com:  0.306D-02 0.120D-01 0.278D-01-0.285D-01-0.155D+00-0.188D+00
 Coeff-Com:  0.411D+00 0.920D+00
 Coeff:      0.129D-05 0.586D-06-0.221D-04-0.107D-03-0.694D-03-0.126D-02
 Coeff:      0.306D-02 0.120D-01 0.278D-01-0.285D-01-0.155D+00-0.188D+00
 Coeff:      0.411D+00 0.920D+00
 Gap=     0.165 Goal=   None    Shift=    0.000
 RMSDP=2.02D-07 MaxDP=1.54D-05 DE=-3.92D-08 OVMax= 1.40D-04

 Cycle  15  Pass 1  IDiag  1:
 RMSU=  1.13D-07    CP:  9.74D-01  1.60D+00  7.18D-01  7.56D-01  1.06D+00
                    CP:  1.14D+00  1.35D+00  1.58D+00  2.09D+00  2.77D+00
                    CP:  3.00D+00  3.00D+00  1.97D+00  1.79D+00
 E= -3007.84362037001     Delta-E=       -0.000000006703 Rises=F Damp=F
 DIIS: error= 3.19D-07 at cycle  15 NSaved=  15.
 NSaved=15 IEnMin=15 EnMin= -3007.84362037001     IErMin=15 ErrMin= 3.19D-07
 ErrMax= 3.19D-07  0.00D+00 EMaxC= 1.00D-01 BMatC= 1.94D-10 BMatP= 7.23D-10
 IDIUse=1 WtCom= 1.00D+00 WtEn= 0.00D+00
 Coeff-Com: -0.444D-04 0.885D-04 0.121D-03 0.184D-03 0.364D-04-0.151D-02
 Coeff-Com: -0.634D-02-0.737D-02 0.251D-01 0.651D-01-0.199D-02-0.234D+00
 Coeff-Com: -0.500D-01 0.470D+00 0.740D+00
 Coeff:     -0.444D-04 0.885D-04 0.121D-03 0.184D-03 0.364D-04-0.151D-02
 Coeff:     -0.634D-02-0.737D-02 0.251D-01 0.651D-01-0.199D-02-0.234D+00
 Coeff:     -0.500D-01 0.470D+00 0.740D+00
 Gap=     0.165 Goal=   None    Shift=    0.000
 RMSDP=6.65D-08 MaxDP=5.31D-06 DE=-6.70D-09 OVMax= 4.76D-05

 Cycle  16  Pass 1  IDiag  1:
 RMSU=  3.09D-08    CP:  9.74D-01  1.60D+00  7.18D-01  7.56D-01  1.06D+00
                    CP:  1.14D+00  1.35D+00  1.58D+00  2.11D+00  2.81D+00
                    CP:  3.00D+00  3.00D+00  2.12D+00  2.18D+00  1.23D+00
 E= -3007.84362037070     Delta-E=       -0.000000000688 Rises=F Damp=F
 DIIS: error= 1.09D-07 at cycle  16 NSaved=  16.
 NSaved=16 IEnMin=16 EnMin= -3007.84362037070     IErMin=16 ErrMin= 1.09D-07
 ErrMax= 1.09D-07  0.00D+00 EMaxC= 1.00D-01 BMatC= 2.51D-11 BMatP= 1.94D-10
 IDIUse=1 WtCom= 1.00D+00 WtEn= 0.00D+00
 Coeff-Com: -0.175D-04 0.343D-04 0.516D-04 0.856D-04 0.122D-03-0.403D-03
 Coeff-Com: -0.295D-02-0.499D-02 0.735D-02 0.311D-01 0.248D-01-0.680D-01
 Coeff-Com: -0.881D-01 0.427D-01 0.286D+00 0.772D+00
 Coeff:     -0.175D-04 0.343D-04 0.516D-04 0.856D-04 0.122D-03-0.403D-03
 Coeff:     -0.295D-02-0.499D-02 0.735D-02 0.311D-01 0.248D-01-0.680D-01
 Coeff:     -0.881D-01 0.427D-01 0.286D+00 0.772D+00
 Gap=     0.165 Goal=   None    Shift=    0.000
 RMSDP=1.72D-08 MaxDP=1.81D-06 DE=-6.88D-10 OVMax= 9.64D-06

 Cycle  17  Pass 1  IDiag  1:
 RMSU=  7.74D-09    CP:  9.74D-01  1.60D+00  7.18D-01  7.56D-01  1.06D+00
                    CP:  1.14D+00  1.35D+00  1.58D+00  2.11D+00  2.82D+00
                    CP:  3.00D+00  3.00D+00  2.18D+00  2.30D+00  1.30D+00
                    CP:  1.12D+00
 E= -3007.84362037083     Delta-E=       -0.000000000131 Rises=F Damp=F
 DIIS: error= 7.05D-08 at cycle  17 NSaved=  17.
 NSaved=17 IEnMin=17 EnMin= -3007.84362037083     IErMin=17 ErrMin= 7.05D-08
 ErrMax= 7.05D-08  0.00D+00 EMaxC= 1.00D-01 BMatC= 5.34D-12 BMatP= 2.51D-11
 IDIUse=1 WtCom= 1.00D+00 WtEn= 0.00D+00
 Coeff-Com:  0.143D-05-0.312D-05-0.214D-05-0.221D-05 0.455D-04 0.134D-03
 Coeff-Com:  0.599D-04-0.772D-03-0.180D-02-0.923D-03 0.112D-01 0.186D-01
 Coeff-Com: -0.260D-01-0.681D-01-0.214D-01 0.312D+00 0.777D+00
 Coeff:      0.143D-05-0.312D-05-0.214D-05-0.221D-05 0.455D-04 0.134D-03
 Coeff:      0.599D-04-0.772D-03-0.180D-02-0.923D-03 0.112D-01 0.186D-01
 Coeff:     -0.260D-01-0.681D-01-0.214D-01 0.312D+00 0.777D+00
 Gap=     0.165 Goal=   None    Shift=    0.000
 RMSDP=5.77D-09 MaxDP=3.87D-07 DE=-1.31D-10 OVMax= 3.19D-06

 SCF Done:  E(RwB97XD) =  -3007.84362037     A.U. after   17 cycles
            NFock= 17  Conv=0.58D-08     -V/T= 2.0108
 KE= 2.975797810124D+03 PE=-2.590481575994D+04 EE= 1.046535407058D+04
 Leave Link  502 at Wed May  4 04:10:53 2022, MaxMem= 10066329600 cpu:            8770.6 elap:             383.0
 (Enter /sw/apps/gaussian-16.0/g16/l801.exe)
 DoSCS=F DFT=T ScalE2(SS,OS)=  1.000000  1.000000
 ExpMin= 3.36D-02 ExpMax= 4.95D+03 ExpMxC= 7.45D+02 IAcc=3 IRadAn=         5 AccDes= 0.00D+00
 HarFok:  IExCor=  205 AccDes= 0.00D+00 IRadAn=         5 IDoV=-2 UseB2=F ITyADJ=14
 ICtDFT= 12500011 ScaDFX=  1.000000  1.000000  1.000000  1.000000
 GSVD:  LWork=       -5460 too small for GESVD, short by       25550 words or       25550 for optimal perf.
 Largest valence mixing into a core orbital is  1.30D-04
 Largest core mixing into a valence orbital is  5.52D-05
 Range of M.O.s used for correlation:    71  1298
 NBasis=  1298 NAE=   246 NBE=   246 NFC=    70 NFV=     0
 NROrb=   1228 NOA=   176 NOB=   176 NVA=  1052 NVB=  1052
 Leave Link  801 at Wed May  4 04:10:54 2022, MaxMem= 10066329600 cpu:               7.3 elap:               0.3
 (Enter /sw/apps/gaussian-16.0/g16/l914.exe)
 RHF ground state
 Two-electron integrals replicated using symmetry.
 MDV= 10066329600 DFT=T DoStab=F Mixed=T DoRPA=T DoScal=F NonHer=T
 Making orbital integer symmetry assigments:
 Orbital symmetries:
       Occupied  (A) (A) (A) (A) (A) (A) (A) (A) (A) (A) (A) (A)
                 (A) (A) (A) (A) (A) (A) (A) (A) (A) (A) (A) (A)
                 (A) (A) (A) (A) (A) (A) (A) (A) (A) (A) (A) (A)
                 (A) (A) (A) (A) (A) (A) (A) (A) (A) (A) (A) (A)
                 (A) (A) (A) (A) (A) (A) (A) (A) (A) (A) (A) (A)
                 (A) (A) (A) (A) (A) (A) (A) (A) (A) (A) (A) (A)
                 (A) (A) (A) (A) (A) (A) (A) (A) (A) (A) (A) (A)
                 (A) (A) (A) (A) (A) (A) (A) (A) (A) (A) (A) (A)
                 (A) (A) (A) (A) (A) (A) (A) (A) (A) (A) (A) (A)
                 (A) (A) (A) (A) (A) (A) (A) (A) (A) (A) (A) (A)
                 (A) (A) (A) (A) (A) (A) (A) (A) (A) (A) (A) (A)
                 (A) (A) (A) (A) (A) (A) (A) (A) (A) (A) (A) (A)
                 (A) (A) (A) (A) (A) (A) (A) (A) (A) (A) (A) (A)
                 (A) (A) (A) (A) (A) (A) (A) (A) (A) (A) (A) (A)
                 (A) (A) (A) (A) (A) (A) (A) (A) (A) (A) (A) (A)
                 (A) (A) (A) (A) (A) (A) (A) (A) (A) (A) (A) (A)
                 (A) (A) (A) (A) (A) (A) (A) (A) (A) (A) (A) (A)
                 (A) (A) (A) (A) (A) (A) (A) (A) (A) (A) (A) (A)
                 (A) (A) (A) (A) (A) (A) (A) (A) (A) (A) (A) (A)
                 (A) (A) (A) (A) (A) (A) (A) (A) (A) (A) (A) (A)
                 (A) (A) (A) (A) (A) (A)
       Virtual   (A) (A) (A) (A) (A) (A) (A) (A) (A) (A) (A) (A)
                 (A) (A) (A) (A) (A) (A) (A) (A) (A) (A) (A) (A)
                 (A) (A) (A) (A) (A) (A) (A) (A) (A) (A) (A) (A)
                 (A) (A) (A) (A) (A) (A) (A) (A) (A) (A) (A) (A)
                 (A) (A) (A) (A) (A) (A) (A) (A) (A) (A) (A) (A)
                 (A) (A) (A) (A) (A) (A) (A) (A) (A) (A) (A) (A)
                 (A) (A) (A) (A) (A) (A) (A) (A) (A) (A) (A) (A)
                 (A) (A) (A) (A) (A) (A) (A) (A) (A) (A) (A) (A)
                 (A) (A) (A) (A) (A) (A) (A) (A) (A) (A) (A) (A)
                 (A) (A) (A) (A) (A) (A) (A) (A) (A) (A) (A) (A)
                 (A) (A) (A) (A) (A) (A) (A) (A) (A) (A) (A) (A)
                 (A) (A) (A) (A) (A) (A) (A) (A) (A) (A) (A) (A)
                 (A) (A) (A) (A) (A) (A) (A) (A) (A) (A) (A) (A)
                 (A) (A) (A) (A) (A) (A) (A) (A) (A) (A) (A) (A)
                 (A) (A) (A) (A) (A) (A) (A) (A) (A) (A) (A) (A)
                 (A) (A) (A) (A) (A) (A) (A) (A) (A) (A) (A) (A)
                 (A) (A) (A) (A) (A) (A) (A) (A) (A) (A) (A) (A)
                 (A) (A) (A) (A) (A) (A) (A) (A) (A) (A) (A) (A)
                 (A) (A) (A) (A) (A) (A) (A) (A) (A) (A) (A) (A)
                 (A) (A) (A) (A) (A) (A) (A) (A) (A) (A) (A) (A)
                 (A) (A) (A) (A) (A) (A) (A) (A) (A) (A) (A) (A)
                 (A) (A) (A) (A) (A) (A) (A) (A) (A) (A) (A) (A)
                 (A) (A) (A) (A) (A) (A) (A) (A) (A) (A) (A) (A)
                 (A) (A) (A) (A) (A) (A) (A) (A) (A) (A) (A) (A)
                 (A) (A) (A) (A) (A) (A) (A) (A) (A) (A) (A) (A)
                 (A) (A) (A) (A) (A) (A) (A) (A) (A) (A) (A) (A)
                 (A) (A) (A) (A) (A) (A) (A) (A) (A) (A) (A) (A)
                 (A) (A) (A) (A) (A) (A) (A) (A) (A) (A) (A) (A)
                 (A) (A) (A) (A) (A) (A) (A) (A) (A) (A) (A) (A)
                 (A) (A) (A) (A) (A) (A) (A) (A) (A) (A) (A) (A)
                 (A) (A) (A) (A) (A) (A) (A) (A) (A) (A) (A) (A)
                 (A) (A) (A) (A) (A) (A) (A) (A) (A) (A) (A) (A)
                 (A) (A) (A) (A) (A) (A) (A) (A) (A) (A) (A) (A)
                 (A) (A) (A) (A) (A) (A) (A) (A) (A) (A) (A) (A)
                 (A) (A) (A) (A) (A) (A) (A) (A) (A) (A) (A) (A)
                 (A) (A) (A) (A) (A) (A) (A) (A) (A) (A) (A) (A)
                 (A) (A) (A) (A) (A) (A) (A) (A) (A) (A) (A) (A)
                 (A) (A) (A) (A) (A) (A) (A) (A) (A) (A) (A) (A)
                 (A) (A) (A) (A) (A) (A) (A) (A) (A) (A) (A) (A)
                 (A) (A) (A) (A) (A) (A) (A) (A) (A) (A) (A) (A)
                 (A) (A) (A) (A) (A) (A) (A) (A) (A) (A) (A) (A)
                 (A) (A) (A) (A) (A) (A) (A) (A) (A) (A) (A) (A)
                 (A) (A) (A) (A) (A) (A) (A) (A) (A) (A) (A) (A)
                 (A) (A) (A) (A) (A) (A) (A) (A) (A) (A) (A) (A)
                 (A) (A) (A) (A) (A) (A) (A) (A) (A) (A) (A) (A)
                 (A) (A) (A) (A) (A) (A) (A) (A) (A) (A) (A) (A)
                 (A) (A) (A) (A) (A) (A) (A) (A) (A) (A) (A) (A)
                 (A) (A) (A) (A) (A) (A) (A) (A) (A) (A) (A) (A)
                 (A) (A) (A) (A) (A) (A) (A) (A) (A) (A) (A) (A)
                 (A) (A) (A) (A) (A) (A) (A) (A) (A) (A) (A) (A)
                 (A) (A) (A) (A) (A) (A) (A) (A) (A) (A) (A) (A)
                 (A) (A) (A) (A) (A) (A) (A) (A) (A) (A) (A) (A)
                 (A) (A) (A) (A) (A) (A) (A) (A) (A) (A) (A) (A)
                 (A) (A) (A) (A) (A) (A) (A) (A) (A) (A) (A) (A)
                 (A) (A) (A) (A) (A) (A) (A) (A) (A) (A) (A) (A)
                 (A) (A) (A) (A) (A) (A) (A) (A) (A) (A) (A) (A)
                 (A) (A) (A) (A) (A) (A) (A) (A) (A) (A) (A) (A)
                 (A) (A) (A) (A) (A) (A) (A) (A) (A) (A) (A) (A)
                 (A) (A) (A) (A) (A) (A) (A) (A) (A) (A) (A) (A)
                 (A) (A) (A) (A) (A) (A) (A) (A) (A) (A) (A) (A)
                 (A) (A) (A) (A) (A) (A) (A) (A) (A) (A) (A) (A)
                 (A) (A) (A) (A) (A) (A) (A) (A) (A) (A) (A) (A)
                 (A) (A) (A) (A) (A) (A) (A) (A) (A) (A) (A) (A)
                 (A) (A) (A) (A) (A) (A) (A) (A) (A) (A) (A) (A)
                 (A) (A) (A) (A) (A) (A) (A) (A) (A) (A) (A) (A)
                 (A) (A) (A) (A) (A) (A) (A) (A) (A) (A) (A) (A)
                 (A) (A) (A) (A) (A) (A) (A) (A) (A) (A) (A) (A)
                 (A) (A) (A) (A) (A) (A) (A) (A) (A) (A) (A) (A)
                 (A) (A) (A) (A) (A) (A) (A) (A) (A) (A) (A) (A)
                 (A) (A) (A) (A) (A) (A) (A) (A) (A) (A) (A) (A)
                 (A) (A) (A) (A) (A) (A) (A) (A) (A) (A) (A) (A)
                 (A) (A) (A) (A) (A) (A) (A) (A) (A) (A) (A) (A)
                 (A) (A) (A) (A) (A) (A) (A) (A) (A) (A) (A) (A)
                 (A) (A) (A) (A) (A) (A) (A) (A) (A) (A) (A) (A)
                 (A) (A) (A) (A) (A) (A) (A) (A) (A) (A) (A) (A)
                 (A) (A) (A) (A) (A) (A) (A) (A) (A) (A) (A) (A)
                 (A) (A) (A) (A) (A) (A) (A) (A) (A) (A) (A) (A)
                 (A) (A) (A) (A) (A) (A) (A) (A) (A) (A) (A) (A)
                 (A) (A) (A) (A) (A) (A) (A) (A) (A) (A) (A) (A)
                 (A) (A) (A) (A) (A) (A) (A) (A) (A) (A) (A) (A)
                 (A) (A) (A) (A) (A) (A) (A) (A) (A) (A) (A) (A)
                 (A) (A) (A) (A) (A) (A) (A) (A) (A) (A) (A) (A)
                 (A) (A) (A) (A) (A) (A) (A) (A) (A) (A) (A) (A)
                 (A) (A) (A) (A) (A) (A) (A) (A) (A) (A) (A) (A)
                 (A) (A) (A) (A) (A) (A) (A) (A) (A) (A) (A) (A)
                 (A) (A) (A) (A) (A) (A) (A) (A) (A) (A) (A) (A)
                 (A) (A) (A) (A) (A) (A) (A) (A) (A) (A) (A) (A)
                 (A) (A) (A) (A) (A) (A) (A) (A)
    20 initial guesses have been made.
 Convergence on wavefunction:    0.001000000000000
 Davidson Disk Diagonalization:  ConvIn= 1.00D-03 SkipCon=T Conv= 1.00D-03.
 Max sub-space:  2000 roots to seek:    20 dimension of matrix:       370304
 Iteration     1 Dimension    20 NMult     0 NNew     20
 CISAX will form    20 AO SS matrices at one time.
 NMat=    20 NSing=    20 JSym2X= 0.
 FoFJK:  IHMeth= 1 ICntrl=       0 DoSepK=T KAlg= 0 I1Cent=           0 FoldK=F
 IRaf=         1 NMat=      40 IRICut=       1 DoRegI=T DoRafI=F ISym2E= 0 IDoP0=3 IntGTp=3.
 FoFCou: FMM=T IPFlag=           0 FMFlag=      100000 FMFlg1=        2001
         NFxFlg=           0 DoJE=F BraDBF=F KetDBF=F FulRan=T
         wScrn=  0.000000 ICntrl=       500 IOpCl=  0 I1Cent=           0 NGrid=           0
         NMat0=   20 NMatS0=     20 NMatT0=    0 NMatD0=   20 NMtDS0=    0 NMtDT0=    0
 Symmetry not used in FoFCou.
 FMM levels:  10  Number of levels for PrismC:   9
 New state      3 was old state      5
 New state      4 was old state     11
 New state      5 was old state      7
 Excitation Energies [eV] at current iteration:
 Root      1 :     2.225962084335028
 Root      2 :     2.661739157554167
 Root      3 :     3.930707201500943
 Root      4 :     4.025879582131271
 Root      5 :     4.181504264847571
 Root      6 :     4.417628245571893
 Root      7 :     4.502615412197800
 Root      8 :     4.523391113037055
 Root      9 :     4.550875710055339
 Root     10 :     4.599021028674982
 Root     11 :     4.825393809130511
 Root     12 :     5.018397427181525
 Root     13 :     5.110062336546277
 Root     14 :     5.205248632061507
 Root     15 :     5.454852482252985
 Root     16 :     5.514927310608834
 Root     17 :     5.608352085842196
 Root     18 :     5.777524598060083
 Root     19 :     6.105751067329615
 Root     20 :     7.360251286741345
 Iteration     2 Dimension    30 NMult    20 NNew     10
 CISAX will form    10 AO SS matrices at one time.
 NMat=    10 NSing=    10 JSym2X= 0.
 Root      1 not converged, maximum delta is    0.073457776582562
 Root      2 not converged, maximum delta is    0.050577639167892
 Root      3 not converged, maximum delta is    0.137655505925613
 New state      4 was old state      5
 Root      4 not converged, maximum delta is    0.237286043673018
 New state      5 was old state      4
 Root      5 not converged, maximum delta is    0.135968012412663
 Excitation Energies [eV] at current iteration:
 Root      1 :     1.752255944340390   Change is   -0.473706139994638
 Root      2 :     2.270748314468389   Change is   -0.390990843085778
 Root      3 :     3.510640550808177   Change is   -0.420066650692765
 Root      4 :     3.682616456371830   Change is   -0.498887808475741
 Root      5 :     3.936174639749807   Change is   -0.089704942381464
 Iteration     3 Dimension    40 NMult    30 NNew     10
 CISAX will form    10 AO SS matrices at one time.
 NMat=    10 NSing=    10 JSym2X= 0.
 Root      1 not converged, maximum delta is    0.017569372957619
 Root      2 not converged, maximum delta is    0.009057464058382
 Root      3 not converged, maximum delta is    0.152725050541511
 Root      4 not converged, maximum delta is    0.169425049210539
 Root      5 not converged, maximum delta is    0.148385500480893
 Excitation Energies [eV] at current iteration:
 Root      1 :     1.717781102308090   Change is   -0.034474842032300
 Root      2 :     2.252988528383914   Change is   -0.017759786084475
 Root      3 :     3.452812895943440   Change is   -0.057827654864737
 Root      4 :     3.613256944907686   Change is   -0.069359511464144
 Root      5 :     3.916487039956950   Change is   -0.019687599792857
 Iteration     4 Dimension    50 NMult    40 NNew     10
 CISAX will form    10 AO SS matrices at one time.
 NMat=    10 NSing=    10 JSym2X= 0.
 Root      1 not converged, maximum delta is    0.003264070362912
 Root      2 not converged, maximum delta is    0.004640357818556
 Root      3 not converged, maximum delta is    0.035358933504604
 Root      4 not converged, maximum delta is    0.039825601175713
 Root      5 not converged, maximum delta is    0.299403980124637
 Excitation Energies [eV] at current iteration:
 Root      1 :     1.713991931469035   Change is   -0.003789170839055
 Root      2 :     2.250533841311115   Change is   -0.002454687072798
 Root      3 :     3.440734439210880   Change is   -0.012078456732559
 Root      4 :     3.599739953158556   Change is   -0.013516991749130
 Root      5 :     3.875466826186947   Change is   -0.041020213770003
 Iteration     5 Dimension    60 NMult    50 NNew     10
 CISAX will form    10 AO SS matrices at one time.
 NMat=    10 NSing=    10 JSym2X= 0.
 Root      1 not converged, maximum delta is    0.001144286615116
 Root      2 has converged.
 Root      3 not converged, maximum delta is    0.004140680121095
 Root      4 not converged, maximum delta is    0.028936440336680
 Root      5 not converged, maximum delta is    0.278067207766489
 Excitation Energies [eV] at current iteration:
 Root      1 :     1.713621409033845   Change is   -0.000370522435190
 Root      2 :     2.250344265545943   Change is   -0.000189575765173
 Root      3 :     3.439364203010436   Change is   -0.001370236200444
 Root      4 :     3.597162846420961   Change is   -0.002577106737595
 Root      5 :     3.751901618147440   Change is   -0.123565208039506
 Iteration     6 Dimension    68 NMult    60 NNew      8
 CISAX will form     8 AO SS matrices at one time.
 NMat=     8 NSing=     8 JSym2X= 0.
 Root      1 has converged.
 Root      2 has converged.
 Root      3 not converged, maximum delta is    0.001114610710434
 Root      4 not converged, maximum delta is    0.028742158746109
 Root      5 not converged, maximum delta is    0.104211882457892
 Excitation Energies [eV] at current iteration:
 Root      1 :     1.713588331347995   Change is   -0.000033077685850
 Root      2 :     2.250343235410120   Change is   -0.000001030135822
 Root      3 :     3.439175691367182   Change is   -0.000188511643254
 Root      4 :     3.596008707267834   Change is   -0.001154139153128
 Root      5 :     3.694903180162211   Change is   -0.056998437985230
 Iteration     7 Dimension    74 NMult    68 NNew      6
 CISAX will form     6 AO SS matrices at one time.
 NMat=     6 NSing=     6 JSym2X= 0.
 Root      1 has converged.
 Root      2 has converged.
 Root      3 has converged.
 Root      4 not converged, maximum delta is    0.006330015872893
 Root      5 not converged, maximum delta is    0.013297877881494
 Excitation Energies [eV] at current iteration:
 Root      1 :     1.713588200163791   Change is   -0.000000131184204
 Root      2 :     2.250342357804316   Change is   -0.000000877605805
 Root      3 :     3.439148208616939   Change is   -0.000027482750242
 Root      4 :     3.595771965275837   Change is   -0.000236741991997
 Root      5 :     3.686339326663584   Change is   -0.008563853498627
 Iteration     8 Dimension    78 NMult    74 NNew      4
 CISAX will form     4 AO SS matrices at one time.
 NMat=     4 NSing=     4 JSym2X= 0.
 Root      1 has converged.
 Root      2 has converged.
 Root      3 has converged.
 Root      4 has converged.
 Root      5 not converged, maximum delta is    0.002875160116400
 Excitation Energies [eV] at current iteration:
 Root      1 :     1.713588181997801   Change is   -0.000000018165990
 Root      2 :     2.250341936581559   Change is   -0.000000421222757
 Root      3 :     3.439143178207026   Change is   -0.000005030409914
 Root      4 :     3.595730600813054   Change is   -0.000041364462783
 Root      5 :     3.685125066422446   Change is   -0.001214260241139
 Iteration     9 Dimension    80 NMult    78 NNew      2
 CISAX will form     2 AO SS matrices at one time.
 NMat=     2 NSing=     2 JSym2X= 0.
 Root      1 has converged.
 Root      2 has converged.
 Root      3 has converged.
 Root      4 has converged.
 Root      5 not converged, maximum delta is    0.001234494157977
 Excitation Energies [eV] at current iteration:
 Root      1 :     1.713588178547997   Change is   -0.000000003449804
 Root      2 :     2.250341858885194   Change is   -0.000000077696364
 Root      3 :     3.439142743408465   Change is   -0.000000434798560
 Root      4 :     3.595729727199371   Change is   -0.000000873613683
 Root      5 :     3.684982339301636   Change is   -0.000142727120810
 Iteration    10 Dimension    82 NMult    80 NNew      2
 CISAX will form     2 AO SS matrices at one time.
 NMat=     2 NSing=     2 JSym2X= 0.
 Root      1 has converged.
 Root      2 has converged.
 Root      3 has converged.
 Root      4 has converged.
 Root      5 not converged, maximum delta is    0.001003314470533
 Excitation Energies [eV] at current iteration:
 Root      1 :     1.713588098058434   Change is   -0.000000080489564
 Root      2 :     2.250341840557968   Change is   -0.000000018327226
 Root      3 :     3.439141971610781   Change is   -0.000000771797684
 Root      4 :     3.595728943765851   Change is   -0.000000783433520
 Root      5 :     3.684951779811716   Change is   -0.000030559489920
 Iteration    11 Dimension    84 NMult    82 NNew      2
 CISAX will form     2 AO SS matrices at one time.
 NMat=     2 NSing=     2 JSym2X= 0.
 Root      1 has converged.
 Root      2 has converged.
 Root      3 has converged.
 Root      4 has converged.
 Root      5 has converged.
 Excitation Energies [eV] at current iteration:
 Root      1 :     1.713588085555282   Change is   -0.000000012503152
 Root      2 :     2.250341792821616   Change is   -0.000000047736352
 Root      3 :     3.439141032600518   Change is   -0.000000939010263
 Root      4 :     3.595727611565913   Change is   -0.000001332199938
 Root      5 :     3.684941744623565   Change is   -0.000010035188150
 Convergence achieved on expansion vectors.
 ***********************************************************************
 Excited states from <AA,BB:AA,BB> singles matrix:
 ***********************************************************************
 
 1PDM for each excited state written to RWF  633
 Ground to excited state transition densities written to RWF  633
 Ground to excited state transition electric dipole moments (Au):
       state          X           Y           Z        Dip. S.      Osc.
         1         1.6935     -2.2730      0.0941      8.0434      0.3377
         2         0.6405      0.5639     -0.0002      0.7282      0.0401
         3        -2.0090     -1.7254      0.0792      7.0194      0.5914
         4        -1.1448     -1.3908      0.0908      3.2529      0.2866
         5        -0.6614     -0.7313      0.0712      0.9774      0.0882
 Ground to excited state transition velocity dipole moments (Au):
       state          X           Y           Z        Dip. S.      Osc.
         1        -0.1029      0.1396     -0.0063      0.0301      0.3188
         2        -0.0495     -0.0435     -0.0003      0.0043      0.0350
         3         0.2454      0.2121     -0.0108      0.1053      0.5555
         4         0.1463      0.1775     -0.0120      0.0531      0.2678
         5         0.0871      0.0951     -0.0068      0.0167      0.0821
 Ground to excited state transition magnetic dipole moments (Au):
       state          X           Y           Z
         1        -0.0792      0.0448      1.5366
         2         0.0257     -0.0249     -0.3517
         3        -0.0430      0.2881      2.1550
         4        -0.1422      0.2381      0.6170
         5         0.2215     -0.6645      0.6479
 Ground to excited state transition velocity quadrupole moments (Au):
       state          XX          YY          ZZ          XY          XZ          YZ
         1        -2.0960      0.6102     -0.0155      1.1296     -0.0775     -0.0488
         2        -1.0062     -0.0449      0.0043     -0.6271      0.0076      0.0212
         3         4.5694      0.4030     -0.0025      2.3985     -0.0713     -0.0047
         4         2.3796      0.9307     -0.0173      1.9791     -0.0622     -0.0698
         5         1.5265      0.3293      0.0149      1.1628     -0.0185     -0.0071
 <0|del|b> * <b|rxdel|0> + <0|del|b> * <b|delr+rdel|0>
 Rotatory Strengths (R) in cgs (10**-40 erg-esu-cm/Gauss)
       state          XX          YY          ZZ    R(velocity)    E-M Angle
         1         1.2316     59.5220     -8.0038     17.5832       88.99
         2         7.2605    -10.2816      2.2744     -0.2489       90.00
         3        75.8263    -25.4009    102.3900     50.9385       87.78
         4        59.3343    -39.3011     55.2252     25.0861       84.82
         5      -192.7632     57.9374   -117.6102    -84.1453      113.10
 1/2[<0|r|b>*<b|rxdel|0> + (<0|rxdel|b>*<b|r|0>)*]
 Rotatory Strengths (R) in cgs (10**-40 erg-esu-cm/Gauss)
       state          XX          YY          ZZ     R(length)
         1        94.8819     72.0840   -102.2246     21.5804
         2       -11.6609      9.9425     -0.0569     -0.5918
         3       -61.1039    351.5659   -120.6207     56.6138
         4      -115.1480    234.2002    -39.6315     26.4735
         5       103.6133   -343.6481    -32.6442    -90.8930
  1/2[<0|del|b>*<b|r|0> + (<0|r|b>*<b|del|0>)*] (Au)
       state          X           Y           Z        Dip. S.   Osc.(frdel)
         1        -0.1743     -0.3172     -0.0006      0.4921      0.3281
         2        -0.0317     -0.0245      0.0000      0.0562      0.0375
         3        -0.4929     -0.3660     -0.0009      0.8598      0.5732
         4        -0.1675     -0.2469     -0.0011      0.4155      0.2770
         5        -0.0576     -0.0695     -0.0005      0.1276      0.0851

 Excitation energies and oscillator strengths:
 
 Excited State   1:      Singlet-A      1.7136 eV  723.54 nm  f=0.3377  <S**2>=0.000
     245 -> 248       -0.21695
     246 -> 247        0.67490
     245 <- 248       -0.12335
 This state for optimization and/or second-order correction.
 Total Energy, E(TD-HF/TD-DFT) =  -3007.78064717    
 Copying the excited state density for this state as the 1-particle RhoCI density.
 
 Excited State   2:      Singlet-A      2.2503 eV  550.96 nm  f=0.0401  <S**2>=0.000
     245 -> 247        0.59692
     246 -> 248        0.37084
 
 Excited State   3:      Singlet-A      3.4391 eV  360.51 nm  f=0.5914  <S**2>=0.000
     243 -> 247       -0.10515
     244 -> 247       -0.34824
     245 -> 247       -0.29234
     246 -> 248        0.52401
     245 <- 247        0.10276
 
 Excited State   4:      Singlet-A      3.5957 eV  344.81 nm  f=0.2866  <S**2>=0.000
     243 -> 247       -0.22295
[...]
 Alpha virt. eigenvalues --    1.23970   1.24585   1.25423   1.26134   1.26504
 Alpha virt. eigenvalues --    1.26780   1.26923   1.27719   1.27837   1.28072
 Alpha virt. eigenvalues --    1.28344   1.28691   1.29512   1.29625   1.29932
 Alpha virt. eigenvalues --    1.30656   1.31142   1.31533   1.31808   1.32761
 Alpha virt. eigenvalues --    1.32849   1.33615   1.33649   1.34137   1.34467
 Alpha virt. eigenvalues --    1.35619   1.36391   1.36664   1.37261   1.37417
 Alpha virt. eigenvalues --    1.37851   1.38798   1.38922   1.39608   1.39878
 Alpha virt. eigenvalues --    1.40163   1.40500   1.40676   1.41292   1.42075
 Alpha virt. eigenvalues --    1.42692   1.43078   1.43156   1.43378   1.43638
 Alpha virt. eigenvalues --    1.44021   1.44387   1.44507   1.45092   1.45308
 Alpha virt. eigenvalues --    1.45720   1.46285   1.46621   1.47002   1.47075
 Alpha virt. eigenvalues --    1.47511   1.47898   1.48672   1.48784   1.49375
 Alpha virt. eigenvalues --    1.49473   1.50375   1.50598   1.51213   1.51539
 Alpha virt. eigenvalues --    1.51697   1.52918   1.53383   1.53633   1.54364
 Alpha virt. eigenvalues --    1.54519   1.54807   1.55388   1.55621   1.56311
 Alpha virt. eigenvalues --    1.57363   1.57474   1.57669   1.58085   1.58297
 Alpha virt. eigenvalues --    1.58659   1.58742   1.58850   1.59942   1.60354
 Alpha virt. eigenvalues --    1.60642   1.60909   1.61330   1.61428   1.61735
 Alpha virt. eigenvalues --    1.62252   1.62835   1.63036   1.63296   1.63591
 Alpha virt. eigenvalues --    1.63747   1.63918   1.64223   1.64612   1.64911
 Alpha virt. eigenvalues --    1.64967   1.65053   1.65233   1.65274   1.65503
 Alpha virt. eigenvalues --    1.66323   1.66529   1.66890   1.67208   1.67439
 Alpha virt. eigenvalues --    1.67654   1.68083   1.68448   1.68749   1.68793
 Alpha virt. eigenvalues --    1.69111   1.69356   1.69418   1.70322   1.70809
 Alpha virt. eigenvalues --    1.71419   1.71813   1.72913   1.73322   1.73803
 Alpha virt. eigenvalues --    1.74372   1.74717   1.74948   1.75070   1.75284
 Alpha virt. eigenvalues --    1.75365   1.75913   1.75988   1.76423   1.76993
 Alpha virt. eigenvalues --    1.77234   1.77933   1.78078   1.78482   1.78867
 Alpha virt. eigenvalues --    1.79075   1.79197   1.79722   1.79992   1.80148
 Alpha virt. eigenvalues --    1.80560   1.80847   1.80891   1.81123   1.81382
 Alpha virt. eigenvalues --    1.81595   1.82418   1.82485   1.82519   1.82968
 Alpha virt. eigenvalues --    1.83122   1.83263   1.83393   1.83790   1.84063
 Alpha virt. eigenvalues --    1.84188   1.84500   1.85098   1.85150   1.85263
 Alpha virt. eigenvalues --    1.85514   1.85837   1.85881   1.86051   1.86297
 Alpha virt. eigenvalues --    1.86497   1.86622   1.86959   1.87149   1.87166
 Alpha virt. eigenvalues --    1.87435   1.87569   1.87837   1.87958   1.87988
 Alpha virt. eigenvalues --    1.88195   1.88375   1.88632   1.88785   1.89243
 Alpha virt. eigenvalues --    1.89362   1.89635   1.90061   1.90173   1.90312
 Alpha virt. eigenvalues --    1.90411   1.90668   1.90719   1.91102   1.91159
 Alpha virt. eigenvalues --    1.91400   1.91573   1.91799   1.92112   1.92218
 Alpha virt. eigenvalues --    1.92474   1.92790   1.92797   1.93001   1.93246
 Alpha virt. eigenvalues --    1.93554   1.93723   1.93847   1.94414   1.94533
 Alpha virt. eigenvalues --    1.94873   1.94994   1.95202   1.95418   1.95799
 Alpha virt. eigenvalues --    1.96321   1.96401   1.96883   1.97020   1.97053
 Alpha virt. eigenvalues --    1.97135   1.97515   1.97752   1.97963   1.98263
 Alpha virt. eigenvalues --    1.98480   1.98739   1.99078   1.99403   1.99869
 Alpha virt. eigenvalues --    1.99901   2.00128   2.00318   2.00447   2.00843
 Alpha virt. eigenvalues --    2.01267   2.01519   2.01628   2.02004   2.02311
 Alpha virt. eigenvalues --    2.02390   2.02799   2.02899   2.03160   2.03294
 Alpha virt. eigenvalues --    2.03511   2.03816   2.04073   2.04243   2.04669
 Alpha virt. eigenvalues --    2.04912   2.05287   2.05615   2.05731   2.06148
 Alpha virt. eigenvalues --    2.06449   2.06749   2.06927   2.07276   2.07886
 Alpha virt. eigenvalues --    2.08434   2.08601   2.08741   2.09036   2.09226
 Alpha virt. eigenvalues --    2.09421   2.09801   2.10177   2.10599   2.10805
 Alpha virt. eigenvalues --    2.11031   2.11222   2.11751   2.12083   2.12835
 Alpha virt. eigenvalues --    2.13134   2.13241   2.13621   2.13887   2.13965
 Alpha virt. eigenvalues --    2.14172   2.14616   2.15148   2.15212   2.15471
 Alpha virt. eigenvalues --    2.15728   2.16009   2.16245   2.16476   2.16871
 Alpha virt. eigenvalues --    2.17104   2.17140   2.17622   2.17861   2.18541
 Alpha virt. eigenvalues --    2.18809   2.19185   2.19238   2.19564   2.19760
 Alpha virt. eigenvalues --    2.19891   2.20651   2.20889   2.21059   2.21336
 Alpha virt. eigenvalues --    2.21578   2.21896   2.22125   2.22405   2.22632
 Alpha virt. eigenvalues --    2.23589   2.23623   2.23669   2.24217   2.24272
 Alpha virt. eigenvalues --    2.24976   2.25193   2.25903   2.26418   2.26711
 Alpha virt. eigenvalues --    2.27354   2.27731   2.27929   2.28343   2.28787
 Alpha virt. eigenvalues --    2.29129   2.29479   2.29972   2.30245   2.30733
 Alpha virt. eigenvalues --    2.30885   2.30996   2.32102   2.32494   2.32955
 Alpha virt. eigenvalues --    2.33078   2.33563   2.33627   2.34162   2.34496
 Alpha virt. eigenvalues --    2.35323   2.35950   2.36059   2.36243   2.36721
 Alpha virt. eigenvalues --    2.36889   2.37404   2.37775   2.38048   2.38542
 Alpha virt. eigenvalues --    2.38803   2.39638   2.39966   2.40300   2.40699
 Alpha virt. eigenvalues --    2.40806   2.40910   2.41172   2.41905   2.42092
 Alpha virt. eigenvalues --    2.42194   2.42495   2.42826   2.43092   2.43462
 Alpha virt. eigenvalues --    2.43990   2.44098   2.44828   2.44855   2.45173
 Alpha virt. eigenvalues --    2.45694   2.46497   2.46750   2.46797   2.47837
 Alpha virt. eigenvalues --    2.48336   2.48509   2.48616   2.48797   2.48813
 Alpha virt. eigenvalues --    2.49060   2.49320   2.49891   2.50384   2.50621
 Alpha virt. eigenvalues --    2.50985   2.51088   2.51638   2.51781   2.52267
 Alpha virt. eigenvalues --    2.52518   2.53336   2.53490   2.53973   2.54096
 Alpha virt. eigenvalues --    2.54501   2.54621   2.55397   2.55778   2.56454
 Alpha virt. eigenvalues --    2.57094   2.57495   2.58116   2.58474   2.58779
 Alpha virt. eigenvalues --    2.59194   2.59583   2.60726   2.61334   2.61515
 Alpha virt. eigenvalues --    2.62362   2.62976   2.63255   2.63383   2.63596
 Alpha virt. eigenvalues --    2.63914   2.64332   2.64402   2.66039   2.66122
 Alpha virt. eigenvalues --    2.66160   2.66561   2.67019   2.67656   2.68068
 Alpha virt. eigenvalues --    2.68444   2.68558   2.68971   2.69155   2.69423
 Alpha virt. eigenvalues --    2.69497   2.69775   2.70252   2.70795   2.71266
 Alpha virt. eigenvalues --    2.71657   2.72166   2.72452   2.72692   2.73350
 Alpha virt. eigenvalues --    2.74343   2.74583   2.74818   2.75901   2.76450
 Alpha virt. eigenvalues --    2.76504   2.76717   2.77143   2.77260   2.78256
 Alpha virt. eigenvalues --    2.78371   2.79173   2.79332   2.79790   2.80097
 Alpha virt. eigenvalues --    2.80515   2.81240   2.81430   2.81910   2.82015
 Alpha virt. eigenvalues --    2.82218   2.82322   2.82662   2.83371   2.84123
 Alpha virt. eigenvalues --    2.84360   2.84517   2.84759   2.86127   2.86188
 Alpha virt. eigenvalues --    2.86309   2.86835   2.87993   2.88629   2.88912
 Alpha virt. eigenvalues --    2.89109   2.89496   2.90001   2.90245   2.90824
 Alpha virt. eigenvalues --    2.91262   2.91890   2.92353   2.92572   2.93373
 Alpha virt. eigenvalues --    2.93633   2.94462   2.94832   2.94918   2.95714
 Alpha virt. eigenvalues --    2.95960   2.96268   2.96597   2.98259   2.98396
 Alpha virt. eigenvalues --    2.98820   2.99201   2.99500   2.99779   2.99989
 Alpha virt. eigenvalues --    3.00335   3.00476   3.01048   3.01244   3.01471
 Alpha virt. eigenvalues --    3.01710   3.02068   3.02158   3.02356   3.02672
 Alpha virt. eigenvalues --    3.03182   3.03223   3.03324   3.03996   3.04036
 Alpha virt. eigenvalues --    3.04610   3.05064   3.05209   3.05508   3.05678
 Alpha virt. eigenvalues --    3.06229   3.06383   3.06541   3.06754   3.06979
 Alpha virt. eigenvalues --    3.07097   3.07229   3.07708   3.08193   3.08325
 Alpha virt. eigenvalues --    3.08669   3.08991   3.09247   3.09671   3.10132
 Alpha virt. eigenvalues --    3.10559   3.10883   3.10950   3.11103   3.11806
 Alpha virt. eigenvalues --    3.11865   3.12535   3.12777   3.13167   3.13358
 Alpha virt. eigenvalues --    3.13597   3.15331   3.15615   3.15830   3.16236
 Alpha virt. eigenvalues --    3.16946   3.17309   3.17661   3.18079   3.18605
 Alpha virt. eigenvalues --    3.18926   3.19159   3.20057   3.22464   3.22811
 Alpha virt. eigenvalues --    3.23384   3.26059   3.26124   3.26206   3.27014
 Alpha virt. eigenvalues --    3.27747   3.29273   3.29697   3.30143   3.31515
 Alpha virt. eigenvalues --    3.31813   3.35964   3.39434   3.47928   3.48647
 Alpha virt. eigenvalues --    3.49393   3.52213   3.55006   3.57053   3.59065
 Alpha virt. eigenvalues --    3.65820   3.66392   3.72340   3.72496   3.73523
 Alpha virt. eigenvalues --    3.75607   3.78299
          Condensed to atoms (all electrons):
 Mulliken charges:
               1
     1  Mg   0.935196
     2  C   -0.051680
     3  C   -0.061582
     4  C   -0.087739
     5  C   -0.077502
     6  N   -0.340727
     7  C   -0.011594
     8  C   -0.072501
     9  C   -0.097125
    10  C   -0.018074
    11  C    0.027211
    12  C    0.075300
    13  C   -0.008651
    14  C    0.225544
    15  O   -0.255794
    16  O   -0.390593
    17  N   -0.491894
    18  C    0.185156
    19  C   -0.168940
    20  C   -0.097742
    21  C    0.176899
    22  C    0.049389
    23  C    0.039744
    24  O   -0.243982
    25  C    0.029151
    26  N   -0.304492
    27  C   -0.006307
    28  C    0.003934
    29  C   -0.112435
    30  C   -0.009595
    31  C    0.024277
    32  C   -0.039078
    33  C   -0.058069
    34  N   -0.382805
    35  C    0.163564
    36  C   -0.231034
    37  C   -0.034373
    38  C    0.182511
    39  C    0.099979
    40  C    0.079179
    41  O   -0.185244
    42  C   -0.047264
    43  C    0.272984
    44  O   -0.246423
    45  O   -0.376158
    46  C    0.145831
    47  C    0.256172
    48  C   -0.174501
    49  C   -0.208334
    50  C    0.038783
    51  C    0.050028
    52  C   -0.053662
    53  C    0.060937
    54  C   -0.220341
    55  C   -0.005787
    56  C    0.004795
    57  C   -0.045970
    58  C    0.012361
    59  C   -0.186343
    60  C    0.028138
    61  C    0.011432
    62  C   -0.009159
    63  C    0.001466
    64  C   -0.215798
    65  C   -0.011030
    66  C   -0.006024
    67  H   -0.012095
    68  H    0.023722
    69  H   -0.019117
    70  H    0.055616
    71  H    0.037485
    72  H    0.042088
    73  H    0.037224
    74  H    0.048644
    75  H    0.034397
    76  H    0.039710
    77  H    0.047249
    78  H    0.043388
    79  H    0.059604
    80  H    0.043624
    81  H    0.048970
    82  H    0.049528
    83  H    0.062237
    84  H    0.057521
    85  H    0.031925
    86  H    0.042218
    87  H    0.030671
    88  H    0.050044
    89  H    0.042015
    90  H    0.050121
    91  H    0.035378
    92  H    0.043040
    93  H    0.028683
    94  H    0.032870
    95  H    0.037886
    96  H    0.066367
    97  H    0.065416
    98  H    0.072320
    99  H    0.052311
   100  H    0.051305
   101  H    0.063750
   102  H    0.034181
   103  H    0.057477
   104  H    0.021551
   105  H    0.058069
   106  H    0.043898
   107  H    0.050901
   108  H    0.019122
   109  H    0.011418
   110  H    0.034877
   111  H    0.031619
   112  H    0.015769
   113  H    0.029348
   114  H    0.015478
   115  H    0.017394
   116  H    0.022427
   117  H    0.042796
   118  H    0.004746
   119  H    0.024569
   120  H    0.030482
   121  H    0.019080
   122  H    0.007705
   123  H    0.008704
   124  H    0.017867
   125  H    0.035258
   126  H    0.025683
   127  H    0.014632
   128  H    0.014031
   129  H    0.010415
   130  H    0.025779
   131  H    0.024453
   132  H    0.016640
   133  H    0.000753
   134  H    0.022051
   135  H    0.025605
   136  H    0.009052
   137  H    0.036197
   138  H    0.034036
   139  H    0.030985
   140  H    0.025222
 Sum of Mulliken charges =  -0.00000
 Mulliken charges with hydrogens summed into heavy atoms:
               1
     1  Mg   0.935196
     2  C   -0.051680
     3  C   -0.073677
     4  C   -0.064018
     5  C   -0.096619
     6  N   -0.340727
     7  C   -0.011594
     8  C   -0.016886
     9  C   -0.059640
    10  C   -0.018074
    11  C    0.155166
    12  C    0.149407
    13  C    0.081986
    14  C    0.225544
    15  O   -0.255794
    16  O   -0.390593
    17  N   -0.491894
    18  C    0.185156
    19  C   -0.168940
    20  C   -0.097742
    21  C    0.176899
    22  C    0.201587
    23  C    0.039744
    24  O   -0.243982
    25  C    0.198438
    26  N   -0.304492
    27  C   -0.006307
    28  C    0.035859
    29  C   -0.070217
    30  C   -0.009595
    31  C    0.147006
    32  C    0.046421
    33  C    0.046524
    34  N   -0.382805
    35  C    0.163564
    36  C   -0.231034
    37  C   -0.034373
    38  C    0.182511
    39  C    0.269648
    40  C    0.079179
    41  O   -0.185244
    42  C    0.025055
    43  C    0.272984
    44  O   -0.246423
    45  O   -0.376158
    46  C    0.313198
    47  C    0.347831
    48  C   -0.152951
    49  C   -0.208334
    50  C    0.191652
    51  C    0.080568
    52  C    0.012834
    53  C    0.106054
    54  C   -0.204863
    55  C    0.076829
    56  C    0.034110
    57  C    0.003592
    58  C    0.028770
    59  C   -0.168476
    60  C    0.103711
    61  C    0.035879
    62  C    0.041073
    63  C    0.018859
    64  C   -0.193747
    65  C    0.059825
    66  C    0.084218
 Electronic spatial extent (au):  <R**2>=         134290.2003
 Charge=             -0.0000 electrons
 Dipole moment (field-independent basis, Debye):
    X=             -5.6598    Y=              2.4097    Z=              3.4939  Tot=              7.0744
 Quadrupole moment (field-independent basis, Debye-Ang):
   XX=           -388.1376   YY=           -426.3268   ZZ=           -402.1309
   XY=             28.8852   XZ=             17.2827   YZ=             -6.5659
 Traceless Quadrupole moment (field-independent basis, Debye-Ang):
   XX=             17.3942   YY=            -20.7950   ZZ=              3.4009
   XY=             28.8852   XZ=             17.2827   YZ=             -6.5659
 Octapole moment (field-independent basis, Debye-Ang**2):
  XXX=            408.9461  YYY=            -69.7124  ZZZ=             -7.8868  XYY=           -312.5615
  XXY=            141.7286  XXZ=             23.4838  XZZ=             22.2525  YZZ=            -25.7450
  YYZ=             19.3274  XYZ=             -5.9336
 Hexadecapole moment (field-independent basis, Debye-Ang**3):
 XXXX=        -151434.6571 YYYY=         -28984.3660 ZZZZ=          -2927.2191 XXXY=           2824.9983
 XXXZ=            719.7156 YYYX=            129.6011 YYYZ=            118.4411 ZZZX=             61.3367
 ZZZY=             46.9651 XXYY=         -31875.3635 XXZZ=         -26232.3348 YYZZ=          -4999.4318
 XXYZ=           -265.9409 YYXZ=             94.3878 ZZXY=            -56.3518
 N-N= 9.455820258865D+03 E-N=-2.590481575401D+04  KE= 2.975797810124D+03
 Leave Link  601 at Wed May  4 04:32:01 2022, MaxMem= 10066329600 cpu:              13.8 elap:               0.7
 (Enter /sw/apps/gaussian-16.0/g16/l9999.exe)
 1\1\GINC-BP1-COMPUTE040\SP\RwB97XD TD-FC\def2SVP\C55H74Mg1N4O6\OF15641
 \04-May-2022\0\\#p wB97XD/Def2SVP td=(nstates=5)\\step_1351_chromophor
 e_18 TDDFT with wB97XD functional\\0,1\Mg,0,34.648,49.247,25.196\C,0,3
 4.597,47.385,28.221\C,0,32.973,51.702,26.78\C,0,33.861,50.512,22.131\C
 ,0,35.429,46.161,23.561\N,0,33.903,49.464,27.377\C,0,34.199,48.691,28.
 454\C,0,33.801,49.445,29.714\C,0,33.105,50.789,29.242\C,0,33.333,50.67
 7,27.715\C,0,31.625,51.068,29.628\C,0,34.928,49.576,30.76\C,0,34.555,4
 9.209,32.205\C,0,33.167,49.278,32.804\O,0,32.483,48.268,32.983\O,0,32.
 797,50.653,32.922\N,0,33.754,51.011,24.565\C,0,33.19,51.901,25.445\C,0
 ,32.869,53.086,24.652\C,0,32.994,52.688,23.281\C,0,33.477,51.304,23.26
 3\C,0,32.512,54.366,25.311\C,0,32.641,53.565,22.023\O,0,32.768,53.061,
 20.912\C,0,32.125,54.936,22.146\N,0,34.734,48.474,23.031\C,0,34.401,49
 .246,21.993\C,0,34.583,48.402,20.637\C,0,35.063,46.997,21.177\C,0,35.1
 04,47.222,22.654\C,0,33.361,48.341,19.633\C,0,36.476,46.496,20.568\C,0
 ,37.697,47.067,21.236\N,0,35.112,47.222,25.735\C,0,35.394,46.166,24.97
 4\C,0,35.598,44.975,25.834\C,0,35.326,45.445,27.103\C,0,34.951,46.831,
 27.018\C,0,35.995,43.573,25.405\C,0,35.174,45.,28.462\O,0,35.278,43.89
 8,28.954\C,0,34.696,46.221,29.261\C,0,33.48,45.911,29.976\O,0,32.347,4
 6.015,29.563\O,0,33.756,45.453,31.242\C,0,32.516,45.245,32.055\C,0,31.
 411,50.766,33.412\C,0,31.013,52.205,33.597\C,0,31.217,52.987,34.718\C,
 0,31.945,52.591,35.967\C,0,30.638,54.366,34.572\C,0,31.598,55.498,34.7
 46\C,0,31.264,56.883,34.102\C,0,31.582,57.938,35.146\C,0,33.144,58.251
 ,35.159\C,0,30.782,59.233,35.1\C,0,29.232,59.043,35.475\C,0,28.782,59.
 855,36.734\C,0,28.249,61.31,36.376\C,0,29.352,62.315,36.238\C,0,27.224
 ,61.822,37.36\C,0,26.382,63.028,36.725\C,0,26.665,64.366,37.278\C,0,25
 .462,65.308,37.733\C,0,25.695,66.75,37.284\C,0,25.161,65.283,39.267\H,
 0,32.591,52.547,27.357\H,0,33.751,50.974,21.148\H,0,35.769,45.328,22.9
 42\H,0,32.961,48.956,30.208\H,0,33.67,51.685,29.499\H,0,31.643,52.089,
 30.009\H,0,31.224,50.39,30.382\H,0,30.968,50.975,28.763\H,0,35.269,50.
 608,30.844\H,0,35.768,48.946,30.469\H,0,35.263,49.644,32.911\H,0,34.83
 4,48.157,32.266\H,0,31.425,54.431,25.334\H,0,32.878,55.292,24.869\H,0,
 33.001,54.215,26.274\H,0,31.177,54.706,22.632\H,0,31.895,55.371,21.173
 \H,0,32.756,55.487,22.843\H,0,35.522,48.833,20.289\H,0,34.394,46.181,2
 0.905\H,0,33.581,48.612,18.6\H,0,32.61,49.115,19.792\H,0,32.991,47.316
 ,19.651\H,0,36.506,46.652,19.489\H,0,36.482,45.457,20.895\H,0,37.544,4
 7.859,21.968\H,0,38.405,47.53,20.547\H,0,38.257,46.26,21.71\H,0,35.448
 ,43.474,24.468\H,0,35.554,42.889,26.13\H,0,37.076,43.552,25.267\H,0,35
 .577,46.376,29.884\H,0,32.87,45.271,33.085\H,0,31.991,44.318,31.826\H,
 0,31.814,46.058,31.871\H,0,31.439,50.36,34.423\H,0,30.667,50.321,32.75
 1\H,0,30.415,52.62,32.786\H,0,31.254,52.119,36.667\H,0,32.396,53.467,3
 6.434\H,0,32.716,51.852,35.748\H,0,29.872,54.418,35.346\H,0,30.07,54.3
 79,33.641\H,0,32.51,55.116,34.287\H,0,31.596,55.55,35.835\H,0,30.2,57.
 041,33.923\H,0,31.888,57.115,33.24\H,0,31.345,57.511,36.12\H,0,33.662,
 57.43,34.663\H,0,33.468,58.133,36.192\H,0,33.464,59.222,34.78\H,0,30.7
 36,59.646,34.092\H,0,31.297,60.022,35.646\H,0,28.932,58.,35.577\H,0,28
 .756,59.495,34.604\H,0,29.669,59.921,37.364\H,0,28.15,59.224,37.359\H,
 0,27.782,61.206,35.396\H,0,29.376,62.907,37.153\H,0,29.197,62.875,35.3
 16\H,0,30.323,61.862,36.042\H,0,27.696,62.093,38.304\H,0,26.55,61.036,
 37.699\H,0,25.319,62.8,36.807\H,0,26.642,63.258,35.691\H,0,27.337,64.9
 15,36.619\H,0,27.212,64.207,38.207\H,0,24.515,65.077,37.245\H,0,24.826
 ,67.056,36.701\H,0,26.488,66.765,36.536\H,0,25.971,67.448,38.074\H,0,2
 4.723,66.228,39.588\H,0,26.035,65.019,39.863\H,0,24.427,64.492,39.42\\
 Version=ES64L-G16RevA.03\State=1-A\HF=-3007.8436204\RMSD=5.770e-09\PG=
 C01 [X(C55H74Mg1N4O6)]\\@


     "IF I COULD JUST GET IT ON PAPER"
 LIFE AND INK, THEY RUN OUT AT THE SAME TIME,
 OR SO SAID MY OLD FRIEND THE SQUID.
     -- JIMMY BUFFETT, 1981
 Job cpu time:       0 days 10 hours 51 minutes 55.4 seconds.
 Elapsed time:       0 days  0 hours 27 minutes 41.6 seconds.
 File lengths (MBytes):  RWF=   8929 Int=      0 D2E=      0 Chk=    390 Scr=      1
 Normal termination of Gaussian 16 at Wed May  4 04:32:02 2022.
