 Entering Gaussian System, Link 0=g16
 Initial command:
 /sw/apps/gaussian-16.0/g16/l1.exe "/tmp/Gau-234373.inp" -scrdir="/tmp/"
 Entering Link 1 = /sw/apps/gaussian-16.0/g16/l1.exe PID=    234374.
  
 Copyright (c) 1988,1990,1992,1993,1995,1998,2003,2009,2016,
            Gaussian, Inc.  All Rights Reserved.
  
 This is part of the Gaussian(R) 16 program.  It is based on
 the Gaussian(R) 09 system (copyright 2009, Gaussian, Inc.),
 the Gaussian(R) 03 system (copyright 2003, Gaussian, Inc.),
 the Gaussian(R) 98 system (copyright 1998, Gaussian, Inc.),
 the Gaussian(R) 94 system (copyright 1995, Gaussian, Inc.),
 the Gaussian 92(TM) system (copyright 1992, Gaussian, Inc.),
 the Gaussian 90(TM) system (copyright 1990, Gaussian, Inc.),
 the Gaussian 88(TM) system (copyright 1988, Gaussian, Inc.),
 the Gaussian 86(TM) system (copyright 1986, Carnegie Mellon
 University), and the Gaussian 82(TM) system (copyright 1983,
 Carnegie Mellon University). Gaussian is a federally registered
 trademark of Gaussian, Inc.
  
 This software contains proprietary and confidential information,
 including trade secrets, belonging to Gaussian, Inc.
  
 This software is provided under written license and may be
 used, copied, transmitted, or stored only in accord with that
 written license.
  
 The following legend is applicable only to US Government
 contracts under FAR:
  
                    RESTRICTED RIGHTS LEGEND
  
 Use, reproduction and disclosure by the US Government is
 subject to restrictions as set forth in subparagraphs (a)
 and (c) of the Commercial Computer Software - Restricted
 Rights clause in FAR 52.227-19.
  
 Gaussian, Inc.
 340 Quinnipiac St., Bldg. 40, Wallingford CT 06492
  
  
 ---------------------------------------------------------------
 Warning -- This program may not be used in any manner that
 competes with the business of Gaussian, Inc. or will provide
 assistance to any competitor of Gaussian, Inc.  The licensee
 of this program is prohibited from giving any competitor of
 Gaussian, Inc. access to this program.  By using this program,
 the user acknowledges that Gaussian, Inc. is engaged in the
 business of creating and licensing software in the field of
 computational chemistry and represents and warrants to the
 licensee that it is not a competitor of Gaussian, Inc. and that
 it will not use this program in any manner prohibited above.
 ---------------------------------------------------------------
  

 Cite this work as:
 Gaussian 16, Revision A.03,
 M. J. Frisch, G. W. Trucks, H. B. Schlegel, G. E. Scuseria, 
 M. A. Robb, J. R. Cheeseman, G. Scalmani, V. Barone, 
 G. A. Petersson, H. Nakatsuji, X. Li, M. Caricato, A. V. Marenich, 
 J. Bloino, B. G. Janesko, R. Gomperts, B. Mennucci, H. P. Hratchian, 
 J. V. Ortiz, A. F. Izmaylov, J. L. Sonnenberg, D. Williams-Young, 
 F. Ding, F. Lipparini, F. Egidi, J. Goings, B. Peng, A. Petrone, 
 T. Henderson, D. Ranasinghe, V. G. Zakrzewski, J. Gao, N. Rega, 
 G. Zheng, W. Liang, M. Hada, M. Ehara, K. Toyota, R. Fukuda, 
 J. Hasegawa, M. Ishida, T. Nakajima, Y. Honda, O. Kitao, H. Nakai, 
 T. Vreven, K. Throssell, J. A. Montgomery, Jr., J. E. Peralta, 
 F. Ogliaro, M. J. Bearpark, J. J. Heyd, E. N. Brothers, K. N. Kudin, 
 V. N. Staroverov, T. A. Keith, R. Kobayashi, J. Normand, 
 K. Raghavachari, A. P. Rendell, J. C. Burant, S. S. Iyengar, 
 J. Tomasi, M. Cossi, J. M. Millam, M. Klene, C. Adamo, R. Cammi, 
 J. W. Ochterski, R. L. Martin, K. Morokuma, O. Farkas, 
 J. B. Foresman, and D. J. Fox, Gaussian, Inc., Wallingford CT, 2016.
 
 ******************************************
 Gaussian 16:  ES64L-G16RevA.03 25-Dec-2016
                26-Apr-2022 
 ******************************************
 %nproc=24
 Will use up to   24 processors via shared memory.
 %mem=75GB
 --------------------------------
 #p wB97XD/Def2SVP td=(nstates=5)
 --------------------------------
 1/38=1,172=1/1;
 2/12=2,17=6,18=5,40=1/2;
 3/5=43,7=101,11=9,25=1,30=1,74=-58/1,2,3,8;
 4//1;
 5/5=2,38=5/2;
 8/6=1,10=1,108=5/1;
 9/41=5,42=1,70=2/14;
 6/7=2,8=2,9=2,10=2/1;
 99/5=1,9=1/99;
 Leave Link    1 at Tue Apr 26 22:00:16 2022, MaxMem= 10066329600 cpu:               0.7 elap:               0.0
 (Enter /sw/apps/gaussian-16.0/g16/l101.exe)
 -----------------------------------------------------
 step_1001_chromophore_25 TDDFT with wB97XD functional
 -----------------------------------------------------
 Symbolic Z-matrix:
 Charge =  0 Multiplicity = 1
 Mg                   -3.284     34.325    26.832 
 C                    -3.906     32.367    29.688 
 C                    -1.808     36.73     28.864 
 C                    -3.31      36.546    24.341 
 C                    -5.043     32.078    24.895 
 N                    -2.908     34.456    28.959 
 C                    -3.163     33.504    29.915 
 C                    -2.678     33.932    31.411 
 C                    -2.073     35.321    31.016 
 C                    -2.274     35.558    29.525 
 C                    -2.376     36.541    31.987 
 C                    -1.821     32.918    32.255 
 C                    -2.26      32.54     33.652 
 C                    -1.213     32.561    34.753 
 O                    -0.232     31.855    34.988 
 O                    -1.561     33.598    35.53 
 N                    -2.492     36.302    26.572 
 C                    -1.933     37.12     27.517 
 C                    -1.507     38.404    26.917 
 C                    -1.961     38.354    25.555 
 C                    -2.638     37.013    25.425 
 C                    -0.841     39.441    27.703 
 C                    -1.861     39.419    24.481 
 O                    -2.326     39.272    23.373 
 C                    -1.214     40.772    24.766 
 N                    -4.325     34.371    24.983 
 C                    -4.062     35.38     24.108 
 C                    -4.491     35.063    22.651 
 C                    -4.898     33.562    22.84 
 C                    -4.675     33.265    24.339 
 C                    -5.585     35.962    21.963 
 C                    -4.122     32.637    21.851 
 C                    -2.738     32.038    22.321 
 N                    -4.319     32.588    27.114 
 C                    -5.026     31.767    26.206 
 C                    -5.473     30.654    26.972 
 C                    -5.081     30.879    28.343 
 C                    -4.393     32.089    28.372 
 C                    -6.298     29.539    26.386 
 C                    -5.131     30.364    29.695 
 O                    -5.683     29.343    30.171 
 C                    -4.342     31.329    30.636 
 C                    -5.331     31.899    31.559 
 O                    -6.116     32.746    31.275 
 O                    -5.129     31.499    32.893 
 C                    -6.213     31.817    33.857 
 C                    -0.754     33.903    36.7 
 C                    -1.486     35.048    37.381 
 C                    -1.004     35.716    38.491 
 C                     0.302     35.355    39.315 
 C                    -1.8       36.785    39.265 
 C                    -2.584     36.362    40.547 
 C                    -2.27      37.237    41.737 
 C                    -1.764     36.498    42.996 
 C                    -2.973     36.146    43.859 
 C                    -0.796     37.535    43.691 
 C                     0.652     37.488    43.085 
 C                     1.694     36.95     44.094 
 C                     1.874     35.391    43.985 
 C                     1.336     34.649    45.147 
 C                     3.454     35.034    43.865 
 C                     3.887     34.469    42.483 
 C                     4.441     35.544    41.549 
 C                     3.862     35.374    40.17 
 C                     4.44      34.072    39.557 
 C                     4.02      36.594    39.282 
 H                    -1.515     37.459    29.623 
 H                    -3.032     37.172    23.491 
 H                    -5.504     31.364    24.209 
 H                    -3.594     34.067    31.985 
 H                    -0.993     35.18     30.97 
 H                    -2.734     36.264    32.978 
 H                    -3.308     37.012    31.677 
 H                    -1.628     37.325    32.112 
 H                    -0.82      33.341    32.333 
 H                    -1.776     32.034    31.62 
 H                    -2.481     31.475    33.579 
 H                    -3.098     33.189    33.907 
 H                    -0.233     39.004    28.495 
 H                    -1.597     40.035    28.216 
 H                    -0.142     39.979    27.061 
 H                    -2.012     41.32     25.268 
 H                    -1.09      41.301    23.821 
 H                    -0.221     40.776    25.216 
 H                    -3.632     35.186    21.991 
 H                    -5.966     33.442    22.656 
 H                    -5.893     36.68     22.724 
 H                    -6.497     35.486    21.604 
 H                    -5.15      36.547    21.154 
 H                    -4.015     33.088    20.864 
 H                    -4.727     31.76     21.62 
 H                    -2.565     32.121    23.394 
 H                    -1.915     32.468    21.75 
 H                    -2.724     30.968    22.115 
 H                    -5.82      29.152    25.486 
 H                    -7.27      29.976    26.156 
 H                    -6.36      28.798    27.183 
 H                    -3.536     30.8      31.144 
 H                    -7.104     32.101    33.297 
 H                    -5.961     32.53     34.642 
 H                    -6.556     30.901    34.338 
 H                     0.237     34.142    36.316 
 H                    -0.677     33.072    37.4 
 H                    -2.387     35.443    36.913 
 H                     0.704     36.208    39.862 
 H                     1.034     35.041    38.571 
 H                     0.215     34.566    40.063 
 H                    -2.579     37.275    38.681 
 H                    -1.077     37.584    39.432 
 H                    -2.424     35.315    40.805 
 H                    -3.653     36.445    40.35 
 H                    -3.1       37.896    41.993 
 H                    -1.584     37.993    41.354 
 H                    -1.193     35.574    42.905 
 H                    -3.119     36.773    44.739 
 H                    -2.936     35.127    44.243 
 H                    -3.865     36.443    43.307 
 H                    -0.706     37.283    44.748 
 H                    -1.188     38.549    43.602 
 H                     0.937     38.499    42.796 
 H                     0.63      36.861    42.193 
 H                     1.403     37.28     45.091 
 H                     2.712     37.285    43.896 
 H                     1.325     34.935    43.161 
 H                     1.934     35.03     45.975 
 H                     1.417     33.563    45.125 
 H                     0.279     34.798    45.366 
 H                     3.786     34.163    44.431 
 H                     4.167     35.772    44.231 
 H                     3.092     33.827    42.104 
 H                     4.694     33.742    42.568 
 H                     5.521     35.47     41.424 
 H                     4.168     36.515    41.964 
 H                     2.809     35.18     40.373 
 H                     3.556     33.467    39.358 
 H                     5.077     33.507    40.237 
 H                     4.958     34.333    38.634 
 H                     3.059     36.8      38.812 
 H                     4.788     36.453    38.521 
 H                     4.264     37.524    39.796 
 
 ITRead=  0  0  0  0  0  0  0  0  0  0  0  0  0  0  0  0  0  0  0  0
 ITRead=  0  0  0  0  0  0  0  0  0  0  0  0  0  0  0  0  0  0  0  0
 ITRead=  0  0  0  0  0  0  0  0  0  0  0  0  0  0  0  0  0  0  0  0
 ITRead=  0  0  0  0  0  0  0  0  0  0  0  0  0  0  0  0  0  0  0  0
 ITRead=  0  0  0  0  0  0  0  0  0  0  0  0  0  0  0  0  0  0  0  0
 ITRead=  0  0  0  0  0  0  0  0  0  0  0  0  0  0  0  0  0  0  0  0
 ITRead=  0  0  0  0  0  0  0  0  0  0  0  0  0  0  0  0  0  0  0  0
 MicOpt= -1 -1 -1 -1 -1 -1 -1 -1 -1 -1 -1 -1 -1 -1 -1 -1 -1 -1 -1 -1
 MicOpt= -1 -1 -1 -1 -1 -1 -1 -1 -1 -1 -1 -1 -1 -1 -1 -1 -1 -1 -1 -1
 MicOpt= -1 -1 -1 -1 -1 -1 -1 -1 -1 -1 -1 -1 -1 -1 -1 -1 -1 -1 -1 -1
 MicOpt= -1 -1 -1 -1 -1 -1 -1 -1 -1 -1 -1 -1 -1 -1 -1 -1 -1 -1 -1 -1
 MicOpt= -1 -1 -1 -1 -1 -1 -1 -1 -1 -1 -1 -1 -1 -1 -1 -1 -1 -1 -1 -1
 MicOpt= -1 -1 -1 -1 -1 -1 -1 -1 -1 -1 -1 -1 -1 -1 -1 -1 -1 -1 -1 -1
 MicOpt= -1 -1 -1 -1 -1 -1 -1 -1 -1 -1 -1 -1 -1 -1 -1 -1 -1 -1 -1 -1
 NAtoms=    140 NQM=      140 NQMF=       0 NMMI=      0 NMMIF=      0
                NMic=       0 NMicF=      0.
                    Isotopes and Nuclear Properties:
 (Nuclear quadrupole moments (NQMom) in fm**2, nuclear magnetic moments (NMagM)
  in nuclear magnetons)

  Atom         1           2           3           4           5           6           7           8           9          10
 IAtWgt=          24          12          12          12          12          14          12          12          12          12
 AtmWgt=  23.9850450  12.0000000  12.0000000  12.0000000  12.0000000  14.0030740  12.0000000  12.0000000  12.0000000  12.0000000
 NucSpn=           0           0           0           0           0           2           0           0           0           0
 AtZEff=  -0.0000000  -0.0000000  -0.0000000  -0.0000000  -0.0000000  -0.0000000  -0.0000000  -0.0000000  -0.0000000  -0.0000000
 NQMom=    0.0000000   0.0000000   0.0000000   0.0000000   0.0000000   2.0440000   0.0000000   0.0000000   0.0000000   0.0000000
 NMagM=    0.0000000   0.0000000   0.0000000   0.0000000   0.0000000   0.4037610   0.0000000   0.0000000   0.0000000   0.0000000
 AtZNuc=  12.0000000   6.0000000   6.0000000   6.0000000   6.0000000   7.0000000   6.0000000   6.0000000   6.0000000   6.0000000

  Atom        11          12          13          14          15          16          17          18          19          20
 IAtWgt=          12          12          12          12          16          16          14          12          12          12
 AtmWgt=  12.0000000  12.0000000  12.0000000  12.0000000  15.9949146  15.9949146  14.0030740  12.0000000  12.0000000  12.0000000
 NucSpn=           0           0           0           0           0           0           2           0           0           0
 AtZEff=  -0.0000000  -0.0000000  -0.0000000  -0.0000000  -0.0000000  -0.0000000  -0.0000000  -0.0000000  -0.0000000  -0.0000000
 NQMom=    0.0000000   0.0000000   0.0000000   0.0000000   0.0000000   0.0000000   2.0440000   0.0000000   0.0000000   0.0000000
 NMagM=    0.0000000   0.0000000   0.0000000   0.0000000   0.0000000   0.0000000   0.4037610   0.0000000   0.0000000   0.0000000
 AtZNuc=   6.0000000   6.0000000   6.0000000   6.0000000   8.0000000   8.0000000   7.0000000   6.0000000   6.0000000   6.0000000

  Atom        21          22          23          24          25          26          27          28          29          30
 IAtWgt=          12          12          12          16          12          14          12          12          12          12
 AtmWgt=  12.0000000  12.0000000  12.0000000  15.9949146  12.0000000  14.0030740  12.0000000  12.0000000  12.0000000  12.0000000
 NucSpn=           0           0           0           0           0           2           0           0           0           0
 AtZEff=  -0.0000000  -0.0000000  -0.0000000  -0.0000000  -0.0000000  -0.0000000  -0.0000000  -0.0000000  -0.0000000  -0.0000000
 NQMom=    0.0000000   0.0000000   0.0000000   0.0000000   0.0000000   2.0440000   0.0000000   0.0000000   0.0000000   0.0000000
 NMagM=    0.0000000   0.0000000   0.0000000   0.0000000   0.0000000   0.4037610   0.0000000   0.0000000   0.0000000   0.0000000
 AtZNuc=   6.0000000   6.0000000   6.0000000   8.0000000   6.0000000   7.0000000   6.0000000   6.0000000   6.0000000   6.0000000

  Atom        31          32          33          34          35          36          37          38          39          40
 IAtWgt=          12          12          12          14          12          12          12          12          12          12
 AtmWgt=  12.0000000  12.0000000  12.0000000  14.0030740  12.0000000  12.0000000  12.0000000  12.0000000  12.0000000  12.0000000
 NucSpn=           0           0           0           2           0           0           0           0           0           0
 AtZEff=  -0.0000000  -0.0000000  -0.0000000  -0.0000000  -0.0000000  -0.0000000  -0.0000000  -0.0000000  -0.0000000  -0.0000000
 NQMom=    0.0000000   0.0000000   0.0000000   2.0440000   0.0000000   0.0000000   0.0000000   0.0000000   0.0000000   0.0000000
 NMagM=    0.0000000   0.0000000   0.0000000   0.4037610   0.0000000   0.0000000   0.0000000   0.0000000   0.0000000   0.0000000
 AtZNuc=   6.0000000   6.0000000   6.0000000   7.0000000   6.0000000   6.0000000   6.0000000   6.0000000   6.0000000   6.0000000

  Atom        41          42          43          44          45          46          47          48          49          50
 IAtWgt=          16          12          12          16          16          12          12          12          12          12
 AtmWgt=  15.9949146  12.0000000  12.0000000  15.9949146  15.9949146  12.0000000  12.0000000  12.0000000  12.0000000  12.0000000
 NucSpn=           0           0           0           0           0           0           0           0           0           0
 AtZEff=  -0.0000000  -0.0000000  -0.0000000  -0.0000000  -0.0000000  -0.0000000  -0.0000000  -0.0000000  -0.0000000  -0.0000000
 NQMom=    0.0000000   0.0000000   0.0000000   0.0000000   0.0000000   0.0000000   0.0000000   0.0000000   0.0000000   0.0000000
 NMagM=    0.0000000   0.0000000   0.0000000   0.0000000   0.0000000   0.0000000   0.0000000   0.0000000   0.0000000   0.0000000
 AtZNuc=   8.0000000   6.0000000   6.0000000   8.0000000   8.0000000   6.0000000   6.0000000   6.0000000   6.0000000   6.0000000

  Atom        51          52          53          54          55          56          57          58          59          60
 IAtWgt=          12          12          12          12          12          12          12          12          12          12
 AtmWgt=  12.0000000  12.0000000  12.0000000  12.0000000  12.0000000  12.0000000  12.0000000  12.0000000  12.0000000  12.0000000
 NucSpn=           0           0           0           0           0           0           0           0           0           0
 AtZEff=  -0.0000000  -0.0000000  -0.0000000  -0.0000000  -0.0000000  -0.0000000  -0.0000000  -0.0000000  -0.0000000  -0.0000000
 NQMom=    0.0000000   0.0000000   0.0000000   0.0000000   0.0000000   0.0000000   0.0000000   0.0000000   0.0000000   0.0000000
 NMagM=    0.0000000   0.0000000   0.0000000   0.0000000   0.0000000   0.0000000   0.0000000   0.0000000   0.0000000   0.0000000
 AtZNuc=   6.0000000   6.0000000   6.0000000   6.0000000   6.0000000   6.0000000   6.0000000   6.0000000   6.0000000   6.0000000

  Atom        61          62          63          64          65          66          67          68          69          70
 IAtWgt=          12          12          12          12          12          12           1           1           1           1
 AtmWgt=  12.0000000  12.0000000  12.0000000  12.0000000  12.0000000  12.0000000   1.0078250   1.0078250   1.0078250   1.0078250
 NucSpn=           0           0           0           0           0           0           1           1           1           1
 AtZEff=  -0.0000000  -0.0000000  -0.0000000  -0.0000000  -0.0000000  -0.0000000  -0.0000000  -0.0000000  -0.0000000  -0.0000000
 NQMom=    0.0000000   0.0000000   0.0000000   0.0000000   0.0000000   0.0000000   0.0000000   0.0000000   0.0000000   0.0000000
 NMagM=    0.0000000   0.0000000   0.0000000   0.0000000   0.0000000   0.0000000   2.7928460   2.7928460   2.7928460   2.7928460
 AtZNuc=   6.0000000   6.0000000   6.0000000   6.0000000   6.0000000   6.0000000   1.0000000   1.0000000   1.0000000   1.0000000

  Atom        71          72          73          74          75          76          77          78          79          80
 IAtWgt=           1           1           1           1           1           1           1           1           1           1
 AtmWgt=   1.0078250   1.0078250   1.0078250   1.0078250   1.0078250   1.0078250   1.0078250   1.0078250   1.0078250   1.0078250
 NucSpn=           1           1           1           1           1           1           1           1           1           1
 AtZEff=  -0.0000000  -0.0000000  -0.0000000  -0.0000000  -0.0000000  -0.0000000  -0.0000000  -0.0000000  -0.0000000  -0.0000000
 NQMom=    0.0000000   0.0000000   0.0000000   0.0000000   0.0000000   0.0000000   0.0000000   0.0000000   0.0000000   0.0000000
 NMagM=    2.7928460   2.7928460   2.7928460   2.7928460   2.7928460   2.7928460   2.7928460   2.7928460   2.7928460   2.7928460
 AtZNuc=   1.0000000   1.0000000   1.0000000   1.0000000   1.0000000   1.0000000   1.0000000   1.0000000   1.0000000   1.0000000

  Atom        81          82          83          84          85          86          87          88          89          90
 IAtWgt=           1           1           1           1           1           1           1           1           1           1
 AtmWgt=   1.0078250   1.0078250   1.0078250   1.0078250   1.0078250   1.0078250   1.0078250   1.0078250   1.0078250   1.0078250
 NucSpn=           1           1           1           1           1           1           1           1           1           1
 AtZEff=  -0.0000000  -0.0000000  -0.0000000  -0.0000000  -0.0000000  -0.0000000  -0.0000000  -0.0000000  -0.0000000  -0.0000000
 NQMom=    0.0000000   0.0000000   0.0000000   0.0000000   0.0000000   0.0000000   0.0000000   0.0000000   0.0000000   0.0000000
 NMagM=    2.7928460   2.7928460   2.7928460   2.7928460   2.7928460   2.7928460   2.7928460   2.7928460   2.7928460   2.7928460
 AtZNuc=   1.0000000   1.0000000   1.0000000   1.0000000   1.0000000   1.0000000   1.0000000   1.0000000   1.0000000   1.0000000

  Atom        91          92          93          94          95          96          97          98          99         100
 IAtWgt=           1           1           1           1           1           1           1           1           1           1
 AtmWgt=   1.0078250   1.0078250   1.0078250   1.0078250   1.0078250   1.0078250   1.0078250   1.0078250   1.0078250   1.0078250
 NucSpn=           1           1           1           1           1           1           1           1           1           1
 AtZEff=  -0.0000000  -0.0000000  -0.0000000  -0.0000000  -0.0000000  -0.0000000  -0.0000000  -0.0000000  -0.0000000  -0.0000000
 NQMom=    0.0000000   0.0000000   0.0000000   0.0000000   0.0000000   0.0000000   0.0000000   0.0000000   0.0000000   0.0000000
 NMagM=    2.7928460   2.7928460   2.7928460   2.7928460   2.7928460   2.7928460   2.7928460   2.7928460   2.7928460   2.7928460
 AtZNuc=   1.0000000   1.0000000   1.0000000   1.0000000   1.0000000   1.0000000   1.0000000   1.0000000   1.0000000   1.0000000

  Atom       101         102         103         104         105         106         107         108         109         110
 IAtWgt=           1           1           1           1           1           1           1           1           1           1
 AtmWgt=   1.0078250   1.0078250   1.0078250   1.0078250   1.0078250   1.0078250   1.0078250   1.0078250   1.0078250   1.0078250
 NucSpn=           1           1           1           1           1           1           1           1           1           1
 AtZEff=  -0.0000000  -0.0000000  -0.0000000  -0.0000000  -0.0000000  -0.0000000  -0.0000000  -0.0000000  -0.0000000  -0.0000000
 NQMom=    0.0000000   0.0000000   0.0000000   0.0000000   0.0000000   0.0000000   0.0000000   0.0000000   0.0000000   0.0000000
 NMagM=    2.7928460   2.7928460   2.7928460   2.7928460   2.7928460   2.7928460   2.7928460   2.7928460   2.7928460   2.7928460
 AtZNuc=   1.0000000   1.0000000   1.0000000   1.0000000   1.0000000   1.0000000   1.0000000   1.0000000   1.0000000   1.0000000

  Atom       111         112         113         114         115         116         117         118         119         120
 IAtWgt=           1           1           1           1           1           1           1           1           1           1
 AtmWgt=   1.0078250   1.0078250   1.0078250   1.0078250   1.0078250   1.0078250   1.0078250   1.0078250   1.0078250   1.0078250
 NucSpn=           1           1           1           1           1           1           1           1           1           1
 AtZEff=  -0.0000000  -0.0000000  -0.0000000  -0.0000000  -0.0000000  -0.0000000  -0.0000000  -0.0000000  -0.0000000  -0.0000000
 NQMom=    0.0000000   0.0000000   0.0000000   0.0000000   0.0000000   0.0000000   0.0000000   0.0000000   0.0000000   0.0000000
 NMagM=    2.7928460   2.7928460   2.7928460   2.7928460   2.7928460   2.7928460   2.7928460   2.7928460   2.7928460   2.7928460
 AtZNuc=   1.0000000   1.0000000   1.0000000   1.0000000   1.0000000   1.0000000   1.0000000   1.0000000   1.0000000   1.0000000

  Atom       121         122         123         124         125         126         127         128         129         130
 IAtWgt=           1           1           1           1           1           1           1           1           1           1
 AtmWgt=   1.0078250   1.0078250   1.0078250   1.0078250   1.0078250   1.0078250   1.0078250   1.0078250   1.0078250   1.0078250
 NucSpn=           1           1           1           1           1           1           1           1           1           1
 AtZEff=  -0.0000000  -0.0000000  -0.0000000  -0.0000000  -0.0000000  -0.0000000  -0.0000000  -0.0000000  -0.0000000  -0.0000000
 NQMom=    0.0000000   0.0000000   0.0000000   0.0000000   0.0000000   0.0000000   0.0000000   0.0000000   0.0000000   0.0000000
 NMagM=    2.7928460   2.7928460   2.7928460   2.7928460   2.7928460   2.7928460   2.7928460   2.7928460   2.7928460   2.7928460
 AtZNuc=   1.0000000   1.0000000   1.0000000   1.0000000   1.0000000   1.0000000   1.0000000   1.0000000   1.0000000   1.0000000

  Atom       131         132         133         134         135         136         137         138         139         140
 IAtWgt=           1           1           1           1           1           1           1           1           1           1
 AtmWgt=   1.0078250   1.0078250   1.0078250   1.0078250   1.0078250   1.0078250   1.0078250   1.0078250   1.0078250   1.0078250
 NucSpn=           1           1           1           1           1           1           1           1           1           1
 AtZEff=  -0.0000000  -0.0000000  -0.0000000  -0.0000000  -0.0000000  -0.0000000  -0.0000000  -0.0000000  -0.0000000  -0.0000000
 NQMom=    0.0000000   0.0000000   0.0000000   0.0000000   0.0000000   0.0000000   0.0000000   0.0000000   0.0000000   0.0000000
 NMagM=    2.7928460   2.7928460   2.7928460   2.7928460   2.7928460   2.7928460   2.7928460   2.7928460   2.7928460   2.7928460
 AtZNuc=   1.0000000   1.0000000   1.0000000   1.0000000   1.0000000   1.0000000   1.0000000   1.0000000   1.0000000   1.0000000
 Leave Link  101 at Tue Apr 26 22:00:16 2022, MaxMem= 10066329600 cpu:               3.1 elap:               0.2
 (Enter /sw/apps/gaussian-16.0/g16/l202.exe)
 Stoichiometry    C55H74MgN4O6
 Framework group  C1[X(C55H74MgN4O6)]
 Deg. of freedom   414
 Full point group                 C1      NOp   1
 Largest Abelian subgroup         C1      NOp   1
 Largest concise Abelian subgroup C1      NOp   1
                         Standard orientation:                         
 ---------------------------------------------------------------------
 Center     Atomic      Atomic             Coordinates (Angstroms)
 Number     Number       Type             X           Y           Z
 ---------------------------------------------------------------------
      1         12           0        5.657469    0.247638    0.313498
      2          6           0        3.227457   -2.296356    0.290727
      3          6           0        3.134978    2.592111   -0.168277
      4          6           0        7.898300    2.613224   -0.408498
      5          6           0        8.156083   -2.125261    0.459566
      6          7           0        3.505599    0.109615    0.131641
      7          6           0        2.725709   -1.014758    0.244877
      8          6           0        1.127987   -0.718962    0.117540
      9          6           0        1.243101    0.833034   -0.054001
     10          6           0        2.711422    1.237607   -0.051749
     11          6           0        0.311282    1.507717   -1.149249
     12          6           0        0.152649   -1.315406    1.198259
     13          6           0       -1.039018   -2.139854    0.765327
     14          6           0       -2.385050   -1.823649    1.395456
     15          8           0       -2.832235   -1.974026    2.532748
     16          8           0       -3.105768   -1.285558    0.399852
     17          7           0        5.550701    2.359989   -0.047013
     18          6           0        4.433648    3.133843   -0.214264
     19          6           0        4.802001    4.549958   -0.435777
     20          6           0        6.236464    4.560007   -0.512417
     21          6           0        6.641165    3.120046   -0.322054
     22          6           0        3.792608    5.594179   -0.601455
     23          6           0        7.164431    5.725956   -0.790160
     24          8           0        8.365185    5.596810   -0.873889
     25          6           0        6.618601    7.129167   -1.042173
     26          7           0        7.714221    0.144285   -0.200007
     27          6           0        8.410298    1.303966   -0.353275
     28          6           0        9.947462    1.121547   -0.247302
     29          6           0        9.982911   -0.383149    0.187445
     30          6           0        8.505011   -0.828789    0.233873
     31          6           0       10.846698    1.470556   -1.491467
     32          6           0       10.780868   -0.569151    1.515824
     33          6           0        9.989683   -0.475905    2.879821
     34          7           0        5.793597   -1.789174    0.341496
     35          6           0        6.916264   -2.647287    0.381660
     36          6           0        6.382712   -3.964217    0.461366
     37          6           0        4.944594   -3.860036    0.391418
     38          6           0        4.642769   -2.503977    0.300352
     39          6           0        7.249715   -5.194718    0.499023
     40          6           0        3.698141   -4.595560    0.359992
     41          8           0        3.465192   -5.828222    0.361433
     42          6           0        2.511195   -3.582068    0.303256
     43          6           0        1.859980   -3.787704   -0.996199
     44          8           0        2.290214   -3.410531   -2.038758
     45          8           0        0.553199   -4.296602   -0.879120
     46          6           0       -0.093584   -4.770121   -2.129291
     47          6           0       -4.471378   -0.864963    0.667025
     48          6           0       -5.001515   -0.408735   -0.682575
     49          6           0       -6.245055    0.166565   -0.865023
     50          6           0       -7.370565    0.348190    0.237326
     51          6           0       -6.841389    0.507746   -2.244673
     52          6           0       -7.824411   -0.503768   -2.913715
     53          6           0       -9.112612    0.144993   -3.360892
     54          6           0      -10.407920   -0.481244   -2.797650
     55          6           0      -10.876843   -1.559980   -3.770684
     56          6           0      -11.413487    0.732944   -2.697657
     57          6           0      -11.229227    1.543192   -1.365105
     58          6           0      -12.446876    1.405776   -0.420786
     59          6           0      -12.283857    0.207540    0.585403
     60          6           0      -13.197640   -0.924319    0.313097
     61          6           0      -12.580406    0.723530    2.096714
     62          6           0      -11.335986    0.749036    3.028061
     63          6           0      -10.668303    2.122098    3.089689
     64          6           0       -9.174689    1.972121    2.978306
     65          6           0       -8.656304    1.292786    4.272461
     66          6           0       -8.451801    3.259274    2.628194
     67          1           0        2.275868    3.196053   -0.469201
     68          1           0        8.592862    3.453269   -0.348766
     69          1           0        8.990573   -2.815735    0.600227
     70          1           0        0.821363   -1.182142   -0.819585
     71          1           0        0.998709    1.264965    0.916620
     72          1           0       -0.520579    0.892091   -1.489814
     73          1           0        0.833145    1.500450   -2.105371
     74          1           0       -0.069561    2.515957   -0.981334
     75          1           0       -0.227949   -0.474299    1.776789
     76          1           0        0.810306   -1.905792    1.835155
     77          1           0       -0.834059   -3.131018    1.170271
     78          1           0       -1.097080   -2.066327   -0.320809
     79          1           0        2.895825    5.368799   -0.024497
     80          1           0        3.468400    5.609592   -1.641740
     81          1           0        4.177620    6.528452   -0.190228
     82          1           0        6.319731    7.087121   -2.090038
     83          1           0        7.453497    7.830005   -1.037919
     84          1           0        5.912708    7.537633   -0.318685
     85          1           0       10.334354    1.790744    0.521529
     86          1           0       10.462586   -0.981309   -0.587794
     87          1           0       10.152420    1.763760   -2.279831
     88          1           0       11.475761    0.687143   -1.913066
     89          1           0       11.461444    2.346366   -1.289042
     90          1           0       11.666135    0.066209    1.556304
     91          1           0       11.230285   -1.562191    1.536060
     92          1           0        8.907569   -0.539667    2.765318
     93          1           0       10.279887    0.415112    3.436724
     94          1           0       10.257579   -1.326251    3.506459
     95          1           0        8.007305   -5.095932    1.276552
     96          1           0        7.708298   -5.267029   -0.487448
     97          1           0        6.554287   -6.012368    0.688665
     98          1           0        1.838356   -3.727323    1.148081
     99          1           0        0.669588   -4.862767   -2.902028
    100          1           0       -0.965183   -4.205507   -2.460386
    101          1           0       -0.396338   -5.810824   -2.013786
    102          1           0       -4.393568   -0.088752    1.427354
    103          1           0       -5.105962   -1.668741    1.038150
    104          1           0       -4.331479   -0.431945   -1.541273
    105          1           0       -8.065167    1.154503    0.001085
    106          1           0       -6.837734    0.603582    1.153199
    107          1           0       -8.008784   -0.512285    0.441908
    108          1           0       -6.100446    0.649334   -3.031409
    109          1           0       -7.256630    1.507454   -2.113609
    110          1           0       -8.043222   -1.356863   -2.271280
    111          1           0       -7.346092   -0.929082   -3.796199
    112          1           0       -9.174537    0.230730   -4.446034
    113          1           0       -8.987421    1.202890   -3.128506
    114          1           0      -10.414232   -0.953401   -1.815242
    115          1           0      -11.723617   -1.286554   -4.400809
    116          1           0      -11.184410   -2.477011   -3.269045
    117          1           0      -10.121966   -1.643839   -4.552801
    118          1           0      -12.434081    0.349223   -2.697217
    119          1           0      -11.290313    1.407385   -3.546030
    120          1           0      -11.101101    2.595310   -1.617094
    121          1           0      -10.324551    1.188067   -0.870408
    122          1           0      -13.345138    1.332838   -1.033481
    123          1           0      -12.561487    2.238055    0.273425
    124          1           0      -11.310691   -0.281775    0.542609
    125          1           0      -14.182966   -0.474336    0.435560
    126          1           0      -13.123518   -1.792316    0.966954
    127          1           0      -13.125993   -1.373506   -0.677109
    128          1           0      -13.154187    0.041367    2.724925
    129          1           0      -13.179410    1.626100    2.213038
    130          1           0      -10.708540   -0.111230    2.795502
    131          1           0      -11.589869    0.524620    4.063524
    132          1           0      -10.841617    2.626574    4.039934
    133          1           0      -11.058141    2.716563    2.262505
    134          1           0       -9.064995    1.239833    2.178696
    135          1           0       -8.179393    0.382102    3.911500
    136          1           0       -9.444847    0.997300    4.964040
    137          1           0       -7.932705    1.961159    4.739427
    138          1           0       -7.750154    3.047509    1.822152
    139          1           0       -7.924629    3.681645    3.484067
    140          1           0       -9.076479    4.057948    2.227532
 ---------------------------------------------------------------------
 Rotational constants (GHZ):           0.0535053           0.0099307           0.0090746
 Leave Link  202 at Tue Apr 26 22:00:16 2022, MaxMem= 10066329600 cpu:               1.7 elap:               0.1
 (Enter /sw/apps/gaussian-16.0/g16/l301.exe)
 Standard basis: def2SVP (5D, 7F)
 Ernie: Thresh=  0.10000D-02 Tol=  0.10000D-05 Strict=F.
 There are  1364 symmetry adapted cartesian basis functions of A   symmetry.
 There are  1298 symmetry adapted basis functions of A   symmetry.
  1298 basis functions,  2180 primitive gaussians,  1364 cartesian basis functions
   246 alpha electrons      246 beta electrons
       nuclear repulsion energy      9652.6340858101 Hartrees.
 IExCor= 4639 DFT=T Ex+Corr=wB97XD ExCW=0 ScaHFX=  1.000000
 ScaDFX=  1.000000  1.000000  1.000000  1.000000 ScalE2=  1.000000  1.000000
 IRadAn=      5 IRanWt=     -1 IRanGd=            0 ICorTp=0 IEmpDi=121
 HFx  wShort=  0.000000 wLong=  0.200000 cFull=  0.222036 cShort=  0.000000 cLong=  0.777964
 DFx  wShort=  0.000000 wLong=  0.200000 cFull=  0.000000 cShort=  0.000000 cLong=  1.000000
 NAtoms=  140 NActive=  140 NUniq=  140 SFac= 1.00D+00 NAtFMM=   60 NAOKFM=T Big=T
 Integral buffers will be    131072 words long.
 Raffenetti 1 integral format.
 Two-electron integral symmetry is turned on.
 R6Disp:  Grimme-D2 Dispersion energy=       -0.1399544398 Hartrees.
 Nuclear repulsion after empirical dispersion term =     9652.4941313702 Hartrees.
 Leave Link  301 at Tue Apr 26 22:00:16 2022, MaxMem= 10066329600 cpu:               1.3 elap:               0.1
 (Enter /sw/apps/gaussian-16.0/g16/l302.exe)
 NPDir=0 NMtPBC=     1 NCelOv=     1 NCel=       1 NClECP=     1 NCelD=      1
         NCelK=      1 NCelE2=     1 NClLst=     1 CellRange=     0.0.
 One-electron integrals computed using PRISM.
 One-electron integral symmetry used in STVInt
   1 Symmetry operations used in ECPInt.
 ECPInt:  NShTT=  192510 NPrTT=  683786 LenC2=   96125 LenP2D=  211538.
 LDataN:  DoStor=T MaxTD1= 4 Len=   56
 NBasis=  1298 RedAO= T EigKep=  2.42D-04  NBF=  1298
 NBsUse=  1298 1.00D-06 EigRej= -1.00D+00 NBFU=  1298
 Precomputing XC quadrature grid using
 IXCGrd= 4 IRadAn=           5 IRanWt=          -1 IRanGd=           0 AccXCQ= 0.00D+00.
 Generated NRdTot=       0 NPtTot=           0 NUsed=           0 NTot=          32
 NSgBfM=  1103  1094  1097  1103  1103 MxSgAt=   140 MxSgA2=   140.
 Leave Link  302 at Tue Apr 26 22:00:20 2022, MaxMem= 10066329600 cpu:              83.0 elap:               3.5
 (Enter /sw/apps/gaussian-16.0/g16/l303.exe)
 DipDrv:  MaxL=1.
 Leave Link  303 at Tue Apr 26 22:00:20 2022, MaxMem= 10066329600 cpu:               5.8 elap:               0.3
 (Enter /sw/apps/gaussian-16.0/g16/l308.exe)
 Leave Link  308 at Tue Apr 26 22:00:21 2022, MaxMem= 10066329600 cpu:               8.5 elap:               0.4
 (Enter /sw/apps/gaussian-16.0/g16/l401.exe)
 ExpMin= 3.36D-02 ExpMax= 4.95D+03 ExpMxC= 7.45D+02 IAcc=3 IRadAn=         5 AccDes= 0.00D+00
 Harris functional with IExCor= 4639 and IRadAn=       5 diagonalized for initial guess.
 HarFok:  IExCor= 4639 AccDes= 0.00D+00 IRadAn=         5 IDoV= 1 UseB2=F ITyADJ=14
 ICtDFT=  3500011 ScaDFX=  1.000000  1.000000  1.000000  1.000000
 FoFCou: FMM=F IPFlag=           0 FMFlag=      100000 FMFlg1=        2001
         NFxFlg=           0 DoJE=T BraDBF=F KetDBF=T FulRan=T
         wScrn=  0.000000 ICntrl=       500 IOpCl=  0 I1Cent=   200000004 NGrid=           0
         NMat0=    1 NMatS0=      1 NMatT0=    0 NMatD0=    1 NMtDS0=    0 NMtDT0=    0
 Petite list used in FoFCou.
 Harris En= -2877.98621038449    
 JPrj=0 DoOrth=F DoCkMO=F.
 Leave Link  401 at Tue Apr 26 22:00:27 2022, MaxMem= 10066329600 cpu:             142.5 elap:               6.0
 (Enter /sw/apps/gaussian-16.0/g16/l502.exe)
 Integral symmetry usage will be decided dynamically.
 Closed shell SCF:
 Using DIIS extrapolation, IDIIS=  1040.
 NGot= 10066329600 LenX= 10062561258 LenY= 10060699398
 Requested convergence on RMS density matrix=1.00D-08 within 128 cycles.
 Requested convergence on MAX density matrix=1.00D-06.
 Requested convergence on             energy=1.00D-06.
 No special actions if energy rises.
 Fock matrices will be formed incrementally for  20 cycles.

 Cycle   1  Pass 1  IDiag  1:
 FoFJK:  IHMeth= 1 ICntrl=       0 DoSepK=T KAlg= 0 I1Cent=           0 FoldK=F
 IRaf=         1 NMat=       1 IRICut=       1 DoRegI=T DoRafI=F ISym2E= 0 IDoP0=0 IntGTp=1.
 FoFCou: FMM=T IPFlag=           0 FMFlag=      100000 FMFlg1=        2001
         NFxFlg=           0 DoJE=T BraDBF=F KetDBF=F FulRan=T
         wScrn=  0.000000 ICntrl=       500 IOpCl=  0 I1Cent=           0 NGrid=           0
         NMat0=    1 NMatS0=      1 NMatT0=    0 NMatD0=    1 NMtDS0=    0 NMtDT0=    0
 Symmetry not used in FoFCou.
 FMM levels:  10  Number of levels for PrismC:   9
 E= -3007.18109232092    
 DIIS: error= 2.42D-02 at cycle   1 NSaved=   1.
 NSaved= 1 IEnMin= 1 EnMin= -3007.18109232092     IErMin= 1 ErrMin= 2.42D-02
 ErrMax= 2.42D-02  0.00D+00 EMaxC= 1.00D-01 BMatC= 1.49D+00 BMatP= 1.49D+00
 IDIUse=3 WtCom= 7.58D-01 WtEn= 2.42D-01
 Coeff-Com:  0.100D+01
 Coeff-En:   0.100D+01
 Coeff:      0.100D+01
 Gap=     0.150 Goal=   None    Shift=    0.000
 GapD=    0.150 DampG=1.000 DampE=0.500 DampFc=0.5000 IDamp=-1.
 Damping current iteration by 5.00D-01
 RMSDP=1.56D-03 MaxDP=2.24D-01              OVMax= 2.14D-01

 Cycle   2  Pass 1  IDiag  1:
 RMSU=  7.69D-04    CP:  9.86D-01
 E= -3007.50097657584     Delta-E=       -0.319884254919 Rises=F Damp=T
 DIIS: error= 1.40D-02 at cycle   2 NSaved=   2.
 NSaved= 2 IEnMin= 2 EnMin= -3007.50097657584     IErMin= 2 ErrMin= 1.40D-02
 ErrMax= 1.40D-02  0.00D+00 EMaxC= 1.00D-01 BMatC= 2.89D-01 BMatP= 1.49D+00
 IDIUse=3 WtCom= 8.60D-01 WtEn= 1.40D-01
 Coeff-Com: -0.352D+00 0.135D+01
 Coeff-En:   0.000D+00 0.100D+01
 Coeff:     -0.303D+00 0.130D+01
 Gap=     0.183 Goal=   None    Shift=    0.000
 RMSDP=7.21D-04 MaxDP=1.01D-01 DE=-3.20D-01 OVMax= 1.77D-01

 Cycle   3  Pass 1  IDiag  1:
 RMSU=  6.71D-04    CP:  9.77D-01  1.33D+00
 E= -3007.73677193684     Delta-E=       -0.235795361004 Rises=F Damp=F
 DIIS: error= 1.31D-02 at cycle   3 NSaved=   3.
 NSaved= 3 IEnMin= 3 EnMin= -3007.73677193684     IErMin= 3 ErrMin= 1.31D-02
 ErrMax= 1.31D-02  0.00D+00 EMaxC= 1.00D-01 BMatC= 1.33D-01 BMatP= 2.89D-01
 IDIUse=3 WtCom= 8.69D-01 WtEn= 1.31D-01
 Coeff-Com: -0.308D+00 0.680D+00 0.628D+00
 Coeff-En:   0.000D+00 0.000D+00 0.100D+01
 Coeff:     -0.268D+00 0.591D+00 0.676D+00
 Gap=     0.159 Goal=   None    Shift=    0.000
 RMSDP=4.37D-04 MaxDP=4.78D-02 DE=-2.36D-01 OVMax= 1.19D-01

 Cycle   4  Pass 1  IDiag  1:
 RMSU=  2.27D-04    CP:  9.73D-01  1.62D+00  5.63D-01
 E= -3007.83705722837     Delta-E=       -0.100285291534 Rises=F Damp=F
 DIIS: error= 4.57D-03 at cycle   4 NSaved=   4.
 NSaved= 4 IEnMin= 4 EnMin= -3007.83705722837     IErMin= 4 ErrMin= 4.57D-03
 ErrMax= 4.57D-03  0.00D+00 EMaxC= 1.00D-01 BMatC= 1.96D-02 BMatP= 1.33D-01
 IDIUse=3 WtCom= 9.54D-01 WtEn= 4.57D-02
 Coeff-Com: -0.116D+00 0.232D+00 0.371D+00 0.513D+00
 Coeff-En:   0.000D+00 0.000D+00 0.965D-01 0.904D+00
 Coeff:     -0.110D+00 0.222D+00 0.358D+00 0.530D+00
 Gap=     0.159 Goal=   None    Shift=    0.000
 RMSDP=1.40D-04 MaxDP=1.67D-02 DE=-1.00D-01 OVMax= 3.64D-02

 Cycle   5  Pass 1  IDiag  1:
 RMSU=  6.32D-05    CP:  9.73D-01  1.58D+00  6.99D-01  6.48D-01
 E= -3007.85384331723     Delta-E=       -0.016786088858 Rises=F Damp=F
 DIIS: error= 6.20D-04 at cycle   5 NSaved=   5.
 NSaved= 5 IEnMin= 5 EnMin= -3007.85384331723     IErMin= 5 ErrMin= 6.20D-04
 ErrMax= 6.20D-04  0.00D+00 EMaxC= 1.00D-01 BMatC= 4.50D-04 BMatP= 1.96D-02
 IDIUse=3 WtCom= 9.94D-01 WtEn= 6.20D-03
 Coeff-Com: -0.303D-01 0.577D-01 0.122D+00 0.231D+00 0.620D+00
 Coeff-En:   0.000D+00 0.000D+00 0.000D+00 0.000D+00 0.100D+01
 Coeff:     -0.301D-01 0.573D-01 0.121D+00 0.230D+00 0.622D+00
 Gap=     0.158 Goal=   None    Shift=    0.000
 RMSDP=3.15D-05 MaxDP=9.29D-03 DE=-1.68D-02 OVMax= 6.03D-03

 Cycle   6  Pass 1  IDiag  1:
 RMSU=  2.50D-05    CP:  9.73D-01  1.59D+00  6.97D-01  7.17D-01  8.67D-01
 E= -3007.85421999697     Delta-E=       -0.000376679740 Rises=F Damp=F
 DIIS: error= 2.62D-04 at cycle   6 NSaved=   6.
 NSaved= 6 IEnMin= 6 EnMin= -3007.85421999697     IErMin= 6 ErrMin= 2.62D-04
 ErrMax= 2.62D-04  0.00D+00 EMaxC= 1.00D-01 BMatC= 7.66D-05 BMatP= 4.50D-04
 IDIUse=3 WtCom= 9.97D-01 WtEn= 2.62D-03
 Coeff-Com:  0.977D-02-0.211D-01-0.161D-01 0.278D-02 0.300D+00 0.725D+00
 Coeff-En:   0.000D+00 0.000D+00 0.000D+00 0.000D+00 0.000D+00 0.100D+01
 Coeff:      0.975D-02-0.210D-01-0.161D-01 0.277D-02 0.299D+00 0.726D+00
 Gap=     0.159 Goal=   None    Shift=    0.000
 RMSDP=1.33D-05 MaxDP=1.99D-03 DE=-3.77D-04 OVMax= 5.32D-03

 Cycle   7  Pass 1  IDiag  1:
 RMSU=  9.35D-06    CP:  9.73D-01  1.59D+00  7.03D-01  7.27D-01  9.87D-01
                    CP:  8.89D-01
 E= -3007.85431886893     Delta-E=       -0.000098871953 Rises=F Damp=F
 DIIS: error= 9.08D-05 at cycle   7 NSaved=   7.
 NSaved= 7 IEnMin= 7 EnMin= -3007.85431886893     IErMin= 7 ErrMin= 9.08D-05
 ErrMax= 9.08D-05  0.00D+00 EMaxC= 1.00D-01 BMatC= 1.02D-05 BMatP= 7.66D-05
 IDIUse=1 WtCom= 1.00D+00 WtEn= 0.00D+00
 Coeff-Com:  0.726D-02-0.148D-01-0.186D-01-0.235D-01 0.606D-01 0.323D+00
 Coeff-Com:  0.666D+00
 Coeff:      0.726D-02-0.148D-01-0.186D-01-0.235D-01 0.606D-01 0.323D+00
 Coeff:      0.666D+00
 Gap=     0.159 Goal=   None    Shift=    0.000
 RMSDP=6.48D-06 MaxDP=2.11D-03 DE=-9.89D-05 OVMax= 2.23D-03

 Cycle   8  Pass 1  IDiag  1:
 RMSU=  4.08D-06    CP:  9.73D-01  1.59D+00  7.04D-01  7.35D-01  1.01D+00
                    CP:  1.06D+00  1.06D+00
 E= -3007.85433913534     Delta-E=       -0.000020266416 Rises=F Damp=F
 DIIS: error= 3.48D-05 at cycle   8 NSaved=   8.
 NSaved= 8 IEnMin= 8 EnMin= -3007.85433913534     IErMin= 8 ErrMin= 3.48D-05
 ErrMax= 3.48D-05  0.00D+00 EMaxC= 1.00D-01 BMatC= 1.88D-06 BMatP= 1.02D-05
 IDIUse=1 WtCom= 1.00D+00 WtEn= 0.00D+00
 Coeff-Com:  0.123D-02-0.219D-02-0.502D-02-0.121D-01-0.425D-01-0.157D-01
 Coeff-Com:  0.262D+00 0.814D+00
 Coeff:      0.123D-02-0.219D-02-0.502D-02-0.121D-01-0.425D-01-0.157D-01
 Coeff:      0.262D+00 0.814D+00
 Gap=     0.160 Goal=   None    Shift=    0.000
 RMSDP=3.93D-06 MaxDP=3.09D-04 DE=-2.03D-05 OVMax= 2.38D-03

 Cycle   9  Pass 1  IDiag  1:
 RMSU=  2.18D-06    CP:  9.73D-01  1.59D+00  7.05D-01  7.37D-01  1.03D+00
                    CP:  1.11D+00  1.33D+00  1.29D+00
 E= -3007.85434885853     Delta-E=       -0.000009723184 Rises=F Damp=F
 DIIS: error= 2.18D-05 at cycle   9 NSaved=   9.
 NSaved= 9 IEnMin= 9 EnMin= -3007.85434885853     IErMin= 9 ErrMin= 2.18D-05
 ErrMax= 2.18D-05  0.00D+00 EMaxC= 1.00D-01 BMatC= 6.63D-07 BMatP= 1.88D-06
 IDIUse=1 WtCom= 1.00D+00 WtEn= 0.00D+00
 Coeff-Com: -0.138D-02 0.287D-02 0.298D-02 0.207D-02-0.272D-01-0.783D-01
 Coeff-Com: -0.101D+00 0.293D+00 0.907D+00
 Coeff:     -0.138D-02 0.287D-02 0.298D-02 0.207D-02-0.272D-01-0.783D-01
 Coeff:     -0.101D+00 0.293D+00 0.907D+00
 Gap=     0.160 Goal=   None    Shift=    0.000
 RMSDP=3.16D-06 MaxDP=4.61D-04 DE=-9.72D-06 OVMax= 1.89D-03

 Cycle  10  Pass 1  IDiag  1:
 RMSU=  1.13D-06    CP:  9.73D-01  1.59D+00  7.05D-01  7.39D-01  1.03D+00
                    CP:  1.15D+00  1.49D+00  1.74D+00  1.52D+00
 E= -3007.85435370675     Delta-E=       -0.000004848223 Rises=F Damp=F
 DIIS: error= 1.45D-05 at cycle  10 NSaved=  10.
 NSaved=10 IEnMin=10 EnMin= -3007.85435370675     IErMin=10 ErrMin= 1.45D-05
 ErrMax= 1.45D-05  0.00D+00 EMaxC= 1.00D-01 BMatC= 2.25D-07 BMatP= 6.63D-07
 IDIUse=1 WtCom= 1.00D+00 WtEn= 0.00D+00
 Coeff-Com: -0.120D-02 0.233D-02 0.360D-02 0.651D-02 0.609D-02-0.297D-01
 Coeff-Com: -0.180D+00-0.187D+00 0.376D+00 0.100D+01
 Coeff:     -0.120D-02 0.233D-02 0.360D-02 0.651D-02 0.609D-02-0.297D-01
 Coeff:     -0.180D+00-0.187D+00 0.376D+00 0.100D+01
 Gap=     0.160 Goal=   None    Shift=    0.000
 RMSDP=2.78D-06 MaxDP=2.39D-04 DE=-4.85D-06 OVMax= 1.87D-03

 Cycle  11  Pass 1  IDiag  1:
 RMSU=  7.03D-07    CP:  9.73D-01  1.59D+00  7.05D-01  7.40D-01  1.04D+00
                    CP:  1.18D+00  1.64D+00  2.11D+00  2.22D+00  1.54D+00
 E= -3007.85435626251     Delta-E=       -0.000002555760 Rises=F Damp=F
 DIIS: error= 9.55D-06 at cycle  11 NSaved=  11.
 NSaved=11 IEnMin=11 EnMin= -3007.85435626251     IErMin=11 ErrMin= 9.55D-06
 ErrMax= 9.55D-06  0.00D+00 EMaxC= 1.00D-01 BMatC= 7.85D-08 BMatP= 2.25D-07
 IDIUse=1 WtCom= 1.00D+00 WtEn= 0.00D+00
 Coeff-Com: -0.129D-03 0.209D-03 0.682D-03 0.235D-02 0.102D-01 0.992D-02
 Coeff-Com: -0.532D-01-0.149D+00-0.120D+00 0.444D+00 0.855D+00
 Coeff:     -0.129D-03 0.209D-03 0.682D-03 0.235D-02 0.102D-01 0.992D-02
 Coeff:     -0.532D-01-0.149D+00-0.120D+00 0.444D+00 0.855D+00
 Gap=     0.160 Goal=   None    Shift=    0.000
 RMSDP=1.43D-06 MaxDP=1.18D-04 DE=-2.56D-06 OVMax= 9.20D-04

 Cycle  12  Pass 1  IDiag  1:
 RMSU=  3.55D-07    CP:  9.73D-01  1.59D+00  7.05D-01  7.40D-01  1.04D+00
                    CP:  1.18D+00  1.70D+00  2.30D+00  2.56D+00  2.06D+00
                    CP:  1.37D+00
 E= -3007.85435691536     Delta-E=       -0.000000652852 Rises=F Damp=F
 DIIS: error= 3.55D-06 at cycle  12 NSaved=  12.
 NSaved=12 IEnMin=12 EnMin= -3007.85435691536     IErMin=12 ErrMin= 3.55D-06
 ErrMax= 3.55D-06  0.00D+00 EMaxC= 1.00D-01 BMatC= 1.88D-08 BMatP= 7.85D-08
 IDIUse=1 WtCom= 1.00D+00 WtEn= 0.00D+00
 Coeff-Com:  0.396D-03-0.785D-03-0.112D-02-0.151D-02 0.909D-03 0.140D-01
 Coeff-Com:  0.488D-01 0.297D-01-0.182D+00-0.251D+00 0.268D+00 0.107D+01
 Coeff:      0.396D-03-0.785D-03-0.112D-02-0.151D-02 0.909D-03 0.140D-01
 Coeff:      0.488D-01 0.297D-01-0.182D+00-0.251D+00 0.268D+00 0.107D+01
 Gap=     0.160 Goal=   None    Shift=    0.000
 RMSDP=9.47D-07 MaxDP=7.61D-05 DE=-6.53D-07 OVMax= 6.10D-04

 Cycle  13  Pass 1  IDiag  1:
 RMSU=  1.84D-07    CP:  9.73D-01  1.59D+00  7.05D-01  7.40D-01  1.04D+00
                    CP:  1.19D+00  1.73D+00  2.39D+00  2.80D+00  2.43D+00
                    CP:  1.92D+00  1.48D+00
 E= -3007.85435710172     Delta-E=       -0.000000186361 Rises=F Damp=F
 DIIS: error= 1.57D-06 at cycle  13 NSaved=  13.
 NSaved=13 IEnMin=13 EnMin= -3007.85435710172     IErMin=13 ErrMin= 1.57D-06
 ErrMax= 1.57D-06  0.00D+00 EMaxC= 1.00D-01 BMatC= 4.04D-09 BMatP= 1.88D-08
 IDIUse=1 WtCom= 1.00D+00 WtEn= 0.00D+00
 Coeff-Com:  0.193D-03-0.378D-03-0.615D-03-0.104D-02-0.146D-02 0.385D-02
 Coeff-Com:  0.297D-01 0.396D-01-0.523D-01-0.187D+00-0.393D-01 0.461D+00
 Coeff-Com:  0.748D+00
 Coeff:      0.193D-03-0.378D-03-0.615D-03-0.104D-02-0.146D-02 0.385D-02
 Coeff:      0.297D-01 0.396D-01-0.523D-01-0.187D+00-0.393D-01 0.461D+00
 Coeff:      0.748D+00
 Gap=     0.160 Goal=   None    Shift=    0.000
 RMSDP=2.58D-07 MaxDP=2.25D-05 DE=-1.86D-07 OVMax= 1.73D-04

 Cycle  14  Pass 1  IDiag  1:
 RMSU=  8.46D-08    CP:  9.73D-01  1.59D+00  7.05D-01  7.40D-01  1.04D+00
                    CP:  1.19D+00  1.74D+00  2.40D+00  2.85D+00  2.53D+00
                    CP:  2.09D+00  1.73D+00  1.18D+00
 E= -3007.85435712139     Delta-E=       -0.000000019665 Rises=F Damp=F
 DIIS: error= 8.02D-07 at cycle  14 NSaved=  14.
 NSaved=14 IEnMin=14 EnMin= -3007.85435712139     IErMin=14 ErrMin= 8.02D-07
 ErrMax= 8.02D-07  0.00D+00 EMaxC= 1.00D-01 BMatC= 8.31D-10 BMatP= 4.04D-09
 IDIUse=1 WtCom= 1.00D+00 WtEn= 0.00D+00
 Coeff-Com: -0.499D-05 0.129D-04-0.139D-04-0.829D-04-0.714D-03-0.135D-02
 Coeff-Com:  0.936D-03 0.865D-02 0.183D-01-0.203D-01-0.721D-01-0.414D-01
 Coeff-Com:  0.248D+00 0.860D+00
 Coeff:     -0.499D-05 0.129D-04-0.139D-04-0.829D-04-0.714D-03-0.135D-02
 Coeff:      0.936D-03 0.865D-02 0.183D-01-0.203D-01-0.721D-01-0.414D-01
 Coeff:      0.248D+00 0.860D+00
 Gap=     0.160 Goal=   None    Shift=    0.000
 RMSDP=1.22D-07 MaxDP=2.13D-05 DE=-1.97D-08 OVMax= 7.51D-05

 Cycle  15  Pass 1  IDiag  1:
 RMSU=  4.49D-08    CP:  9.73D-01  1.59D+00  7.05D-01  7.40D-01  1.04D+00
                    CP:  1.19D+00  1.74D+00  2.41D+00  2.87D+00  2.57D+00
                    CP:  2.17D+00  1.86D+00  1.47D+00  1.33D+00
 E= -3007.85435712617     Delta-E=       -0.000000004788 Rises=F Damp=F
 DIIS: error= 6.38D-07 at cycle  15 NSaved=  15.
 NSaved=15 IEnMin=15 EnMin= -3007.85435712617     IErMin=15 ErrMin= 6.38D-07
 ErrMax= 6.38D-07  0.00D+00 EMaxC= 1.00D-01 BMatC= 2.95D-10 BMatP= 8.31D-10
 IDIUse=1 WtCom= 1.00D+00 WtEn= 0.00D+00
 Coeff-Com: -0.576D-04 0.114D-03 0.166D-03 0.259D-03 0.527D-04-0.163D-02
 Coeff-Com: -0.814D-02-0.735D-02 0.230D-01 0.428D-01-0.196D-01-0.134D+00
 Coeff-Com: -0.112D+00 0.388D+00 0.828D+00
 Coeff:     -0.576D-04 0.114D-03 0.166D-03 0.259D-03 0.527D-04-0.163D-02
 Coeff:     -0.814D-02-0.735D-02 0.230D-01 0.428D-01-0.196D-01-0.134D+00
 Coeff:     -0.112D+00 0.388D+00 0.828D+00
 Gap=     0.160 Goal=   None    Shift=    0.000
 RMSDP=6.63D-08 MaxDP=8.14D-06 DE=-4.79D-09 OVMax= 4.94D-05

 Cycle  16  Pass 1  IDiag  1:
 RMSU=  2.77D-08    CP:  9.73D-01  1.59D+00  7.05D-01  7.40D-01  1.04D+00
                    CP:  1.19D+00  1.74D+00  2.41D+00  2.87D+00  2.58D+00
                    CP:  2.19D+00  1.93D+00  1.63D+00  1.76D+00  1.38D+00
 E= -3007.85435712815     Delta-E=       -0.000000001974 Rises=F Damp=F
 DIIS: error= 2.64D-07 at cycle  16 NSaved=  16.
 NSaved=16 IEnMin=16 EnMin= -3007.85435712815     IErMin=16 ErrMin= 2.64D-07
 ErrMax= 2.64D-07  0.00D+00 EMaxC= 1.00D-01 BMatC= 1.11D-10 BMatP= 2.95D-10
 IDIUse=1 WtCom= 1.00D+00 WtEn= 0.00D+00
 Coeff-Com: -0.108D-04 0.204D-04 0.371D-04 0.794D-04 0.203D-03 0.184D-03
 Coeff-Com: -0.229D-02-0.408D-02 0.102D-02 0.148D-01 0.126D-01-0.141D-01
 Coeff-Com: -0.119D+00-0.186D+00 0.267D+00 0.103D+01
 Coeff:     -0.108D-04 0.204D-04 0.371D-04 0.794D-04 0.203D-03 0.184D-03
 Coeff:     -0.229D-02-0.408D-02 0.102D-02 0.148D-01 0.126D-01-0.141D-01
 Coeff:     -0.119D+00-0.186D+00 0.267D+00 0.103D+01
 Gap=     0.160 Goal=   None    Shift=    0.000
 RMSDP=5.73D-08 MaxDP=8.17D-06 DE=-1.97D-09 OVMax= 3.94D-05

 Cycle  17  Pass 1  IDiag  1:
 RMSU=  1.37D-08    CP:  9.73D-01  1.59D+00  7.05D-01  7.40D-01  1.04D+00
                    CP:  1.18D+00  1.74D+00  2.41D+00  2.88D+00  2.58D+00
                    CP:  2.21D+00  1.97D+00  1.75D+00  2.09D+00  1.99D+00
                    CP:  1.65D+00
 E= -3007.85435712930     Delta-E=       -0.000000001150 Rises=F Damp=F
 DIIS: error= 1.69D-07 at cycle  17 NSaved=  17.
 NSaved=17 IEnMin=17 EnMin= -3007.85435712930     IErMin=17 ErrMin= 1.69D-07
 ErrMax= 1.69D-07  0.00D+00 EMaxC= 1.00D-01 BMatC= 3.20D-11 BMatP= 1.11D-10
 IDIUse=1 WtCom= 1.00D+00 WtEn= 0.00D+00
 Coeff-Com:  0.207D-04-0.415D-04-0.610D-04-0.836D-04 0.365D-04 0.847D-03
 Coeff-Com:  0.264D-02 0.188D-02-0.957D-02-0.143D-01 0.126D-01 0.617D-01
 Coeff-Com:  0.254D-02-0.239D+00-0.211D+00 0.256D+00 0.114D+01
 Coeff:      0.207D-04-0.415D-04-0.610D-04-0.836D-04 0.365D-04 0.847D-03
 Coeff:      0.264D-02 0.188D-02-0.957D-02-0.143D-01 0.126D-01 0.617D-01
 Coeff:      0.254D-02-0.239D+00-0.211D+00 0.256D+00 0.114D+01
 Gap=     0.160 Goal=   None    Shift=    0.000
 RMSDP=4.28D-08 MaxDP=3.41D-06 DE=-1.15D-09 OVMax= 3.12D-05

 Cycle  18  Pass 1  IDiag  1:
 RMSU=  8.09D-09    CP:  9.73D-01  1.59D+00  7.05D-01  7.40D-01  1.04D+00
                    CP:  1.18D+00  1.74D+00  2.41D+00  2.88D+00  2.59D+00
                    CP:  2.22D+00  1.99D+00  1.83D+00  2.34D+00  2.49D+00
                    CP:  2.39D+00  1.59D+00
 E= -3007.85435712968     Delta-E=       -0.000000000382 Rises=F Damp=F
 DIIS: error= 1.14D-07 at cycle  18 NSaved=  18.
 NSaved=18 IEnMin=18 EnMin= -3007.85435712968     IErMin=18 ErrMin= 1.14D-07
 ErrMax= 1.14D-07  0.00D+00 EMaxC= 1.00D-01 BMatC= 1.35D-11 BMatP= 3.20D-11
 IDIUse=1 WtCom= 1.00D+00 WtEn= 0.00D+00
 Coeff-Com:  0.123D-04-0.242D-04-0.396D-04-0.611D-04-0.552D-04 0.327D-03
 Coeff-Com:  0.182D-02 0.224D-02-0.429D-02-0.112D-01 0.892D-03 0.327D-01
 Coeff-Com:  0.367D-01-0.506D-01-0.158D+00-0.266D+00 0.553D+00 0.863D+00
 Coeff:      0.123D-04-0.242D-04-0.396D-04-0.611D-04-0.552D-04 0.327D-03
 Coeff:      0.182D-02 0.224D-02-0.429D-02-0.112D-01 0.892D-03 0.327D-01
 Coeff:      0.367D-01-0.506D-01-0.158D+00-0.266D+00 0.553D+00 0.863D+00
 Gap=     0.160 Goal=   None    Shift=    0.000
 RMSDP=2.20D-08 MaxDP=1.73D-06 DE=-3.82D-10 OVMax= 1.54D-05

 Cycle  19  Pass 1  IDiag  1:
 RMSU=  4.19D-09    CP:  9.73D-01  1.59D+00  7.05D-01  7.40D-01  1.04D+00
                    CP:  1.18D+00  1.74D+00  2.40D+00  2.88D+00  2.59D+00
                    CP:  2.23D+00  2.00D+00  1.86D+00  2.46D+00  2.75D+00
                    CP:  2.76D+00  2.11D+00  1.23D+00
 E= -3007.85435712992     Delta-E=       -0.000000000238 Rises=F Damp=F
 DIIS: error= 3.69D-08 at cycle  19 NSaved=  19.
 NSaved=19 IEnMin=19 EnMin= -3007.85435712992     IErMin=19 ErrMin= 3.69D-08
 ErrMax= 3.69D-08  0.00D+00 EMaxC= 1.00D-01 BMatC= 2.30D-12 BMatP= 1.35D-11
 IDIUse=1 WtCom= 1.00D+00 WtEn= 0.00D+00
 Coeff-Com: -0.234D-06 0.672D-06-0.126D-05-0.333D-05-0.366D-04-0.762D-04
 Coeff-Com:  0.561D-04 0.471D-03 0.638D-03-0.128D-02-0.298D-02-0.168D-02
 Coeff-Com:  0.137D-01 0.372D-01-0.278D-02-0.193D+00-0.339D-01 0.343D+00
 Coeff-Com:  0.841D+00
 Coeff:     -0.234D-06 0.672D-06-0.126D-05-0.333D-05-0.366D-04-0.762D-04
 Coeff:      0.561D-04 0.471D-03 0.638D-03-0.128D-02-0.298D-02-0.168D-02
 Coeff:      0.137D-01 0.372D-01-0.278D-02-0.193D+00-0.339D-01 0.343D+00
 Coeff:      0.841D+00
 Gap=     0.160 Goal=   None    Shift=    0.000
 RMSDP=8.28D-09 MaxDP=6.87D-07 DE=-2.38D-10 OVMax= 5.83D-06

 SCF Done:  E(RwB97XD) =  -3007.85435713     A.U. after   19 cycles
            NFock= 19  Conv=0.83D-08     -V/T= 2.0108
 KE= 2.975848272829D+03 PE=-2.629762071698D+04 EE= 1.066142395566D+04
 Leave Link  502 at Tue Apr 26 22:08:09 2022, MaxMem= 10066329600 cpu:           10681.0 elap:             462.9
 (Enter /sw/apps/gaussian-16.0/g16/l801.exe)
 DoSCS=F DFT=T ScalE2(SS,OS)=  1.000000  1.000000
 ExpMin= 3.36D-02 ExpMax= 4.95D+03 ExpMxC= 7.45D+02 IAcc=3 IRadAn=         5 AccDes= 0.00D+00
 HarFok:  IExCor=  205 AccDes= 0.00D+00 IRadAn=         5 IDoV=-2 UseB2=F ITyADJ=14
 ICtDFT= 12500011 ScaDFX=  1.000000  1.000000  1.000000  1.000000
 GSVD:  LWork=       -5460 too small for GESVD, short by       25550 words or       25550 for optimal perf.
 Largest valence mixing into a core orbital is  1.49D-04
 Largest core mixing into a valence orbital is  5.64D-05
 Range of M.O.s used for correlation:    71  1298
 NBasis=  1298 NAE=   246 NBE=   246 NFC=    70 NFV=     0
 NROrb=   1228 NOA=   176 NOB=   176 NVA=  1052 NVB=  1052
 Leave Link  801 at Tue Apr 26 22:08:10 2022, MaxMem= 10066329600 cpu:               6.1 elap:               0.3
 (Enter /sw/apps/gaussian-16.0/g16/l914.exe)
 RHF ground state
 Two-electron integrals replicated using symmetry.
 MDV= 10066329600 DFT=T DoStab=F Mixed=T DoRPA=T DoScal=F NonHer=T
 Making orbital integer symmetry assigments:
 Orbital symmetries:
       Occupied  (A) (A) (A) (A) (A) (A) (A) (A) (A) (A) (A) (A)
                 (A) (A) (A) (A) (A) (A) (A) (A) (A) (A) (A) (A)
                 (A) (A) (A) (A) (A) (A) (A) (A) (A) (A) (A) (A)
                 (A) (A) (A) (A) (A) (A) (A) (A) (A) (A) (A) (A)
                 (A) (A) (A) (A) (A) (A) (A) (A) (A) (A) (A) (A)
                 (A) (A) (A) (A) (A) (A) (A) (A) (A) (A) (A) (A)
                 (A) (A) (A) (A) (A) (A) (A) (A) (A) (A) (A) (A)
                 (A) (A) (A) (A) (A) (A) (A) (A) (A) (A) (A) (A)
                 (A) (A) (A) (A) (A) (A) (A) (A) (A) (A) (A) (A)
                 (A) (A) (A) (A) (A) (A) (A) (A) (A) (A) (A) (A)
                 (A) (A) (A) (A) (A) (A) (A) (A) (A) (A) (A) (A)
                 (A) (A) (A) (A) (A) (A) (A) (A) (A) (A) (A) (A)
                 (A) (A) (A) (A) (A) (A) (A) (A) (A) (A) (A) (A)
                 (A) (A) (A) (A) (A) (A) (A) (A) (A) (A) (A) (A)
                 (A) (A) (A) (A) (A) (A) (A) (A) (A) (A) (A) (A)
                 (A) (A) (A) (A) (A) (A) (A) (A) (A) (A) (A) (A)
                 (A) (A) (A) (A) (A) (A) (A) (A) (A) (A) (A) (A)
                 (A) (A) (A) (A) (A) (A) (A) (A) (A) (A) (A) (A)
                 (A) (A) (A) (A) (A) (A) (A) (A) (A) (A) (A) (A)
                 (A) (A) (A) (A) (A) (A) (A) (A) (A) (A) (A) (A)
                 (A) (A) (A) (A) (A) (A)
       Virtual   (A) (A) (A) (A) (A) (A) (A) (A) (A) (A) (A) (A)
                 (A) (A) (A) (A) (A) (A) (A) (A) (A) (A) (A) (A)
                 (A) (A) (A) (A) (A) (A) (A) (A) (A) (A) (A) (A)
                 (A) (A) (A) (A) (A) (A) (A) (A) (A) (A) (A) (A)
                 (A) (A) (A) (A) (A) (A) (A) (A) (A) (A) (A) (A)
                 (A) (A) (A) (A) (A) (A) (A) (A) (A) (A) (A) (A)
                 (A) (A) (A) (A) (A) (A) (A) (A) (A) (A) (A) (A)
                 (A) (A) (A) (A) (A) (A) (A) (A) (A) (A) (A) (A)
                 (A) (A) (A) (A) (A) (A) (A) (A) (A) (A) (A) (A)
                 (A) (A) (A) (A) (A) (A) (A) (A) (A) (A) (A) (A)
                 (A) (A) (A) (A) (A) (A) (A) (A) (A) (A) (A) (A)
                 (A) (A) (A) (A) (A) (A) (A) (A) (A) (A) (A) (A)
                 (A) (A) (A) (A) (A) (A) (A) (A) (A) (A) (A) (A)
                 (A) (A) (A) (A) (A) (A) (A) (A) (A) (A) (A) (A)
                 (A) (A) (A) (A) (A) (A) (A) (A) (A) (A) (A) (A)
                 (A) (A) (A) (A) (A) (A) (A) (A) (A) (A) (A) (A)
                 (A) (A) (A) (A) (A) (A) (A) (A) (A) (A) (A) (A)
                 (A) (A) (A) (A) (A) (A) (A) (A) (A) (A) (A) (A)
                 (A) (A) (A) (A) (A) (A) (A) (A) (A) (A) (A) (A)
                 (A) (A) (A) (A) (A) (A) (A) (A) (A) (A) (A) (A)
                 (A) (A) (A) (A) (A) (A) (A) (A) (A) (A) (A) (A)
                 (A) (A) (A) (A) (A) (A) (A) (A) (A) (A) (A) (A)
                 (A) (A) (A) (A) (A) (A) (A) (A) (A) (A) (A) (A)
                 (A) (A) (A) (A) (A) (A) (A) (A) (A) (A) (A) (A)
                 (A) (A) (A) (A) (A) (A) (A) (A) (A) (A) (A) (A)
                 (A) (A) (A) (A) (A) (A) (A) (A) (A) (A) (A) (A)
                 (A) (A) (A) (A) (A) (A) (A) (A) (A) (A) (A) (A)
                 (A) (A) (A) (A) (A) (A) (A) (A) (A) (A) (A) (A)
                 (A) (A) (A) (A) (A) (A) (A) (A) (A) (A) (A) (A)
                 (A) (A) (A) (A) (A) (A) (A) (A) (A) (A) (A) (A)
                 (A) (A) (A) (A) (A) (A) (A) (A) (A) (A) (A) (A)
                 (A) (A) (A) (A) (A) (A) (A) (A) (A) (A) (A) (A)
                 (A) (A) (A) (A) (A) (A) (A) (A) (A) (A) (A) (A)
                 (A) (A) (A) (A) (A) (A) (A) (A) (A) (A) (A) (A)
                 (A) (A) (A) (A) (A) (A) (A) (A) (A) (A) (A) (A)
                 (A) (A) (A) (A) (A) (A) (A) (A) (A) (A) (A) (A)
                 (A) (A) (A) (A) (A) (A) (A) (A) (A) (A) (A) (A)
                 (A) (A) (A) (A) (A) (A) (A) (A) (A) (A) (A) (A)
                 (A) (A) (A) (A) (A) (A) (A) (A) (A) (A) (A) (A)
                 (A) (A) (A) (A) (A) (A) (A) (A) (A) (A) (A) (A)
                 (A) (A) (A) (A) (A) (A) (A) (A) (A) (A) (A) (A)
                 (A) (A) (A) (A) (A) (A) (A) (A) (A) (A) (A) (A)
                 (A) (A) (A) (A) (A) (A) (A) (A) (A) (A) (A) (A)
                 (A) (A) (A) (A) (A) (A) (A) (A) (A) (A) (A) (A)
                 (A) (A) (A) (A) (A) (A) (A) (A) (A) (A) (A) (A)
                 (A) (A) (A) (A) (A) (A) (A) (A) (A) (A) (A) (A)
                 (A) (A) (A) (A) (A) (A) (A) (A) (A) (A) (A) (A)
                 (A) (A) (A) (A) (A) (A) (A) (A) (A) (A) (A) (A)
                 (A) (A) (A) (A) (A) (A) (A) (A) (A) (A) (A) (A)
                 (A) (A) (A) (A) (A) (A) (A) (A) (A) (A) (A) (A)
                 (A) (A) (A) (A) (A) (A) (A) (A) (A) (A) (A) (A)
                 (A) (A) (A) (A) (A) (A) (A) (A) (A) (A) (A) (A)
                 (A) (A) (A) (A) (A) (A) (A) (A) (A) (A) (A) (A)
                 (A) (A) (A) (A) (A) (A) (A) (A) (A) (A) (A) (A)
                 (A) (A) (A) (A) (A) (A) (A) (A) (A) (A) (A) (A)
                 (A) (A) (A) (A) (A) (A) (A) (A) (A) (A) (A) (A)
                 (A) (A) (A) (A) (A) (A) (A) (A) (A) (A) (A) (A)
                 (A) (A) (A) (A) (A) (A) (A) (A) (A) (A) (A) (A)
                 (A) (A) (A) (A) (A) (A) (A) (A) (A) (A) (A) (A)
                 (A) (A) (A) (A) (A) (A) (A) (A) (A) (A) (A) (A)
                 (A) (A) (A) (A) (A) (A) (A) (A) (A) (A) (A) (A)
                 (A) (A) (A) (A) (A) (A) (A) (A) (A) (A) (A) (A)
                 (A) (A) (A) (A) (A) (A) (A) (A) (A) (A) (A) (A)
                 (A) (A) (A) (A) (A) (A) (A) (A) (A) (A) (A) (A)
                 (A) (A) (A) (A) (A) (A) (A) (A) (A) (A) (A) (A)
                 (A) (A) (A) (A) (A) (A) (A) (A) (A) (A) (A) (A)
                 (A) (A) (A) (A) (A) (A) (A) (A) (A) (A) (A) (A)
                 (A) (A) (A) (A) (A) (A) (A) (A) (A) (A) (A) (A)
                 (A) (A) (A) (A) (A) (A) (A) (A) (A) (A) (A) (A)
                 (A) (A) (A) (A) (A) (A) (A) (A) (A) (A) (A) (A)
                 (A) (A) (A) (A) (A) (A) (A) (A) (A) (A) (A) (A)
                 (A) (A) (A) (A) (A) (A) (A) (A) (A) (A) (A) (A)
                 (A) (A) (A) (A) (A) (A) (A) (A) (A) (A) (A) (A)
                 (A) (A) (A) (A) (A) (A) (A) (A) (A) (A) (A) (A)
                 (A) (A) (A) (A) (A) (A) (A) (A) (A) (A) (A) (A)
                 (A) (A) (A) (A) (A) (A) (A) (A) (A) (A) (A) (A)
                 (A) (A) (A) (A) (A) (A) (A) (A) (A) (A) (A) (A)
                 (A) (A) (A) (A) (A) (A) (A) (A) (A) (A) (A) (A)
                 (A) (A) (A) (A) (A) (A) (A) (A) (A) (A) (A) (A)
                 (A) (A) (A) (A) (A) (A) (A) (A) (A) (A) (A) (A)
                 (A) (A) (A) (A) (A) (A) (A) (A) (A) (A) (A) (A)
                 (A) (A) (A) (A) (A) (A) (A) (A) (A) (A) (A) (A)
                 (A) (A) (A) (A) (A) (A) (A) (A) (A) (A) (A) (A)
                 (A) (A) (A) (A) (A) (A) (A) (A) (A) (A) (A) (A)
                 (A) (A) (A) (A) (A) (A) (A) (A) (A) (A) (A) (A)
                 (A) (A) (A) (A) (A) (A) (A) (A) (A) (A) (A) (A)
                 (A) (A) (A) (A) (A) (A) (A) (A) (A) (A) (A) (A)
                 (A) (A) (A) (A) (A) (A) (A) (A)
    20 initial guesses have been made.
 Convergence on wavefunction:    0.001000000000000
 Davidson Disk Diagonalization:  ConvIn= 1.00D-03 SkipCon=T Conv= 1.00D-03.
 Max sub-space:  2000 roots to seek:    20 dimension of matrix:       370304
 Iteration     1 Dimension    20 NMult     0 NNew     20
 CISAX will form    20 AO SS matrices at one time.
 NMat=    20 NSing=    20 JSym2X= 0.
 FoFJK:  IHMeth= 1 ICntrl=       0 DoSepK=T KAlg= 0 I1Cent=           0 FoldK=F
 IRaf=         1 NMat=      40 IRICut=       1 DoRegI=T DoRafI=F ISym2E= 0 IDoP0=3 IntGTp=3.
 FoFCou: FMM=T IPFlag=           0 FMFlag=      100000 FMFlg1=        2001
         NFxFlg=           0 DoJE=F BraDBF=F KetDBF=F FulRan=T
         wScrn=  0.000000 ICntrl=       500 IOpCl=  0 I1Cent=           0 NGrid=           0
         NMat0=   20 NMatS0=     20 NMatT0=    0 NMatD0=   20 NMtDS0=    0 NMtDT0=    0
 Symmetry not used in FoFCou.
 FMM levels:  10  Number of levels for PrismC:   9
 New state      3 was old state      4
 New state      4 was old state      8
 Excitation Energies [eV] at current iteration:
 Root      1 :     2.215630096814306
 Root      2 :     2.618744588086196
 Root      3 :     3.663204378444507
 Root      4 :     4.042461175270014
 Root      5 :     4.177895331351138
 Root      6 :     4.307235419764345
 Root      7 :     4.377371015470781
 Root      8 :     4.403024674183109
 Root      9 :     4.579966248755148
 Root     10 :     4.593777463226757
 Root     11 :     4.654167768575212
 Root     12 :     4.971054058107098
 Root     13 :     5.012426729905136
 Root     14 :     5.172627554106699
 Root     15 :     5.439039788816425
 Root     16 :     5.589839807726792
 Root     17 :     6.151754886622922
 Root     18 :     6.677932542970911
 Root     19 :     7.019141137872557
 Root     20 :     7.133042933203132
 Iteration     2 Dimension    30 NMult    20 NNew     10
 CISAX will form    10 AO SS matrices at one time.
 NMat=    10 NSing=    10 JSym2X= 0.
 Root      1 not converged, maximum delta is    0.073101737155958
 Root      2 not converged, maximum delta is    0.059948503832900
 Root      3 not converged, maximum delta is    0.076682814865766
 Root      4 not converged, maximum delta is    0.153561790933824
 Root      5 not converged, maximum delta is    0.263313968669617
 Excitation Energies [eV] at current iteration:
 Root      1 :     1.725003503621622   Change is   -0.490626593192684
 Root      2 :     2.232260338225260   Change is   -0.386484249860936
 Root      3 :     3.319473109135858   Change is   -0.343731269308649
 Root      4 :     3.528344458788148   Change is   -0.514116716481866
 Root      5 :     3.780800143112231   Change is   -0.397095188238907
 Iteration     3 Dimension    40 NMult    30 NNew     10
 CISAX will form    10 AO SS matrices at one time.
 NMat=    10 NSing=    10 JSym2X= 0.
 Root      1 not converged, maximum delta is    0.017078521113183
 Root      2 not converged, maximum delta is    0.008577114017165
 Root      3 not converged, maximum delta is    0.013791803426533
 Root      4 not converged, maximum delta is    0.067050185956830
 Root      5 not converged, maximum delta is    0.133419103492956
 Excitation Energies [eV] at current iteration:
 Root      1 :     1.688030881758641   Change is   -0.036972621862981
 Root      2 :     2.214000519899392   Change is   -0.018259818325869
 Root      3 :     3.304176057067771   Change is   -0.015297052068088
 Root      4 :     3.477297259422659   Change is   -0.051047199365489
 Root      5 :     3.614126030620322   Change is   -0.166674112491909
 Iteration     4 Dimension    50 NMult    40 NNew     10
 CISAX will form    10 AO SS matrices at one time.
 NMat=    10 NSing=    10 JSym2X= 0.
 Root      1 not converged, maximum delta is    0.003818246285188
 Root      2 not converged, maximum delta is    0.003956789977609
 Root      3 not converged, maximum delta is    0.007596833842984
 Root      4 not converged, maximum delta is    0.031690653958385
 Root      5 not converged, maximum delta is    0.087312903413651
 Excitation Energies [eV] at current iteration:
 Root      1 :     1.683951178844159   Change is   -0.004079702914482
 Root      2 :     2.211556813424662   Change is   -0.002443706474730
 Root      3 :     3.300765677175930   Change is   -0.003410379891841
 Root      4 :     3.464960205818381   Change is   -0.012337053604278
 Root      5 :     3.556636848374914   Change is   -0.057489182245408
 Iteration     5 Dimension    60 NMult    50 NNew     10
 CISAX will form    10 AO SS matrices at one time.
 NMat=    10 NSing=    10 JSym2X= 0.
 Root      1 not converged, maximum delta is    0.001227184270070
 Root      2 has converged.
 Root      3 not converged, maximum delta is    0.002573295747147
 Root      4 not converged, maximum delta is    0.008920544799528
 Root      5 not converged, maximum delta is    0.023915841365622
 Excitation Energies [eV] at current iteration:
 Root      1 :     1.683575103072725   Change is   -0.000376075771434
 Root      2 :     2.211360064264090   Change is   -0.000196749160571
 Root      3 :     3.300304584884541   Change is   -0.000461092291389
 Root      4 :     3.463068584969243   Change is   -0.001891620849138
 Root      5 :     3.549292430547348   Change is   -0.007344417827565
 Iteration     6 Dimension    68 NMult    60 NNew      8
 CISAX will form     8 AO SS matrices at one time.
 NMat=     8 NSing=     8 JSym2X= 0.
 Root      1 has converged.
 Root      2 has converged.
 Root      3 not converged, maximum delta is    0.001082379052885
 Root      4 not converged, maximum delta is    0.010994920430112
 Root      5 not converged, maximum delta is    0.008480083450708
 Excitation Energies [eV] at current iteration:
 Root      1 :     1.683542822424081   Change is   -0.000032280648644
 Root      2 :     2.211353859135086   Change is   -0.000006205129004
 Root      3 :     3.300249048038255   Change is   -0.000055536846287
 Root      4 :     3.462202488188932   Change is   -0.000866096780312
 Root      5 :     3.548351030445789   Change is   -0.000941400101560
 Iteration     7 Dimension    74 NMult    68 NNew      6
 CISAX will form     6 AO SS matrices at one time.
 NMat=     6 NSing=     6 JSym2X= 0.
 Root      1 has converged.
 Root      2 has converged.
 Root      3 has converged.
 Root      4 not converged, maximum delta is    0.010555487444551
 Root      5 not converged, maximum delta is    0.001706644615499
 Excitation Energies [eV] at current iteration:
 Root      1 :     1.683542751324371   Change is   -0.000000071099710
 Root      2 :     2.211353177118998   Change is   -0.000000682016088
 Root      3 :     3.300241081338016   Change is   -0.000007966700239
 Root      4 :     3.461727965411271   Change is   -0.000474522777660
 Root      5 :     3.548250745301706   Change is   -0.000100285144082
 Iteration     8 Dimension    78 NMult    74 NNew      4
 CISAX will form     4 AO SS matrices at one time.
 NMat=     4 NSing=     4 JSym2X= 0.
 Root      1 has converged.
 Root      2 has converged.
 Root      3 has converged.
 Root      4 not converged, maximum delta is    0.003829318063414
 Root      5 has converged.
 Excitation Energies [eV] at current iteration:
 Root      1 :     1.683542684892520   Change is   -0.000000066431851
 Root      2 :     2.211352137202217   Change is   -0.000001039916781
 Root      3 :     3.300240978528137   Change is   -0.000000102809879
 Root      4 :     3.461594747343306   Change is   -0.000133218067965
 Root      5 :     3.548236233138600   Change is   -0.000014512163106
 Iteration     9 Dimension    80 NMult    78 NNew      2
 CISAX will form     2 AO SS matrices at one time.
 NMat=     2 NSing=     2 JSym2X= 0.
 Root      1 has converged.
 Root      2 has converged.
 Root      3 has converged.
 Root      4 has converged.
 Root      5 has converged.
 Excitation Energies [eV] at current iteration:
 Root      1 :     1.683542519917906   Change is   -0.000000164974614
 Root      2 :     2.211352106983480   Change is   -0.000000030218738
 Root      3 :     3.300240971834019   Change is   -0.000000006694118
 Root      4 :     3.461572760686332   Change is   -0.000021986656974
 Root      5 :     3.548236153203483   Change is   -0.000000079935116
 Convergence achieved on expansion vectors.
 ***********************************************************************
 Excited states from <AA,BB:AA,BB> singles matrix:
 ***********************************************************************
 
 1PDM for each excited state written to RWF  633
 Ground to excited state transition densities written to RWF  633
 Ground to excited state transition electric dipole moments (Au):
       state          X           Y           Z        Dip. S.      Osc.
         1         0.1844     -3.0079      0.3841      9.2292      0.3807
         2        -1.2536     -0.2998      0.0254      1.6621      0.0900
         3         0.1930      0.0565     -0.0057      0.0405      0.0033
         4        -2.3202     -0.5476      0.0575      5.6863      0.4822
         5         0.3655      0.1020     -0.0441      0.1460      0.0127
 Ground to excited state transition velocity dipole moments (Au):
       state          X           Y           Z        Dip. S.      Osc.
         1        -0.0099      0.1807     -0.0245      0.0333      0.3592
         2         0.0954      0.0240     -0.0018      0.0097      0.0794
         3        -0.0270     -0.0039      0.0010      0.0007      0.0041
         4         0.2835      0.0710     -0.0079      0.0855      0.4479
         5        -0.0466     -0.0119      0.0026      0.0023      0.0119
 Ground to excited state transition magnetic dipole moments (Au):
       state          X           Y           Z
         1        -0.0237      0.3282      2.3254
         2        -0.0767      0.0135     -0.3845
         3         0.0368      0.0421     -0.7782
         4        -0.1684      0.3169      1.5469
         5         0.2308      0.7432      0.0522
 Ground to excited state transition velocity quadrupole moments (Au):
       state          XX          YY          ZZ          XY          XZ          YZ
         1        -0.2581      0.1864     -0.0085      1.9276     -0.3262     -0.0650
         2         1.7498      0.0979     -0.0026      0.1861     -0.0289     -0.0686
         3        -0.4508     -0.0125     -0.0090      0.3502      0.0335      0.0276
         4         5.5601     -0.6814      0.0285      0.7182     -0.0880      0.0002
         5        -0.9424      0.0302     -0.0251     -0.2125     -0.0142     -0.0043
 <0|del|b> * <b|rxdel|0> + <0|del|b> * <b|delr+rdel|0>
 Rotatory Strengths (R) in cgs (10**-40 erg-esu-cm/Gauss)
       state          XX          YY          ZZ    R(velocity)    E-M Angle
         1        81.0423    -50.5979     -0.3563     10.0294       89.65
         2         5.9489    -55.9585     -4.9862    -18.3319       99.42
         3        -1.3961     -8.4782     -1.5872     -3.8205       95.30
         4        30.0643   -150.8134    -87.6755    -69.4749       94.63
         5       -25.6146    -26.7404    -53.2564    -35.2038      121.22
 1/2[<0|r|b>*<b|rxdel|0> + (<0|rxdel|b>*<b|r|0>)*]
 Rotatory Strengths (R) in cgs (10**-40 erg-esu-cm/Gauss)
       state          XX          YY          ZZ     R(length)
         1         3.0838    698.0177   -631.5943     23.1691
         2       -68.0384      2.8540      6.9001    -19.4281
         3        -5.0176     -1.6838     -3.1147     -3.2720
         4      -276.3389    122.7223    -62.8825    -72.1663
         5       -59.6732    -53.6239      1.6256    -37.2238
  1/2[<0|del|b>*<b|r|0> + (<0|r|b>*<b|del|0>)*] (Au)
       state          X           Y           Z        Dip. S.   Osc.(frdel)
         1        -0.0018     -0.5434     -0.0094      0.5546      0.3697
         2        -0.1196     -0.0072     -0.0000      0.1268      0.0846
         3        -0.0052     -0.0002     -0.0000      0.0054      0.0036
         4        -0.6578     -0.0389     -0.0005      0.6971      0.4647
         5        -0.0170     -0.0012     -0.0001      0.0184      0.0122

 Excitation energies and oscillator strengths:
 
 Excited State   1:      Singlet-A      1.6835 eV  736.45 nm  f=0.3807  <S**2>=0.000
[...]
 Alpha virt. eigenvalues --    1.21616   1.22068   1.22628   1.22951   1.23284
 Alpha virt. eigenvalues --    1.24057   1.24240   1.25020   1.26083   1.26429
 Alpha virt. eigenvalues --    1.26614   1.26724   1.27343   1.27717   1.28645
 Alpha virt. eigenvalues --    1.29067   1.29115   1.29543   1.29931   1.30655
 Alpha virt. eigenvalues --    1.30885   1.31424   1.31565   1.32927   1.33367
 Alpha virt. eigenvalues --    1.33421   1.34202   1.34675   1.35012   1.35430
 Alpha virt. eigenvalues --    1.35969   1.36455   1.36888   1.37022   1.38209
 Alpha virt. eigenvalues --    1.38799   1.39210   1.39258   1.39586   1.40043
 Alpha virt. eigenvalues --    1.40212   1.40438   1.40856   1.40954   1.41745
 Alpha virt. eigenvalues --    1.42261   1.43226   1.43380   1.43856   1.44340
 Alpha virt. eigenvalues --    1.44384   1.44921   1.45499   1.45562   1.46069
 Alpha virt. eigenvalues --    1.46492   1.47026   1.47493   1.47719   1.47942
 Alpha virt. eigenvalues --    1.48431   1.48498   1.49205   1.49630   1.49777
 Alpha virt. eigenvalues --    1.50239   1.50951   1.51119   1.51561   1.52175
 Alpha virt. eigenvalues --    1.52335   1.53256   1.54217   1.54406   1.54437
 Alpha virt. eigenvalues --    1.54615   1.55253   1.55891   1.56110   1.56595
 Alpha virt. eigenvalues --    1.57272   1.57369   1.57596   1.57980   1.58207
 Alpha virt. eigenvalues --    1.58853   1.59329   1.59491   1.59696   1.60266
 Alpha virt. eigenvalues --    1.60350   1.60564   1.60783   1.60895   1.61441
 Alpha virt. eigenvalues --    1.61703   1.61783   1.62248   1.62552   1.62698
 Alpha virt. eigenvalues --    1.63129   1.63664   1.63959   1.64087   1.64344
 Alpha virt. eigenvalues --    1.64508   1.64577   1.65006   1.65259   1.65378
 Alpha virt. eigenvalues --    1.65613   1.65764   1.66033   1.66434   1.66818
 Alpha virt. eigenvalues --    1.67097   1.67531   1.67771   1.68038   1.68525
 Alpha virt. eigenvalues --    1.68939   1.69840   1.70057   1.71364   1.71471
 Alpha virt. eigenvalues --    1.71939   1.72086   1.72277   1.72791   1.73228
 Alpha virt. eigenvalues --    1.73485   1.73876   1.74336   1.74503   1.74755
 Alpha virt. eigenvalues --    1.75389   1.75712   1.76008   1.76254   1.76592
 Alpha virt. eigenvalues --    1.77151   1.77823   1.78371   1.79130   1.79299
 Alpha virt. eigenvalues --    1.79568   1.79685   1.80019   1.80244   1.80320
 Alpha virt. eigenvalues --    1.80594   1.81212   1.81749   1.82066   1.82196
 Alpha virt. eigenvalues --    1.82368   1.82449   1.82559   1.82766   1.83075
 Alpha virt. eigenvalues --    1.83174   1.83627   1.83885   1.84016   1.84165
 Alpha virt. eigenvalues --    1.84219   1.84413   1.84622   1.84773   1.85058
 Alpha virt. eigenvalues --    1.85285   1.85519   1.85761   1.85922   1.86181
 Alpha virt. eigenvalues --    1.86573   1.86774   1.86913   1.87201   1.87657
 Alpha virt. eigenvalues --    1.87708   1.87895   1.87969   1.88059   1.88506
 Alpha virt. eigenvalues --    1.88597   1.88620   1.88899   1.89104   1.89258
 Alpha virt. eigenvalues --    1.89324   1.89472   1.89641   1.90041   1.90439
 Alpha virt. eigenvalues --    1.90656   1.90901   1.91182   1.91349   1.91371
 Alpha virt. eigenvalues --    1.91545   1.91979   1.92099   1.92413   1.92763
 Alpha virt. eigenvalues --    1.92917   1.93233   1.93302   1.93354   1.93591
 Alpha virt. eigenvalues --    1.93619   1.94216   1.94342   1.94603   1.94922
 Alpha virt. eigenvalues --    1.95002   1.95292   1.95525   1.96034   1.96377
 Alpha virt. eigenvalues --    1.96466   1.96657   1.96866   1.96971   1.97217
 Alpha virt. eigenvalues --    1.97405   1.97669   1.98060   1.98128   1.98402
 Alpha virt. eigenvalues --    1.98460   1.99140   1.99345   1.99376   1.99855
 Alpha virt. eigenvalues --    2.00131   2.00430   2.00647   2.00685   2.00868
 Alpha virt. eigenvalues --    2.01677   2.01693   2.01939   2.02255   2.02301
 Alpha virt. eigenvalues --    2.02957   2.03056   2.03461   2.03585   2.04017
 Alpha virt. eigenvalues --    2.04047   2.04330   2.04544   2.04811   2.05056
 Alpha virt. eigenvalues --    2.05314   2.05581   2.05775   2.05998   2.06394
 Alpha virt. eigenvalues --    2.06476   2.06772   2.07126   2.07507   2.07686
 Alpha virt. eigenvalues --    2.07972   2.08284   2.08426   2.08790   2.09276
 Alpha virt. eigenvalues --    2.09370   2.09439   2.09829   2.10101   2.10324
 Alpha virt. eigenvalues --    2.10779   2.11020   2.11226   2.11324   2.11570
 Alpha virt. eigenvalues --    2.12010   2.12131   2.12309   2.12674   2.12931
 Alpha virt. eigenvalues --    2.13888   2.14092   2.14352   2.14802   2.14929
 Alpha virt. eigenvalues --    2.15321   2.15493   2.15628   2.15689   2.15815
 Alpha virt. eigenvalues --    2.16495   2.16825   2.17616   2.17751   2.17955
 Alpha virt. eigenvalues --    2.18700   2.19178   2.19275   2.19676   2.19865
 Alpha virt. eigenvalues --    2.20086   2.20270   2.20504   2.20942   2.21050
 Alpha virt. eigenvalues --    2.21322   2.22124   2.22604   2.23089   2.23212
 Alpha virt. eigenvalues --    2.23330   2.23515   2.24291   2.24356   2.24404
 Alpha virt. eigenvalues --    2.25083   2.25280   2.25636   2.25888   2.26135
 Alpha virt. eigenvalues --    2.26627   2.26765   2.27074   2.27942   2.28030
 Alpha virt. eigenvalues --    2.29130   2.29252   2.29777   2.29993   2.30217
 Alpha virt. eigenvalues --    2.30791   2.31950   2.32309   2.32372   2.32983
 Alpha virt. eigenvalues --    2.33626   2.34348   2.34685   2.34989   2.35050
 Alpha virt. eigenvalues --    2.36021   2.36076   2.36416   2.36732   2.37255
 Alpha virt. eigenvalues --    2.37990   2.38406   2.39061   2.39312   2.39499
 Alpha virt. eigenvalues --    2.39717   2.39890   2.40196   2.40709   2.41008
 Alpha virt. eigenvalues --    2.41112   2.41142   2.41489   2.41916   2.42061
 Alpha virt. eigenvalues --    2.42413   2.42817   2.43247   2.43728   2.44071
 Alpha virt. eigenvalues --    2.44142   2.44300   2.44893   2.45444   2.45598
 Alpha virt. eigenvalues --    2.45997   2.46524   2.46809   2.47066   2.47362
 Alpha virt. eigenvalues --    2.47629   2.48094   2.48248   2.48816   2.49066
 Alpha virt. eigenvalues --    2.49524   2.50030   2.50219   2.50631   2.51043
 Alpha virt. eigenvalues --    2.51115   2.51414   2.51811   2.52012   2.52306
 Alpha virt. eigenvalues --    2.52810   2.53604   2.53637   2.54065   2.54541
 Alpha virt. eigenvalues --    2.55218   2.56181   2.56334   2.56593   2.57216
 Alpha virt. eigenvalues --    2.57536   2.57982   2.58285   2.58493   2.58713
 Alpha virt. eigenvalues --    2.59571   2.59733   2.60001   2.60101   2.60765
 Alpha virt. eigenvalues --    2.61059   2.62469   2.62674   2.63636   2.63758
 Alpha virt. eigenvalues --    2.63949   2.64044   2.64250   2.64489   2.65252
 Alpha virt. eigenvalues --    2.65756   2.66461   2.66510   2.67003   2.67519
 Alpha virt. eigenvalues --    2.67870   2.68161   2.68263   2.68697   2.69081
 Alpha virt. eigenvalues --    2.69852   2.70088   2.70405   2.71170   2.71388
 Alpha virt. eigenvalues --    2.72048   2.72585   2.72874   2.73148   2.73390
 Alpha virt. eigenvalues --    2.73604   2.73756   2.74526   2.74754   2.75308
 Alpha virt. eigenvalues --    2.75929   2.76409   2.76602   2.77047   2.77326
 Alpha virt. eigenvalues --    2.78119   2.78538   2.79122   2.79492   2.79699
 Alpha virt. eigenvalues --    2.80074   2.80178   2.81029   2.81060   2.81704
 Alpha virt. eigenvalues --    2.82139   2.82526   2.82618   2.82769   2.83142
 Alpha virt. eigenvalues --    2.83394   2.83555   2.84139   2.84671   2.85166
 Alpha virt. eigenvalues --    2.85635   2.85919   2.86308   2.86763   2.87448
 Alpha virt. eigenvalues --    2.88430   2.88573   2.89160   2.90112   2.90525
 Alpha virt. eigenvalues --    2.90936   2.91683   2.92033   2.92370   2.92611
 Alpha virt. eigenvalues --    2.93557   2.94174   2.94547   2.95105   2.95679
 Alpha virt. eigenvalues --    2.96315   2.96600   2.97353   2.97740   2.98313
 Alpha virt. eigenvalues --    2.98823   2.98897   2.98974   2.99757   2.99906
 Alpha virt. eigenvalues --    3.00464   3.00507   3.00740   3.00903   3.00921
 Alpha virt. eigenvalues --    3.01353   3.01957   3.02221   3.02552   3.02779
 Alpha virt. eigenvalues --    3.02851   3.03118   3.03213   3.04241   3.04740
 Alpha virt. eigenvalues --    3.04965   3.05189   3.05248   3.05615   3.05984
 Alpha virt. eigenvalues --    3.06260   3.06751   3.06952   3.07010   3.07314
 Alpha virt. eigenvalues --    3.07426   3.07600   3.07942   3.08022   3.08495
 Alpha virt. eigenvalues --    3.08656   3.08950   3.09709   3.09865   3.10139
 Alpha virt. eigenvalues --    3.10914   3.11128   3.11346   3.12158   3.12643
 Alpha virt. eigenvalues --    3.12857   3.12931   3.13488   3.14563   3.14896
 Alpha virt. eigenvalues --    3.15322   3.15353   3.15864   3.16533   3.16791
 Alpha virt. eigenvalues --    3.16981   3.17175   3.17837   3.19545   3.20153
 Alpha virt. eigenvalues --    3.20689   3.21101   3.22385   3.22672   3.22999
 Alpha virt. eigenvalues --    3.24043   3.24134   3.24387   3.25288   3.25511
 Alpha virt. eigenvalues --    3.26133   3.27545   3.28741   3.30247   3.30453
 Alpha virt. eigenvalues --    3.31601   3.36729   3.46566   3.47197   3.48047
 Alpha virt. eigenvalues --    3.50300   3.51732   3.52219   3.58685   3.60465
 Alpha virt. eigenvalues --    3.65591   3.70037   3.70520   3.72894   3.73345
 Alpha virt. eigenvalues --    3.74020   3.77304
          Condensed to atoms (all electrons):
 Mulliken charges:
               1
     1  Mg   0.955521
     2  C   -0.102192
     3  C   -0.117595
     4  C   -0.072560
     5  C   -0.107343
     6  N   -0.390968
     7  C    0.012734
     8  C   -0.099662
     9  C   -0.060461
    10  C    0.074794
    11  C   -0.004659
    12  C    0.026998
    13  C    0.035887
    14  C    0.183650
    15  O   -0.272731
    16  O   -0.354363
    17  N   -0.424302
    18  C    0.173993
    19  C   -0.168039
    20  C   -0.058686
    21  C    0.119121
    22  C    0.084629
    23  C    0.032042
    24  O   -0.219290
    25  C   -0.016437
    26  N   -0.338988
    27  C    0.093147
    28  C   -0.110904
    29  C   -0.020422
    30  C    0.039218
    31  C    0.013931
    32  C   -0.046562
    33  C   -0.059374
    34  N   -0.498216
    35  C    0.194170
    36  C   -0.199784
    37  C   -0.025008
    38  C    0.212192
    39  C    0.075198
    40  C    0.080659
    41  O   -0.247755
    42  C   -0.002197
    43  C    0.257491
    44  O   -0.204304
    45  O   -0.396615
    46  C    0.133243
    47  C    0.250767
    48  C   -0.129028
    49  C   -0.172413
    50  C   -0.048210
    51  C    0.009885
    52  C    0.014726
    53  C   -0.009312
    54  C   -0.196240
    55  C    0.026787
    56  C    0.000834
    57  C   -0.026570
    58  C    0.039955
    59  C   -0.140388
    60  C   -0.011501
    61  C   -0.006569
    62  C   -0.068728
    63  C    0.026428
    64  C   -0.252436
    65  C    0.003181
    66  C    0.027317
    67  H   -0.004643
    68  H    0.027078
    69  H   -0.000454
    70  H    0.049691
    71  H    0.044091
    72  H    0.035218
    73  H    0.034857
    74  H    0.050164
    75  H    0.035884
    76  H    0.034858
    77  H    0.062178
    78  H    0.053531
    79  H    0.043190
    80  H    0.068009
    81  H    0.040220
    82  H    0.064568
    83  H    0.046841
    84  H    0.064291
    85  H    0.044664
    86  H    0.036321
    87  H    0.037162
    88  H    0.041111
    89  H    0.041431
    90  H    0.031190
    91  H    0.022411
    92  H    0.049070
    93  H    0.039180
    94  H    0.033055
    95  H    0.042130
    96  H    0.056080
    97  H    0.060947
    98  H    0.072467
    99  H    0.059173
   100  H    0.057759
   101  H    0.050322
   102  H    0.059788
   103  H    0.061767
   104  H    0.034214
   105  H    0.058882
   106  H    0.046197
   107  H    0.059186
   108  H    0.014898
   109  H    0.028914
   110  H    0.026679
   111  H    0.023631
   112  H    0.015463
   113  H    0.005845
   114  H    0.019286
   115  H    0.016143
   116  H    0.036090
   117  H    0.018570
   118  H    0.008498
   119  H    0.019496
   120  H    0.020222
   121  H    0.012027
   122  H    0.022708
   123  H    0.015303
   124  H    0.012384
   125  H    0.022335
   126  H    0.027295
   127  H    0.020273
   128  H    0.008149
   129  H    0.019836
   130  H    0.013852
   131  H    0.012381
   132  H    0.019334
   133  H    0.007399
   134  H    0.014620
   135  H    0.027592
   136  H    0.034863
   137  H    0.029968
   138  H    0.019417
   139  H    0.023809
   140  H    0.020961
 Sum of Mulliken charges =  -0.00000
 Mulliken charges with hydrogens summed into heavy atoms:
               1
     1  Mg   0.955521
     2  C   -0.102192
     3  C   -0.122238
     4  C   -0.045482
     5  C   -0.107798
     6  N   -0.390968
     7  C    0.012734
     8  C   -0.049971
     9  C   -0.016370
    10  C    0.074794
    11  C    0.115580
    12  C    0.097739
    13  C    0.151596
    14  C    0.183650
    15  O   -0.272731
    16  O   -0.354363
    17  N   -0.424302
    18  C    0.173993
    19  C   -0.168039
    20  C   -0.058686
    21  C    0.119121
    22  C    0.236048
    23  C    0.032042
    24  O   -0.219290
    25  C    0.159263
    26  N   -0.338988
    27  C    0.093147
    28  C   -0.066240
    29  C    0.015899
    30  C    0.039218
    31  C    0.133635
    32  C    0.007039
    33  C    0.061931
    34  N   -0.498216
    35  C    0.194170
    36  C   -0.199784
    37  C   -0.025008
    38  C    0.212192
    39  C    0.234355
    40  C    0.080659
    41  O   -0.247755
    42  C    0.070270
    43  C    0.257491
    44  O   -0.204304
    45  O   -0.396615
    46  C    0.300496
    47  C    0.372321
    48  C   -0.094815
    49  C   -0.172413
    50  C    0.116056
    51  C    0.053697
    52  C    0.065036
    53  C    0.011996
    54  C   -0.176954
    55  C    0.097589
    56  C    0.028827
    57  C    0.005678
    58  C    0.077966
    59  C   -0.128004
    60  C    0.058402
    61  C    0.021415
    62  C   -0.042495
    63  C    0.053161
    64  C   -0.237817
    65  C    0.095603
    66  C    0.091503
 Electronic spatial extent (au):  <R**2>=         116275.4390
 Charge=             -0.0000 electrons
 Dipole moment (field-independent basis, Debye):
    X=             -1.6377    Y=              6.1441    Z=             -1.2564  Tot=              6.4815
 Quadrupole moment (field-independent basis, Debye-Ang):
   XX=           -368.9604   YY=           -414.0639   ZZ=           -405.8255
   XY=              3.9779   XZ=             21.4115   YZ=              5.4245
 Traceless Quadrupole moment (field-independent basis, Debye-Ang):
   XX=             27.3229   YY=            -17.7806   ZZ=             -9.5423
   XY=              3.9779   XZ=             21.4115   YZ=              5.4245
 Octapole moment (field-independent basis, Debye-Ang**2):
  XXX=            230.5899  YYY=            241.0724  ZZZ=            -45.5364  XYY=            -85.2723
  XXY=           -169.3688  XXZ=             72.6741  XZZ=             -4.7677  YZZ=              6.7354
  YYZ=            -56.3228  XYZ=            -15.0784
 Hexadecapole moment (field-independent basis, Debye-Ang**3):
 XXXX=        -129910.0505 YYYY=         -19059.0260 ZZZZ=          -7020.8006 XXXY=          -2286.1742
 XXXZ=            639.6206 YYYX=           1034.0707 YYYZ=            179.4615 ZZZX=            103.7851
 ZZZY=             65.0009 XXYY=         -26382.7454 XXZZ=         -23372.8195 YYZZ=          -4267.0462
 XXYZ=             57.0846 YYXZ=             38.4880 ZZXY=             -8.7961
 N-N= 9.652494131370D+03 E-N=-2.629762071344D+04  KE= 2.975848272829D+03
 Leave Link  601 at Tue Apr 26 22:28:48 2022, MaxMem= 10066329600 cpu:              10.4 elap:               0.5
 (Enter /sw/apps/gaussian-16.0/g16/l9999.exe)
 1\1\GINC-BP1-COMPUTE134\SP\RwB97XD TD-FC\def2SVP\C55H74Mg1N4O6\OF15641
 \26-Apr-2022\0\\#p wB97XD/Def2SVP td=(nstates=5)\\step_1001_chromophor
 e_25 TDDFT with wB97XD functional\\0,1\Mg,0,-3.284,34.325,26.832\C,0,-
 3.906,32.367,29.688\C,0,-1.808,36.73,28.864\C,0,-3.31,36.546,24.341\C,
 0,-5.043,32.078,24.895\N,0,-2.908,34.456,28.959\C,0,-3.163,33.504,29.9
 15\C,0,-2.678,33.932,31.411\C,0,-2.073,35.321,31.016\C,0,-2.274,35.558
 ,29.525\C,0,-2.376,36.541,31.987\C,0,-1.821,32.918,32.255\C,0,-2.26,32
 .54,33.652\C,0,-1.213,32.561,34.753\O,0,-0.232,31.855,34.988\O,0,-1.56
 1,33.598,35.53\N,0,-2.492,36.302,26.572\C,0,-1.933,37.12,27.517\C,0,-1
 .507,38.404,26.917\C,0,-1.961,38.354,25.555\C,0,-2.638,37.013,25.425\C
 ,0,-0.841,39.441,27.703\C,0,-1.861,39.419,24.481\O,0,-2.326,39.272,23.
 373\C,0,-1.214,40.772,24.766\N,0,-4.325,34.371,24.983\C,0,-4.062,35.38
 ,24.108\C,0,-4.491,35.063,22.651\C,0,-4.898,33.562,22.84\C,0,-4.675,33
 .265,24.339\C,0,-5.585,35.962,21.963\C,0,-4.122,32.637,21.851\C,0,-2.7
 38,32.038,22.321\N,0,-4.319,32.588,27.114\C,0,-5.026,31.767,26.206\C,0
 ,-5.473,30.654,26.972\C,0,-5.081,30.879,28.343\C,0,-4.393,32.089,28.37
 2\C,0,-6.298,29.539,26.386\C,0,-5.131,30.364,29.695\O,0,-5.683,29.343,
 30.171\C,0,-4.342,31.329,30.636\C,0,-5.331,31.899,31.559\O,0,-6.116,32
 .746,31.275\O,0,-5.129,31.499,32.893\C,0,-6.213,31.817,33.857\C,0,-0.7
 54,33.903,36.7\C,0,-1.486,35.048,37.381\C,0,-1.004,35.716,38.491\C,0,0
 .302,35.355,39.315\C,0,-1.8,36.785,39.265\C,0,-2.584,36.362,40.547\C,0
 ,-2.27,37.237,41.737\C,0,-1.764,36.498,42.996\C,0,-2.973,36.146,43.859
 \C,0,-0.796,37.535,43.691\C,0,0.652,37.488,43.085\C,0,1.694,36.95,44.0
 94\C,0,1.874,35.391,43.985\C,0,1.336,34.649,45.147\C,0,3.454,35.034,43
 .865\C,0,3.887,34.469,42.483\C,0,4.441,35.544,41.549\C,0,3.862,35.374,
 40.17\C,0,4.44,34.072,39.557\C,0,4.02,36.594,39.282\H,0,-1.515,37.459,
 29.623\H,0,-3.032,37.172,23.491\H,0,-5.504,31.364,24.209\H,0,-3.594,34
 .067,31.985\H,0,-0.993,35.18,30.97\H,0,-2.734,36.264,32.978\H,0,-3.308
 ,37.012,31.677\H,0,-1.628,37.325,32.112\H,0,-0.82,33.341,32.333\H,0,-1
 .776,32.034,31.62\H,0,-2.481,31.475,33.579\H,0,-3.098,33.189,33.907\H,
 0,-0.233,39.004,28.495\H,0,-1.597,40.035,28.216\H,0,-0.142,39.979,27.0
 61\H,0,-2.012,41.32,25.268\H,0,-1.09,41.301,23.821\H,0,-0.221,40.776,2
 5.216\H,0,-3.632,35.186,21.991\H,0,-5.966,33.442,22.656\H,0,-5.893,36.
 68,22.724\H,0,-6.497,35.486,21.604\H,0,-5.15,36.547,21.154\H,0,-4.015,
 33.088,20.864\H,0,-4.727,31.76,21.62\H,0,-2.565,32.121,23.394\H,0,-1.9
 15,32.468,21.75\H,0,-2.724,30.968,22.115\H,0,-5.82,29.152,25.486\H,0,-
 7.27,29.976,26.156\H,0,-6.36,28.798,27.183\H,0,-3.536,30.8,31.144\H,0,
 -7.104,32.101,33.297\H,0,-5.961,32.53,34.642\H,0,-6.556,30.901,34.338\
 H,0,0.237,34.142,36.316\H,0,-0.677,33.072,37.4\H,0,-2.387,35.443,36.91
 3\H,0,0.704,36.208,39.862\H,0,1.034,35.041,38.571\H,0,0.215,34.566,40.
 063\H,0,-2.579,37.275,38.681\H,0,-1.077,37.584,39.432\H,0,-2.424,35.31
 5,40.805\H,0,-3.653,36.445,40.35\H,0,-3.1,37.896,41.993\H,0,-1.584,37.
 993,41.354\H,0,-1.193,35.574,42.905\H,0,-3.119,36.773,44.739\H,0,-2.93
 6,35.127,44.243\H,0,-3.865,36.443,43.307\H,0,-0.706,37.283,44.748\H,0,
 -1.188,38.549,43.602\H,0,0.937,38.499,42.796\H,0,0.63,36.861,42.193\H,
 0,1.403,37.28,45.091\H,0,2.712,37.285,43.896\H,0,1.325,34.935,43.161\H
 ,0,1.934,35.03,45.975\H,0,1.417,33.563,45.125\H,0,0.279,34.798,45.366\
 H,0,3.786,34.163,44.431\H,0,4.167,35.772,44.231\H,0,3.092,33.827,42.10
 4\H,0,4.694,33.742,42.568\H,0,5.521,35.47,41.424\H,0,4.168,36.515,41.9
 64\H,0,2.809,35.18,40.373\H,0,3.556,33.467,39.358\H,0,5.077,33.507,40.
 237\H,0,4.958,34.333,38.634\H,0,3.059,36.8,38.812\H,0,4.788,36.453,38.
 521\H,0,4.264,37.524,39.796\\Version=ES64L-G16RevA.03\State=1-A\HF=-30
 07.8543571\RMSD=8.282e-09\PG=C01 [X(C55H74Mg1N4O6)]\\@


 THE MORE POWERFUL THE METHOD, THE MORE CATASTROPHIC THE ERRORS.
     -- M.D. KAMEN
 Job cpu time:       0 days 11 hours 13 minutes 24.1 seconds.
 Elapsed time:       0 days  0 hours 28 minutes 32.5 seconds.
 File lengths (MBytes):  RWF=   8929 Int=      0 D2E=      0 Chk=    390 Scr=      1
 Normal termination of Gaussian 16 at Tue Apr 26 22:28:49 2022.
