 Entering Gaussian System, Link 0=g16
 Initial command:
 /sw/apps/gaussian-16.0/g16/l1.exe "/tmp/Gau-43590.inp" -scrdir="/tmp/"
 Entering Link 1 = /sw/apps/gaussian-16.0/g16/l1.exe PID=     43591.
  
 Copyright (c) 1988,1990,1992,1993,1995,1998,2003,2009,2016,
            Gaussian, Inc.  All Rights Reserved.
  
 This is part of the Gaussian(R) 16 program.  It is based on
 the Gaussian(R) 09 system (copyright 2009, Gaussian, Inc.),
 the Gaussian(R) 03 system (copyright 2003, Gaussian, Inc.),
 the Gaussian(R) 98 system (copyright 1998, Gaussian, Inc.),
 the Gaussian(R) 94 system (copyright 1995, Gaussian, Inc.),
 the Gaussian 92(TM) system (copyright 1992, Gaussian, Inc.),
 the Gaussian 90(TM) system (copyright 1990, Gaussian, Inc.),
 the Gaussian 88(TM) system (copyright 1988, Gaussian, Inc.),
 the Gaussian 86(TM) system (copyright 1986, Carnegie Mellon
 University), and the Gaussian 82(TM) system (copyright 1983,
 Carnegie Mellon University). Gaussian is a federally registered
 trademark of Gaussian, Inc.
  
 This software contains proprietary and confidential information,
 including trade secrets, belonging to Gaussian, Inc.
  
 This software is provided under written license and may be
 used, copied, transmitted, or stored only in accord with that
 written license.
  
 The following legend is applicable only to US Government
 contracts under FAR:
  
                    RESTRICTED RIGHTS LEGEND
  
 Use, reproduction and disclosure by the US Government is
 subject to restrictions as set forth in subparagraphs (a)
 and (c) of the Commercial Computer Software - Restricted
 Rights clause in FAR 52.227-19.
  
 Gaussian, Inc.
 340 Quinnipiac St., Bldg. 40, Wallingford CT 06492
  
  
 ---------------------------------------------------------------
 Warning -- This program may not be used in any manner that
 competes with the business of Gaussian, Inc. or will provide
 assistance to any competitor of Gaussian, Inc.  The licensee
 of this program is prohibited from giving any competitor of
 Gaussian, Inc. access to this program.  By using this program,
 the user acknowledges that Gaussian, Inc. is engaged in the
 business of creating and licensing software in the field of
 computational chemistry and represents and warrants to the
 licensee that it is not a competitor of Gaussian, Inc. and that
 it will not use this program in any manner prohibited above.
 ---------------------------------------------------------------
  

 Cite this work as:
 Gaussian 16, Revision A.03,
 M. J. Frisch, G. W. Trucks, H. B. Schlegel, G. E. Scuseria, 
 M. A. Robb, J. R. Cheeseman, G. Scalmani, V. Barone, 
 G. A. Petersson, H. Nakatsuji, X. Li, M. Caricato, A. V. Marenich, 
 J. Bloino, B. G. Janesko, R. Gomperts, B. Mennucci, H. P. Hratchian, 
 J. V. Ortiz, A. F. Izmaylov, J. L. Sonnenberg, D. Williams-Young, 
 F. Ding, F. Lipparini, F. Egidi, J. Goings, B. Peng, A. Petrone, 
 T. Henderson, D. Ranasinghe, V. G. Zakrzewski, J. Gao, N. Rega, 
 G. Zheng, W. Liang, M. Hada, M. Ehara, K. Toyota, R. Fukuda, 
 J. Hasegawa, M. Ishida, T. Nakajima, Y. Honda, O. Kitao, H. Nakai, 
 T. Vreven, K. Throssell, J. A. Montgomery, Jr., J. E. Peralta, 
 F. Ogliaro, M. J. Bearpark, J. J. Heyd, E. N. Brothers, K. N. Kudin, 
 V. N. Staroverov, T. A. Keith, R. Kobayashi, J. Normand, 
 K. Raghavachari, A. P. Rendell, J. C. Burant, S. S. Iyengar, 
 J. Tomasi, M. Cossi, J. M. Millam, M. Klene, C. Adamo, R. Cammi, 
 J. W. Ochterski, R. L. Martin, K. Morokuma, O. Farkas, 
 J. B. Foresman, and D. J. Fox, Gaussian, Inc., Wallingford CT, 2016.
 
 ******************************************
 Gaussian 16:  ES64L-G16RevA.03 25-Dec-2016
                29-Apr-2022 
 ******************************************
 %nproc=24
 Will use up to   24 processors via shared memory.
 %mem=75GB
 -----------------------------------
 #p cam-b3lyp/Def2SVP td=(nstates=5)
 -----------------------------------
 1/38=1,172=1/1;
 2/12=2,17=6,18=5,40=1/2;
 3/5=43,7=101,11=9,25=1,30=1,74=-40/1,2,3,8;
 4//1;
 5/5=2,38=5/2;
 8/6=1,10=1,108=5/1;
 9/41=5,42=1,70=2/14;
 6/7=2,8=2,9=2,10=2/1;
 99/5=1,9=1/99;
 Leave Link    1 at Fri Apr 29 14:23:55 2022, MaxMem= 10066329600 cpu:               1.0 elap:               0.0
 (Enter /sw/apps/gaussian-16.0/g16/l101.exe)
 -------------------------------------------------------
 step_351_chromophore_24 TDDFT with cam-b3lyp functional
 -------------------------------------------------------
 Symbolic Z-matrix:
 Charge =  0 Multiplicity = 1
 Mg                   -0.224     44.195    24.771 
 C                     1.928     43.967    27.652 
 C                    -2.794     43.366    26.795 
 C                    -1.946     43.784    21.96 
 C                     2.706     44.666    22.815 
 N                    -0.356     43.462    27.036 
 C                     0.566     43.655    27.961 
 C                     0.016     43.418    29.373 
 C                    -1.448     42.996    29.037 
 C                    -1.61      43.306    27.533 
 C                    -1.881     41.617    29.548 
 C                     0.052     44.658    30.319 
 C                     0.134     44.384    31.858 
 C                    -0.185     42.928    32.343 
 O                     0.515     42.004    32.055 
 O                    -1.443     42.749    32.937 
 N                    -2.123     43.762    24.384 
 C                    -3.056     43.468    25.383 
 C                    -4.42      43.327    24.69 
 C                    -4.098     43.383    23.254 
 C                    -2.679     43.643    23.132 
 C                    -5.735     43.021    25.392 
 C                    -4.968     43.084    22.071 
 O                    -4.666     43.41     20.936 
 C                    -6.36      42.569    22.287 
 N                     0.249     44.331    22.742 
 C                    -0.653     44.049    21.803 
 C                    -0.018     44.203    20.399 
 C                     1.418     44.739    20.648 
 C                     1.43      44.591    22.166 
 C                    -0.053     42.939    19.451 
 C                     1.636     46.23     20.279 
 C                     0.739     47.242    21.042 
 N                     1.837     44.378    25.105 
 C                     2.943     44.545    24.217 
 C                     4.183     44.456    24.867 
 C                     3.81      44.263    26.237 
 C                     2.351     44.253    26.336 
 C                     5.593     44.477    24.251 
 C                     4.397     43.966    27.589 
 O                     5.548     43.669    27.881 
 C                     3.176     43.896    28.587 
 C                     3.321     42.537    29.216 
 O                     3.354     41.518    28.566 
 O                     3.482     42.632    30.566 
 C                     3.755     41.334    31.241 
 C                    -1.579     41.452    33.583 
 C                    -2.826     41.467    34.486 
 C                    -2.898     41.092    35.789 
 C                    -1.761     40.47     36.492 
 C                    -4.31      40.893    36.517 
 C                    -5.443     42.04     36.477 
 C                    -6.672     41.661    35.715 
 C                    -8.026     41.908    36.563 
 C                    -8.408     43.382    36.776 
 C                    -9.144     41.24     35.802 
 C                    -9.466     39.837    36.381 
 C                    -10.928    39.687    37. 
 C                    -10.972    39.58     38.523 
 C                    -11.104    38.085    38.973 
 C                    -12.065    40.551    39.168 
 C                    -11.323    41.786    39.628 
 C                    -12.25     43.03     39.868 
 C                    -11.912    44.296    39.075 
 C                    -12.156    45.628    39.803 
 C                    -12.744    44.216    37.708 
 H                    -3.679     43.27     27.427 
 H                    -2.375     43.758    20.956 
 H                     3.615     44.841    22.235 
 H                     0.494     42.538    29.802 
 H                    -2.051     43.635    29.682 
 H                    -2.529     41.652    30.424 
 H                    -0.988     41.081    29.867 
 H                    -2.342     41.121    28.693 
 H                    -0.811     45.316    30.22 
 H                     0.857     45.328    30.016 
 H                    -0.315     45.137    32.506 
 H                     1.167     44.546    32.165 
 H                    -6.137     42.047    25.112 
 H                    -6.408     43.861    25.221 
 H                    -5.614     42.916    26.47 
 H                    -6.427     41.558    22.689 
 H                    -6.962     42.449    21.386 
 H                    -6.814     43.363    22.879 
 H                    -0.661     44.874    19.83 
 H                     2.189     44.114    20.197 
 H                    -0.134     43.341    18.441 
 H                    -0.881     42.233    19.515 
 H                     0.819     42.306    19.612 
 H                     1.184     46.423    19.306 
 H                     2.693     46.45     20.425 
 H                     1.271     47.607    21.92 
 H                    -0.248     46.87     21.316 
 H                     0.48      48.168    20.527 
 H                     5.878     45.516    24.09 
 H                     5.618     43.865    23.349 
 H                     6.183     43.959    25.007 
 H                     3.417     44.684    29.3 
 H                     4.67      40.848    30.904 
 H                     2.933     40.653    31.02 
 H                     3.919     41.462    32.311 
 H                    -0.617     41.159    34.003 
 H                    -1.945     40.755    32.83 
 H                    -3.686     41.739    33.874 
 H                    -1.199     39.856    35.789 
 H                    -1.941     39.843    37.365 
 H                    -0.996     41.201    36.757 
 H                    -4.082     40.645    37.554 
 H                    -4.719     39.975    36.095 
 H                    -4.971     42.911    36.022 
 H                    -5.611     42.191    37.544 
 H                    -6.7       40.597    35.481 
 H                    -6.573     42.277    34.821 
 H                    -7.852     41.395    37.509 
 H                    -8.038     44.019    35.973 
 H                    -8.101     43.787    37.741 
 H                    -9.484     43.558    36.751 
 H                    -8.796     41.085    34.78 
 H                    -10.075    41.795    35.69 
 H                    -8.679     39.455    37.032 
 H                    -9.356     39.233    35.48 
 H                    -11.359    38.764    36.612 
 H                    -11.61     40.465    36.659 
 H                    -10.023    39.88     38.966 
 H                    -11.275    37.351    38.186 
 H                    -11.935    37.88     39.647 
 H                    -10.196    37.753    39.477 
 H                    -12.443    40.136    40.102 
 H                    -12.817    40.936    38.479 
 H                    -10.51     42.007    38.937 
 H                    -10.837    41.534    40.57 
 H                    -12.143    43.281    40.923 
 H                    -13.306    42.831    39.682 
 H                    -10.863    44.267    38.782 
 H                    -13.13     45.983    39.465 
 H                    -11.523    46.495    39.611 
 H                    -12.173    45.444    40.877 
 H                    -13.378    43.339    37.584 
 H                    -11.936    44.352    36.989 
 H                    -13.449    45.025    37.515 
 
 ITRead=  0  0  0  0  0  0  0  0  0  0  0  0  0  0  0  0  0  0  0  0
 ITRead=  0  0  0  0  0  0  0  0  0  0  0  0  0  0  0  0  0  0  0  0
 ITRead=  0  0  0  0  0  0  0  0  0  0  0  0  0  0  0  0  0  0  0  0
 ITRead=  0  0  0  0  0  0  0  0  0  0  0  0  0  0  0  0  0  0  0  0
 ITRead=  0  0  0  0  0  0  0  0  0  0  0  0  0  0  0  0  0  0  0  0
 ITRead=  0  0  0  0  0  0  0  0  0  0  0  0  0  0  0  0  0  0  0  0
 ITRead=  0  0  0  0  0  0  0  0  0  0  0  0  0  0  0  0  0  0  0  0
 MicOpt= -1 -1 -1 -1 -1 -1 -1 -1 -1 -1 -1 -1 -1 -1 -1 -1 -1 -1 -1 -1
 MicOpt= -1 -1 -1 -1 -1 -1 -1 -1 -1 -1 -1 -1 -1 -1 -1 -1 -1 -1 -1 -1
 MicOpt= -1 -1 -1 -1 -1 -1 -1 -1 -1 -1 -1 -1 -1 -1 -1 -1 -1 -1 -1 -1
 MicOpt= -1 -1 -1 -1 -1 -1 -1 -1 -1 -1 -1 -1 -1 -1 -1 -1 -1 -1 -1 -1
 MicOpt= -1 -1 -1 -1 -1 -1 -1 -1 -1 -1 -1 -1 -1 -1 -1 -1 -1 -1 -1 -1
 MicOpt= -1 -1 -1 -1 -1 -1 -1 -1 -1 -1 -1 -1 -1 -1 -1 -1 -1 -1 -1 -1
 MicOpt= -1 -1 -1 -1 -1 -1 -1 -1 -1 -1 -1 -1 -1 -1 -1 -1 -1 -1 -1 -1
 NAtoms=    140 NQM=      140 NQMF=       0 NMMI=      0 NMMIF=      0
                NMic=       0 NMicF=      0.
                    Isotopes and Nuclear Properties:
 (Nuclear quadrupole moments (NQMom) in fm**2, nuclear magnetic moments (NMagM)
  in nuclear magnetons)

  Atom         1           2           3           4           5           6           7           8           9          10
 IAtWgt=          24          12          12          12          12          14          12          12          12          12
 AtmWgt=  23.9850450  12.0000000  12.0000000  12.0000000  12.0000000  14.0030740  12.0000000  12.0000000  12.0000000  12.0000000
 NucSpn=           0           0           0           0           0           2           0           0           0           0
 AtZEff=  -0.0000000  -0.0000000  -0.0000000  -0.0000000  -0.0000000  -0.0000000  -0.0000000  -0.0000000  -0.0000000  -0.0000000
 NQMom=    0.0000000   0.0000000   0.0000000   0.0000000   0.0000000   2.0440000   0.0000000   0.0000000   0.0000000   0.0000000
 NMagM=    0.0000000   0.0000000   0.0000000   0.0000000   0.0000000   0.4037610   0.0000000   0.0000000   0.0000000   0.0000000
 AtZNuc=  12.0000000   6.0000000   6.0000000   6.0000000   6.0000000   7.0000000   6.0000000   6.0000000   6.0000000   6.0000000

  Atom        11          12          13          14          15          16          17          18          19          20
 IAtWgt=          12          12          12          12          16          16          14          12          12          12
 AtmWgt=  12.0000000  12.0000000  12.0000000  12.0000000  15.9949146  15.9949146  14.0030740  12.0000000  12.0000000  12.0000000
 NucSpn=           0           0           0           0           0           0           2           0           0           0
 AtZEff=  -0.0000000  -0.0000000  -0.0000000  -0.0000000  -0.0000000  -0.0000000  -0.0000000  -0.0000000  -0.0000000  -0.0000000
 NQMom=    0.0000000   0.0000000   0.0000000   0.0000000   0.0000000   0.0000000   2.0440000   0.0000000   0.0000000   0.0000000
 NMagM=    0.0000000   0.0000000   0.0000000   0.0000000   0.0000000   0.0000000   0.4037610   0.0000000   0.0000000   0.0000000
 AtZNuc=   6.0000000   6.0000000   6.0000000   6.0000000   8.0000000   8.0000000   7.0000000   6.0000000   6.0000000   6.0000000

  Atom        21          22          23          24          25          26          27          28          29          30
 IAtWgt=          12          12          12          16          12          14          12          12          12          12
 AtmWgt=  12.0000000  12.0000000  12.0000000  15.9949146  12.0000000  14.0030740  12.0000000  12.0000000  12.0000000  12.0000000
 NucSpn=           0           0           0           0           0           2           0           0           0           0
 AtZEff=  -0.0000000  -0.0000000  -0.0000000  -0.0000000  -0.0000000  -0.0000000  -0.0000000  -0.0000000  -0.0000000  -0.0000000
 NQMom=    0.0000000   0.0000000   0.0000000   0.0000000   0.0000000   2.0440000   0.0000000   0.0000000   0.0000000   0.0000000
 NMagM=    0.0000000   0.0000000   0.0000000   0.0000000   0.0000000   0.4037610   0.0000000   0.0000000   0.0000000   0.0000000
 AtZNuc=   6.0000000   6.0000000   6.0000000   8.0000000   6.0000000   7.0000000   6.0000000   6.0000000   6.0000000   6.0000000

  Atom        31          32          33          34          35          36          37          38          39          40
 IAtWgt=          12          12          12          14          12          12          12          12          12          12
 AtmWgt=  12.0000000  12.0000000  12.0000000  14.0030740  12.0000000  12.0000000  12.0000000  12.0000000  12.0000000  12.0000000
 NucSpn=           0           0           0           2           0           0           0           0           0           0
 AtZEff=  -0.0000000  -0.0000000  -0.0000000  -0.0000000  -0.0000000  -0.0000000  -0.0000000  -0.0000000  -0.0000000  -0.0000000
 NQMom=    0.0000000   0.0000000   0.0000000   2.0440000   0.0000000   0.0000000   0.0000000   0.0000000   0.0000000   0.0000000
 NMagM=    0.0000000   0.0000000   0.0000000   0.4037610   0.0000000   0.0000000   0.0000000   0.0000000   0.0000000   0.0000000
 AtZNuc=   6.0000000   6.0000000   6.0000000   7.0000000   6.0000000   6.0000000   6.0000000   6.0000000   6.0000000   6.0000000

  Atom        41          42          43          44          45          46          47          48          49          50
 IAtWgt=          16          12          12          16          16          12          12          12          12          12
 AtmWgt=  15.9949146  12.0000000  12.0000000  15.9949146  15.9949146  12.0000000  12.0000000  12.0000000  12.0000000  12.0000000
 NucSpn=           0           0           0           0           0           0           0           0           0           0
 AtZEff=  -0.0000000  -0.0000000  -0.0000000  -0.0000000  -0.0000000  -0.0000000  -0.0000000  -0.0000000  -0.0000000  -0.0000000
 NQMom=    0.0000000   0.0000000   0.0000000   0.0000000   0.0000000   0.0000000   0.0000000   0.0000000   0.0000000   0.0000000
 NMagM=    0.0000000   0.0000000   0.0000000   0.0000000   0.0000000   0.0000000   0.0000000   0.0000000   0.0000000   0.0000000
 AtZNuc=   8.0000000   6.0000000   6.0000000   8.0000000   8.0000000   6.0000000   6.0000000   6.0000000   6.0000000   6.0000000

  Atom        51          52          53          54          55          56          57          58          59          60
 IAtWgt=          12          12          12          12          12          12          12          12          12          12
 AtmWgt=  12.0000000  12.0000000  12.0000000  12.0000000  12.0000000  12.0000000  12.0000000  12.0000000  12.0000000  12.0000000
 NucSpn=           0           0           0           0           0           0           0           0           0           0
 AtZEff=  -0.0000000  -0.0000000  -0.0000000  -0.0000000  -0.0000000  -0.0000000  -0.0000000  -0.0000000  -0.0000000  -0.0000000
 NQMom=    0.0000000   0.0000000   0.0000000   0.0000000   0.0000000   0.0000000   0.0000000   0.0000000   0.0000000   0.0000000
 NMagM=    0.0000000   0.0000000   0.0000000   0.0000000   0.0000000   0.0000000   0.0000000   0.0000000   0.0000000   0.0000000
 AtZNuc=   6.0000000   6.0000000   6.0000000   6.0000000   6.0000000   6.0000000   6.0000000   6.0000000   6.0000000   6.0000000

  Atom        61          62          63          64          65          66          67          68          69          70
 IAtWgt=          12          12          12          12          12          12           1           1           1           1
 AtmWgt=  12.0000000  12.0000000  12.0000000  12.0000000  12.0000000  12.0000000   1.0078250   1.0078250   1.0078250   1.0078250
 NucSpn=           0           0           0           0           0           0           1           1           1           1
 AtZEff=  -0.0000000  -0.0000000  -0.0000000  -0.0000000  -0.0000000  -0.0000000  -0.0000000  -0.0000000  -0.0000000  -0.0000000
 NQMom=    0.0000000   0.0000000   0.0000000   0.0000000   0.0000000   0.0000000   0.0000000   0.0000000   0.0000000   0.0000000
 NMagM=    0.0000000   0.0000000   0.0000000   0.0000000   0.0000000   0.0000000   2.7928460   2.7928460   2.7928460   2.7928460
 AtZNuc=   6.0000000   6.0000000   6.0000000   6.0000000   6.0000000   6.0000000   1.0000000   1.0000000   1.0000000   1.0000000

  Atom        71          72          73          74          75          76          77          78          79          80
 IAtWgt=           1           1           1           1           1           1           1           1           1           1
 AtmWgt=   1.0078250   1.0078250   1.0078250   1.0078250   1.0078250   1.0078250   1.0078250   1.0078250   1.0078250   1.0078250
 NucSpn=           1           1           1           1           1           1           1           1           1           1
 AtZEff=  -0.0000000  -0.0000000  -0.0000000  -0.0000000  -0.0000000  -0.0000000  -0.0000000  -0.0000000  -0.0000000  -0.0000000
 NQMom=    0.0000000   0.0000000   0.0000000   0.0000000   0.0000000   0.0000000   0.0000000   0.0000000   0.0000000   0.0000000
 NMagM=    2.7928460   2.7928460   2.7928460   2.7928460   2.7928460   2.7928460   2.7928460   2.7928460   2.7928460   2.7928460
 AtZNuc=   1.0000000   1.0000000   1.0000000   1.0000000   1.0000000   1.0000000   1.0000000   1.0000000   1.0000000   1.0000000

  Atom        81          82          83          84          85          86          87          88          89          90
 IAtWgt=           1           1           1           1           1           1           1           1           1           1
 AtmWgt=   1.0078250   1.0078250   1.0078250   1.0078250   1.0078250   1.0078250   1.0078250   1.0078250   1.0078250   1.0078250
 NucSpn=           1           1           1           1           1           1           1           1           1           1
 AtZEff=  -0.0000000  -0.0000000  -0.0000000  -0.0000000  -0.0000000  -0.0000000  -0.0000000  -0.0000000  -0.0000000  -0.0000000
 NQMom=    0.0000000   0.0000000   0.0000000   0.0000000   0.0000000   0.0000000   0.0000000   0.0000000   0.0000000   0.0000000
 NMagM=    2.7928460   2.7928460   2.7928460   2.7928460   2.7928460   2.7928460   2.7928460   2.7928460   2.7928460   2.7928460
 AtZNuc=   1.0000000   1.0000000   1.0000000   1.0000000   1.0000000   1.0000000   1.0000000   1.0000000   1.0000000   1.0000000

  Atom        91          92          93          94          95          96          97          98          99         100
 IAtWgt=           1           1           1           1           1           1           1           1           1           1
 AtmWgt=   1.0078250   1.0078250   1.0078250   1.0078250   1.0078250   1.0078250   1.0078250   1.0078250   1.0078250   1.0078250
 NucSpn=           1           1           1           1           1           1           1           1           1           1
 AtZEff=  -0.0000000  -0.0000000  -0.0000000  -0.0000000  -0.0000000  -0.0000000  -0.0000000  -0.0000000  -0.0000000  -0.0000000
 NQMom=    0.0000000   0.0000000   0.0000000   0.0000000   0.0000000   0.0000000   0.0000000   0.0000000   0.0000000   0.0000000
 NMagM=    2.7928460   2.7928460   2.7928460   2.7928460   2.7928460   2.7928460   2.7928460   2.7928460   2.7928460   2.7928460
 AtZNuc=   1.0000000   1.0000000   1.0000000   1.0000000   1.0000000   1.0000000   1.0000000   1.0000000   1.0000000   1.0000000

  Atom       101         102         103         104         105         106         107         108         109         110
 IAtWgt=           1           1           1           1           1           1           1           1           1           1
 AtmWgt=   1.0078250   1.0078250   1.0078250   1.0078250   1.0078250   1.0078250   1.0078250   1.0078250   1.0078250   1.0078250
 NucSpn=           1           1           1           1           1           1           1           1           1           1
 AtZEff=  -0.0000000  -0.0000000  -0.0000000  -0.0000000  -0.0000000  -0.0000000  -0.0000000  -0.0000000  -0.0000000  -0.0000000
 NQMom=    0.0000000   0.0000000   0.0000000   0.0000000   0.0000000   0.0000000   0.0000000   0.0000000   0.0000000   0.0000000
 NMagM=    2.7928460   2.7928460   2.7928460   2.7928460   2.7928460   2.7928460   2.7928460   2.7928460   2.7928460   2.7928460
 AtZNuc=   1.0000000   1.0000000   1.0000000   1.0000000   1.0000000   1.0000000   1.0000000   1.0000000   1.0000000   1.0000000

  Atom       111         112         113         114         115         116         117         118         119         120
 IAtWgt=           1           1           1           1           1           1           1           1           1           1
 AtmWgt=   1.0078250   1.0078250   1.0078250   1.0078250   1.0078250   1.0078250   1.0078250   1.0078250   1.0078250   1.0078250
 NucSpn=           1           1           1           1           1           1           1           1           1           1
 AtZEff=  -0.0000000  -0.0000000  -0.0000000  -0.0000000  -0.0000000  -0.0000000  -0.0000000  -0.0000000  -0.0000000  -0.0000000
 NQMom=    0.0000000   0.0000000   0.0000000   0.0000000   0.0000000   0.0000000   0.0000000   0.0000000   0.0000000   0.0000000
 NMagM=    2.7928460   2.7928460   2.7928460   2.7928460   2.7928460   2.7928460   2.7928460   2.7928460   2.7928460   2.7928460
 AtZNuc=   1.0000000   1.0000000   1.0000000   1.0000000   1.0000000   1.0000000   1.0000000   1.0000000   1.0000000   1.0000000

  Atom       121         122         123         124         125         126         127         128         129         130
 IAtWgt=           1           1           1           1           1           1           1           1           1           1
 AtmWgt=   1.0078250   1.0078250   1.0078250   1.0078250   1.0078250   1.0078250   1.0078250   1.0078250   1.0078250   1.0078250
 NucSpn=           1           1           1           1           1           1           1           1           1           1
 AtZEff=  -0.0000000  -0.0000000  -0.0000000  -0.0000000  -0.0000000  -0.0000000  -0.0000000  -0.0000000  -0.0000000  -0.0000000
 NQMom=    0.0000000   0.0000000   0.0000000   0.0000000   0.0000000   0.0000000   0.0000000   0.0000000   0.0000000   0.0000000
 NMagM=    2.7928460   2.7928460   2.7928460   2.7928460   2.7928460   2.7928460   2.7928460   2.7928460   2.7928460   2.7928460
 AtZNuc=   1.0000000   1.0000000   1.0000000   1.0000000   1.0000000   1.0000000   1.0000000   1.0000000   1.0000000   1.0000000

  Atom       131         132         133         134         135         136         137         138         139         140
 IAtWgt=           1           1           1           1           1           1           1           1           1           1
 AtmWgt=   1.0078250   1.0078250   1.0078250   1.0078250   1.0078250   1.0078250   1.0078250   1.0078250   1.0078250   1.0078250
 NucSpn=           1           1           1           1           1           1           1           1           1           1
 AtZEff=  -0.0000000  -0.0000000  -0.0000000  -0.0000000  -0.0000000  -0.0000000  -0.0000000  -0.0000000  -0.0000000  -0.0000000
 NQMom=    0.0000000   0.0000000   0.0000000   0.0000000   0.0000000   0.0000000   0.0000000   0.0000000   0.0000000   0.0000000
 NMagM=    2.7928460   2.7928460   2.7928460   2.7928460   2.7928460   2.7928460   2.7928460   2.7928460   2.7928460   2.7928460
 AtZNuc=   1.0000000   1.0000000   1.0000000   1.0000000   1.0000000   1.0000000   1.0000000   1.0000000   1.0000000   1.0000000
 Leave Link  101 at Fri Apr 29 14:23:56 2022, MaxMem= 10066329600 cpu:               3.4 elap:               0.2
 (Enter /sw/apps/gaussian-16.0/g16/l202.exe)
 Stoichiometry    C55H74MgN4O6
 Framework group  C1[X(C55H74MgN4O6)]
 Deg. of freedom   414
 Full point group                 C1      NOp   1
 Largest Abelian subgroup         C1      NOp   1
 Largest concise Abelian subgroup C1      NOp   1
                         Standard orientation:                         
 ---------------------------------------------------------------------
 Center     Atomic      Atomic             Coordinates (Angstroms)
 Number     Number       Type             X           Y           Z
 ---------------------------------------------------------------------
      1         12           0        5.356645    0.999388    0.380497
      2          6           0        4.321816   -2.445119    0.599024
      3          6           0        2.112109    1.802490   -0.085047
      4          6           0        6.504930    4.000753   -0.461628
      5          6           0        8.712737   -0.164662    0.500121
      6          7           0        3.383592   -0.290964    0.024139
      7          6           0        3.224835   -1.559229    0.354681
      8          6           0        1.746615   -1.968226    0.354275
      9          6           0        1.085255   -0.630712   -0.101725
     10          6           0        2.222992    0.411269   -0.036990
     11          6           0        0.235705   -0.704468   -1.375725
     12          6           0        1.186542   -2.444317    1.730309
     13          6           0       -0.021610   -3.439390    1.707553
     14          6           0       -0.793227   -3.596292    0.352226
     15          8           0       -0.274193   -4.071080   -0.613124
     16          8           0       -2.036203   -2.949909    0.284099
     17          7           0        4.475592    2.715669   -0.090228
     18          6           0        3.089253    2.852461   -0.209717
     19          6           0        2.808415    4.344247   -0.447056
     20          6           0        4.145542    4.934738   -0.626853
     21          6           0        5.121149    3.888476   -0.404208
     22          6           0        1.428723    4.961768   -0.622502
     23          6           0        4.525306    6.303583   -1.104174
     24          8           0        5.648626    6.756917   -0.968732
     25          6           0        3.456649    7.250412   -1.563556
     26          7           0        7.264379    1.824235    0.182396
     27          6           0        7.434044    3.076818   -0.238435
     28          6           0        8.945196    3.405462   -0.319497
     29          6           0        9.674330    2.151658    0.235237
     30          6           0        8.458302    1.236306    0.334134
     31          6           0        9.504191    3.879812   -1.719548
     32          6           0       10.298714    2.324631    1.644844
     33          6           0        9.298042    2.686228    2.775696
     34          7           0        6.342090   -0.837985    0.594333
     35          6           0        7.726077   -1.190325    0.604678
     36          6           0        7.936061   -2.577374    0.609348
     37          6           0        6.602330   -3.100109    0.643806
     38          6           0        5.655096   -1.986153    0.664557
     39          6           0        9.265401   -3.346938    0.516478
     40          6           0        5.839498   -4.393266    0.563097
     41          8           0        6.252074   -5.516543    0.305603
     42          6           0        4.313125   -4.004613    0.667387
     43          6           0        3.716406   -4.610718   -0.573625
     44          8           0        4.112898   -4.344715   -1.684474
     45          8           0        2.755085   -5.525681   -0.263545
     46          6           0        2.206286   -6.256381   -1.438218
     47          6           0       -2.805044   -3.334626   -0.890165
     48          6           0       -4.260050   -2.861719   -0.717071
     49          6           0       -5.386425   -3.603084   -0.876053
     50          6           0       -5.352010   -4.985407   -1.387775
     51          6           0       -6.829873   -2.913443   -0.940738
     52          6           0       -7.316122   -1.878003    0.196066
     53          6           0       -7.494310   -0.475134   -0.288632
     54          6           0       -8.937858    0.136568    0.105601
     55          6           0       -9.133757    0.448202    1.598409
     56          6           0       -9.090063    1.424163   -0.665244
     57          6           0       -9.930771    1.219062   -1.953063
     58          6           0      -11.310908    2.017315   -1.986489
     59          6           0      -12.558629    1.147657   -1.845763
     60          6           0      -13.196622    0.857554   -3.247103
     61          6           0      -13.587871    1.732622   -0.772455
     62          6           0      -13.343711    0.974255    0.513101
     63          6           0      -13.916237    1.687951    1.788764
     64          6           0      -12.915004    1.993973    2.906679
     65          6           0      -13.456287    1.879302    4.341115
     66          6           0      -12.337103    3.459747    2.615388
     67          1           0        1.072038    2.133936   -0.068873
     68          1           0        7.042062    4.933797   -0.645069
     69          1           0        9.736584   -0.539030    0.570062
     70          1           0        1.571382   -2.682289   -0.449673
     71          1           0        0.302278   -0.468940    0.639039
     72          1           0       -0.839066   -0.695527   -1.193263
     73          1           0        0.441062   -1.657227   -1.862125
     74          1           0        0.571944    0.125310   -1.998601
     75          1           0        0.841217   -1.634312    2.372318
     76          1           0        1.996196   -2.854384    2.334493
     77          1           0       -0.699938   -3.393164    2.559755
     78          1           0        0.371210   -4.436209    1.906619
     79          1           0        1.279462    5.363896   -1.624847
     80          1           0        1.278119    5.677373    0.185581
     81          1           0        0.632052    4.221311   -0.553299
     82          1           0        2.961021    6.978881   -2.495671
     83          1           0        3.796539    8.253705   -1.821395
     84          1           0        2.825295    7.337198   -0.679884
     85          1           0        9.104926    4.316117    0.257257
     86          1           0       10.405334    1.741960   -0.462077
     87          1           0       10.311053    4.574266   -1.485085
     88          1           0        8.865395    4.445749   -2.397612
     89          1           0        9.809122    3.028312   -2.326967
     90          1           0       10.827321    3.277216    1.682754
     91          1           0       10.841272    1.408299    1.874914
     92          1           0        8.968010    1.774308    3.272298
     93          1           0        8.443606    3.285912    2.462731
     94          1           0        9.677877    3.278834    3.608957
     95          1           0        9.703433   -3.389941    1.512945
     96          1           0        9.912088   -2.890484   -0.233333
     97          1           0        8.946717   -4.311479    0.121431
     98          1           0        3.998255   -4.548298    1.557700
     99          1           0        2.951415   -6.836659   -1.981403
    100          1           0        1.800324   -5.525470   -2.137682
    101          1           0        1.473138   -7.006195   -1.140806
    102          1           0       -2.605736   -4.380864   -1.121152
    103          1           0       -2.520440   -2.658905   -1.695881
    104          1           0       -4.249397   -1.786431   -0.538828
    105          1           0       -4.544049   -5.077907   -2.112820
    106          1           0       -6.235998   -5.409256   -1.863774
    107          1           0       -5.008023   -5.691962   -0.631293
    108          1           0       -7.549840   -3.728408   -1.020344
    109          1           0       -6.863155   -2.417253   -1.910674
    110          1           0       -6.556704   -1.913255    0.977405
    111          1           0       -8.241154   -2.357096    0.519021
    112          1           0       -7.469888   -0.408680   -1.376117
    113          1           0       -6.643328    0.025221    0.173934
    114          1           0       -9.653769   -0.604794   -0.249665
    115          1           0       -8.190929    0.679005    2.093672
    116          1           0       -9.661081   -0.330455    2.150787
    117          1           0       -9.729771    1.343514    1.778850
    118          1           0       -8.094224    1.731719   -0.986687
    119          1           0       -9.479490    2.287419   -0.126294
    120          1           0      -10.030660    0.169849   -2.232829
    121          1           0       -9.233255    1.607292   -2.695672
    122          1           0      -11.384895    2.510759   -2.955650
    123          1           0      -11.340544    2.834668   -1.266944
    124          1           0      -12.304808    0.150548   -1.487715
    125          1           0      -12.774160    1.393228   -4.096776
    126          1           0      -14.252666    1.111290   -3.332255
    127          1           0      -13.101285   -0.198098   -3.502473
    128          1           0      -14.609153    1.450759   -1.027412
    129          1           0      -13.436650    2.776305   -0.496214
    130          1           0      -12.282724    0.746397    0.611479
    131          1           0      -13.835542    0.007369    0.411622
    132          1           0      -14.654693    1.003614    2.205707
    133          1           0      -14.423650    2.628849    1.572951
    134          1           0      -12.063066    1.320312    2.820235
    135          1           0      -13.719304    2.892425    4.646644
    136          1           0      -12.810131    1.559592    5.159351
    137          1           0      -14.342552    1.245196    4.333097
    138          1           0      -12.734767    3.965207    1.736279
    139          1           0      -11.268432    3.244892    2.625415
    140          1           0      -12.493503    4.211288    3.389649
 ---------------------------------------------------------------------
 Rotational constants (GHZ):           0.0439023           0.0099064           0.0085187
 Leave Link  202 at Fri Apr 29 14:23:56 2022, MaxMem= 10066329600 cpu:               0.2 elap:               0.0
 (Enter /sw/apps/gaussian-16.0/g16/l301.exe)
 Standard basis: def2SVP (5D, 7F)
 Ernie: Thresh=  0.10000D-02 Tol=  0.10000D-05 Strict=F.
 There are  1364 symmetry adapted cartesian basis functions of A   symmetry.
 There are  1298 symmetry adapted basis functions of A   symmetry.
  1298 basis functions,  2180 primitive gaussians,  1364 cartesian basis functions
   246 alpha electrons      246 beta electrons
       nuclear repulsion energy      9561.2723874470 Hartrees.
 IExCor=20419 DFT=T Ex+Corr=CAM-B3LYP ExCW=0 ScaHFX=  1.000000
 ScaDFX=  1.000000  1.000000  1.000000  0.810000 ScalE2=  1.000000  1.000000
 IRadAn=      5 IRanWt=     -1 IRanGd=            0 ICorTp=0 IEmpDi=  4
 HFx  wShort=  0.000000 wLong=  0.330000 cFull=  0.190000 cShort=  0.000000 cLong=  0.460000
 DFx  wShort=  0.000000 wLong=  0.330000 cFull=  0.190000 cShort=  0.000000 cLong=  0.460000
 NAtoms=  140 NActive=  140 NUniq=  140 SFac= 1.00D+00 NAtFMM=   60 NAOKFM=T Big=T
 Integral buffers will be    131072 words long.
 Raffenetti 1 integral format.
 Two-electron integral symmetry is turned on.
 Leave Link  301 at Fri Apr 29 14:23:56 2022, MaxMem= 10066329600 cpu:               1.3 elap:               0.1
 (Enter /sw/apps/gaussian-16.0/g16/l302.exe)
 NPDir=0 NMtPBC=     1 NCelOv=     1 NCel=       1 NClECP=     1 NCelD=      1
         NCelK=      1 NCelE2=     1 NClLst=     1 CellRange=     0.0.
 One-electron integrals computed using PRISM.
 One-electron integral symmetry used in STVInt
   1 Symmetry operations used in ECPInt.
 ECPInt:  NShTT=  192510 NPrTT=  683786 LenC2=   93580 LenP2D=  206439.
 LDataN:  DoStor=T MaxTD1= 4 Len=   56
 NBasis=  1298 RedAO= T EigKep=  3.30D-04  NBF=  1298
 NBsUse=  1298 1.00D-06 EigRej= -1.00D+00 NBFU=  1298
 Precomputing XC quadrature grid using
 IXCGrd= 4 IRadAn=           5 IRanWt=          -1 IRanGd=           0 AccXCQ= 0.00D+00.
 Generated NRdTot=       0 NPtTot=           0 NUsed=           0 NTot=          32
 NSgBfM=  1101  1101  1101  1101  1101 MxSgAt=   140 MxSgA2=   140.
 Leave Link  302 at Fri Apr 29 14:23:59 2022, MaxMem= 10066329600 cpu:              74.7 elap:               3.1
 (Enter /sw/apps/gaussian-16.0/g16/l303.exe)
 DipDrv:  MaxL=1.
 Leave Link  303 at Fri Apr 29 14:23:59 2022, MaxMem= 10066329600 cpu:               6.7 elap:               0.3
 (Enter /sw/apps/gaussian-16.0/g16/l308.exe)
 Leave Link  308 at Fri Apr 29 14:24:00 2022, MaxMem= 10066329600 cpu:               8.8 elap:               0.4
 (Enter /sw/apps/gaussian-16.0/g16/l401.exe)
 ExpMin= 3.36D-02 ExpMax= 4.95D+03 ExpMxC= 7.45D+02 IAcc=3 IRadAn=         5 AccDes= 0.00D+00
 Harris functional with IExCor=20419 and IRadAn=       5 diagonalized for initial guess.
 HarFok:  IExCor=20419 AccDes= 0.00D+00 IRadAn=         5 IDoV= 1 UseB2=F ITyADJ=14
 ICtDFT=  3500011 ScaDFX=  1.000000  1.000000  1.000000  1.000000
 FoFCou: FMM=F IPFlag=           0 FMFlag=      100000 FMFlg1=        2001
         NFxFlg=           0 DoJE=T BraDBF=F KetDBF=T FulRan=T
         wScrn=  0.000000 ICntrl=       500 IOpCl=  0 I1Cent=   200000004 NGrid=           0
         NMat0=    1 NMatS0=      1 NMatT0=    0 NMatD0=    1 NMtDS0=    0 NMtDT0=    0
 Petite list used in FoFCou.
 Harris En= -2890.86293451756    
 JPrj=0 DoOrth=F DoCkMO=F.
 Leave Link  401 at Fri Apr 29 14:24:05 2022, MaxMem= 10066329600 cpu:             127.9 elap:               5.4
 (Enter /sw/apps/gaussian-16.0/g16/l502.exe)
 Integral symmetry usage will be decided dynamically.
 Closed shell SCF:
 Using DIIS extrapolation, IDIIS=  1040.
 NGot= 10066329600 LenX= 10062561258 LenY= 10060699398
 Requested convergence on RMS density matrix=1.00D-08 within 128 cycles.
 Requested convergence on MAX density matrix=1.00D-06.
 Requested convergence on             energy=1.00D-06.
 No special actions if energy rises.
 Fock matrices will be formed incrementally for  20 cycles.

 Cycle   1  Pass 1  IDiag  1:
 FoFJK:  IHMeth= 1 ICntrl=       0 DoSepK=T KAlg= 0 I1Cent=           0 FoldK=F
 IRaf=         1 NMat=       1 IRICut=       1 DoRegI=T DoRafI=F ISym2E= 0 IDoP0=0 IntGTp=1.
 FoFCou: FMM=T IPFlag=           0 FMFlag=      100000 FMFlg1=        2001
         NFxFlg=           0 DoJE=T BraDBF=F KetDBF=F FulRan=T
         wScrn=  0.000000 ICntrl=       500 IOpCl=  0 I1Cent=           0 NGrid=           0
         NMat0=    1 NMatS0=      1 NMatT0=    0 NMatD0=    1 NMtDS0=    0 NMtDT0=    0
 Symmetry not used in FoFCou.
 FMM levels:  10  Number of levels for PrismC:   9
 E= -3006.50440759702    
 DIIS: error= 1.91D-02 at cycle   1 NSaved=   1.
 NSaved= 1 IEnMin= 1 EnMin= -3006.50440759702     IErMin= 1 ErrMin= 1.91D-02
 ErrMax= 1.91D-02  0.00D+00 EMaxC= 1.00D-01 BMatC= 1.24D+00 BMatP= 1.24D+00
 IDIUse=3 WtCom= 8.09D-01 WtEn= 1.91D-01
 Coeff-Com:  0.100D+01
 Coeff-En:   0.100D+01
 Coeff:      0.100D+01
 Gap=     0.125 Goal=   None    Shift=    0.000
 GapD=    0.125 DampG=1.000 DampE=0.500 DampFc=0.5000 IDamp=-1.
 Damping current iteration by 5.00D-01
 RMSDP=1.48D-03 MaxDP=1.39D-01              OVMax= 2.00D-01

 Cycle   2  Pass 1  IDiag  1:
 RMSU=  7.30D-04    CP:  9.86D-01
 E= -3006.80698763707     Delta-E=       -0.302580040045 Rises=F Damp=T
 DIIS: error= 1.01D-02 at cycle   2 NSaved=   2.
 NSaved= 2 IEnMin= 2 EnMin= -3006.80698763707     IErMin= 2 ErrMin= 1.01D-02
 ErrMax= 1.01D-02  0.00D+00 EMaxC= 1.00D-01 BMatC= 2.27D-01 BMatP= 1.24D+00
 IDIUse=3 WtCom= 8.99D-01 WtEn= 1.01D-01
 Coeff-Com: -0.252D+00 0.125D+01
 Coeff-En:   0.000D+00 0.100D+01
 Coeff:     -0.227D+00 0.123D+01
 Gap=     0.135 Goal=   None    Shift=    0.000
 RMSDP=6.72D-04 MaxDP=8.85D-02 DE=-3.03D-01 OVMax= 2.03D-01

 Cycle   3  Pass 1  IDiag  1:
 RMSU=  6.43D-04    CP:  9.76D-01  1.24D+00
 E= -3007.03261623665     Delta-E=       -0.225628599585 Rises=F Damp=F
 DIIS: error= 1.28D-02 at cycle   3 NSaved=   3.
 NSaved= 3 IEnMin= 3 EnMin= -3007.03261623665     IErMin= 2 ErrMin= 1.01D-02
 ErrMax= 1.28D-02  0.00D+00 EMaxC= 1.00D-01 BMatC= 1.32D-01 BMatP= 2.27D-01
 IDIUse=3 WtCom= 8.72D-01 WtEn= 1.28D-01
 Coeff-Com: -0.272D+00 0.652D+00 0.621D+00
 Coeff-En:   0.000D+00 0.000D+00 0.100D+01
 Coeff:     -0.237D+00 0.568D+00 0.669D+00
 Gap=     0.128 Goal=   None    Shift=    0.000
 RMSDP=4.42D-04 MaxDP=4.96D-02 DE=-2.26D-01 OVMax= 1.32D-01

 Cycle   4  Pass 1  IDiag  1:
 RMSU=  2.58D-04    CP:  9.73D-01  1.52D+00  5.48D-01
 E= -3007.12067102792     Delta-E=       -0.088054791273 Rises=F Damp=F
 DIIS: error= 5.77D-03 at cycle   4 NSaved=   4.
 NSaved= 4 IEnMin= 4 EnMin= -3007.12067102792     IErMin= 4 ErrMin= 5.77D-03
 ErrMax= 5.77D-03  0.00D+00 EMaxC= 1.00D-01 BMatC= 3.11D-02 BMatP= 1.32D-01
 IDIUse=3 WtCom= 9.42D-01 WtEn= 5.77D-02
 Coeff-Com: -0.116D+00 0.236D+00 0.403D+00 0.476D+00
 Coeff-En:   0.000D+00 0.000D+00 0.207D+00 0.793D+00
 Coeff:     -0.109D+00 0.223D+00 0.392D+00 0.494D+00
 Gap=     0.125 Goal=   None    Shift=    0.000
 RMSDP=1.78D-04 MaxDP=1.82D-02 DE=-8.81D-02 OVMax= 6.05D-02

 Cycle   5  Pass 1  IDiag  1:
 RMSU=  6.91D-05    CP:  9.73D-01  1.48D+00  7.11D-01  5.26D-01
 E= -3007.14856540758     Delta-E=       -0.027894379657 Rises=F Damp=F
 DIIS: error= 7.13D-04 at cycle   5 NSaved=   5.
 NSaved= 5 IEnMin= 5 EnMin= -3007.14856540758     IErMin= 5 ErrMin= 7.13D-04
 ErrMax= 7.13D-04  0.00D+00 EMaxC= 1.00D-01 BMatC= 6.33D-04 BMatP= 3.11D-02
 IDIUse=3 WtCom= 9.93D-01 WtEn= 7.13D-03
 Coeff-Com: -0.406D-01 0.798D-01 0.164D+00 0.239D+00 0.559D+00
 Coeff-En:   0.000D+00 0.000D+00 0.000D+00 0.000D+00 0.100D+01
 Coeff:     -0.403D-01 0.792D-01 0.162D+00 0.237D+00 0.562D+00
 Gap=     0.125 Goal=   None    Shift=    0.000
 RMSDP=3.86D-05 MaxDP=3.51D-03 DE=-2.79D-02 OVMax= 2.06D-02

 Cycle   6  Pass 1  IDiag  1:
 RMSU=  2.79D-05    CP:  9.73D-01  1.49D+00  7.03D-01  5.96D-01  7.30D-01
 E= -3007.14916810454     Delta-E=       -0.000602696955 Rises=F Damp=F
 DIIS: error= 3.26D-04 at cycle   6 NSaved=   6.
 NSaved= 6 IEnMin= 6 EnMin= -3007.14916810454     IErMin= 6 ErrMin= 3.26D-04
 ErrMax= 3.26D-04  0.00D+00 EMaxC= 1.00D-01 BMatC= 1.22D-04 BMatP= 6.33D-04
 IDIUse=3 WtCom= 9.97D-01 WtEn= 3.26D-03
 Coeff-Com:  0.209D-02-0.602D-02 0.729D-02 0.282D-01 0.322D+00 0.646D+00
 Coeff-En:   0.000D+00 0.000D+00 0.000D+00 0.000D+00 0.142D+00 0.858D+00
 Coeff:      0.209D-02-0.600D-02 0.727D-02 0.281D-01 0.321D+00 0.647D+00
 Gap=     0.125 Goal=   None    Shift=    0.000
 RMSDP=1.64D-05 MaxDP=1.47D-03 DE=-6.03D-04 OVMax= 6.23D-03

 Cycle   7  Pass 1  IDiag  1:
 RMSU=  1.06D-05    CP:  9.73D-01  1.49D+00  7.11D-01  5.93D-01  8.63D-01
                    CP:  7.60D-01
 E= -3007.14932004475     Delta-E=       -0.000151940214 Rises=F Damp=F
 DIIS: error= 1.30D-04 at cycle   7 NSaved=   7.
 NSaved= 7 IEnMin= 7 EnMin= -3007.14932004475     IErMin= 7 ErrMin= 1.30D-04
 ErrMax= 1.30D-04  0.00D+00 EMaxC= 1.00D-01 BMatC= 1.23D-05 BMatP= 1.22D-04
 IDIUse=3 WtCom= 9.99D-01 WtEn= 1.30D-03
 Coeff-Com:  0.481D-02-0.103D-01-0.110D-01-0.989D-02 0.111D+00 0.308D+00
 Coeff-Com:  0.608D+00
 Coeff-En:   0.000D+00 0.000D+00 0.000D+00 0.000D+00 0.000D+00 0.000D+00
 Coeff-En:   0.100D+01
 Coeff:      0.480D-02-0.103D-01-0.110D-01-0.988D-02 0.111D+00 0.308D+00
 Coeff:      0.608D+00
 Gap=     0.125 Goal=   None    Shift=    0.000
 RMSDP=6.66D-06 MaxDP=1.04D-03 DE=-1.52D-04 OVMax= 4.35D-03

 Cycle   8  Pass 1  IDiag  1:
 RMSU=  4.85D-06    CP:  9.72D-01  1.49D+00  7.12D-01  5.99D-01  8.72D-01
                    CP:  9.09D-01  9.56D-01
 E= -3007.14934008490     Delta-E=       -0.000020040154 Rises=F Damp=F
 DIIS: error= 4.29D-05 at cycle   8 NSaved=   8.
 NSaved= 8 IEnMin= 8 EnMin= -3007.14934008490     IErMin= 8 ErrMin= 4.29D-05
 ErrMax= 4.29D-05  0.00D+00 EMaxC= 1.00D-01 BMatC= 3.84D-06 BMatP= 1.23D-05
 IDIUse=1 WtCom= 1.00D+00 WtEn= 0.00D+00
 Coeff-Com:  0.217D-02-0.419D-02-0.781D-02-0.137D-01-0.167D-01-0.219D-01
 Coeff-Com:  0.344D+00 0.719D+00
 Coeff:      0.217D-02-0.419D-02-0.781D-02-0.137D-01-0.167D-01-0.219D-01
 Coeff:      0.344D+00 0.719D+00
 Gap=     0.126 Goal=   None    Shift=    0.000
 RMSDP=4.23D-06 MaxDP=5.17D-04 DE=-2.00D-05 OVMax= 1.93D-03

 Cycle   9  Pass 1  IDiag  1:
 RMSU=  2.15D-06    CP:  9.72D-01  1.49D+00  7.12D-01  6.00D-01  8.94D-01
                    CP:  9.52D-01  1.22D+00  1.23D+00
 E= -3007.14934986327     Delta-E=       -0.000009778370 Rises=F Damp=F
 DIIS: error= 3.18D-05 at cycle   9 NSaved=   9.
 NSaved= 9 IEnMin= 9 EnMin= -3007.14934986327     IErMin= 9 ErrMin= 3.18D-05
 ErrMax= 3.18D-05  0.00D+00 EMaxC= 1.00D-01 BMatC= 7.22D-07 BMatP= 3.84D-06
 IDIUse=1 WtCom= 1.00D+00 WtEn= 0.00D+00
 Coeff-Com: -0.140D-03 0.449D-03-0.556D-03-0.339D-02-0.211D-01-0.835D-01
 Coeff-Com:  0.556D-01 0.201D+00 0.852D+00
 Coeff:     -0.140D-03 0.449D-03-0.556D-03-0.339D-02-0.211D-01-0.835D-01
 Coeff:      0.556D-01 0.201D+00 0.852D+00
 Gap=     0.126 Goal=   None    Shift=    0.000
 RMSDP=2.93D-06 MaxDP=3.23D-04 DE=-9.78D-06 OVMax= 1.97D-03

 Cycle  10  Pass 1  IDiag  1:
 RMSU=  1.18D-06    CP:  9.72D-01  1.49D+00  7.13D-01  6.01D-01  9.02D-01
                    CP:  9.81D-01  1.37D+00  1.57D+00  1.42D+00
 E= -3007.14935355508     Delta-E=       -0.000003691805 Rises=F Damp=F
 DIIS: error= 1.71D-05 at cycle  10 NSaved=  10.
 NSaved=10 IEnMin=10 EnMin= -3007.14935355508     IErMin=10 ErrMin= 1.71D-05
 ErrMax= 1.71D-05  0.00D+00 EMaxC= 1.00D-01 BMatC= 3.81D-07 BMatP= 7.22D-07
 IDIUse=1 WtCom= 1.00D+00 WtEn= 0.00D+00
 Coeff-Com: -0.111D-02 0.223D-02 0.346D-02 0.458D-02 0.595D-03-0.486D-01
 Coeff-Com: -0.105D+00-0.291D+00 0.445D+00 0.990D+00
 Coeff:     -0.111D-02 0.223D-02 0.346D-02 0.458D-02 0.595D-03-0.486D-01
 Coeff:     -0.105D+00-0.291D+00 0.445D+00 0.990D+00
 Gap=     0.126 Goal=   None    Shift=    0.000
 RMSDP=3.08D-06 MaxDP=3.12D-04 DE=-3.69D-06 OVMax= 1.87D-03

 Cycle  11  Pass 1  IDiag  1:
 RMSU=  6.79D-07    CP:  9.72D-01  1.49D+00  7.13D-01  6.02D-01  9.10D-01
                    CP:  1.01D+00  1.53D+00  1.90D+00  2.10D+00  1.50D+00
 E= -3007.14935589344     Delta-E=       -0.000002338358 Rises=F Damp=F
 DIIS: error= 1.13D-05 at cycle  11 NSaved=  11.
 NSaved=11 IEnMin=11 EnMin= -3007.14935589344     IErMin=11 ErrMin= 1.13D-05
 ErrMax= 1.13D-05  0.00D+00 EMaxC= 1.00D-01 BMatC= 8.85D-08 BMatP= 3.81D-07
 IDIUse=1 WtCom= 1.00D+00 WtEn= 0.00D+00
 Coeff-Com: -0.486D-03 0.931D-03 0.182D-02 0.320D-02 0.866D-02-0.331D-02
 Coeff-Com: -0.494D-01-0.219D+00-0.802D-02 0.484D+00 0.782D+00
 Coeff:     -0.486D-03 0.931D-03 0.182D-02 0.320D-02 0.866D-02-0.331D-02
 Coeff:     -0.494D-01-0.219D+00-0.802D-02 0.484D+00 0.782D+00
 Gap=     0.126 Goal=   None    Shift=    0.000
 RMSDP=1.41D-06 MaxDP=1.01D-04 DE=-2.34D-06 OVMax= 9.80D-04

 Cycle  12  Pass 1  IDiag  1:
 RMSU=  3.55D-07    CP:  9.72D-01  1.49D+00  7.13D-01  6.03D-01  9.13D-01
                    CP:  1.02D+00  1.59D+00  2.06D+00  2.41D+00  1.94D+00
                    CP:  1.12D+00
 E= -3007.14935636846     Delta-E=       -0.000000475025 Rises=F Damp=F
 DIIS: error= 4.92D-06 at cycle  12 NSaved=  12.
 NSaved=12 IEnMin=12 EnMin= -3007.14935636846     IErMin=12 ErrMin= 4.92D-06
 ErrMax= 4.92D-06  0.00D+00 EMaxC= 1.00D-01 BMatC= 2.25D-08 BMatP= 8.85D-08
 IDIUse=1 WtCom= 1.00D+00 WtEn= 0.00D+00
 Coeff-Com:  0.610D-04-0.142D-03-0.475D-04 0.348D-03 0.433D-02 0.991D-02
 Coeff-Com:  0.113D-01-0.320D-01-0.122D+00-0.721D-01 0.358D+00 0.842D+00
 Coeff:      0.610D-04-0.142D-03-0.475D-04 0.348D-03 0.433D-02 0.991D-02
 Coeff:      0.113D-01-0.320D-01-0.122D+00-0.721D-01 0.358D+00 0.842D+00
 Gap=     0.126 Goal=   None    Shift=    0.000
 RMSDP=7.11D-07 MaxDP=5.50D-05 DE=-4.75D-07 OVMax= 4.12D-04

 Cycle  13  Pass 1  IDiag  1:
 RMSU=  2.02D-07    CP:  9.72D-01  1.49D+00  7.13D-01  6.03D-01  9.14D-01
                    CP:  1.02D+00  1.62D+00  2.13D+00  2.59D+00  2.15D+00
                    CP:  1.48D+00  1.12D+00
 E= -3007.14935647379     Delta-E=       -0.000000105325 Rises=F Damp=F
 DIIS: error= 3.11D-06 at cycle  13 NSaved=  13.
 NSaved=13 IEnMin=13 EnMin= -3007.14935647379     IErMin=13 ErrMin= 3.11D-06
 ErrMax= 3.11D-06  0.00D+00 EMaxC= 1.00D-01 BMatC= 5.81D-09 BMatP= 2.25D-08
 IDIUse=1 WtCom= 1.00D+00 WtEn= 0.00D+00
 Coeff-Com:  0.160D-03-0.323D-03-0.499D-03-0.596D-03 0.493D-03 0.609D-02
 Coeff-Com:  0.213D-01 0.344D-01-0.661D-01-0.165D+00 0.243D-01 0.495D+00
 Coeff-Com:  0.651D+00
 Coeff:      0.160D-03-0.323D-03-0.499D-03-0.596D-03 0.493D-03 0.609D-02
 Coeff:      0.213D-01 0.344D-01-0.661D-01-0.165D+00 0.243D-01 0.495D+00
 Coeff:      0.651D+00
 Gap=     0.126 Goal=   None    Shift=    0.000
 RMSDP=2.40D-07 MaxDP=1.85D-05 DE=-1.05D-07 OVMax= 1.80D-04

 Cycle  14  Pass 1  IDiag  1:
 RMSU=  8.28D-08    CP:  9.72D-01  1.49D+00  7.13D-01  6.03D-01  9.14D-01
                    CP:  1.02D+00  1.63D+00  2.15D+00  2.63D+00  2.24D+00
                    CP:  1.56D+00  1.37D+00  8.06D-01
 E= -3007.14935648860     Delta-E=       -0.000000014808 Rises=F Damp=F
 DIIS: error= 1.01D-06 at cycle  14 NSaved=  14.
 NSaved=14 IEnMin=14 EnMin= -3007.14935648860     IErMin=14 ErrMin= 1.01D-06
 ErrMax= 1.01D-06  0.00D+00 EMaxC= 1.00D-01 BMatC= 1.24D-09 BMatP= 5.81D-09
 IDIUse=1 WtCom= 1.00D+00 WtEn= 0.00D+00
 Coeff-Com:  0.800D-04-0.158D-03-0.278D-03-0.400D-03-0.522D-03 0.142D-02
 Coeff-Com:  0.100D-01 0.243D-01-0.135D-01-0.783D-01-0.503D-01 0.105D+00
 Coeff-Com:  0.381D+00 0.621D+00
 Coeff:      0.800D-04-0.158D-03-0.278D-03-0.400D-03-0.522D-03 0.142D-02
 Coeff:      0.100D-01 0.243D-01-0.135D-01-0.783D-01-0.503D-01 0.105D+00
 Coeff:      0.381D+00 0.621D+00
 Gap=     0.126 Goal=   None    Shift=    0.000
 RMSDP=7.95D-08 MaxDP=9.36D-06 DE=-1.48D-08 OVMax= 3.70D-05

 Cycle  15  Pass 1  IDiag  1:
 RMSU=  3.66D-08    CP:  9.72D-01  1.49D+00  7.13D-01  6.03D-01  9.14D-01
                    CP:  1.02D+00  1.63D+00  2.15D+00  2.64D+00  2.27D+00
                    CP:  1.61D+00  1.42D+00  9.79D-01  9.47D-01
 E= -3007.14935649087     Delta-E=       -0.000000002274 Rises=F Damp=F
 DIIS: error= 3.08D-07 at cycle  15 NSaved=  15.
 NSaved=15 IEnMin=15 EnMin= -3007.14935649087     IErMin=15 ErrMin= 3.08D-07
 ErrMax= 3.08D-07  0.00D+00 EMaxC= 1.00D-01 BMatC= 1.13D-10 BMatP= 1.24D-09
 IDIUse=1 WtCom= 1.00D+00 WtEn= 0.00D+00
 Coeff-Com: -0.267D-05 0.685D-05-0.313D-05-0.264D-04-0.293D-03-0.697D-03
 Coeff-Com: -0.518D-03 0.186D-02 0.770D-02 0.139D-02-0.181D-01-0.633D-01
 Coeff-Com:  0.437D-01 0.205D+00 0.823D+00
 Coeff:     -0.267D-05 0.685D-05-0.313D-05-0.264D-04-0.293D-03-0.697D-03
 Coeff:     -0.518D-03 0.186D-02 0.770D-02 0.139D-02-0.181D-01-0.633D-01
 Coeff:      0.437D-01 0.205D+00 0.823D+00
 Gap=     0.126 Goal=   None    Shift=    0.000
 RMSDP=3.45D-08 MaxDP=2.59D-06 DE=-2.27D-09 OVMax= 2.00D-05

 Cycle  16  Pass 1  IDiag  1:
 RMSU=  1.88D-08    CP:  9.72D-01  1.49D+00  7.13D-01  6.03D-01  9.14D-01
                    CP:  1.02D+00  1.63D+00  2.15D+00  2.64D+00  2.27D+00
                    CP:  1.62D+00  1.45D+00  1.03D+00  1.12D+00  1.21D+00
 E= -3007.14935649142     Delta-E=       -0.000000000551 Rises=F Damp=F
 DIIS: error= 2.53D-07 at cycle  16 NSaved=  16.
 NSaved=16 IEnMin=16 EnMin= -3007.14935649142     IErMin=16 ErrMin= 2.53D-07
 ErrMax= 2.53D-07  0.00D+00 EMaxC= 1.00D-01 BMatC= 4.11D-11 BMatP= 1.13D-10
 IDIUse=1 WtCom= 1.00D+00 WtEn= 0.00D+00
 Coeff-Com: -0.177D-04 0.357D-04 0.556D-04 0.682D-04-0.362D-04-0.603D-03
 Coeff-Com: -0.235D-02-0.408D-02 0.708D-02 0.163D-01 0.334D-02-0.565D-01
 Coeff-Com: -0.503D-01-0.574D-01 0.381D+00 0.763D+00
 Coeff:     -0.177D-04 0.357D-04 0.556D-04 0.682D-04-0.362D-04-0.603D-03
 Coeff:     -0.235D-02-0.408D-02 0.708D-02 0.163D-01 0.334D-02-0.565D-01
 Coeff:     -0.503D-01-0.574D-01 0.381D+00 0.763D+00
 Gap=     0.126 Goal=   None    Shift=    0.000
 RMSDP=1.87D-08 MaxDP=1.35D-06 DE=-5.51D-10 OVMax= 1.07D-05

 Cycle  17  Pass 1  IDiag  1:
 RMSU=  8.63D-09    CP:  9.72D-01  1.49D+00  7.13D-01  6.03D-01  9.14D-01
                    CP:  1.02D+00  1.63D+00  2.15D+00  2.65D+00  2.27D+00
                    CP:  1.63D+00  1.46D+00  1.06D+00  1.21D+00  1.49D+00
                    CP:  1.29D+00
 E= -3007.14935649141     Delta-E=        0.000000000009 Rises=F Damp=F
 DIIS: error= 1.20D-07 at cycle  17 NSaved=  17.
 NSaved=17 IEnMin=16 EnMin= -3007.14935649142     IErMin=17 ErrMin= 1.20D-07
 ErrMax= 1.20D-07  0.00D+00 EMaxC= 1.00D-01 BMatC= 1.19D-11 BMatP= 4.11D-11
 IDIUse=1 WtCom= 1.00D+00 WtEn= 0.00D+00
 Coeff-Com: -0.743D-05 0.144D-04 0.265D-04 0.388D-04 0.715D-04-0.421D-04
 Coeff-Com: -0.952D-03-0.235D-02 0.108D-02 0.616D-02 0.813D-02-0.846D-02
 Coeff-Com: -0.267D-01-0.965D-01-0.581D-01 0.346D+00 0.832D+00
 Coeff:     -0.743D-05 0.144D-04 0.265D-04 0.388D-04 0.715D-04-0.421D-04
 Coeff:     -0.952D-03-0.235D-02 0.108D-02 0.616D-02 0.813D-02-0.846D-02
 Coeff:     -0.267D-01-0.965D-01-0.581D-01 0.346D+00 0.832D+00
 Gap=     0.126 Goal=   None    Shift=    0.000
 RMSDP=1.23D-08 MaxDP=8.73D-07 DE= 9.09D-12 OVMax= 7.29D-06

 Cycle  18  Pass 1  IDiag  1:
 RMSU=  4.02D-09    CP:  9.72D-01  1.49D+00  7.13D-01  6.03D-01  9.14D-01
                    CP:  1.02D+00  1.63D+00  2.15D+00  2.65D+00  2.27D+00
                    CP:  1.63D+00  1.47D+00  1.07D+00  1.27D+00  1.67D+00
                    CP:  1.68D+00  1.36D+00
 E= -3007.14935649156     Delta-E=       -0.000000000146 Rises=F Damp=F
 DIIS: error= 5.61D-08 at cycle  18 NSaved=  18.
 NSaved=18 IEnMin=18 EnMin= -3007.14935649156     IErMin=18 ErrMin= 5.61D-08
 ErrMax= 5.61D-08  0.00D+00 EMaxC= 1.00D-01 BMatC= 2.83D-12 BMatP= 1.19D-11
 IDIUse=1 WtCom= 1.00D+00 WtEn= 0.00D+00
 Coeff-Com:  0.234D-05-0.495D-05-0.608D-05-0.474D-05 0.489D-04 0.195D-03
 Coeff-Com:  0.319D-03 0.361D-03-0.176D-02-0.292D-02 0.290D-02 0.139D-01
 Coeff-Com:  0.709D-02-0.319D-01-0.157D+00-0.928D-01 0.350D+00 0.911D+00
 Coeff:      0.234D-05-0.495D-05-0.608D-05-0.474D-05 0.489D-04 0.195D-03
 Coeff:      0.319D-03 0.361D-03-0.176D-02-0.292D-02 0.290D-02 0.139D-01
 Coeff:      0.709D-02-0.319D-01-0.157D+00-0.928D-01 0.350D+00 0.911D+00
 Gap=     0.126 Goal=   None    Shift=    0.000
 RMSDP=8.84D-09 MaxDP=6.77D-07 DE=-1.46D-10 OVMax= 5.39D-06

 SCF Done:  E(RCAM-B3LYP) =  -3007.14935649     A.U. after   18 cycles
            NFock= 18  Conv=0.88D-08     -V/T= 2.0108
 KE= 2.974938694456D+03 PE=-2.611455067888D+04 EE= 1.057119024048D+04
 Leave Link  502 at Fri Apr 29 14:30:34 2022, MaxMem= 10066329600 cpu:            8886.9 elap:             388.6
 (Enter /sw/apps/gaussian-16.0/g16/l801.exe)
 DoSCS=F DFT=T ScalE2(SS,OS)=  1.000000  1.000000
 ExpMin= 3.36D-02 ExpMax= 4.95D+03 ExpMxC= 7.45D+02 IAcc=3 IRadAn=         5 AccDes= 0.00D+00
 HarFok:  IExCor=  205 AccDes= 0.00D+00 IRadAn=         5 IDoV=-2 UseB2=F ITyADJ=14
 ICtDFT= 12500011 ScaDFX=  1.000000  1.000000  1.000000  1.000000
 GSVD:  LWork=       -5460 too small for GESVD, short by       25550 words or       25550 for optimal perf.
 Largest valence mixing into a core orbital is  2.08D-04
 Largest core mixing into a valence orbital is  5.09D-05
 Range of M.O.s used for correlation:    71  1298
 NBasis=  1298 NAE=   246 NBE=   246 NFC=    70 NFV=     0
 NROrb=   1228 NOA=   176 NOB=   176 NVA=  1052 NVB=  1052
 Leave Link  801 at Fri Apr 29 14:30:34 2022, MaxMem= 10066329600 cpu:               6.9 elap:               0.3
 (Enter /sw/apps/gaussian-16.0/g16/l914.exe)
 RHF ground state
 Two-electron integrals replicated using symmetry.
 MDV= 10066329600 DFT=T DoStab=F Mixed=T DoRPA=T DoScal=F NonHer=T
 Making orbital integer symmetry assigments:
 Orbital symmetries:
       Occupied  (A) (A) (A) (A) (A) (A) (A) (A) (A) (A) (A) (A)
                 (A) (A) (A) (A) (A) (A) (A) (A) (A) (A) (A) (A)
                 (A) (A) (A) (A) (A) (A) (A) (A) (A) (A) (A) (A)
                 (A) (A) (A) (A) (A) (A) (A) (A) (A) (A) (A) (A)
                 (A) (A) (A) (A) (A) (A) (A) (A) (A) (A) (A) (A)
                 (A) (A) (A) (A) (A) (A) (A) (A) (A) (A) (A) (A)
                 (A) (A) (A) (A) (A) (A) (A) (A) (A) (A) (A) (A)
                 (A) (A) (A) (A) (A) (A) (A) (A) (A) (A) (A) (A)
                 (A) (A) (A) (A) (A) (A) (A) (A) (A) (A) (A) (A)
                 (A) (A) (A) (A) (A) (A) (A) (A) (A) (A) (A) (A)
                 (A) (A) (A) (A) (A) (A) (A) (A) (A) (A) (A) (A)
                 (A) (A) (A) (A) (A) (A) (A) (A) (A) (A) (A) (A)
                 (A) (A) (A) (A) (A) (A) (A) (A) (A) (A) (A) (A)
                 (A) (A) (A) (A) (A) (A) (A) (A) (A) (A) (A) (A)
                 (A) (A) (A) (A) (A) (A) (A) (A) (A) (A) (A) (A)
                 (A) (A) (A) (A) (A) (A) (A) (A) (A) (A) (A) (A)
                 (A) (A) (A) (A) (A) (A) (A) (A) (A) (A) (A) (A)
                 (A) (A) (A) (A) (A) (A) (A) (A) (A) (A) (A) (A)
                 (A) (A) (A) (A) (A) (A) (A) (A) (A) (A) (A) (A)
                 (A) (A) (A) (A) (A) (A) (A) (A) (A) (A) (A) (A)
                 (A) (A) (A) (A) (A) (A)
       Virtual   (A) (A) (A) (A) (A) (A) (A) (A) (A) (A) (A) (A)
                 (A) (A) (A) (A) (A) (A) (A) (A) (A) (A) (A) (A)
                 (A) (A) (A) (A) (A) (A) (A) (A) (A) (A) (A) (A)
                 (A) (A) (A) (A) (A) (A) (A) (A) (A) (A) (A) (A)
                 (A) (A) (A) (A) (A) (A) (A) (A) (A) (A) (A) (A)
                 (A) (A) (A) (A) (A) (A) (A) (A) (A) (A) (A) (A)
                 (A) (A) (A) (A) (A) (A) (A) (A) (A) (A) (A) (A)
                 (A) (A) (A) (A) (A) (A) (A) (A) (A) (A) (A) (A)
                 (A) (A) (A) (A) (A) (A) (A) (A) (A) (A) (A) (A)
                 (A) (A) (A) (A) (A) (A) (A) (A) (A) (A) (A) (A)
                 (A) (A) (A) (A) (A) (A) (A) (A) (A) (A) (A) (A)
                 (A) (A) (A) (A) (A) (A) (A) (A) (A) (A) (A) (A)
                 (A) (A) (A) (A) (A) (A) (A) (A) (A) (A) (A) (A)
                 (A) (A) (A) (A) (A) (A) (A) (A) (A) (A) (A) (A)
                 (A) (A) (A) (A) (A) (A) (A) (A) (A) (A) (A) (A)
                 (A) (A) (A) (A) (A) (A) (A) (A) (A) (A) (A) (A)
                 (A) (A) (A) (A) (A) (A) (A) (A) (A) (A) (A) (A)
                 (A) (A) (A) (A) (A) (A) (A) (A) (A) (A) (A) (A)
                 (A) (A) (A) (A) (A) (A) (A) (A) (A) (A) (A) (A)
                 (A) (A) (A) (A) (A) (A) (A) (A) (A) (A) (A) (A)
                 (A) (A) (A) (A) (A) (A) (A) (A) (A) (A) (A) (A)
                 (A) (A) (A) (A) (A) (A) (A) (A) (A) (A) (A) (A)
                 (A) (A) (A) (A) (A) (A) (A) (A) (A) (A) (A) (A)
                 (A) (A) (A) (A) (A) (A) (A) (A) (A) (A) (A) (A)
                 (A) (A) (A) (A) (A) (A) (A) (A) (A) (A) (A) (A)
                 (A) (A) (A) (A) (A) (A) (A) (A) (A) (A) (A) (A)
                 (A) (A) (A) (A) (A) (A) (A) (A) (A) (A) (A) (A)
                 (A) (A) (A) (A) (A) (A) (A) (A) (A) (A) (A) (A)
                 (A) (A) (A) (A) (A) (A) (A) (A) (A) (A) (A) (A)
                 (A) (A) (A) (A) (A) (A) (A) (A) (A) (A) (A) (A)
                 (A) (A) (A) (A) (A) (A) (A) (A) (A) (A) (A) (A)
                 (A) (A) (A) (A) (A) (A) (A) (A) (A) (A) (A) (A)
                 (A) (A) (A) (A) (A) (A) (A) (A) (A) (A) (A) (A)
                 (A) (A) (A) (A) (A) (A) (A) (A) (A) (A) (A) (A)
                 (A) (A) (A) (A) (A) (A) (A) (A) (A) (A) (A) (A)
                 (A) (A) (A) (A) (A) (A) (A) (A) (A) (A) (A) (A)
                 (A) (A) (A) (A) (A) (A) (A) (A) (A) (A) (A) (A)
                 (A) (A) (A) (A) (A) (A) (A) (A) (A) (A) (A) (A)
                 (A) (A) (A) (A) (A) (A) (A) (A) (A) (A) (A) (A)
                 (A) (A) (A) (A) (A) (A) (A) (A) (A) (A) (A) (A)
                 (A) (A) (A) (A) (A) (A) (A) (A) (A) (A) (A) (A)
                 (A) (A) (A) (A) (A) (A) (A) (A) (A) (A) (A) (A)
                 (A) (A) (A) (A) (A) (A) (A) (A) (A) (A) (A) (A)
                 (A) (A) (A) (A) (A) (A) (A) (A) (A) (A) (A) (A)
                 (A) (A) (A) (A) (A) (A) (A) (A) (A) (A) (A) (A)
                 (A) (A) (A) (A) (A) (A) (A) (A) (A) (A) (A) (A)
                 (A) (A) (A) (A) (A) (A) (A) (A) (A) (A) (A) (A)
                 (A) (A) (A) (A) (A) (A) (A) (A) (A) (A) (A) (A)
                 (A) (A) (A) (A) (A) (A) (A) (A) (A) (A) (A) (A)
                 (A) (A) (A) (A) (A) (A) (A) (A) (A) (A) (A) (A)
                 (A) (A) (A) (A) (A) (A) (A) (A) (A) (A) (A) (A)
                 (A) (A) (A) (A) (A) (A) (A) (A) (A) (A) (A) (A)
                 (A) (A) (A) (A) (A) (A) (A) (A) (A) (A) (A) (A)
                 (A) (A) (A) (A) (A) (A) (A) (A) (A) (A) (A) (A)
                 (A) (A) (A) (A) (A) (A) (A) (A) (A) (A) (A) (A)
                 (A) (A) (A) (A) (A) (A) (A) (A) (A) (A) (A) (A)
                 (A) (A) (A) (A) (A) (A) (A) (A) (A) (A) (A) (A)
                 (A) (A) (A) (A) (A) (A) (A) (A) (A) (A) (A) (A)
                 (A) (A) (A) (A) (A) (A) (A) (A) (A) (A) (A) (A)
                 (A) (A) (A) (A) (A) (A) (A) (A) (A) (A) (A) (A)
                 (A) (A) (A) (A) (A) (A) (A) (A) (A) (A) (A) (A)
                 (A) (A) (A) (A) (A) (A) (A) (A) (A) (A) (A) (A)
                 (A) (A) (A) (A) (A) (A) (A) (A) (A) (A) (A) (A)
                 (A) (A) (A) (A) (A) (A) (A) (A) (A) (A) (A) (A)
                 (A) (A) (A) (A) (A) (A) (A) (A) (A) (A) (A) (A)
                 (A) (A) (A) (A) (A) (A) (A) (A) (A) (A) (A) (A)
                 (A) (A) (A) (A) (A) (A) (A) (A) (A) (A) (A) (A)
                 (A) (A) (A) (A) (A) (A) (A) (A) (A) (A) (A) (A)
                 (A) (A) (A) (A) (A) (A) (A) (A) (A) (A) (A) (A)
                 (A) (A) (A) (A) (A) (A) (A) (A) (A) (A) (A) (A)
                 (A) (A) (A) (A) (A) (A) (A) (A) (A) (A) (A) (A)
                 (A) (A) (A) (A) (A) (A) (A) (A) (A) (A) (A) (A)
                 (A) (A) (A) (A) (A) (A) (A) (A) (A) (A) (A) (A)
                 (A) (A) (A) (A) (A) (A) (A) (A) (A) (A) (A) (A)
                 (A) (A) (A) (A) (A) (A) (A) (A) (A) (A) (A) (A)
                 (A) (A) (A) (A) (A) (A) (A) (A) (A) (A) (A) (A)
                 (A) (A) (A) (A) (A) (A) (A) (A) (A) (A) (A) (A)
                 (A) (A) (A) (A) (A) (A) (A) (A) (A) (A) (A) (A)
                 (A) (A) (A) (A) (A) (A) (A) (A) (A) (A) (A) (A)
                 (A) (A) (A) (A) (A) (A) (A) (A) (A) (A) (A) (A)
                 (A) (A) (A) (A) (A) (A) (A) (A) (A) (A) (A) (A)
                 (A) (A) (A) (A) (A) (A) (A) (A) (A) (A) (A) (A)
                 (A) (A) (A) (A) (A) (A) (A) (A) (A) (A) (A) (A)
                 (A) (A) (A) (A) (A) (A) (A) (A) (A) (A) (A) (A)
                 (A) (A) (A) (A) (A) (A) (A) (A) (A) (A) (A) (A)
                 (A) (A) (A) (A) (A) (A) (A) (A) (A) (A) (A) (A)
                 (A) (A) (A) (A) (A) (A) (A) (A) (A) (A) (A) (A)
                 (A) (A) (A) (A) (A) (A) (A) (A)
    20 initial guesses have been made.
 Convergence on wavefunction:    0.001000000000000
 Davidson Disk Diagonalization:  ConvIn= 1.00D-03 SkipCon=T Conv= 1.00D-03.
 Max sub-space:  2000 roots to seek:    20 dimension of matrix:       370304
 Iteration     1 Dimension    20 NMult     0 NNew     20
 CISAX will form    20 AO SS matrices at one time.
 NMat=    20 NSing=    20 JSym2X= 0.
 FoFJK:  IHMeth= 1 ICntrl=       0 DoSepK=T KAlg= 0 I1Cent=           0 FoldK=F
 IRaf=         1 NMat=      40 IRICut=       1 DoRegI=T DoRafI=F ISym2E= 0 IDoP0=3 IntGTp=3.
 FoFCou: FMM=T IPFlag=           0 FMFlag=      100000 FMFlg1=        2001
         NFxFlg=           0 DoJE=F BraDBF=F KetDBF=F FulRan=T
         wScrn=  0.000000 ICntrl=       500 IOpCl=  0 I1Cent=           0 NGrid=           0
         NMat0=   20 NMatS0=     20 NMatT0=    0 NMatD0=   20 NMtDS0=    0 NMtDT0=    0
 Symmetry not used in FoFCou.
 FMM levels:  10  Number of levels for PrismC:   9
 New state      3 was old state      5
 New state      4 was old state      9
 New state      5 was old state      4
 Excitation Energies [eV] at current iteration:
 Root      1 :     2.220293413771510
 Root      2 :     2.662639335124775
 Root      3 :     3.730310667919992
 Root      4 :     3.891649469657412
 Root      5 :     3.941608515557554
 Root      6 :     4.191254644302322
 Root      7 :     4.203025155317036
 Root      8 :     4.405892134850702
 Root      9 :     4.504628250494310
 Root     10 :     4.547429934386239
 Root     11 :     4.575324870458184
 Root     12 :     4.716523495771701
 Root     13 :     4.989855703495876
 Root     14 :     5.040592979363257
 Root     15 :     5.070984515698211
 Root     16 :     5.117310471371957
 Root     17 :     5.311313566363903
 Root     18 :     5.419831392672750
 Root     19 :     5.958095157286364
 Root     20 :     6.413680200645114
 Iteration     2 Dimension    30 NMult    20 NNew     10
 CISAX will form    10 AO SS matrices at one time.
 NMat=    10 NSing=    10 JSym2X= 0.
 Root      1 not converged, maximum delta is    0.069454253350244
 Root      2 not converged, maximum delta is    0.060482946673966
 Root      3 not converged, maximum delta is    0.087930923916192
 Root      4 not converged, maximum delta is    0.184668350169797
 Root      5 not converged, maximum delta is    0.211143758793638
 Excitation Energies [eV] at current iteration:
 Root      1 :     1.763674669666978   Change is   -0.456618744104532
 Root      2 :     2.277023486392981   Change is   -0.385615848731794
 Root      3 :     3.383227311486667   Change is   -0.347083356433325
 Root      4 :     3.530094497120717   Change is   -0.361554972536695
 Root      5 :     3.591822676532268   Change is   -0.349785839025286
 Iteration     3 Dimension    40 NMult    30 NNew     10
 CISAX will form    10 AO SS matrices at one time.
 NMat=    10 NSing=    10 JSym2X= 0.
 Root      1 not converged, maximum delta is    0.016047450734158
 Root      2 not converged, maximum delta is    0.018565864964484
 Root      3 not converged, maximum delta is    0.113026666667246
 Root      4 not converged, maximum delta is    0.189362185579666
 Root      5 not converged, maximum delta is    0.101155733064022
 Excitation Energies [eV] at current iteration:
 Root      1 :     1.729171751866575   Change is   -0.034502917800403
 Root      2 :     2.254619080953109   Change is   -0.022404405439872
 Root      3 :     3.356307275465781   Change is   -0.026920036020886
 Root      4 :     3.446568424034208   Change is   -0.083526073086508
 Root      5 :     3.566520751655786   Change is   -0.025301924876482
 Iteration     4 Dimension    50 NMult    40 NNew     10
 CISAX will form    10 AO SS matrices at one time.
 NMat=    10 NSing=    10 JSym2X= 0.
 Root      1 not converged, maximum delta is    0.002716927245396
 Root      2 not converged, maximum delta is    0.003093011816044
 Root      3 not converged, maximum delta is    0.013230072468924
 Root      4 not converged, maximum delta is    0.021445518882936
 Root      5 not converged, maximum delta is    0.067253527070944
 Excitation Energies [eV] at current iteration:
 Root      1 :     1.725099085907825   Change is   -0.004072665958750
 Root      2 :     2.251290293964009   Change is   -0.003328786989100
 Root      3 :     3.351593138556311   Change is   -0.004714136909471
 Root      4 :     3.436648552016201   Change is   -0.009919872018007
 Root      5 :     3.554706941729373   Change is   -0.011813809926412
 Iteration     5 Dimension    60 NMult    50 NNew     10
 CISAX will form    10 AO SS matrices at one time.
 NMat=    10 NSing=    10 JSym2X= 0.
 Root      1 not converged, maximum delta is    0.001277623680520
 Root      2 has converged.
 Root      3 not converged, maximum delta is    0.002269970390692
 Root      4 not converged, maximum delta is    0.006302423974550
 Root      5 not converged, maximum delta is    0.052393513324085
 Excitation Energies [eV] at current iteration:
 Root      1 :     1.724738777612568   Change is   -0.000360308295258
 Root      2 :     2.251014899180953   Change is   -0.000275394783056
 Root      3 :     3.351066569186779   Change is   -0.000526569369531
 Root      4 :     3.435543489412349   Change is   -0.001105062603852
 Root      5 :     3.549156251984683   Change is   -0.005550689744691
 Iteration     6 Dimension    68 NMult    60 NNew      8
 CISAX will form     8 AO SS matrices at one time.
 NMat=     8 NSing=     8 JSym2X= 0.
 Root      1 has converged.
 Root      2 has converged.
 Root      3 has converged.
 Root      4 not converged, maximum delta is    0.002017041939895
 Root      5 not converged, maximum delta is    0.021327659318254
 Excitation Energies [eV] at current iteration:
 Root      1 :     1.724705686500345   Change is   -0.000033091112223
 Root      2 :     2.251012945553883   Change is   -0.000001953627071
 Root      3 :     3.350999459845065   Change is   -0.000067109341715
 Root      4 :     3.435373473284130   Change is   -0.000170016128219
 Root      5 :     3.547028802913232   Change is   -0.002127449071451
 Iteration     7 Dimension    72 NMult    68 NNew      4
 CISAX will form     4 AO SS matrices at one time.
 NMat=     4 NSing=     4 JSym2X= 0.
 Root      1 has converged.
 Root      2 has converged.
 Root      3 has converged.
 Root      4 not converged, maximum delta is    0.002249034678943
 Root      5 not converged, maximum delta is    0.022234294387849
 Excitation Energies [eV] at current iteration:
 Root      1 :     1.724705583398529   Change is   -0.000000103101816
 Root      2 :     2.251012277501079   Change is   -0.000000668052804
 Root      3 :     3.350997173768595   Change is   -0.000002286076470
 Root      4 :     3.435339177318791   Change is   -0.000034295965339
 Root      5 :     3.546147557248807   Change is   -0.000881245664424
 Iteration     8 Dimension    76 NMult    72 NNew      4
 CISAX will form     4 AO SS matrices at one time.
 NMat=     4 NSing=     4 JSym2X= 0.
 Root      1 has converged.
 Root      2 has converged.
 Root      3 has converged.
 Root      4 has converged.
 Root      5 not converged, maximum delta is    0.013981304493826
 Excitation Energies [eV] at current iteration:
 Root      1 :     1.724705551901384   Change is   -0.000000031497145
 Root      2 :     2.251011708046771   Change is   -0.000000569454308
 Root      3 :     3.350995408323660   Change is   -0.000001765444934
 Root      4 :     3.435331093882137   Change is   -0.000008083436654
 Root      5 :     3.545759517974620   Change is   -0.000388039274188
 Iteration     9 Dimension    78 NMult    76 NNew      2
 CISAX will form     2 AO SS matrices at one time.
 NMat=     2 NSing=     2 JSym2X= 0.
 Root      1 has converged.
 Root      2 has converged.
 Root      3 has converged.
 Root      4 has converged.
 Root      5 not converged, maximum delta is    0.003889538427459
 Excitation Energies [eV] at current iteration:
 Root      1 :     1.724705545939726   Change is   -0.000000005961658
 Root      2 :     2.251011252960189   Change is   -0.000000455086581
 Root      3 :     3.350994788582690   Change is   -0.000000619740970
 Root      4 :     3.435330674223733   Change is   -0.000000419658405
 Root      5 :     3.545678836704606   Change is   -0.000080681270014
 Iteration    10 Dimension    80 NMult    78 NNew      2
 CISAX will form     2 AO SS matrices at one time.
 NMat=     2 NSing=     2 JSym2X= 0.
 Root      1 has converged.
 Root      2 has converged.
 Root      3 has converged.
 Root      4 has converged.
 Root      5 has converged.
 Excitation Energies [eV] at current iteration:
 Root      1 :     1.724705510483266   Change is   -0.000000035456460
 Root      2 :     2.251011073287918   Change is   -0.000000179672272
 Root      3 :     3.350994127328773   Change is   -0.000000661253917
 Root      4 :     3.435330531238323   Change is   -0.000000142985410
 Root      5 :     3.545666223068323   Change is   -0.000012613636283
 Convergence achieved on expansion vectors.
 ***********************************************************************
 Excited states from <AA,BB:AA,BB> singles matrix:
 ***********************************************************************
 
 1PDM for each excited state written to RWF  633
 Ground to excited state transition densities written to RWF  633
 Ground to excited state transition electric dipole moments (Au):
       state          X           Y           Z        Dip. S.      Osc.
         1        -1.3901      2.5639     -0.4793      8.7354      0.3691
         2         1.1660      0.9636     -0.0356      2.2893      0.1262
         3         0.3933      0.2301     -0.0132      0.2078      0.0171
         4         0.1992      0.2532      0.0251      0.1044      0.0088
         5         1.2361      0.6947      0.0302      2.0115      0.1747
 Ground to excited state transition velocity dipole moments (Au):
       state          X           Y           Z        Dip. S.      Osc.
         1         0.0844     -0.1582      0.0309      0.0331      0.3481
         2        -0.0903     -0.0760      0.0033      0.0140      0.1124
         3        -0.0447     -0.0277      0.0035      0.0028      0.0150
         4        -0.0262     -0.0320     -0.0012      0.0017      0.0090
         5        -0.1565     -0.0885     -0.0026      0.0323      0.1654
 Ground to excited state transition magnetic dipole moments (Au):
       state          X           Y           Z
         1         0.1170     -0.3072     -1.7479
         2         0.1195     -0.1674     -1.0840
         3         0.0684     -0.2970      0.6876
         4         0.1425     -0.5885     -0.8674
         5        -0.1068     -0.1069     -1.0206
 Ground to excited state transition velocity quadrupole moments (Au):
       state          XX          YY          ZZ          XY          XZ          YZ
         1         1.7280     -0.5218      0.0080     -1.3868      0.3507      0.1133
         2        -1.7652     -0.0012     -0.0069     -0.8270     -0.0097      0.0271
         3        -0.5213     -0.4479      0.0056     -0.3110      0.0167      0.0173
         4        -0.6902      0.2973     -0.0024     -0.1667     -0.0045      0.0036
         5        -2.8904      0.0829     -0.0132     -0.8611     -0.0733     -0.0835
 <0|del|b> * <b|rxdel|0> + <0|del|b> * <b|delr+rdel|0>
 Rotatory Strengths (R) in cgs (10**-40 erg-esu-cm/Gauss)
       state          XX          YY          ZZ    R(velocity)    E-M Angle
         1        40.9922     46.3410    -36.6997     16.8778       89.20
         2        24.2389    -60.2257     21.8800     -4.7023       90.73
         3        28.7102     -0.9514     15.7111     14.4900       78.99
         4        55.6936     -8.4529     42.9535     30.0647       68.42
         5        21.5727     81.9732     53.1566     52.2342       81.05
 1/2[<0|r|b>*<b|rxdel|0> + (<0|rxdel|b>*<b|r|0>)*]
 Rotatory Strengths (R) in cgs (10**-40 erg-esu-cm/Gauss)
       state          XX          YY          ZZ     R(length)
         1       115.0327    556.9108   -592.4166     26.5090
         2       -98.5051    114.0505    -27.3260     -3.9269
         3       -19.0161     48.3224      6.3948     11.9004
         4       -20.0665    105.3490     15.4070     33.5631
         5        93.3553     52.5316     21.7978     55.8949
  1/2[<0|del|b>*<b|r|0> + (<0|r|b>*<b|del|0>)*] (Au)
       state          X           Y           Z        Dip. S.   Osc.(frdel)
         1        -0.1174     -0.4055     -0.0148      0.5377      0.3584
         2        -0.1053     -0.0733     -0.0001      0.1787      0.1191
         3        -0.0176     -0.0064     -0.0000      0.0240      0.0160
         4        -0.0052     -0.0081     -0.0000      0.0133      0.0089
         5        -0.1934     -0.0615     -0.0001      0.2550      0.1700

 Excitation energies and oscillator strengths:
 
 Excited State   1:      Singlet-A      1.7247 eV  718.87 nm  f=0.3691  <S**2>=0.000
     245 -> 248       -0.18804
     246 -> 247        0.68394
     245 <- 248       -0.11075
 This state for optimization and/or second-order correction.
 Total Energy, E(TD-HF/TD-DFT) =  -3007.08597473    
 Copying the excited state density for this state as the 1-particle RhoCI density.
 
 Excited State   2:      Singlet-A      2.2510 eV  550.79 nm  f=0.1262  <S**2>=0.000
     245 -> 247        0.63984
     246 -> 248        0.29021
 
 Excited State   3:      Singlet-A      3.3510 eV  369.99 nm  f=0.0171  <S**2>=0.000
[...]
 Alpha virt. eigenvalues --    1.22668   1.22917   1.22981   1.23211   1.23360
 Alpha virt. eigenvalues --    1.24285   1.24649   1.25944   1.26621   1.27028
 Alpha virt. eigenvalues --    1.27253   1.27488   1.28179   1.28588   1.28857
 Alpha virt. eigenvalues --    1.29256   1.29561   1.30086   1.30624   1.30751
 Alpha virt. eigenvalues --    1.31324   1.31829   1.32634   1.32844   1.33186
 Alpha virt. eigenvalues --    1.33277   1.33949   1.34714   1.35143   1.35505
 Alpha virt. eigenvalues --    1.36009   1.36340   1.36566   1.37239   1.37623
 Alpha virt. eigenvalues --    1.37884   1.38372   1.39103   1.39491   1.39514
 Alpha virt. eigenvalues --    1.40240   1.40385   1.40570   1.41260   1.41389
 Alpha virt. eigenvalues --    1.41854   1.42963   1.43162   1.43551   1.43856
 Alpha virt. eigenvalues --    1.44266   1.44351   1.44782   1.44954   1.45134
 Alpha virt. eigenvalues --    1.45543   1.46529   1.46608   1.46910   1.47061
 Alpha virt. eigenvalues --    1.48119   1.48458   1.48574   1.49097   1.49621
 Alpha virt. eigenvalues --    1.49773   1.50973   1.51149   1.51324   1.51773
 Alpha virt. eigenvalues --    1.52213   1.52272   1.52354   1.53191   1.53915
 Alpha virt. eigenvalues --    1.55175   1.55393   1.55808   1.55928   1.56677
 Alpha virt. eigenvalues --    1.57816   1.57897   1.58081   1.58318   1.58526
 Alpha virt. eigenvalues --    1.58730   1.59166   1.59325   1.59597   1.60208
 Alpha virt. eigenvalues --    1.60287   1.60535   1.60986   1.61154   1.61186
 Alpha virt. eigenvalues --    1.61454   1.61729   1.61983   1.62534   1.62977
 Alpha virt. eigenvalues --    1.63207   1.63632   1.63821   1.63930   1.64149
 Alpha virt. eigenvalues --    1.64291   1.64372   1.64809   1.65160   1.65567
 Alpha virt. eigenvalues --    1.65681   1.65948   1.66459   1.66822   1.67128
 Alpha virt. eigenvalues --    1.67205   1.68174   1.68326   1.68694   1.68804
 Alpha virt. eigenvalues --    1.69179   1.70134   1.70332   1.70893   1.71218
 Alpha virt. eigenvalues --    1.71736   1.71904   1.72480   1.72764   1.73713
 Alpha virt. eigenvalues --    1.73913   1.73962   1.74165   1.74504   1.74568
 Alpha virt. eigenvalues --    1.75038   1.76013   1.76324   1.76664   1.76982
 Alpha virt. eigenvalues --    1.77461   1.77784   1.77862   1.78183   1.78410
 Alpha virt. eigenvalues --    1.78809   1.78899   1.79558   1.79767   1.79937
 Alpha virt. eigenvalues --    1.80148   1.80343   1.80519   1.80662   1.80856
 Alpha virt. eigenvalues --    1.81772   1.81810   1.81945   1.82039   1.82262
 Alpha virt. eigenvalues --    1.82441   1.82570   1.82711   1.82953   1.83509
 Alpha virt. eigenvalues --    1.83758   1.84092   1.84372   1.84612   1.84683
 Alpha virt. eigenvalues --    1.84810   1.85283   1.85395   1.85742   1.85951
 Alpha virt. eigenvalues --    1.86025   1.86339   1.86615   1.86879   1.86983
 Alpha virt. eigenvalues --    1.87217   1.87396   1.87550   1.87883   1.88061
 Alpha virt. eigenvalues --    1.88132   1.88373   1.88492   1.88640   1.88735
 Alpha virt. eigenvalues --    1.89037   1.89157   1.89371   1.89579   1.89818
 Alpha virt. eigenvalues --    1.89993   1.90110   1.90264   1.90632   1.90820
 Alpha virt. eigenvalues --    1.90933   1.91122   1.91219   1.91261   1.91649
 Alpha virt. eigenvalues --    1.91754   1.92061   1.92253   1.92460   1.92623
 Alpha virt. eigenvalues --    1.92864   1.93319   1.93697   1.93935   1.94241
 Alpha virt. eigenvalues --    1.94285   1.94474   1.94569   1.94799   1.94887
 Alpha virt. eigenvalues --    1.95123   1.95236   1.95815   1.95885   1.96180
 Alpha virt. eigenvalues --    1.96506   1.96888   1.97034   1.97322   1.97531
 Alpha virt. eigenvalues --    1.97660   1.97851   1.97913   1.98244   1.98567
 Alpha virt. eigenvalues --    1.98805   1.99154   1.99348   1.99523   1.99900
 Alpha virt. eigenvalues --    2.00521   2.00685   2.00971   2.01474   2.01930
 Alpha virt. eigenvalues --    2.02159   2.02578   2.02951   2.03030   2.03275
 Alpha virt. eigenvalues --    2.03498   2.03898   2.03986   2.04116   2.04581
 Alpha virt. eigenvalues --    2.04752   2.05109   2.05226   2.05454   2.06036
 Alpha virt. eigenvalues --    2.06204   2.06448   2.06677   2.06872   2.07180
 Alpha virt. eigenvalues --    2.07493   2.08223   2.08448   2.08519   2.08812
 Alpha virt. eigenvalues --    2.09122   2.09490   2.10017   2.10353   2.10465
 Alpha virt. eigenvalues --    2.10746   2.10838   2.10890   2.11323   2.11742
 Alpha virt. eigenvalues --    2.11798   2.12078   2.12326   2.12894   2.13037
 Alpha virt. eigenvalues --    2.13081   2.14017   2.14357   2.14371   2.14616
 Alpha virt. eigenvalues --    2.14740   2.15027   2.15290   2.15654   2.16258
 Alpha virt. eigenvalues --    2.16537   2.17030   2.17256   2.17599   2.17661
 Alpha virt. eigenvalues --    2.18200   2.18553   2.18677   2.18979   2.19161
 Alpha virt. eigenvalues --    2.19651   2.19860   2.20574   2.20858   2.21331
 Alpha virt. eigenvalues --    2.21535   2.21787   2.21908   2.22377   2.22821
 Alpha virt. eigenvalues --    2.23209   2.23460   2.23871   2.24253   2.24575
 Alpha virt. eigenvalues --    2.24903   2.25609   2.25772   2.25994   2.26461
 Alpha virt. eigenvalues --    2.26581   2.27645   2.27794   2.28155   2.28918
 Alpha virt. eigenvalues --    2.29076   2.29567   2.29725   2.30309   2.30668
 Alpha virt. eigenvalues --    2.31398   2.31741   2.32160   2.32759   2.33605
 Alpha virt. eigenvalues --    2.33699   2.34077   2.34239   2.34480   2.34876
 Alpha virt. eigenvalues --    2.35083   2.35635   2.35959   2.36209   2.36749
 Alpha virt. eigenvalues --    2.37079   2.37802   2.38488   2.38560   2.39028
 Alpha virt. eigenvalues --    2.39237   2.39353   2.39895   2.40507   2.40680
 Alpha virt. eigenvalues --    2.40913   2.40965   2.41560   2.42217   2.42749
 Alpha virt. eigenvalues --    2.42918   2.43099   2.43415   2.44218   2.44496
 Alpha virt. eigenvalues --    2.44735   2.44898   2.45512   2.45666   2.46084
 Alpha virt. eigenvalues --    2.46361   2.47044   2.47164   2.47458   2.47614
 Alpha virt. eigenvalues --    2.48030   2.48350   2.48489   2.48905   2.49680
 Alpha virt. eigenvalues --    2.49720   2.49810   2.50152   2.50358   2.51109
 Alpha virt. eigenvalues --    2.51349   2.51796   2.52209   2.52589   2.53184
 Alpha virt. eigenvalues --    2.53311   2.53580   2.53830   2.54972   2.55066
 Alpha virt. eigenvalues --    2.55602   2.56014   2.56218   2.56941   2.57529
 Alpha virt. eigenvalues --    2.57965   2.58523   2.58829   2.59070   2.59488
 Alpha virt. eigenvalues --    2.59832   2.60223   2.60358   2.60680   2.61068
 Alpha virt. eigenvalues --    2.61371   2.61512   2.63214   2.63497   2.63563
 Alpha virt. eigenvalues --    2.64053   2.64149   2.64786   2.65080   2.65505
 Alpha virt. eigenvalues --    2.65659   2.65965   2.66071   2.66286   2.66923
 Alpha virt. eigenvalues --    2.67205   2.67418   2.67756   2.68358   2.68679
 Alpha virt. eigenvalues --    2.69119   2.69951   2.70027   2.70966   2.71111
 Alpha virt. eigenvalues --    2.72332   2.72536   2.72634   2.73360   2.74092
 Alpha virt. eigenvalues --    2.74460   2.74936   2.74980   2.75358   2.75572
 Alpha virt. eigenvalues --    2.75846   2.76643   2.76852   2.77342   2.78435
 Alpha virt. eigenvalues --    2.78617   2.79152   2.79322   2.79720   2.80013
 Alpha virt. eigenvalues --    2.80061   2.80491   2.80560   2.80915   2.81905
 Alpha virt. eigenvalues --    2.82454   2.82494   2.82659   2.82887   2.83515
 Alpha virt. eigenvalues --    2.84167   2.84791   2.85188   2.85517   2.85921
 Alpha virt. eigenvalues --    2.85959   2.86538   2.86937   2.87028   2.88063
 Alpha virt. eigenvalues --    2.88218   2.89181   2.89575   2.90115   2.90264
 Alpha virt. eigenvalues --    2.91422   2.92136   2.92311   2.93161   2.93753
 Alpha virt. eigenvalues --    2.94666   2.94801   2.95466   2.96286   2.96896
 Alpha virt. eigenvalues --    2.97119   2.97560   2.97867   2.98181   2.98252
 Alpha virt. eigenvalues --    2.98638   2.98700   2.98956   2.99188   2.99988
 Alpha virt. eigenvalues --    3.00345   3.00489   3.00999   3.01172   3.01581
 Alpha virt. eigenvalues --    3.01855   3.02009   3.02141   3.02256   3.02521
 Alpha virt. eigenvalues --    3.03105   3.03488   3.03886   3.04101   3.04587
 Alpha virt. eigenvalues --    3.04736   3.05024   3.05173   3.05358   3.05762
 Alpha virt. eigenvalues --    3.05985   3.06198   3.06700   3.06758   3.06861
 Alpha virt. eigenvalues --    3.07259   3.07588   3.07972   3.08675   3.09113
 Alpha virt. eigenvalues --    3.09279   3.09936   3.10082   3.10251   3.10582
 Alpha virt. eigenvalues --    3.10695   3.10942   3.11193   3.11624   3.11960
 Alpha virt. eigenvalues --    3.12617   3.12752   3.13200   3.13491   3.15221
 Alpha virt. eigenvalues --    3.15564   3.16034   3.16340   3.16651   3.16779
 Alpha virt. eigenvalues --    3.17146   3.18061   3.18711   3.19708   3.19979
 Alpha virt. eigenvalues --    3.21210   3.22337   3.22534   3.23831   3.25232
 Alpha virt. eigenvalues --    3.25670   3.25978   3.27398   3.28776   3.30310
 Alpha virt. eigenvalues --    3.31449   3.33652   3.43719   3.44866   3.47651
 Alpha virt. eigenvalues --    3.47965   3.49052   3.51509   3.57859   3.58768
 Alpha virt. eigenvalues --    3.63136   3.65674   3.69566   3.71455   3.72054
 Alpha virt. eigenvalues --    3.73610   3.76005
          Condensed to atoms (all electrons):
 Mulliken charges:
               1
     1  Mg   0.836487
     2  C   -0.060816
     3  C   -0.054170
     4  C   -0.082298
     5  C   -0.095613
     6  N   -0.216300
     7  C   -0.046267
     8  C   -0.054996
     9  C   -0.061853
    10  C    0.024821
    11  C    0.077378
    12  C    0.070859
    13  C    0.094340
    14  C    0.137961
    15  O   -0.212413
    16  O   -0.345827
    17  N   -0.442108
    18  C    0.149316
    19  C   -0.153463
    20  C   -0.032444
    21  C    0.180102
    22  C    0.107695
    23  C   -0.005335
    24  O   -0.207245
    25  C    0.051432
    26  N   -0.263797
    27  C    0.050663
    28  C   -0.052864
    29  C   -0.002887
    30  C    0.041729
    31  C    0.043711
    32  C    0.065508
    33  C   -0.034614
    34  N   -0.365052
    35  C    0.116832
    36  C   -0.174234
    37  C   -0.071796
    38  C    0.184444
    39  C    0.132385
    40  C    0.056714
    41  O   -0.171033
    42  C    0.038202
    43  C    0.175540
    44  O   -0.211354
    45  O   -0.329211
    46  C    0.190937
    47  C    0.256634
    48  C   -0.115350
    49  C   -0.130377
    50  C    0.051186
    51  C    0.030483
    52  C    0.038627
    53  C    0.036360
    54  C   -0.140573
    55  C    0.056010
    56  C    0.060493
    57  C    0.000574
    58  C    0.091119
    59  C   -0.133410
    60  C    0.034946
    61  C    0.067884
    62  C   -0.026592
    63  C    0.057422
    64  C   -0.153785
    65  C    0.050368
    66  C    0.011045
    67  H   -0.030703
    68  H   -0.006751
    69  H   -0.027669
    70  H    0.056302
    71  H   -0.001733
    72  H    0.012144
    73  H    0.016955
    74  H    0.015274
    75  H    0.013588
    76  H    0.007796
    77  H    0.015277
    78  H    0.026281
    79  H    0.035272
    80  H    0.038152
    81  H    0.000049
    82  H    0.032839
    83  H    0.012818
    84  H    0.033829
    85  H    0.009177
    86  H    0.009740
    87  H    0.015813
    88  H    0.020447
    89  H    0.012551
    90  H    0.010774
    91  H    0.015287
    92  H    0.012653
    93  H    0.024983
    94  H    0.010168
    95  H    0.039508
    96  H    0.024954
    97  H    0.044051
    98  H    0.035309
    99  H    0.033353
   100  H    0.043558
   101  H    0.031028
   102  H    0.025750
   103  H    0.021102
   104  H    0.001383
   105  H    0.019317
   106  H    0.021965
   107  H    0.024521
   108  H   -0.007422
   109  H    0.017796
   110  H    0.010304
   111  H    0.003639
   112  H    0.000050
   113  H    0.004163
   114  H    0.000763
   115  H    0.000352
   116  H    0.009521
   117  H    0.004073
   118  H   -0.011595
   119  H   -0.008854
   120  H   -0.002890
   121  H   -0.013783
   122  H   -0.008314
   123  H   -0.007767
   124  H    0.001701
   125  H   -0.001023
   126  H    0.000599
   127  H    0.003428
   128  H   -0.003956
   129  H    0.004729
   130  H    0.001380
   131  H   -0.003178
   132  H   -0.018199
   133  H   -0.001073
   134  H    0.000799
   135  H   -0.001693
   136  H    0.011311
   137  H    0.004591
   138  H    0.015098
   139  H    0.015408
   140  H    0.000804
 Sum of Mulliken charges =  -0.00000
 Mulliken charges with hydrogens summed into heavy atoms:
               1
     1  Mg   0.836487
     2  C   -0.060816
     3  C   -0.084873
     4  C   -0.089049
     5  C   -0.123282
     6  N   -0.216300
     7  C   -0.046267
     8  C    0.001306
     9  C   -0.063586
    10  C    0.024821
    11  C    0.121750
    12  C    0.092243
    13  C    0.135898
    14  C    0.137961
    15  O   -0.212413
    16  O   -0.345827
    17  N   -0.442108
    18  C    0.149316
    19  C   -0.153463
    20  C   -0.032444
    21  C    0.180102
    22  C    0.181169
    23  C   -0.005335
    24  O   -0.207245
    25  C    0.130918
    26  N   -0.263797
    27  C    0.050663
    28  C   -0.043687
    29  C    0.006852
    30  C    0.041729
    31  C    0.092521
    32  C    0.091570
    33  C    0.013191
    34  N   -0.365052
    35  C    0.116832
    36  C   -0.174234
    37  C   -0.071796
    38  C    0.184444
    39  C    0.240898
    40  C    0.056714
    41  O   -0.171033
    42  C    0.073511
    43  C    0.175540
    44  O   -0.211354
    45  O   -0.329211
    46  C    0.298875
    47  C    0.303485
    48  C   -0.113967
    49  C   -0.130377
    50  C    0.116989
    51  C    0.040858
    52  C    0.052570
    53  C    0.040574
    54  C   -0.139810
    55  C    0.069955
    56  C    0.040043
    57  C   -0.016098
    58  C    0.075037
    59  C   -0.131709
    60  C    0.037949
    61  C    0.068657
    62  C   -0.028390
    63  C    0.038150
    64  C   -0.152986
    65  C    0.064577
    66  C    0.042355
 Electronic spatial extent (au):  <R**2>=         122210.0175
 Charge=             -0.0000 electrons
 Dipole moment (field-independent basis, Debye):
    X=             -5.0184    Y=              0.7668    Z=              1.9987  Tot=              5.4559
 Quadrupole moment (field-independent basis, Debye-Ang):
   XX=           -390.4355   YY=           -423.0417   ZZ=           -402.5673
   XY=             20.6513   XZ=             18.6270   YZ=             -2.6166
 Traceless Quadrupole moment (field-independent basis, Debye-Ang):
   XX=             14.9127   YY=            -17.6935   ZZ=              2.7809
   XY=             20.6513   XZ=             18.6270   YZ=             -2.6166
 Octapole moment (field-independent basis, Debye-Ang**2):
  XXX=            332.2079  YYY=           -135.2449  ZZZ=             -1.7331  XYY=           -327.5026
  XXY=              2.0926  XXZ=             46.7727  XZZ=             35.9767  YZZ=            -20.9308
  YYZ=            -20.5022  XYZ=            -30.7598
 Hexadecapole moment (field-independent basis, Debye-Ang**3):
 XXXX=        -134046.5567 YYYY=         -26914.1158 ZZZZ=          -5140.8693 XXXY=           1287.0697
 XXXZ=            759.0832 YYYX=             28.7579 YYYZ=            240.9610 ZZZX=              7.4691
 ZZZY=            -44.4399 XXYY=         -29088.2080 XXZZ=         -24198.0987 YYZZ=          -5058.8202
 XXYZ=            222.4287 YYXZ=            189.8114 ZZXY=             85.0464
 N-N= 9.561272387447D+03 E-N=-2.611455066436D+04  KE= 2.974938694456D+03
 Leave Link  601 at Fri Apr 29 14:49:36 2022, MaxMem= 10066329600 cpu:              11.4 elap:               0.6
 (Enter /sw/apps/gaussian-16.0/g16/l9999.exe)
 1\1\GINC-BP1-COMPUTE102\SP\RCAM-B3LYP TD-FC\def2SVP\C55H74Mg1N4O6\OF15
 641\29-Apr-2022\0\\#p cam-b3lyp/Def2SVP td=(nstates=5)\\step_351_chrom
 ophore_24 TDDFT with cam-b3lyp functional\\0,1\Mg,0,-0.224,44.195,24.7
 71\C,0,1.928,43.967,27.652\C,0,-2.794,43.366,26.795\C,0,-1.946,43.784,
 21.96\C,0,2.706,44.666,22.815\N,0,-0.356,43.462,27.036\C,0,0.566,43.65
 5,27.961\C,0,0.016,43.418,29.373\C,0,-1.448,42.996,29.037\C,0,-1.61,43
 .306,27.533\C,0,-1.881,41.617,29.548\C,0,0.052,44.658,30.319\C,0,0.134
 ,44.384,31.858\C,0,-0.185,42.928,32.343\O,0,0.515,42.004,32.055\O,0,-1
 .443,42.749,32.937\N,0,-2.123,43.762,24.384\C,0,-3.056,43.468,25.383\C
 ,0,-4.42,43.327,24.69\C,0,-4.098,43.383,23.254\C,0,-2.679,43.643,23.13
 2\C,0,-5.735,43.021,25.392\C,0,-4.968,43.084,22.071\O,0,-4.666,43.41,2
 0.936\C,0,-6.36,42.569,22.287\N,0,0.249,44.331,22.742\C,0,-0.653,44.04
 9,21.803\C,0,-0.018,44.203,20.399\C,0,1.418,44.739,20.648\C,0,1.43,44.
 591,22.166\C,0,-0.053,42.939,19.451\C,0,1.636,46.23,20.279\C,0,0.739,4
 7.242,21.042\N,0,1.837,44.378,25.105\C,0,2.943,44.545,24.217\C,0,4.183
 ,44.456,24.867\C,0,3.81,44.263,26.237\C,0,2.351,44.253,26.336\C,0,5.59
 3,44.477,24.251\C,0,4.397,43.966,27.589\O,0,5.548,43.669,27.881\C,0,3.
 176,43.896,28.587\C,0,3.321,42.537,29.216\O,0,3.354,41.518,28.566\O,0,
 3.482,42.632,30.566\C,0,3.755,41.334,31.241\C,0,-1.579,41.452,33.583\C
 ,0,-2.826,41.467,34.486\C,0,-2.898,41.092,35.789\C,0,-1.761,40.47,36.4
 92\C,0,-4.31,40.893,36.517\C,0,-5.443,42.04,36.477\C,0,-6.672,41.661,3
 5.715\C,0,-8.026,41.908,36.563\C,0,-8.408,43.382,36.776\C,0,-9.144,41.
 24,35.802\C,0,-9.466,39.837,36.381\C,0,-10.928,39.687,37.\C,0,-10.972,
 39.58,38.523\C,0,-11.104,38.085,38.973\C,0,-12.065,40.551,39.168\C,0,-
 11.323,41.786,39.628\C,0,-12.25,43.03,39.868\C,0,-11.912,44.296,39.075
 \C,0,-12.156,45.628,39.803\C,0,-12.744,44.216,37.708\H,0,-3.679,43.27,
 27.427\H,0,-2.375,43.758,20.956\H,0,3.615,44.841,22.235\H,0,0.494,42.5
 38,29.802\H,0,-2.051,43.635,29.682\H,0,-2.529,41.652,30.424\H,0,-0.988
 ,41.081,29.867\H,0,-2.342,41.121,28.693\H,0,-0.811,45.316,30.22\H,0,0.
 857,45.328,30.016\H,0,-0.315,45.137,32.506\H,0,1.167,44.546,32.165\H,0
 ,-6.137,42.047,25.112\H,0,-6.408,43.861,25.221\H,0,-5.614,42.916,26.47
 \H,0,-6.427,41.558,22.689\H,0,-6.962,42.449,21.386\H,0,-6.814,43.363,2
 2.879\H,0,-0.661,44.874,19.83\H,0,2.189,44.114,20.197\H,0,-0.134,43.34
 1,18.441\H,0,-0.881,42.233,19.515\H,0,0.819,42.306,19.612\H,0,1.184,46
 .423,19.306\H,0,2.693,46.45,20.425\H,0,1.271,47.607,21.92\H,0,-0.248,4
 6.87,21.316\H,0,0.48,48.168,20.527\H,0,5.878,45.516,24.09\H,0,5.618,43
 .865,23.349\H,0,6.183,43.959,25.007\H,0,3.417,44.684,29.3\H,0,4.67,40.
 848,30.904\H,0,2.933,40.653,31.02\H,0,3.919,41.462,32.311\H,0,-0.617,4
 1.159,34.003\H,0,-1.945,40.755,32.83\H,0,-3.686,41.739,33.874\H,0,-1.1
 99,39.856,35.789\H,0,-1.941,39.843,37.365\H,0,-0.996,41.201,36.757\H,0
 ,-4.082,40.645,37.554\H,0,-4.719,39.975,36.095\H,0,-4.971,42.911,36.02
 2\H,0,-5.611,42.191,37.544\H,0,-6.7,40.597,35.481\H,0,-6.573,42.277,34
 .821\H,0,-7.852,41.395,37.509\H,0,-8.038,44.019,35.973\H,0,-8.101,43.7
 87,37.741\H,0,-9.484,43.558,36.751\H,0,-8.796,41.085,34.78\H,0,-10.075
 ,41.795,35.69\H,0,-8.679,39.455,37.032\H,0,-9.356,39.233,35.48\H,0,-11
 .359,38.764,36.612\H,0,-11.61,40.465,36.659\H,0,-10.023,39.88,38.966\H
 ,0,-11.275,37.351,38.186\H,0,-11.935,37.88,39.647\H,0,-10.196,37.753,3
 9.477\H,0,-12.443,40.136,40.102\H,0,-12.817,40.936,38.479\H,0,-10.51,4
 2.007,38.937\H,0,-10.837,41.534,40.57\H,0,-12.143,43.281,40.923\H,0,-1
 3.306,42.831,39.682\H,0,-10.863,44.267,38.782\H,0,-13.13,45.983,39.465
 \H,0,-11.523,46.495,39.611\H,0,-12.173,45.444,40.877\H,0,-13.378,43.33
 9,37.584\H,0,-11.936,44.352,36.989\H,0,-13.449,45.025,37.515\\Version=
 ES64L-G16RevA.03\State=1-A\HF=-3007.1493565\RMSD=8.841e-09\PG=C01 [X(C
 55H74Mg1N4O6)]\\@


 WAR ES EIN GOTT DER DIESE ZEICHEN SCHRIEB?
          - LUDWIG BOLTZMANN, QUOTING GOETHE, ABOUT MAXWELL'S EQUATIONS.
 Job cpu time:       0 days 10 hours  3 minutes 58.0 seconds.
 Elapsed time:       0 days  0 hours 25 minutes 40.3 seconds.
 File lengths (MBytes):  RWF=   8929 Int=      0 D2E=      0 Chk=    390 Scr=      1
 Normal termination of Gaussian 16 at Fri Apr 29 14:49:37 2022.
