 Entering Gaussian System, Link 0=g16
 Initial command:
 /sw/apps/gaussian-16.0/g16/l1.exe "/tmp/Gau-233221.inp" -scrdir="/tmp/"
 Entering Link 1 = /sw/apps/gaussian-16.0/g16/l1.exe PID=    233222.
  
 Copyright (c) 1988,1990,1992,1993,1995,1998,2003,2009,2016,
            Gaussian, Inc.  All Rights Reserved.
  
 This is part of the Gaussian(R) 16 program.  It is based on
 the Gaussian(R) 09 system (copyright 2009, Gaussian, Inc.),
 the Gaussian(R) 03 system (copyright 2003, Gaussian, Inc.),
 the Gaussian(R) 98 system (copyright 1998, Gaussian, Inc.),
 the Gaussian(R) 94 system (copyright 1995, Gaussian, Inc.),
 the Gaussian 92(TM) system (copyright 1992, Gaussian, Inc.),
 the Gaussian 90(TM) system (copyright 1990, Gaussian, Inc.),
 the Gaussian 88(TM) system (copyright 1988, Gaussian, Inc.),
 the Gaussian 86(TM) system (copyright 1986, Carnegie Mellon
 University), and the Gaussian 82(TM) system (copyright 1983,
 Carnegie Mellon University). Gaussian is a federally registered
 trademark of Gaussian, Inc.
  
 This software contains proprietary and confidential information,
 including trade secrets, belonging to Gaussian, Inc.
  
 This software is provided under written license and may be
 used, copied, transmitted, or stored only in accord with that
 written license.
  
 The following legend is applicable only to US Government
 contracts under FAR:
  
                    RESTRICTED RIGHTS LEGEND
  
 Use, reproduction and disclosure by the US Government is
 subject to restrictions as set forth in subparagraphs (a)
 and (c) of the Commercial Computer Software - Restricted
 Rights clause in FAR 52.227-19.
  
 Gaussian, Inc.
 340 Quinnipiac St., Bldg. 40, Wallingford CT 06492
  
  
 ---------------------------------------------------------------
 Warning -- This program may not be used in any manner that
 competes with the business of Gaussian, Inc. or will provide
 assistance to any competitor of Gaussian, Inc.  The licensee
 of this program is prohibited from giving any competitor of
 Gaussian, Inc. access to this program.  By using this program,
 the user acknowledges that Gaussian, Inc. is engaged in the
 business of creating and licensing software in the field of
 computational chemistry and represents and warrants to the
 licensee that it is not a competitor of Gaussian, Inc. and that
 it will not use this program in any manner prohibited above.
 ---------------------------------------------------------------
  

 Cite this work as:
 Gaussian 16, Revision A.03,
 M. J. Frisch, G. W. Trucks, H. B. Schlegel, G. E. Scuseria, 
 M. A. Robb, J. R. Cheeseman, G. Scalmani, V. Barone, 
 G. A. Petersson, H. Nakatsuji, X. Li, M. Caricato, A. V. Marenich, 
 J. Bloino, B. G. Janesko, R. Gomperts, B. Mennucci, H. P. Hratchian, 
 J. V. Ortiz, A. F. Izmaylov, J. L. Sonnenberg, D. Williams-Young, 
 F. Ding, F. Lipparini, F. Egidi, J. Goings, B. Peng, A. Petrone, 
 T. Henderson, D. Ranasinghe, V. G. Zakrzewski, J. Gao, N. Rega, 
 G. Zheng, W. Liang, M. Hada, M. Ehara, K. Toyota, R. Fukuda, 
 J. Hasegawa, M. Ishida, T. Nakajima, Y. Honda, O. Kitao, H. Nakai, 
 T. Vreven, K. Throssell, J. A. Montgomery, Jr., J. E. Peralta, 
 F. Ogliaro, M. J. Bearpark, J. J. Heyd, E. N. Brothers, K. N. Kudin, 
 V. N. Staroverov, T. A. Keith, R. Kobayashi, J. Normand, 
 K. Raghavachari, A. P. Rendell, J. C. Burant, S. S. Iyengar, 
 J. Tomasi, M. Cossi, J. M. Millam, M. Klene, C. Adamo, R. Cammi, 
 J. W. Ochterski, R. L. Martin, K. Morokuma, O. Farkas, 
 J. B. Foresman, and D. J. Fox, Gaussian, Inc., Wallingford CT, 2016.
 
 ******************************************
 Gaussian 16:  ES64L-G16RevA.03 25-Dec-2016
                29-Apr-2022 
 ******************************************
 %nproc=24
 Will use up to   24 processors via shared memory.
 %mem=50gb
 --------------------
 #p ZINDO=(nstates=5)
 --------------------
 1/38=1,172=1/1;
 2/12=2,17=6,18=5,40=1/2;
 3/5=2,25=1,41=400000/1,2,3,8;
 4/5=3,35=1/1;
 5/5=2,35=1,38=5/2;
 8/6=1,108=5/1;
 9/41=5,42=1,49=10/14;
 6/7=2,8=2,9=2,10=2/1;
 99/5=1,9=1/99;
 Leave Link    1 at Fri Apr 29 19:08:12 2022, MaxMem=  6710886400 cpu:               0.9 elap:               0.0
 (Enter /sw/apps/gaussian-16.0/g16/l101.exe)
 ----------------------------
 step_401_chromophore_9 ZINDO
 ----------------------------
 Symbolic Z-matrix:
 Charge =  0 Multiplicity = 1
 Mg                    35.844    1.663     29.803 
 C                     33.281    2.861     31.886 
 C                     37.955    1.633     32.511 
 C                     38.248    0.742     27.666 
 C                     33.497    1.785     27.036 
 N                     35.631    2.295     31.939 
 C                     34.458    2.489     32.617 
 C                     34.581    2.199     34.128 
 C                     36.08     2.096     34.332 
 C                     36.634    2.048     32.861 
 C                     36.745    3.063     35.295 
 C                     33.83     0.923     34.616 
 C                     33.288    0.959     36.132 
 C                     33.838    2.027     37.096 
 O                     33.363    3.137     37.259 
 O                     34.965    1.619     37.695 
 N                     37.876    1.208     30.075 
 C                     38.519    1.185     31.276 
 C                     39.848    0.819     30.975 
 C                     39.986    0.565     29.609 
 C                     38.716    0.844     29.019 
 C                     40.946    0.743     32.073 
 C                     41.163    0.162     28.844 
 O                     41.048   -0.271     27.698 
 C                     42.523    0.058     29.461 
 N                     35.882    1.354     27.655 
 C                     37.052    1.008     27.03 
 C                     36.836    0.885     25.527 
 C                     35.294    1.052     25.318 
 C                     34.816    1.412     26.713 
 C                     37.637    2.015     24.7 
 C                     34.518   -0.14      24.753 
 C                     34.179   -1.134     25.784 
 N                     33.799    2.25      29.387 
 C                     33.035    2.267     28.244 
 C                     31.738    2.726     28.652 
 C                     31.784    2.991     30.022 
 C                     33.1      2.703     30.462 
 C                     30.555    2.801     27.677 
 C                     30.958    3.36      31.218 
 O                     29.806    3.726     31.271 
 C                     31.943    3.17      32.474 
 C                     31.875    4.363     33.435 
 O                     31.912    5.542     33.155 
 O                     31.546    3.903     34.689 
 C                     31.122    4.819     35.709 
 C                     35.56     2.654     38.51 
 C                     36.897    2.123     39.002 
 C                     37.266    1.697     40.227 
 C                     36.37     1.599     41.477 
 C                     38.699    1.403     40.599 
 C                     39.045    0.111     41.374 
 C                     40.109    0.321     42.468 
 C                     41.446   -0.341     42.126 
 C                     41.337   -1.882     42.385 
 C                     42.598    0.151     42.957 
 C                     43.323    1.289     42.232 
 C                     43.662    2.443     43.212 
 C                     44.652    3.405     42.61 
 C                     46.069    2.726     42.615 
 C                     44.703    4.787     43.253 
 C                     43.665    5.73      42.641 
 C                     44.175    6.519     41.306 
 C                     43.743    8.002     41.4 
 C                     43.629    8.584     40.032 
 C                     44.837    8.797     42.207 
 H                     38.583    1.424     33.38 
 H                     39.01     0.506     26.919 
 H                     32.776    1.797     26.217 
 H                     34.225    3.097     34.633 
 H                     36.317    1.094     34.69 
 H                     37.401    2.613     36.041 
 H                     35.962    3.673     35.745 
 H                     37.494    3.755     34.911 
 H                     34.496    0.062     34.555 
 H                     32.922    0.773     34.032 
 H                     33.634   -0.003     36.509 
 H                     32.204    0.85      36.104 
 H                     41.296   -0.242     32.383 
 H                     40.585    1.242     32.973 
 H                     41.766    1.31      31.631 
 H                     42.803    0.963     30. 
 H                     43.26    -0.232     28.712 
 H                     42.456   -0.768     30.169 
 H                     37.167   -0.068     25.114 
 H                     35.067    1.889     24.657 
 H                     38.513    1.787     24.094 
 H                     38.061    2.711     25.425 
 H                     36.91     2.544     24.084 
 H                     35.053   -0.474     23.864 
 H                     33.579    0.296     24.412 
 H                     34.646   -2.044     25.41 
 H                     33.109   -1.216     25.971 
 H                     34.798   -0.988     26.67 
 H                     30.346    1.838     27.21 
 H                     30.89     3.419     26.844 
 H                     29.681    3.253     28.146 
 H                     31.446    2.372     33.025 
 H                     30.665    4.382     36.597 
 H                     30.378    5.387     35.151 
 H                     32.023    5.347     36.02 
 H                     34.973    2.966     39.374 
 H                     35.912    3.451     37.855 
 H                     37.698    2.281     38.28 
 H                     36.021    0.576     41.619 
 H                     35.6      2.362     41.36 
 H                     36.856    1.867     42.415 
 H                     39.124    2.334     40.976 
 H                     39.226    1.349     39.646 
 H                     39.541   -0.541     40.655 
 H                     38.218   -0.424     41.843 
 H                     39.764   -0.172     43.377 
 H                     40.192    1.382     42.705 
 H                     41.64    -0.323     41.054 
 H                     40.358   -2.141     42.788 
 H                     42.112   -2.287     43.035 
 H                     41.495   -2.471     41.482 
 H                     43.358   -0.599     43.176 
 H                     42.211    0.509     43.912 
 H                     42.802    1.773     41.406 
 H                     44.145    0.844     41.67 
 H                     44.072    2.061     44.147 
 H                     42.664    2.821     43.431 
 H                     44.546    3.595     41.542 
 H                     46.86     3.476     42.595 
 H                     46.249    2.03      41.796 
 H                     46.253    2.134     43.511 
 H                     45.639    5.341     43.183 
 H                     44.549    4.652     44.324 
 H                     43.332    6.408     43.427 
 H                     42.8      5.159     42.303 
 H                     43.627    6.06      40.482 
 H                     45.252    6.445     41.155 
 H                     42.776    8.094     41.895 
 H                     44.295    8.195     39.262 
 H                     43.851    9.651     40.017 
 H                     42.584    8.458     39.747 
 H                     45.329    8.117     42.904 
 H                     44.38     9.655     42.699 
 H                     45.567    9.184     41.497 
 
 ITRead=  0  0  0  0  0  0  0  0  0  0  0  0  0  0  0  0  0  0  0  0
 ITRead=  0  0  0  0  0  0  0  0  0  0  0  0  0  0  0  0  0  0  0  0
 ITRead=  0  0  0  0  0  0  0  0  0  0  0  0  0  0  0  0  0  0  0  0
 ITRead=  0  0  0  0  0  0  0  0  0  0  0  0  0  0  0  0  0  0  0  0
 ITRead=  0  0  0  0  0  0  0  0  0  0  0  0  0  0  0  0  0  0  0  0
 ITRead=  0  0  0  0  0  0  0  0  0  0  0  0  0  0  0  0  0  0  0  0
 ITRead=  0  0  0  0  0  0  0  0  0  0  0  0  0  0  0  0  0  0  0  0
 MicOpt= -1 -1 -1 -1 -1 -1 -1 -1 -1 -1 -1 -1 -1 -1 -1 -1 -1 -1 -1 -1
 MicOpt= -1 -1 -1 -1 -1 -1 -1 -1 -1 -1 -1 -1 -1 -1 -1 -1 -1 -1 -1 -1
 MicOpt= -1 -1 -1 -1 -1 -1 -1 -1 -1 -1 -1 -1 -1 -1 -1 -1 -1 -1 -1 -1
 MicOpt= -1 -1 -1 -1 -1 -1 -1 -1 -1 -1 -1 -1 -1 -1 -1 -1 -1 -1 -1 -1
 MicOpt= -1 -1 -1 -1 -1 -1 -1 -1 -1 -1 -1 -1 -1 -1 -1 -1 -1 -1 -1 -1
 MicOpt= -1 -1 -1 -1 -1 -1 -1 -1 -1 -1 -1 -1 -1 -1 -1 -1 -1 -1 -1 -1
 MicOpt= -1 -1 -1 -1 -1 -1 -1 -1 -1 -1 -1 -1 -1 -1 -1 -1 -1 -1 -1 -1
 NAtoms=    140 NQM=      140 NQMF=       0 NMMI=      0 NMMIF=      0
                NMic=       0 NMicF=      0.
                    Isotopes and Nuclear Properties:
 (Nuclear quadrupole moments (NQMom) in fm**2, nuclear magnetic moments (NMagM)
  in nuclear magnetons)

  Atom         1           2           3           4           5           6           7           8           9          10
 IAtWgt=          24          12          12          12          12          14          12          12          12          12
 AtmWgt=  23.9850450  12.0000000  12.0000000  12.0000000  12.0000000  14.0030740  12.0000000  12.0000000  12.0000000  12.0000000
 NucSpn=           0           0           0           0           0           2           0           0           0           0
 AtZEff=  -0.0000000  -0.0000000  -0.0000000  -0.0000000  -0.0000000  -0.0000000  -0.0000000  -0.0000000  -0.0000000  -0.0000000
 NQMom=    0.0000000   0.0000000   0.0000000   0.0000000   0.0000000   2.0440000   0.0000000   0.0000000   0.0000000   0.0000000
 NMagM=    0.0000000   0.0000000   0.0000000   0.0000000   0.0000000   0.4037610   0.0000000   0.0000000   0.0000000   0.0000000
 AtZNuc=  12.0000000   6.0000000   6.0000000   6.0000000   6.0000000   7.0000000   6.0000000   6.0000000   6.0000000   6.0000000

  Atom        11          12          13          14          15          16          17          18          19          20
 IAtWgt=          12          12          12          12          16          16          14          12          12          12
 AtmWgt=  12.0000000  12.0000000  12.0000000  12.0000000  15.9949146  15.9949146  14.0030740  12.0000000  12.0000000  12.0000000
 NucSpn=           0           0           0           0           0           0           2           0           0           0
 AtZEff=  -0.0000000  -0.0000000  -0.0000000  -0.0000000  -0.0000000  -0.0000000  -0.0000000  -0.0000000  -0.0000000  -0.0000000
 NQMom=    0.0000000   0.0000000   0.0000000   0.0000000   0.0000000   0.0000000   2.0440000   0.0000000   0.0000000   0.0000000
 NMagM=    0.0000000   0.0000000   0.0000000   0.0000000   0.0000000   0.0000000   0.4037610   0.0000000   0.0000000   0.0000000
 AtZNuc=   6.0000000   6.0000000   6.0000000   6.0000000   8.0000000   8.0000000   7.0000000   6.0000000   6.0000000   6.0000000

  Atom        21          22          23          24          25          26          27          28          29          30
 IAtWgt=          12          12          12          16          12          14          12          12          12          12
 AtmWgt=  12.0000000  12.0000000  12.0000000  15.9949146  12.0000000  14.0030740  12.0000000  12.0000000  12.0000000  12.0000000
 NucSpn=           0           0           0           0           0           2           0           0           0           0
 AtZEff=  -0.0000000  -0.0000000  -0.0000000  -0.0000000  -0.0000000  -0.0000000  -0.0000000  -0.0000000  -0.0000000  -0.0000000
 NQMom=    0.0000000   0.0000000   0.0000000   0.0000000   0.0000000   2.0440000   0.0000000   0.0000000   0.0000000   0.0000000
 NMagM=    0.0000000   0.0000000   0.0000000   0.0000000   0.0000000   0.4037610   0.0000000   0.0000000   0.0000000   0.0000000
 AtZNuc=   6.0000000   6.0000000   6.0000000   8.0000000   6.0000000   7.0000000   6.0000000   6.0000000   6.0000000   6.0000000

  Atom        31          32          33          34          35          36          37          38          39          40
 IAtWgt=          12          12          12          14          12          12          12          12          12          12
 AtmWgt=  12.0000000  12.0000000  12.0000000  14.0030740  12.0000000  12.0000000  12.0000000  12.0000000  12.0000000  12.0000000
 NucSpn=           0           0           0           2           0           0           0           0           0           0
 AtZEff=  -0.0000000  -0.0000000  -0.0000000  -0.0000000  -0.0000000  -0.0000000  -0.0000000  -0.0000000  -0.0000000  -0.0000000
 NQMom=    0.0000000   0.0000000   0.0000000   2.0440000   0.0000000   0.0000000   0.0000000   0.0000000   0.0000000   0.0000000
 NMagM=    0.0000000   0.0000000   0.0000000   0.4037610   0.0000000   0.0000000   0.0000000   0.0000000   0.0000000   0.0000000
 AtZNuc=   6.0000000   6.0000000   6.0000000   7.0000000   6.0000000   6.0000000   6.0000000   6.0000000   6.0000000   6.0000000

  Atom        41          42          43          44          45          46          47          48          49          50
 IAtWgt=          16          12          12          16          16          12          12          12          12          12
 AtmWgt=  15.9949146  12.0000000  12.0000000  15.9949146  15.9949146  12.0000000  12.0000000  12.0000000  12.0000000  12.0000000
 NucSpn=           0           0           0           0           0           0           0           0           0           0
 AtZEff=  -0.0000000  -0.0000000  -0.0000000  -0.0000000  -0.0000000  -0.0000000  -0.0000000  -0.0000000  -0.0000000  -0.0000000
 NQMom=    0.0000000   0.0000000   0.0000000   0.0000000   0.0000000   0.0000000   0.0000000   0.0000000   0.0000000   0.0000000
 NMagM=    0.0000000   0.0000000   0.0000000   0.0000000   0.0000000   0.0000000   0.0000000   0.0000000   0.0000000   0.0000000
 AtZNuc=   8.0000000   6.0000000   6.0000000   8.0000000   8.0000000   6.0000000   6.0000000   6.0000000   6.0000000   6.0000000

  Atom        51          52          53          54          55          56          57          58          59          60
 IAtWgt=          12          12          12          12          12          12          12          12          12          12
 AtmWgt=  12.0000000  12.0000000  12.0000000  12.0000000  12.0000000  12.0000000  12.0000000  12.0000000  12.0000000  12.0000000
 NucSpn=           0           0           0           0           0           0           0           0           0           0
 AtZEff=  -0.0000000  -0.0000000  -0.0000000  -0.0000000  -0.0000000  -0.0000000  -0.0000000  -0.0000000  -0.0000000  -0.0000000
 NQMom=    0.0000000   0.0000000   0.0000000   0.0000000   0.0000000   0.0000000   0.0000000   0.0000000   0.0000000   0.0000000
 NMagM=    0.0000000   0.0000000   0.0000000   0.0000000   0.0000000   0.0000000   0.0000000   0.0000000   0.0000000   0.0000000
 AtZNuc=   6.0000000   6.0000000   6.0000000   6.0000000   6.0000000   6.0000000   6.0000000   6.0000000   6.0000000   6.0000000

  Atom        61          62          63          64          65          66          67          68          69          70
 IAtWgt=          12          12          12          12          12          12           1           1           1           1
 AtmWgt=  12.0000000  12.0000000  12.0000000  12.0000000  12.0000000  12.0000000   1.0078250   1.0078250   1.0078250   1.0078250
 NucSpn=           0           0           0           0           0           0           1           1           1           1
 AtZEff=  -0.0000000  -0.0000000  -0.0000000  -0.0000000  -0.0000000  -0.0000000  -0.0000000  -0.0000000  -0.0000000  -0.0000000
 NQMom=    0.0000000   0.0000000   0.0000000   0.0000000   0.0000000   0.0000000   0.0000000   0.0000000   0.0000000   0.0000000
 NMagM=    0.0000000   0.0000000   0.0000000   0.0000000   0.0000000   0.0000000   2.7928460   2.7928460   2.7928460   2.7928460
 AtZNuc=   6.0000000   6.0000000   6.0000000   6.0000000   6.0000000   6.0000000   1.0000000   1.0000000   1.0000000   1.0000000

  Atom        71          72          73          74          75          76          77          78          79          80
 IAtWgt=           1           1           1           1           1           1           1           1           1           1
 AtmWgt=   1.0078250   1.0078250   1.0078250   1.0078250   1.0078250   1.0078250   1.0078250   1.0078250   1.0078250   1.0078250
 NucSpn=           1           1           1           1           1           1           1           1           1           1
 AtZEff=  -0.0000000  -0.0000000  -0.0000000  -0.0000000  -0.0000000  -0.0000000  -0.0000000  -0.0000000  -0.0000000  -0.0000000
 NQMom=    0.0000000   0.0000000   0.0000000   0.0000000   0.0000000   0.0000000   0.0000000   0.0000000   0.0000000   0.0000000
 NMagM=    2.7928460   2.7928460   2.7928460   2.7928460   2.7928460   2.7928460   2.7928460   2.7928460   2.7928460   2.7928460
 AtZNuc=   1.0000000   1.0000000   1.0000000   1.0000000   1.0000000   1.0000000   1.0000000   1.0000000   1.0000000   1.0000000

  Atom        81          82          83          84          85          86          87          88          89          90
 IAtWgt=           1           1           1           1           1           1           1           1           1           1
 AtmWgt=   1.0078250   1.0078250   1.0078250   1.0078250   1.0078250   1.0078250   1.0078250   1.0078250   1.0078250   1.0078250
 NucSpn=           1           1           1           1           1           1           1           1           1           1
 AtZEff=  -0.0000000  -0.0000000  -0.0000000  -0.0000000  -0.0000000  -0.0000000  -0.0000000  -0.0000000  -0.0000000  -0.0000000
 NQMom=    0.0000000   0.0000000   0.0000000   0.0000000   0.0000000   0.0000000   0.0000000   0.0000000   0.0000000   0.0000000
 NMagM=    2.7928460   2.7928460   2.7928460   2.7928460   2.7928460   2.7928460   2.7928460   2.7928460   2.7928460   2.7928460
 AtZNuc=   1.0000000   1.0000000   1.0000000   1.0000000   1.0000000   1.0000000   1.0000000   1.0000000   1.0000000   1.0000000

  Atom        91          92          93          94          95          96          97          98          99         100
 IAtWgt=           1           1           1           1           1           1           1           1           1           1
 AtmWgt=   1.0078250   1.0078250   1.0078250   1.0078250   1.0078250   1.0078250   1.0078250   1.0078250   1.0078250   1.0078250
 NucSpn=           1           1           1           1           1           1           1           1           1           1
 AtZEff=  -0.0000000  -0.0000000  -0.0000000  -0.0000000  -0.0000000  -0.0000000  -0.0000000  -0.0000000  -0.0000000  -0.0000000
 NQMom=    0.0000000   0.0000000   0.0000000   0.0000000   0.0000000   0.0000000   0.0000000   0.0000000   0.0000000   0.0000000
 NMagM=    2.7928460   2.7928460   2.7928460   2.7928460   2.7928460   2.7928460   2.7928460   2.7928460   2.7928460   2.7928460
 AtZNuc=   1.0000000   1.0000000   1.0000000   1.0000000   1.0000000   1.0000000   1.0000000   1.0000000   1.0000000   1.0000000

  Atom       101         102         103         104         105         106         107         108         109         110
 IAtWgt=           1           1           1           1           1           1           1           1           1           1
 AtmWgt=   1.0078250   1.0078250   1.0078250   1.0078250   1.0078250   1.0078250   1.0078250   1.0078250   1.0078250   1.0078250
 NucSpn=           1           1           1           1           1           1           1           1           1           1
 AtZEff=  -0.0000000  -0.0000000  -0.0000000  -0.0000000  -0.0000000  -0.0000000  -0.0000000  -0.0000000  -0.0000000  -0.0000000
 NQMom=    0.0000000   0.0000000   0.0000000   0.0000000   0.0000000   0.0000000   0.0000000   0.0000000   0.0000000   0.0000000
 NMagM=    2.7928460   2.7928460   2.7928460   2.7928460   2.7928460   2.7928460   2.7928460   2.7928460   2.7928460   2.7928460
 AtZNuc=   1.0000000   1.0000000   1.0000000   1.0000000   1.0000000   1.0000000   1.0000000   1.0000000   1.0000000   1.0000000

  Atom       111         112         113         114         115         116         117         118         119         120
 IAtWgt=           1           1           1           1           1           1           1           1           1           1
 AtmWgt=   1.0078250   1.0078250   1.0078250   1.0078250   1.0078250   1.0078250   1.0078250   1.0078250   1.0078250   1.0078250
 NucSpn=           1           1           1           1           1           1           1           1           1           1
 AtZEff=  -0.0000000  -0.0000000  -0.0000000  -0.0000000  -0.0000000  -0.0000000  -0.0000000  -0.0000000  -0.0000000  -0.0000000
 NQMom=    0.0000000   0.0000000   0.0000000   0.0000000   0.0000000   0.0000000   0.0000000   0.0000000   0.0000000   0.0000000
 NMagM=    2.7928460   2.7928460   2.7928460   2.7928460   2.7928460   2.7928460   2.7928460   2.7928460   2.7928460   2.7928460
 AtZNuc=   1.0000000   1.0000000   1.0000000   1.0000000   1.0000000   1.0000000   1.0000000   1.0000000   1.0000000   1.0000000

  Atom       121         122         123         124         125         126         127         128         129         130
 IAtWgt=           1           1           1           1           1           1           1           1           1           1
 AtmWgt=   1.0078250   1.0078250   1.0078250   1.0078250   1.0078250   1.0078250   1.0078250   1.0078250   1.0078250   1.0078250
 NucSpn=           1           1           1           1           1           1           1           1           1           1
 AtZEff=  -0.0000000  -0.0000000  -0.0000000  -0.0000000  -0.0000000  -0.0000000  -0.0000000  -0.0000000  -0.0000000  -0.0000000
 NQMom=    0.0000000   0.0000000   0.0000000   0.0000000   0.0000000   0.0000000   0.0000000   0.0000000   0.0000000   0.0000000
 NMagM=    2.7928460   2.7928460   2.7928460   2.7928460   2.7928460   2.7928460   2.7928460   2.7928460   2.7928460   2.7928460
 AtZNuc=   1.0000000   1.0000000   1.0000000   1.0000000   1.0000000   1.0000000   1.0000000   1.0000000   1.0000000   1.0000000

  Atom       131         132         133         134         135         136         137         138         139         140
 IAtWgt=           1           1           1           1           1           1           1           1           1           1
 AtmWgt=   1.0078250   1.0078250   1.0078250   1.0078250   1.0078250   1.0078250   1.0078250   1.0078250   1.0078250   1.0078250
 NucSpn=           1           1           1           1           1           1           1           1           1           1
 AtZEff=  -0.0000000  -0.0000000  -0.0000000  -0.0000000  -0.0000000  -0.0000000  -0.0000000  -0.0000000  -0.0000000  -0.0000000
 NQMom=    0.0000000   0.0000000   0.0000000   0.0000000   0.0000000   0.0000000   0.0000000   0.0000000   0.0000000   0.0000000
 NMagM=    2.7928460   2.7928460   2.7928460   2.7928460   2.7928460   2.7928460   2.7928460   2.7928460   2.7928460   2.7928460
 AtZNuc=   1.0000000   1.0000000   1.0000000   1.0000000   1.0000000   1.0000000   1.0000000   1.0000000   1.0000000   1.0000000
 Leave Link  101 at Fri Apr 29 19:08:12 2022, MaxMem=  6710886400 cpu:               2.8 elap:               0.1
 (Enter /sw/apps/gaussian-16.0/g16/l202.exe)
 Stoichiometry    C55H74MgN4O6
 Framework group  C1[X(C55H74MgN4O6)]
 Deg. of freedom   414
 Full point group                 C1      NOp   1
 Largest Abelian subgroup         C1      NOp   1
 Largest concise Abelian subgroup C1      NOp   1
                         Standard orientation:                         
 ---------------------------------------------------------------------
 Center     Atomic      Atomic             Coordinates (Angstroms)
 Number     Number       Type             X           Y           Z
 ---------------------------------------------------------------------
      1         12           0       -4.692217    0.975130    0.065353
      2          6           0       -4.055824   -2.439769    0.591218
      3          6           0       -1.312330    1.502116   -0.233200
      4          6           0       -5.425230    4.229103   -0.196516
      5          6           0       -8.231051    0.256802    0.439835
      6          7           0       -2.895598   -0.342365    0.274296
      7          6           0       -2.878463   -1.709782    0.218372
      8          6           0       -1.548639   -2.273395   -0.325924
      9          6           0       -0.634988   -1.063398   -0.306569
     10          6           0       -1.627790    0.124218   -0.029125
     11          6           0        0.627407   -1.126189    0.534324
     12          6           0       -1.639250   -2.921825   -1.740720
     13          6           0       -0.603033   -4.118450   -2.036790
     14          6           0        0.613419   -4.298831   -1.109359
     15          8           0        0.633431   -4.985495   -0.103184
     16          8           0        1.648509   -3.542285   -1.498744
     17          7           0       -3.490918    2.674472   -0.215987
     18          6           0       -2.139508    2.657821   -0.388591
     19          6           0       -1.772748    4.010347   -0.552785
     20          6           0       -2.904951    4.827324   -0.539370
     21          6           0       -4.017401    3.966817   -0.292739
     22          6           0       -0.288089    4.443672   -0.710906
     23          6           0       -3.016962    6.277468   -0.671650
     24          8           0       -4.105387    6.804150   -0.899611
     25          6           0       -1.817832    7.170865   -0.742614
     26          7           0       -6.552486    2.089577    0.156107
     27          6           0       -6.541616    3.456541    0.053483
     28          6           0       -7.954675    4.010935    0.182726
     29          6           0       -8.887353    2.754800    0.222357
     30          6           0       -7.888942    1.612502    0.271732
     31          6           0       -8.145936    4.890637    1.521372
     32          6           0       -9.886837    2.572672   -0.922251
     33          6           0       -9.274937    1.968203   -2.116451
     34          7           0       -6.009861   -0.690440    0.500486
     35          6           0       -7.372516   -0.804446    0.644047
     36          6           0       -7.621471   -2.197356    0.883160
     37          6           0       -6.392709   -2.860026    0.899051
     38          6           0       -5.387174   -1.886697    0.675597
     39          6           0       -9.042974   -2.762335    1.009129
     40          6           0       -5.738345   -4.208108    0.956808
     41          8           0       -6.229849   -5.289992    1.184447
     42          6           0       -4.186374   -3.926827    0.646763
     43          6           0       -3.268153   -4.659699    1.632239
     44          8           0       -3.365811   -4.707004    2.839730
     45          8           0       -2.403127   -5.458494    0.920894
     46          6           0       -1.641369   -6.475627    1.587525
     47          6           0        2.755869   -3.606848   -0.571890
     48          6           0        3.790929   -2.596429   -1.040183
     49          6           0        4.983457   -2.787370   -1.639917
     50          6           0        5.599921   -4.137117   -2.055938
     51          6           0        5.988372   -1.679881   -1.844669
     52          6           0        6.691050   -1.519306   -3.212172
     53          6           0        8.185494   -1.164938   -3.093458
     54          6           0        8.489732    0.267490   -3.538841
     55          6           0        8.495107    0.328277   -5.104063
     56          6           0        9.831851    0.772229   -3.087528
     57          6           0        9.691142    1.536422   -1.767488
     58          6           0       10.824982    1.151454   -0.780958
     59          6           0       10.903859    2.116519    0.372461
     60          6           0       11.544596    3.455056   -0.143997
     61          6           0       11.628139    1.603732    1.612801
     62          6           0       10.682877    0.833328    2.537026
     63          6           0        9.873433    1.767038    3.603719
     64          6           0        9.895025    1.082961    4.991639
     65          6           0        8.723485    1.533290    5.796525
     66          6           0       11.219537    1.494590    5.737520
     67          1           0       -0.273484    1.664729   -0.529145
     68          1           0       -5.711527    5.283682   -0.212220
     69          1           0       -9.294204    0.025912    0.524343
     70          1           0       -1.197539   -2.982823    0.423480
     71          1           0       -0.314636   -0.849719   -1.326399
     72          1           0        1.549042   -0.837241    0.027915
     73          1           0        0.687394   -2.124485    0.967331
     74          1           0        0.744725   -0.423717    1.358999
     75          1           0       -1.449810   -2.164614   -2.501866
     76          1           0       -2.610949   -3.396497   -1.876766
     77          1           0       -0.207646   -3.827351   -3.009528
     78          1           0       -1.180372   -5.017421   -2.251853
     79          1           0        0.049267    4.774366   -1.693585
     80          1           0        0.357935    3.613311   -0.423722
     81          1           0       -0.198356    5.257462    0.009474
     82          1           0       -1.118909    6.990766    0.074096
     83          1           0       -2.124048    8.214653   -0.813380
     84          1           0       -1.329925    6.924212   -1.685555
     85          1           0       -8.244989    4.664854   -0.639737
     86          1           0       -9.480626    2.724236    1.136749
     87          1           0       -8.253197    5.974441    1.499902
     88          1           0       -7.237224    4.783241    2.115111
     89          1           0       -8.982948    4.464286    2.074057
     90          1           0      -10.419012    3.517595   -1.031852
     91          1           0      -10.603212    1.849480   -0.532508
     92          1           0       -9.459212    2.712664   -2.889682
     93          1           0       -9.657594    0.973701   -2.342575
     94          1           0       -8.188469    2.050865   -2.069271
     95          1           0       -9.650644   -2.545110    0.130101
     96          1           0       -9.526379   -2.187996    1.799377
     97          1           0       -9.028824   -3.819422    1.274660
     98          1           0       -4.045381   -4.473259   -0.285410
     99          1           0       -1.152529   -7.213810    0.951535
    100          1           0       -2.432895   -6.951339    2.166065
    101          1           0       -0.867927   -5.944821    2.141908
    102          1           0        3.238239   -4.580567   -0.484722
    103          1           0        2.452897   -3.135231    0.362949
    104          1           0        3.587243   -1.591393   -0.671045
    105          1           0        5.439495   -4.320319   -3.118573
    106          1           0        5.195126   -4.881033   -1.369287
    107          1           0        6.677514   -4.215673   -1.912803
    108          1           0        6.623240   -1.662623   -0.958013
    109          1           0        5.426761   -0.761818   -1.669714
    110          1           0        6.251934   -0.631702   -3.667605
    111          1           0        6.624410   -2.357788   -3.906882
    112          1           0        8.742445   -1.806744   -3.776281
    113          1           0        8.542818   -1.398332   -2.090151
    114          1           0        7.667002    0.943080   -3.306813
    115          1           0        8.324923   -0.659200   -5.532850
    116          1           0        9.398439    0.757271   -5.536620
    117          1           0        7.735542    1.001780   -5.499977
    118          1           0       10.320710    1.456479   -3.780982
    119          1           0       10.497267   -0.081302   -2.950906
    120          1           0        8.771793    1.395620   -1.199205
    121          1           0        9.571793    2.591957   -2.014781
    122          1           0       11.793340    1.126339   -1.280861
    123          1           0       10.554420    0.120523   -0.555511
    124          1           0        9.952809    2.501204    0.740537
    125          1           0       12.001960    4.009305    0.675886
    126          1           0       10.856935    4.126671   -0.657449
    127          1           0       12.344290    3.292169   -0.865865
    128          1           0       12.094278    2.341920    2.265261
    129          1           0       12.457640    0.984135    1.270731
    130          1           0       11.263801    0.049176    3.022826
    131          1           0        9.899672    0.354135    1.949255
    132          1           0        8.842680    1.772317    3.246674
    133          1           0       10.274055    2.778528    3.671509
    134          1           0        9.847013   -0.001512    4.890685
    135          1           0        8.353272    2.543937    5.625315
    136          1           0        8.934269    1.538692    6.865888
    137          1           0        7.942900    0.793676    5.615457
    138          1           0       11.992785    1.707461    4.997893
    139          1           0       11.504759    0.711754    6.439582
    140          1           0       11.014877    2.391505    6.320981
 ---------------------------------------------------------------------
 Rotational constants (GHZ):           0.0372469           0.0119916           0.0103806
 Leave Link  202 at Fri Apr 29 19:08:12 2022, MaxMem=  6710886400 cpu:               0.2 elap:               0.0
 (Enter /sw/apps/gaussian-16.0/g16/l301.exe)
 Standard basis: VSTO-6G (5D, 7F)
 Ernie: Thresh=  0.10000D-02 Tol=  0.10000D-05 Strict=F.
 There are   338 symmetry adapted cartesian basis functions of A   symmetry.
 There are   338 symmetry adapted basis functions of A   symmetry.
   338 basis functions,  2028 primitive gaussians,   338 cartesian basis functions
   176 alpha electrons      176 beta electrons
       nuclear repulsion energy      4868.3372591011 Hartrees.
 IExCor=    0 DFT=F Ex=HF Corr=None ExCW=0 ScaHFX=  1.000000
 ScaDFX=  1.000000  1.000000  1.000000  1.000000 ScalE2=  1.000000  1.000000
 IRadAn=      5 IRanWt=     -1 IRanGd=            0 ICorTp=0 IEmpDi=  4
 Integral buffers will be    131072 words long.
 Regular integral format.
 Two-electron integral symmetry is turned off.
 Leave Link  301 at Fri Apr 29 19:08:13 2022, MaxMem=  6710886400 cpu:               1.2 elap:               0.1
 (Enter /sw/apps/gaussian-16.0/g16/l302.exe)
 Do NDO integrals.
 NPDir=0 NMtPBC=     1 NCelOv=     1 NCel=       1 NClECP=     1 NCelD=      1
         NCelK=      1 NCelE2=     1 NClLst=     1 CellRange=     0.0.
 One-electron integrals computed using PRISM.
 Generate ZINDO/S integrals.
 NDO Nuclear repulsion=  4381.365186665222 Hartrees.
 NBasis=   338 RedAO= F EigKep=  0.00D+00  NBF=   338
 NBsUse=   338 1.00D-04 EigRej=  0.00D+00 NBFU=   338
 Leave Link  302 at Fri Apr 29 19:08:13 2022, MaxMem=  6710886400 cpu:               8.2 elap:               0.4
 (Enter /sw/apps/gaussian-16.0/g16/l303.exe)
 DipDrv:  MaxL=1.
 DipDrv:  will hold  3 matrices at once.
 Leave Link  303 at Fri Apr 29 19:08:13 2022, MaxMem=  6710886400 cpu:               0.5 elap:               0.0
 (Enter /sw/apps/gaussian-16.0/g16/l308.exe)
 Leave Link  308 at Fri Apr 29 19:08:13 2022, MaxMem=  6710886400 cpu:               5.1 elap:               0.2
 (Enter /sw/apps/gaussian-16.0/g16/l401.exe)
 Simple Huckel Guess.
 JPrj=0 DoOrth=F DoCkMO=F.
 Leave Link  401 at Fri Apr 29 19:08:13 2022, MaxMem=  6710886400 cpu:               2.8 elap:               0.1
 (Enter /sw/apps/gaussian-16.0/g16/l502.exe)
 Two-electron integral symmetry not used.
 Closed shell SCF:
 Using DIIS extrapolation, IDIIS=  1040.
 Overlap will be assumed to be unity.
 NGot=  6710886400 LenX=  6710643598 LenY=  6710528913
 Requested convergence on RMS density matrix=1.00D-08 within 128 cycles.
 Requested convergence on MAX density matrix=1.00D-06.
 Requested convergence on             energy=1.00D-06.
 No special actions if energy rises.
 Fock matrices will be formed incrementally for  20 cycles.

 Cycle   1  Pass 1  IDiag  1:
 E= -472.467749521667    
 DIIS: error= 6.35D-02 at cycle   1 NSaved=   1.
 NSaved= 1 IEnMin= 1 EnMin= -472.467749521667     IErMin= 1 ErrMin= 6.35D-02
 ErrMax= 6.35D-02  0.00D+00 EMaxC= 1.00D-01 BMatC= 8.31D-01 BMatP= 8.31D-01
 IDIUse=3 WtCom= 3.65D-01 WtEn= 6.35D-01
 Coeff-Com:  0.100D+01
 Coeff-En:   0.100D+01
 Coeff:      0.100D+01
 GapD=    2.000 DampG=2.000 DampE=0.500 DampFc=1.0000 IDamp=-1.
 RMSDP=3.97D-03 MaxDP=1.80D-01              OVMax= 0.00D+00

 Cycle   2  Pass 1  IDiag  1:
 RMSU=  3.97D-03    CP:  9.95D-01
 E= -474.291899312429     Delta-E=       -1.824149790763 Rises=F Damp=F
 DIIS: error= 2.18D-02 at cycle   2 NSaved=   2.
 NSaved= 2 IEnMin= 2 EnMin= -474.291899312429     IErMin= 2 ErrMin= 2.18D-02
 ErrMax= 2.18D-02  0.00D+00 EMaxC= 1.00D-01 BMatC= 5.09D-02 BMatP= 8.31D-01
 IDIUse=3 WtCom= 7.82D-01 WtEn= 2.18D-01
 Coeff-Com: -0.773D-01 0.108D+01
 Coeff-En:   0.000D+00 0.100D+01
 Coeff:     -0.604D-01 0.106D+01
 RMSDP=1.10D-03 MaxDP=5.58D-02 DE=-1.82D+00 OVMax= 0.00D+00

 Cycle   3  Pass 1  IDiag  1:
 RMSU=  1.02D-03    CP:  9.93D-01  1.10D+00
 E= -474.392630808601     Delta-E=       -0.100731496172 Rises=F Damp=F
 DIIS: error= 1.01D-02 at cycle   3 NSaved=   3.
 NSaved= 3 IEnMin= 3 EnMin= -474.392630808601     IErMin= 3 ErrMin= 1.01D-02
 ErrMax= 1.01D-02  0.00D+00 EMaxC= 1.00D-01 BMatC= 6.93D-03 BMatP= 5.09D-02
 IDIUse=3 WtCom= 8.99D-01 WtEn= 1.01D-01
 Coeff-Com: -0.675D-01 0.240D+00 0.827D+00
 Coeff-En:   0.000D+00 0.000D+00 0.100D+01
 Coeff:     -0.607D-01 0.216D+00 0.845D+00
 RMSDP=3.70D-04 MaxDP=1.83D-02 DE=-1.01D-01 OVMax= 0.00D+00

 Cycle   4  Pass 1  IDiag  1:
 RMSU=  2.43D-04    CP:  9.93D-01  1.17D+00  9.22D-01
 E= -474.405030492187     Delta-E=       -0.012399683585 Rises=F Damp=F
 DIIS: error= 1.42D-03 at cycle   4 NSaved=   4.
 NSaved= 4 IEnMin= 4 EnMin= -474.405030492187     IErMin= 4 ErrMin= 1.42D-03
 ErrMax= 1.42D-03  0.00D+00 EMaxC= 1.00D-01 BMatC= 3.01D-04 BMatP= 6.93D-03
 IDIUse=3 WtCom= 9.86D-01 WtEn= 1.42D-02
 Coeff-Com:  0.903D-03-0.388D-01 0.241D-01 0.101D+01
 Coeff-En:   0.000D+00 0.000D+00 0.000D+00 0.100D+01
 Coeff:      0.890D-03-0.382D-01 0.237D-01 0.101D+01
 RMSDP=1.36D-04 MaxDP=8.42D-03 DE=-1.24D-02 OVMax= 0.00D+00

 Cycle   5  Pass 1  IDiag  1:
 RMSU=  9.06D-05    CP:  9.93D-01  1.17D+00  1.02D+00  1.07D+00
 E= -474.406100800099     Delta-E=       -0.001070307912 Rises=F Damp=F
 DIIS: error= 6.83D-04 at cycle   5 NSaved=   5.
 NSaved= 5 IEnMin= 5 EnMin= -474.406100800099     IErMin= 5 ErrMin= 6.83D-04
 ErrMax= 6.83D-04  0.00D+00 EMaxC= 1.00D-01 BMatC= 5.99D-05 BMatP= 3.01D-04
 IDIUse=3 WtCom= 9.93D-01 WtEn= 6.83D-03
 Coeff-Com:  0.610D-02-0.253D-01-0.947D-01 0.192D+00 0.921D+00
 Coeff-En:   0.000D+00 0.000D+00 0.000D+00 0.000D+00 0.100D+01
 Coeff:      0.606D-02-0.251D-01-0.940D-01 0.191D+00 0.922D+00
 RMSDP=6.58D-05 MaxDP=3.55D-03 DE=-1.07D-03 OVMax= 0.00D+00

 Cycle   6  Pass 1  IDiag  1:
 RMSU=  3.79D-05    CP:  9.93D-01  1.17D+00  1.03D+00  1.27D+00  1.18D+00
 E= -474.406331858304     Delta-E=       -0.000231058205 Rises=F Damp=F
 DIIS: error= 2.22D-04 at cycle   6 NSaved=   6.
 NSaved= 6 IEnMin= 6 EnMin= -474.406331858304     IErMin= 6 ErrMin= 2.22D-04
 ErrMax= 2.22D-04  0.00D+00 EMaxC= 1.00D-01 BMatC= 9.29D-06 BMatP= 5.99D-05
 IDIUse=3 WtCom= 9.98D-01 WtEn= 2.22D-03
 Coeff-Com: -0.304D-03 0.678D-02-0.139D-01-0.113D+00 0.175D-01 0.110D+01
 Coeff-En:   0.000D+00 0.000D+00 0.000D+00 0.000D+00 0.000D+00 0.100D+01
 Coeff:     -0.304D-03 0.677D-02-0.139D-01-0.113D+00 0.175D-01 0.110D+01
 RMSDP=4.59D-05 MaxDP=2.52D-03 DE=-2.31D-04 OVMax= 0.00D+00

 Cycle   7  Pass 1  IDiag  1:
 RMSU=  1.94D-05    CP:  9.93D-01  1.17D+00  1.05D+00  1.33D+00  1.51D+00
                    CP:  1.60D+00
 E= -474.406407656836     Delta-E=       -0.000075798532 Rises=F Damp=F
 DIIS: error= 1.26D-04 at cycle   7 NSaved=   7.
 NSaved= 7 IEnMin= 7 EnMin= -474.406407656836     IErMin= 7 ErrMin= 1.26D-04
 ErrMax= 1.26D-04  0.00D+00 EMaxC= 1.00D-01 BMatC= 2.80D-06 BMatP= 9.29D-06
 IDIUse=3 WtCom= 9.99D-01 WtEn= 1.26D-03
 Coeff-Com: -0.795D-03 0.302D-02 0.121D-01-0.100D-01-0.140D+00-0.773D-01
 Coeff-Com:  0.121D+01
 Coeff-En:   0.000D+00 0.000D+00 0.000D+00 0.000D+00 0.000D+00 0.000D+00
 Coeff-En:   0.100D+01
 Coeff:     -0.794D-03 0.302D-02 0.120D-01-0.100D-01-0.140D+00-0.772D-01
 Coeff:      0.121D+01
 RMSDP=3.92D-05 MaxDP=2.12D-03 DE=-7.58D-05 OVMax= 0.00D+00

 Cycle   8  Pass 1  IDiag  1:
 RMSU=  7.53D-06    CP:  9.92D-01  1.17D+00  1.05D+00  1.36D+00  1.72D+00
                    CP:  2.28D+00  1.99D+00
 E= -474.406451392817     Delta-E=       -0.000043735981 Rises=F Damp=F
 DIIS: error= 8.62D-05 at cycle   8 NSaved=   8.
 NSaved= 8 IEnMin= 8 EnMin= -474.406451392817     IErMin= 8 ErrMin= 8.62D-05
 ErrMax= 8.62D-05  0.00D+00 EMaxC= 1.00D-01 BMatC= 1.60D-06 BMatP= 2.80D-06
 IDIUse=1 WtCom= 1.00D+00 WtEn= 0.00D+00
 Coeff-Com:  0.392D-03-0.393D-02 0.263D-02 0.535D-01 0.145D-01-0.409D+00
 Coeff-Com: -0.353D+00 0.170D+01
 Coeff:      0.392D-03-0.393D-02 0.263D-02 0.535D-01 0.145D-01-0.409D+00
 Coeff:     -0.353D+00 0.170D+01
 RMSDP=5.33D-05 MaxDP=2.28D-03 DE=-4.37D-05 OVMax= 0.00D+00

 Cycle   9  Pass 1  IDiag  1:
 RMSU=  1.44D-05    CP:  9.92D-01  1.17D+00  1.05D+00  1.40D+00  1.99D+00
                    CP:  3.00D+00  3.00D+00  2.39D+00
 E= -474.406494406467     Delta-E=       -0.000043013650 Rises=F Damp=F
 DIIS: error= 6.01D-05 at cycle   9 NSaved=   9.
 NSaved= 9 IEnMin= 9 EnMin= -474.406494406467     IErMin= 9 ErrMin= 6.01D-05
 ErrMax= 6.01D-05  0.00D+00 EMaxC= 1.00D-01 BMatC= 7.72D-07 BMatP= 1.60D-06
 IDIUse=1 WtCom= 1.00D+00 WtEn= 0.00D+00
 Coeff-Com:  0.453D-03-0.138D-02-0.782D-02-0.431D-02 0.931D-01 0.137D+00
 Coeff-Com: -0.901D+00-0.384D-02 0.169D+01
 Coeff:      0.453D-03-0.138D-02-0.782D-02-0.431D-02 0.931D-01 0.137D+00
 Coeff:     -0.901D+00-0.384D-02 0.169D+01
 RMSDP=6.01D-05 MaxDP=2.58D-03 DE=-4.30D-05 OVMax= 0.00D+00

 Cycle  10  Pass 1  IDiag  1:
 RMSU=  3.16D-05    CP:  9.92D-01  1.17D+00  1.06D+00  1.44D+00  2.26D+00
                    CP:  3.00D+00  3.00D+00  3.00D+00  3.00D+00
 E= -474.406523656252     Delta-E=       -0.000029249785 Rises=F Damp=F
 DIIS: error= 3.24D-05 at cycle  10 NSaved=  10.
 NSaved=10 IEnMin=10 EnMin= -474.406523656252     IErMin=10 ErrMin= 3.24D-05
 ErrMax= 3.24D-05  0.00D+00 EMaxC= 1.00D-01 BMatC= 2.14D-07 BMatP= 7.72D-07
 IDIUse=1 WtCom= 1.00D+00 WtEn= 0.00D+00
 Coeff-Com: -0.233D-03 0.174D-02 0.404D-03-0.228D-01-0.858D-02 0.134D+00
 Coeff-Com:  0.206D+00-0.448D+00-0.639D+00 0.178D+01
 Coeff:     -0.233D-03 0.174D-02 0.404D-03-0.228D-01-0.858D-02 0.134D+00
 Coeff:      0.206D+00-0.448D+00-0.639D+00 0.178D+01
 RMSDP=4.20D-05 MaxDP=1.72D-03 DE=-2.92D-05 OVMax= 0.00D+00

 Cycle  11  Pass 1  IDiag  1:
 RMSU=  1.98D-05    CP:  9.92D-01  1.17D+00  1.06D+00  1.46D+00  2.44D+00
                    CP:  3.00D+00  3.00D+00  3.00D+00  3.00D+00  2.04D+00
 E= -474.406532355811     Delta-E=       -0.000008699559 Rises=F Damp=F
 DIIS: error= 1.38D-05 at cycle  11 NSaved=  11.
 NSaved=11 IEnMin=11 EnMin= -474.406532355811     IErMin=11 ErrMin= 1.38D-05
 ErrMax= 1.38D-05  0.00D+00 EMaxC= 1.00D-01 BMatC= 3.36D-08 BMatP= 2.14D-07
 IDIUse=1 WtCom= 1.00D+00 WtEn= 0.00D+00
 Coeff-Com: -0.871D-04 0.283D-03 0.172D-02-0.945D-03-0.146D-01-0.303D-01
 Coeff-Com:  0.168D+00 0.704D-01-0.460D+00 0.120D+00 0.115D+01
 Coeff:     -0.871D-04 0.283D-03 0.172D-02-0.945D-03-0.146D-01-0.303D-01
 Coeff:      0.168D+00 0.704D-01-0.460D+00 0.120D+00 0.115D+01
 RMSDP=1.01D-05 MaxDP=4.11D-04 DE=-8.70D-06 OVMax= 0.00D+00

 Cycle  12  Pass 1  IDiag  1:
 RMSU=  1.52D-06    CP:  9.92D-01  1.17D+00  1.06D+00  1.47D+00  2.47D+00
                    CP:  3.00D+00  3.00D+00  3.00D+00  3.00D+00  2.28D+00
                    CP:  1.27D+00
 E= -474.406533021362     Delta-E=       -0.000000665551 Rises=F Damp=F
 DIIS: error= 6.28D-06 at cycle  12 NSaved=  12.
 NSaved=12 IEnMin=12 EnMin= -474.406533021362     IErMin=12 ErrMin= 6.28D-06
 ErrMax= 6.28D-06  0.00D+00 EMaxC= 1.00D-01 BMatC= 5.25D-09 BMatP= 3.36D-08
 IDIUse=1 WtCom= 1.00D+00 WtEn= 0.00D+00
 Coeff-Com:  0.456D-04-0.338D-03-0.128D-04 0.414D-02 0.315D-02-0.290D-01
 Coeff-Com: -0.395D-01 0.954D-01 0.869D-01-0.326D+00-0.963D-02 0.121D+01
 Coeff:      0.456D-04-0.338D-03-0.128D-04 0.414D-02 0.315D-02-0.290D-01
 Coeff:     -0.395D-01 0.954D-01 0.869D-01-0.326D+00-0.963D-02 0.121D+01
 RMSDP=4.55D-06 MaxDP=2.10D-04 DE=-6.66D-07 OVMax= 0.00D+00

 Cycle  13  Pass 1  IDiag  1:
 RMSU=  6.28D-07    CP:  9.92D-01  1.17D+00  1.06D+00  1.47D+00  2.49D+00
                    CP:  3.00D+00  3.00D+00  3.00D+00  3.00D+00  2.38D+00
                    CP:  1.39D+00  1.57D+00
 E= -474.406533111357     Delta-E=       -0.000000089995 Rises=F Damp=F
 DIIS: error= 2.75D-06 at cycle  13 NSaved=  13.
 NSaved=13 IEnMin=13 EnMin= -474.406533111357     IErMin=13 ErrMin= 2.75D-06
 ErrMax= 2.75D-06  0.00D+00 EMaxC= 1.00D-01 BMatC= 1.16D-09 BMatP= 5.25D-09
 IDIUse=1 WtCom= 1.00D+00 WtEn= 0.00D+00
 Coeff-Com:  0.140D-04-0.708D-04-0.194D-03 0.662D-03 0.222D-02-0.161D-02
 Coeff-Com: -0.212D-01 0.684D-02 0.664D-01-0.554D-01-0.134D+00 0.201D+00
 Coeff-Com:  0.936D+00
 Coeff:      0.140D-04-0.708D-04-0.194D-03 0.662D-03 0.222D-02-0.161D-02
 Coeff:     -0.212D-01 0.684D-02 0.664D-01-0.554D-01-0.134D+00 0.201D+00
 Coeff:      0.936D+00
 RMSDP=7.87D-07 MaxDP=3.70D-05 DE=-9.00D-08 OVMax= 0.00D+00

 Cycle  14  Pass 1  IDiag  1:
 RMSU=  2.26D-07    CP:  9.92D-01  1.17D+00  1.06D+00  1.47D+00  2.49D+00
                    CP:  3.00D+00  3.00D+00  3.00D+00  3.00D+00  2.37D+00
                    CP:  1.38D+00  1.81D+00  1.44D+00
 E= -474.406533121270     Delta-E=       -0.000000009913 Rises=F Damp=F
 DIIS: error= 1.63D-06 at cycle  14 NSaved=  14.
 NSaved=14 IEnMin=14 EnMin= -474.406533121270     IErMin=14 ErrMin= 1.63D-06
 ErrMax= 1.63D-06  0.00D+00 EMaxC= 1.00D-01 BMatC= 4.51D-10 BMatP= 1.16D-09
 IDIUse=1 WtCom= 1.00D+00 WtEn= 0.00D+00
 Coeff-Com: -0.162D-04 0.117D-03 0.336D-05-0.134D-02-0.128D-02 0.935D-02
 Coeff-Com:  0.153D-01-0.410D-01-0.272D-01 0.103D+00 0.277D-02-0.341D+00
 Coeff-Com: -0.311D+00 0.159D+01
 Coeff:     -0.162D-04 0.117D-03 0.336D-05-0.134D-02-0.128D-02 0.935D-02
 Coeff:      0.153D-01-0.410D-01-0.272D-01 0.103D+00 0.277D-02-0.341D+00
 Coeff:     -0.311D+00 0.159D+01
 RMSDP=9.16D-07 MaxDP=4.64D-05 DE=-9.91D-09 OVMax= 0.00D+00

 Cycle  15  Pass 1  IDiag  1:
 RMSU=  1.67D-07    CP:  9.92D-01  1.17D+00  1.06D+00  1.47D+00  2.49D+00
                    CP:  3.00D+00  3.00D+00  3.00D+00  3.00D+00  2.38D+00
                    CP:  1.39D+00  2.03D+00  2.16D+00  2.28D+00
 E= -474.406533130097     Delta-E=       -0.000000008828 Rises=F Damp=F
 DIIS: error= 1.01D-06 at cycle  15 NSaved=  15.
 NSaved=15 IEnMin=15 EnMin= -474.406533130097     IErMin=15 ErrMin= 1.01D-06
 ErrMax= 1.01D-06  0.00D+00 EMaxC= 1.00D-01 BMatC= 2.05D-10 BMatP= 4.51D-10
 IDIUse=1 WtCom= 1.00D+00 WtEn= 0.00D+00
 Coeff-Com: -0.379D-05 0.140D-04 0.973D-04-0.350D-04-0.127D-02-0.431D-04
 Coeff-Com:  0.993D-02-0.138D-02-0.199D-01 0.599D-02 0.554D-01-0.696D-02
 Coeff-Com: -0.574D+00 0.119D+00 0.141D+01
 Coeff:     -0.379D-05 0.140D-04 0.973D-04-0.350D-04-0.127D-02-0.431D-04
 Coeff:      0.993D-02-0.138D-02-0.199D-01 0.599D-02 0.554D-01-0.696D-02
 Coeff:     -0.574D+00 0.119D+00 0.141D+01
 RMSDP=6.24D-07 MaxDP=2.84D-05 DE=-8.83D-09 OVMax= 0.00D+00

 Cycle  16  Pass 1  IDiag  1:
 RMSU=  1.56D-07    CP:  9.92D-01  1.17D+00  1.06D+00  1.47D+00  2.49D+00
                    CP:  3.00D+00  3.00D+00  3.00D+00  3.00D+00  2.38D+00
                    CP:  1.39D+00  2.21D+00  2.71D+00  3.00D+00  1.62D+00
 E= -474.406533133982     Delta-E=       -0.000000003884 Rises=F Damp=F
 DIIS: error= 5.19D-07 at cycle  16 NSaved=  16.
 NSaved=16 IEnMin=16 EnMin= -474.406533133982     IErMin=16 ErrMin= 5.19D-07
 ErrMax= 5.19D-07  0.00D+00 EMaxC= 1.00D-01 BMatC= 4.16D-11 BMatP= 2.05D-10
 IDIUse=1 WtCom= 1.00D+00 WtEn= 0.00D+00
 Coeff-Com:  0.576D-05-0.419D-04 0.954D-05 0.507D-03 0.132D-03-0.299D-02
 Coeff-Com: -0.503D-02 0.122D-01 0.926D-02-0.372D-01 0.252D-02 0.128D+00
 Coeff-Com:  0.144D-01-0.496D+00 0.527D-01 0.132D+01
 Coeff:      0.576D-05-0.419D-04 0.954D-05 0.507D-03 0.132D-03-0.299D-02
 Coeff:     -0.503D-02 0.122D-01 0.926D-02-0.372D-01 0.252D-02 0.128D+00
 Coeff:      0.144D-01-0.496D+00 0.527D-01 0.132D+01
 RMSDP=3.54D-07 MaxDP=1.77D-05 DE=-3.88D-09 OVMax= 0.00D+00

 Cycle  17  Pass 1  IDiag  1:
 RMSU=  4.99D-08    CP:  9.92D-01  1.17D+00  1.06D+00  1.47D+00  2.49D+00
                    CP:  3.00D+00  3.00D+00  3.00D+00  3.00D+00  2.38D+00
                    CP:  1.39D+00  2.31D+00  3.00D+00  3.00D+00  2.19D+00
                    CP:  2.12D+00
 E= -474.406533134801     Delta-E=       -0.000000000819 Rises=F Damp=F
 DIIS: error= 2.44D-07 at cycle  17 NSaved=  17.
 NSaved=17 IEnMin=17 EnMin= -474.406533134801     IErMin=17 ErrMin= 2.44D-07
 ErrMax= 2.44D-07  0.00D+00 EMaxC= 1.00D-01 BMatC= 4.67D-12 BMatP= 4.16D-11
 IDIUse=1 WtCom= 1.00D+00 WtEn= 0.00D+00
 Coeff-Com:  0.122D-05-0.697D-05-0.162D-04 0.757D-04 0.171D-03-0.229D-03
 Coeff-Com: -0.217D-02 0.200D-02 0.399D-02-0.508D-02-0.742D-02 0.150D-01
 Coeff-Com:  0.818D-01-0.442D-01-0.181D+00 0.884D-01 0.105D+01
 Coeff:      0.122D-05-0.697D-05-0.162D-04 0.757D-04 0.171D-03-0.229D-03
 Coeff:     -0.217D-02 0.200D-02 0.399D-02-0.508D-02-0.742D-02 0.150D-01
 Coeff:      0.818D-01-0.442D-01-0.181D+00 0.884D-01 0.105D+01
 RMSDP=5.71D-08 MaxDP=2.97D-06 DE=-8.19D-10 OVMax= 0.00D+00

 Cycle  18  Pass 1  IDiag  1:
 RMSU=  2.37D-08    CP:  9.92D-01  1.17D+00  1.06D+00  1.47D+00  2.49D+00
                    CP:  3.00D+00  3.00D+00  3.00D+00  3.00D+00  2.38D+00
                    CP:  1.39D+00  2.31D+00  3.00D+00  3.00D+00  2.27D+00
                    CP:  2.31D+00  1.14D+00
 E= -474.406533134837     Delta-E=       -0.000000000035 Rises=F Damp=F
 DIIS: error= 1.52D-07 at cycle  18 NSaved=  18.
 NSaved=18 IEnMin=18 EnMin= -474.406533134837     IErMin=18 ErrMin= 1.52D-07
 ErrMax= 1.52D-07  0.00D+00 EMaxC= 1.00D-01 BMatC= 1.27D-12 BMatP= 4.67D-12
 IDIUse=1 WtCom= 1.00D+00 WtEn= 0.00D+00
 Coeff-Com: -0.154D-05 0.109D-04-0.216D-05-0.125D-03-0.581D-04 0.758D-03
 Coeff-Com:  0.126D-02-0.286D-02-0.295D-02 0.921D-02 0.570D-03-0.319D-01
 Coeff-Com: -0.158D-01 0.121D+00 0.393D-02-0.340D+00-0.773D-01 0.133D+01
 Coeff:     -0.154D-05 0.109D-04-0.216D-05-0.125D-03-0.581D-04 0.758D-03
 Coeff:      0.126D-02-0.286D-02-0.295D-02 0.921D-02 0.570D-03-0.319D-01
 Coeff:     -0.158D-01 0.121D+00 0.393D-02-0.340D+00-0.773D-01 0.133D+01
 RMSDP=4.09D-08 MaxDP=1.71D-06 DE=-3.55D-11 OVMax= 0.00D+00

 Cycle  19  Pass 1  IDiag  1:
 RMSU=  5.87D-09    CP:  9.92D-01  1.17D+00  1.06D+00  1.47D+00  2.49D+00
                    CP:  3.00D+00  3.00D+00  3.00D+00  3.00D+00  2.38D+00
                    CP:  1.39D+00  2.32D+00  3.00D+00  3.00D+00  2.34D+00
                    CP:  2.44D+00  1.37D+00  1.84D+00
 E= -474.406533134835     Delta-E=        0.000000000002 Rises=F Damp=F
 DIIS: error= 7.57D-08 at cycle  19 NSaved=  19.
 NSaved=19 IEnMin=18 EnMin= -474.406533134837     IErMin=19 ErrMin= 7.57D-08
 ErrMax= 7.57D-08  0.00D+00 EMaxC= 1.00D-01 BMatC= 1.57D-13 BMatP= 1.27D-12
 IDIUse=1 WtCom= 1.00D+00 WtEn= 0.00D+00
 Coeff-Com: -0.220D-06 0.132D-05 0.317D-05-0.143D-04-0.289D-04 0.389D-04
 Coeff-Com:  0.358D-03-0.329D-03-0.663D-03 0.882D-03 0.113D-02-0.192D-02
 Coeff-Com: -0.157D-01 0.109D-01 0.280D-01-0.407D-02-0.168D+00-0.283D-01
 Coeff-Com:  0.118D+01
 Coeff:     -0.220D-06 0.132D-05 0.317D-05-0.143D-04-0.289D-04 0.389D-04
 Coeff:      0.358D-03-0.329D-03-0.663D-03 0.882D-03 0.113D-02-0.192D-02
 Coeff:     -0.157D-01 0.109D-01 0.280D-01-0.407D-02-0.168D+00-0.283D-01
 Coeff:      0.118D+01
 RMSDP=7.87D-09 MaxDP=6.83D-07 DE= 1.82D-12 OVMax= 0.00D+00

 SCF Done:  E(RZINDO/S) =  -474.406533135     A.U. after   19 cycles
            NFock= 19  Conv=0.79D-08     -V/T= 0.9497
 KE=-9.436999053936D+03 PE=-9.474570106249D-07 EE= 4.581227335084D+03
 Leave Link  502 at Fri Apr 29 19:08:14 2022, MaxMem=  6710886400 cpu:              20.5 elap:               0.9
 (Enter /sw/apps/gaussian-16.0/g16/l801.exe)
 Range of M.O.s used for correlation:     1   338
 NBasis=   338 NAE=   176 NBE=   176 NFC=     0 NFV=     0
 NROrb=    338 NOA=   176 NOB=   176 NVA=   162 NVB=   162
 Leave Link  801 at Fri Apr 29 19:08:14 2022, MaxMem=  6710886400 cpu:               0.4 elap:               0.0
 (Enter /sw/apps/gaussian-16.0/g16/l914.exe)
 RHF ground state
 Two-electron integral symmetry not used.
 MDV=  6710886400 DFT=F DoStab=F Mixed=F DoRPA=F DoScal=F NonHer=F
 Making orbital integer symmetry assigments:
 Orbital symmetries:
       Occupied  (A) (A) (A) (A) (A) (A) (A) (A) (A) (A) (A) (A)
                 (A) (A) (A) (A) (A) (A) (A) (A) (A) (A) (A) (A)
                 (A) (A) (A) (A) (A) (A) (A) (A) (A) (A) (A) (A)
                 (A) (A) (A) (A) (A) (A) (A) (A) (A) (A) (A) (A)
                 (A) (A) (A) (A) (A) (A) (A) (A) (A) (A) (A) (A)
                 (A) (A) (A) (A) (A) (A) (A) (A) (A) (A) (A) (A)
                 (A) (A) (A) (A) (A) (A) (A) (A) (A) (A) (A) (A)
                 (A) (A) (A) (A) (A) (A) (A) (A) (A) (A) (A) (A)
                 (A) (A) (A) (A) (A) (A) (A) (A) (A) (A) (A) (A)
                 (A) (A) (A) (A) (A) (A) (A) (A) (A) (A) (A) (A)
                 (A) (A) (A) (A) (A) (A) (A) (A) (A) (A) (A) (A)
                 (A) (A) (A) (A) (A) (A) (A) (A) (A) (A) (A) (A)
                 (A) (A) (A) (A) (A) (A) (A) (A) (A) (A) (A) (A)
                 (A) (A) (A) (A) (A) (A) (A) (A) (A) (A) (A) (A)
                 (A) (A) (A) (A) (A) (A) (A) (A)
       Virtual   (A) (A) (A) (A) (A) (A) (A) (A) (A) (A) (A) (A)
                 (A) (A) (A) (A) (A) (A) (A) (A) (A) (A) (A) (A)
                 (A) (A) (A) (A) (A) (A) (A) (A) (A) (A) (A) (A)
                 (A) (A) (A) (A) (A) (A) (A) (A) (A) (A) (A) (A)
                 (A) (A) (A) (A) (A) (A) (A) (A) (A) (A) (A) (A)
                 (A) (A) (A) (A) (A) (A) (A) (A) (A) (A) (A) (A)
                 (A) (A) (A) (A) (A) (A) (A) (A) (A) (A) (A) (A)
                 (A) (A) (A) (A) (A) (A) (A) (A) (A) (A) (A) (A)
                 (A) (A) (A) (A) (A) (A) (A) (A) (A) (A) (A) (A)
                 (A) (A) (A) (A) (A) (A) (A) (A) (A) (A) (A) (A)
                 (A) (A) (A) (A) (A) (A) (A) (A) (A) (A) (A) (A)
                 (A) (A) (A) (A) (A) (A) (A) (A) (A) (A) (A) (A)
                 (A) (A) (A) (A) (A) (A) (A) (A) (A) (A) (A) (A)
                 (A) (A) (A) (A) (A) (A)
    20 initial guesses have been made.
 Convergence on wavefunction:    0.001000000000000
 Davidson Disk Diagonalization:  ConvIn= 1.00D-03 SkipCon=T Conv= 1.00D-03.
 Max sub-space:  2000 roots to seek:    20 dimension of matrix:        57024
 Iteration     1 Dimension    20 NMult     0 NNew     20
 CISAX will form    20 AO SS matrices at one time.
 NMat=    20 NSing=    20 JSym2X= 0.
 New state      3 was old state     13
 New state      5 was old state      3
 Excitation Energies [eV] at current iteration:
 Root      1 :     1.611778232479022
 Root      2 :     2.139896112987416
 Root      3 :     3.372328424889278
 Root      4 :     3.430072014522226
 Root      5 :     3.500285955781534
 Root      6 :     3.660807385951063
 Root      7 :     3.716588942659385
 Root      8 :     3.807483349010838
 Root      9 :     3.908765667615075
 Root     10 :     3.930300794433402
 Root     11 :     4.146886739508900
 Root     12 :     4.239794028488891
 Root     13 :     4.348753807935821
 Root     14 :     4.432846867142307
 Root     15 :     4.456933173796997
 Root     16 :     4.482037742179357
 Root     17 :     4.576207131701407
 Root     18 :     4.633954231029795
 Root     19 :     5.211389375816868
 Root     20 :     5.581606581361567
 Iteration     2 Dimension    40 NMult    20 NNew     20
 CISAX will form    20 AO SS matrices at one time.
 NMat=    20 NSing=    20 JSym2X= 0.
 Root      1 not converged, maximum delta is    0.047446684277746
 Root      2 not converged, maximum delta is    0.028101396695652
 New state      3 was old state      4
 Root      3 not converged, maximum delta is    0.372848815578502
 New state      4 was old state      3
 Root      4 not converged, maximum delta is    0.332446548630691
 Root      5 not converged, maximum delta is    0.290420723275922
 Excitation Energies [eV] at current iteration:
 Root      1 :     1.268976987344366   Change is   -0.342801245134656
 Root      2 :     1.937538565851544   Change is   -0.202357547135871
 Root      3 :     3.064321284410566   Change is   -0.365750730111661
 Root      4 :     3.192059972084118   Change is   -0.180268452805160
 Root      5 :     3.241573938623886   Change is   -0.258712017157648
 Root      6 :     3.477609113808564   Change is   -0.238979828850821
 Root      7 :     3.546894491600663   Change is   -0.383406302832739
 Root      8 :     3.568379852929698   Change is   -0.092427533021365
 Root      9 :     3.613459083735248   Change is   -0.194024265275589
 Root     10 :     3.650392011322579   Change is   -0.589402017166312
 Root     11 :     3.735542768282760   Change is   -0.173222899332315
 Root     12 :     3.793957855656999   Change is   -0.352928883851900
 Root     13 :     3.867581700720943   Change is   -0.614456041458414
 Root     14 :     4.161444129771016   Change is   -0.271402737371291
 Root     15 :     4.214714816631957   Change is   -0.134038991303864
 Root     16 :     4.277405215728434   Change is   -0.298801915972973
 Root     17 :     4.397657492935983   Change is   -0.059275680861014
 Root     18 :     4.469985189888195   Change is   -0.163969041141600
 Root     19 :     5.199002695376486   Change is   -0.012386680440381
 Root     20 :     5.555800336458698   Change is   -0.025806244902869
 Iteration     3 Dimension    45 NMult    40 NNew      5
 CISAX will form     5 AO SS matrices at one time.
 NMat=     5 NSing=     5 JSym2X= 0.
 Root      1 not converged, maximum delta is    0.012675391191866
 Root      2 not converged, maximum delta is    0.019410709591628
 Root      3 not converged, maximum delta is    0.017144662977703
 Root      4 not converged, maximum delta is    0.047469978463309
 Root      5 not converged, maximum delta is    0.047026632900830
 Excitation Energies [eV] at current iteration:
 Root      1 :     1.252878046856722   Change is   -0.016098940487644
 Root      2 :     1.911925507816719   Change is   -0.025613058034826
 Root      3 :     3.042186051926221   Change is   -0.022135232484345
 Root      4 :     3.163984693496615   Change is   -0.028075278587502
 Root      5 :     3.201389982393208   Change is   -0.040183956230678
 Iteration     4 Dimension    50 NMult    45 NNew      5
 CISAX will form     5 AO SS matrices at one time.
 NMat=     5 NSing=     5 JSym2X= 0.
 Root      1 not converged, maximum delta is    0.002177835445920
 Root      2 not converged, maximum delta is    0.002242874995410
 Root      3 not converged, maximum delta is    0.007582704403521
 Root      4 not converged, maximum delta is    0.048988541402269
 Root      5 not converged, maximum delta is    0.037197106952229
 Excitation Energies [eV] at current iteration:
 Root      1 :     1.252202634880710   Change is   -0.000675411976013
 Root      2 :     1.911326672891931   Change is   -0.000598834924787
 Root      3 :     3.039274334348148   Change is   -0.002911717578073
 Root      4 :     3.158630987914525   Change is   -0.005353705582091
 Root      5 :     3.193776841753988   Change is   -0.007613140639220
 Iteration     5 Dimension    55 NMult    50 NNew      5
 CISAX will form     5 AO SS matrices at one time.
 NMat=     5 NSing=     5 JSym2X= 0.
 Root      1 has converged.
 Root      2 has converged.
 Root      3 not converged, maximum delta is    0.021830573357770
 Root      4 not converged, maximum delta is    0.292719903057579
 Root      5 not converged, maximum delta is    0.444057222997699
 Excitation Energies [eV] at current iteration:
 Root      1 :     1.252160109705204   Change is   -0.000042525175505
 Root      2 :     1.911289915775396   Change is   -0.000036757116536
 Root      3 :     3.037665994944538   Change is   -0.001608339403610
 Root      4 :     3.085721845042024   Change is   -0.072909142872501
 Root      5 :     3.167505468395563   Change is   -0.026271373358425
 Iteration     6 Dimension    58 NMult    55 NNew      3
 CISAX will form     3 AO SS matrices at one time.
 NMat=     3 NSing=     3 JSym2X= 0.
 Root      1 has converged.
 Root      2 has converged.
 New state      3 was old state      4
 Root      3 not converged, maximum delta is    0.147341942745236
 New state      4 was old state      3
 Root      4 not converged, maximum delta is    0.094422045202851
 Root      5 not converged, maximum delta is    0.385260565685813
 Excitation Energies [eV] at current iteration:
 Root      1 :     1.252159866940773   Change is   -0.000000242764432
 Root      2 :     1.911288793879613   Change is   -0.000001121895782
 Root      3 :     2.948851942048548   Change is   -0.136869902993477
 Root      4 :     3.032403128157893   Change is   -0.005262866786645
 Root      5 :     3.088244604166813   Change is   -0.079260864228749
 Iteration     7 Dimension    61 NMult    58 NNew      3
 CISAX will form     3 AO SS matrices at one time.
 NMat=     3 NSing=     3 JSym2X= 0.
 Root      1 has converged.
 Root      2 has converged.
 Root      3 not converged, maximum delta is    0.016744970164949
 Root      4 not converged, maximum delta is    0.113041432651748
 Root      5 not converged, maximum delta is    0.131742184790652
 Excitation Energies [eV] at current iteration:
 Root      1 :     1.252159640363014   Change is   -0.000000226577759
 Root      2 :     1.911288201497742   Change is   -0.000000592381871
 Root      3 :     2.929781353302627   Change is   -0.019070588745920
 Root      4 :     3.023590399735177   Change is   -0.008812728422716
 Root      5 :     3.060614222454510   Change is   -0.027630381712303
 Iteration     8 Dimension    64 NMult    61 NNew      3
 CISAX will form     3 AO SS matrices at one time.
 NMat=     3 NSing=     3 JSym2X= 0.
 Root      1 has converged.
 Root      2 has converged.
 Root      3 not converged, maximum delta is    0.004904036379716
 Root      4 not converged, maximum delta is    0.032542617218175
 Root      5 not converged, maximum delta is    0.028107820048337
 Excitation Energies [eV] at current iteration:
 Root      1 :     1.252159584795924   Change is   -0.000000055567090
 Root      2 :     1.911287928248690   Change is   -0.000000273249052
 Root      3 :     2.927826515426578   Change is   -0.001954837876050
 Root      4 :     3.020770152710439   Change is   -0.002820247024738
 Root      5 :     3.056989850833512   Change is   -0.003624371620998
 Iteration     9 Dimension    67 NMult    64 NNew      3
 CISAX will form     3 AO SS matrices at one time.
 NMat=     3 NSing=     3 JSym2X= 0.
 Root      1 has converged.
 Root      2 has converged.
 Root      3 not converged, maximum delta is    0.002365575081365
 Root      4 not converged, maximum delta is    0.007836097542981
 Root      5 not converged, maximum delta is    0.006567054662582
 Excitation Energies [eV] at current iteration:
 Root      1 :     1.252159556850411   Change is   -0.000000027945513
 Root      2 :     1.911287752692632   Change is   -0.000000175556057
 Root      3 :     2.927588065536216   Change is   -0.000238449890362
 Root      4 :     3.020110030259004   Change is   -0.000660122451435
 Root      5 :     3.056168375597263   Change is   -0.000821475236249
 Iteration    10 Dimension    70 NMult    67 NNew      3
 CISAX will form     3 AO SS matrices at one time.
 NMat=     3 NSing=     3 JSym2X= 0.
 Root      1 has converged.
 Root      2 has converged.
 Root      3 has converged.
 Root      4 not converged, maximum delta is    0.002098308429521
 Root      5 not converged, maximum delta is    0.001876430990479
 Excitation Energies [eV] at current iteration:
 Root      1 :     1.252159501507231   Change is   -0.000000055343180
 Root      2 :     1.911287646082192   Change is   -0.000000106610440
 Root      3 :     2.927560736009542   Change is   -0.000027329526673
 Root      4 :     3.019997243152263   Change is   -0.000112787106741
 Root      5 :     3.056020878343900   Change is   -0.000147497253363
 Iteration    11 Dimension    72 NMult    70 NNew      2
 CISAX will form     2 AO SS matrices at one time.
 NMat=     2 NSing=     2 JSym2X= 0.
 Root      1 has converged.
 Root      2 has converged.
 Root      3 has converged.
 Root      4 has converged.
 Root      5 has converged.
 Excitation Energies [eV] at current iteration:
 Root      1 :     1.252159484759436   Change is   -0.000000016747794
 Root      2 :     1.911287638178522   Change is   -0.000000007903671
 Root      3 :     2.927559556140001   Change is   -0.000001179869542
 Root      4 :     3.019984034091992   Change is   -0.000013209060271
 Root      5 :     3.056002065309216   Change is   -0.000018813034684
 Convergence achieved on expansion vectors.
 ***********************************************************************
 Excited states from <AA,BB:AA,BB> singles matrix:
 ***********************************************************************
 
 1PDM for each excited state written to RWF  633
 Ground to excited state transition densities written to RWF  633
 Ground to excited state transition electric dipole moments (Au):
       state          X           Y           Z        Dip. S.      Osc.
         1         2.6891      3.3738     -0.6665     19.0577      0.5846
         2        -0.8734      0.6475     -0.1732      1.2121      0.0568
         3         0.1609     -0.0205     -0.0178      0.0266      0.0019
         4        -1.6119      1.5973     -0.0565      5.1528      0.3812
         5        -2.1856      2.0817     -0.0318      9.1113      0.6822
 Ground to excited state transition velocity dipole moments (Au):
       state          X           Y           Z        Dip. S.      Osc.
         1         0.0575      0.0310     -0.0165      0.0045      0.0657
         2         0.0107     -0.0137      0.0043      0.0003      0.0030
         3        -0.0015      0.0045      0.0094      0.0001      0.0007
         4         0.0519     -0.0580     -0.0122      0.0062      0.0373
         5         0.0708     -0.0718     -0.0088      0.0102      0.0608
 Ground to excited state transition magnetic dipole moments (Au):
       state          X           Y           Z
         1         0.0346     -0.1580     -0.1740
         2         0.0588      0.1211      0.6964
         3        -0.5550      0.3977     -0.2479
         4        -0.1350     -0.6341      0.3525
         5         0.1015      0.4020      0.2290
 Ground to excited state transition velocity quadrupole moments (Au):
       state          XX          YY          ZZ          XY          XZ          YZ
         1        -1.1174      0.0571      0.0219     -0.2954      0.2100     -0.0391
         2        -0.1840      0.0110      0.0170      0.0893     -0.0636      0.0057
         3         0.0935      0.0831     -0.0234     -0.0284     -0.0369      0.1374
         4        -0.5583     -0.0980      0.0459      0.4392     -0.0844      0.1020
         5        -0.7371     -0.1778      0.0840      0.5632     -0.1186      0.0120
 <0|del|b> * <b|rxdel|0> + <0|del|b> * <b|delr+rdel|0>
 Rotatory Strengths (R) in cgs (10**-40 erg-esu-cm/Gauss)
       state          XX          YY          ZZ    R(velocity)    E-M Angle
         1       -28.1239    -17.4389     44.9515     -0.2038       90.00
         2         4.1162     16.5005     -1.1085      6.5027       81.22
         3        -2.1021     -4.6747      8.8098      0.6777       87.68
         4        70.8061     -2.0849     93.6514     54.1242       64.00
         5      -139.5410     34.5161    -44.1288    -49.7179      119.62
 1/2[<0|r|b>*<b|rxdel|0> + (<0|rxdel|b>*<b|r|0>)*]
 Rotatory Strengths (R) in cgs (10**-40 erg-esu-cm/Gauss)
       state          XX          YY          ZZ     R(length)
         1       -65.8042    377.0636    -82.0137     76.4152
         2        36.3060    -55.4299     85.2731     22.0498
         3        63.1597      5.7712     -3.1172     21.9379
         4      -153.9327    716.2635     14.0935    192.1414
         5       156.8480   -591.8286      5.1485   -143.2774
  1/2[<0|del|b>*<b|r|0> + (<0|r|b>*<b|del|0>)*] (Au)
       state          X           Y           Z        Dip. S.   Osc.(frdel)
         1         0.1545      0.1047      0.0110     -0.2702     -0.1802
         2        -0.0093     -0.0089     -0.0007      0.0190      0.0126
         3        -0.0002     -0.0001     -0.0002      0.0005      0.0003
         4        -0.0836     -0.0927      0.0007      0.1756      0.1170
         5        -0.1547     -0.1494      0.0003      0.3038      0.2025

 Excitation energies and oscillator strengths:
 
 Excited State   1:      Singlet-A      1.2522 eV  990.16 nm  f=0.5846  <S**2>=0.000
     175 ->178         0.18803
     176 ->177         0.66511
 This state for optimization and/or second-order correction.
 Total Energy, E(CIS/TDA) =  -474.360517120    
 Copying the excited state density for this state as the 1-particle RhoCI density.
 
 Excited State   2:      Singlet-A      1.9113 eV  648.69 nm  f=0.0568  <S**2>=0.000
     175 ->177         0.55817
     176 ->178        -0.40751
 
 Excited State   3:      Singlet-A      2.9276 eV  423.51 nm  f=0.0019  <S**2>=0.000
     170 ->177         0.26361
     170 ->179         0.29568
     170 ->181         0.41539
     170 ->182        -0.12305
     170 ->186         0.15748
     170 ->187         0.13701
     170 ->188        -0.18183
     170 ->202        -0.11977
 
 Excited State   4:      Singlet-A      3.0200 eV  410.55 nm  f=0.3812  <S**2>=0.000
     167 ->179        -0.13113
     168 ->177         0.26611
     168 ->179        -0.27868
     168 ->181         0.15586
     168 ->186        -0.15565
     171 ->177        -0.20024
     173 ->177         0.11788
     175 ->177         0.20057
     176 ->178         0.31279
     176 ->179         0.11244
 
 Excited State   5:      Singlet-A      3.0560 eV  405.71 nm  f=0.6822  <S**2>=0.000
     167 ->179         0.10644
     168 ->177        -0.21883
     168 ->179         0.24838
     168 ->181        -0.14106
     168 ->186         0.12408
     171 ->177        -0.11702
     175 ->177         0.27389
     176 ->178         0.40570
     176 ->179         0.14917
 SavETr:  write IOETrn=   770 NScale= 10 NData=  16 NLR=1 NState=    5 LETran=     100.
 Leave Link  914 at Fri Apr 29 19:08:18 2022, MaxMem=  6710886400 cpu:              94.5 elap:               4.0
 (Enter /sw/apps/gaussian-16.0/g16/l601.exe)
 Copying SCF densities to generalized density rwf, IOpCl= 0 IROHF=0.

 **********************************************************************

            Population analysis using the SCF density.

 **********************************************************************

 Orbital symmetries:
       Occupied  (A) (A) (A) (A) (A) (A) (A) (A) (A) (A) (A) (A)
                 (A) (A) (A) (A) (A) (A) (A) (A) (A) (A) (A) (A)
                 (A) (A) (A) (A) (A) (A) (A) (A) (A) (A) (A) (A)
                 (A) (A) (A) (A) (A) (A) (A) (A) (A) (A) (A) (A)
                 (A) (A) (A) (A) (A) (A) (A) (A) (A) (A) (A) (A)
                 (A) (A) (A) (A) (A) (A) (A) (A) (A) (A) (A) (A)
                 (A) (A) (A) (A) (A) (A) (A) (A) (A) (A) (A) (A)
                 (A) (A) (A) (A) (A) (A) (A) (A) (A) (A) (A) (A)
                 (A) (A) (A) (A) (A) (A) (A) (A) (A) (A) (A) (A)
                 (A) (A) (A) (A) (A) (A) (A) (A) (A) (A) (A) (A)
                 (A) (A) (A) (A) (A) (A) (A) (A) (A) (A) (A) (A)
                 (A) (A) (A) (A) (A) (A) (A) (A) (A) (A) (A) (A)
                 (A) (A) (A) (A) (A) (A) (A) (A) (A) (A) (A) (A)
                 (A) (A) (A) (A) (A) (A) (A) (A) (A) (A) (A) (A)
                 (A) (A) (A) (A) (A) (A) (A) (A)
       Virtual   (A) (A) (A) (A) (A) (A) (A) (A) (A) (A) (A) (A)
                 (A) (A) (A) (A) (A) (A) (A) (A) (A) (A) (A) (A)
                 (A) (A) (A) (A) (A) (A) (A) (A) (A) (A) (A) (A)
                 (A) (A) (A) (A) (A) (A) (A) (A) (A) (A) (A) (A)
                 (A) (A) (A) (A) (A) (A) (A) (A) (A) (A) (A) (A)
                 (A) (A) (A) (A) (A) (A) (A) (A) (A) (A) (A) (A)
                 (A) (A) (A) (A) (A) (A) (A) (A) (A) (A) (A) (A)
                 (A) (A) (A) (A) (A) (A) (A) (A) (A) (A) (A) (A)
                 (A) (A) (A) (A) (A) (A) (A) (A) (A) (A) (A) (A)
                 (A) (A) (A) (A) (A) (A) (A) (A) (A) (A) (A) (A)
                 (A) (A) (A) (A) (A) (A) (A) (A) (A) (A) (A) (A)
                 (A) (A) (A) (A) (A) (A) (A) (A) (A) (A) (A) (A)
                 (A) (A) (A) (A) (A) (A) (A) (A) (A) (A) (A) (A)
                 (A) (A) (A) (A) (A) (A)
 The electronic state is 1-A.
 Alpha  occ. eigenvalues --   -1.83180  -1.80353  -1.79706  -1.76595  -1.72540
 Alpha  occ. eigenvalues --   -1.71282  -1.67021  -1.62154  -1.59178  -1.58514
 Alpha  occ. eigenvalues --   -1.56257  -1.52412  -1.49283  -1.47972  -1.47411
 Alpha  occ. eigenvalues --   -1.44946  -1.44415  -1.40112  -1.38417  -1.38030
 Alpha  occ. eigenvalues --   -1.36028  -1.33542  -1.32722  -1.31377  -1.28730
 Alpha  occ. eigenvalues --   -1.26883  -1.24461  -1.21307  -1.20118  -1.18861
 Alpha  occ. eigenvalues --   -1.17099  -1.16027  -1.14938  -1.14635  -1.12782
 Alpha  occ. eigenvalues --   -1.12281  -1.11154  -1.10049  -1.04659  -1.04055
 Alpha  occ. eigenvalues --   -1.03324  -1.01604  -0.99260  -0.97864  -0.97631
 Alpha  occ. eigenvalues --   -0.96016  -0.95055  -0.94684  -0.93296  -0.91843
 Alpha  occ. eigenvalues --   -0.90267  -0.90115  -0.88818  -0.87950  -0.87823
 Alpha  occ. eigenvalues --   -0.85031  -0.84345  -0.83438  -0.81761  -0.80760
 Alpha  occ. eigenvalues --   -0.80000  -0.78893  -0.78437  -0.78146  -0.76999
 Alpha  occ. eigenvalues --   -0.76280  -0.76107  -0.75622  -0.74886  -0.73596
 Alpha  occ. eigenvalues --   -0.73302  -0.72669  -0.72413  -0.71641  -0.71330
 Alpha  occ. eigenvalues --   -0.70918  -0.69926  -0.69897  -0.68380  -0.68129
 Alpha  occ. eigenvalues --   -0.67984  -0.67259  -0.66837  -0.66242  -0.65488
 Alpha  occ. eigenvalues --   -0.65211  -0.64639  -0.64330  -0.64007  -0.63706
 Alpha  occ. eigenvalues --   -0.63368  -0.63013  -0.62405  -0.62031  -0.61687
 Alpha  occ. eigenvalues --   -0.60744  -0.60623  -0.60389  -0.60268  -0.59613
 Alpha  occ. eigenvalues --   -0.59424  -0.59217  -0.58763  -0.58398  -0.57897
 Alpha  occ. eigenvalues --   -0.57790  -0.57397  -0.57136  -0.56798  -0.56738
 Alpha  occ. eigenvalues --   -0.56331  -0.55938  -0.55300  -0.54898  -0.54861
 Alpha  occ. eigenvalues --   -0.54805  -0.53856  -0.53650  -0.53129  -0.52871
 Alpha  occ. eigenvalues --   -0.52519  -0.52232  -0.51806  -0.51532  -0.51414
 Alpha  occ. eigenvalues --   -0.51322  -0.51285  -0.50862  -0.50448  -0.49715
 Alpha  occ. eigenvalues --   -0.49370  -0.49300  -0.49124  -0.48944  -0.48538
 Alpha  occ. eigenvalues --   -0.48208  -0.47980  -0.47880  -0.47513  -0.47482
 Alpha  occ. eigenvalues --   -0.47348  -0.47041  -0.46770  -0.46374  -0.46255
 Alpha  occ. eigenvalues --   -0.46172  -0.45897  -0.45820  -0.45356  -0.45131
 Alpha  occ. eigenvalues --   -0.44843  -0.44742  -0.44498  -0.44400  -0.44109
 Alpha  occ. eigenvalues --   -0.43881  -0.43769  -0.43338  -0.43304  -0.42926
 Alpha  occ. eigenvalues --   -0.41566  -0.41498  -0.41228  -0.39564  -0.39362
 Alpha  occ. eigenvalues --   -0.38098  -0.36963  -0.35578  -0.34963  -0.33994
 Alpha  occ. eigenvalues --   -0.33522  -0.33307  -0.32314  -0.32185  -0.26704
 Alpha  occ. eigenvalues --   -0.21940
 Alpha virt. eigenvalues --   -0.08719  -0.02125  -0.00182   0.01380   0.01537
 Alpha virt. eigenvalues --    0.02509   0.02594   0.03063   0.04233   0.04473
 Alpha virt. eigenvalues --    0.05918   0.06545   0.06927   0.07227   0.08040
 Alpha virt. eigenvalues --    0.08573   0.08587   0.08788   0.09413   0.09572
 Alpha virt. eigenvalues --    0.09732   0.10107   0.10219   0.10492   0.10943
 Alpha virt. eigenvalues --    0.11056   0.11155   0.11688   0.11913   0.12621
 Alpha virt. eigenvalues --    0.12690   0.12853   0.12872   0.13176   0.13343
 Alpha virt. eigenvalues --    0.13366   0.13889   0.13910   0.14585   0.14979
 Alpha virt. eigenvalues --    0.15427   0.15576   0.15610   0.15702   0.15769
 Alpha virt. eigenvalues --    0.15870   0.16190   0.16497   0.16776   0.16978
 Alpha virt. eigenvalues --    0.17230   0.17555   0.17643   0.17779   0.17995
 Alpha virt. eigenvalues --    0.18163   0.18595   0.18960   0.19269   0.19414
 Alpha virt. eigenvalues --    0.19516   0.19719   0.20134   0.20425   0.21379
 Alpha virt. eigenvalues --    0.21434   0.21559   0.22740   0.22781   0.23666
 Alpha virt. eigenvalues --    0.23889   0.23948   0.24153   0.24242   0.24410
 Alpha virt. eigenvalues --    0.24426   0.24440   0.24606   0.24672   0.24712
 Alpha virt. eigenvalues --    0.24732   0.24799   0.24823   0.24946   0.25002
 Alpha virt. eigenvalues --    0.25048   0.25052   0.25196   0.25346   0.25353
 Alpha virt. eigenvalues --    0.25485   0.25538   0.25610   0.25693   0.25737
 Alpha virt. eigenvalues --    0.25778   0.25846   0.25905   0.25966   0.26076
 Alpha virt. eigenvalues --    0.26150   0.26401   0.26412   0.26480   0.26605
 Alpha virt. eigenvalues --    0.26702   0.26838   0.26876   0.26940   0.27033
 Alpha virt. eigenvalues --    0.27092   0.27310   0.27695   0.27853   0.27862
 Alpha virt. eigenvalues --    0.28047   0.28825   0.28880   0.29045   0.29316
 Alpha virt. eigenvalues --    0.29672   0.29744   0.30219   0.31088   0.31221
 Alpha virt. eigenvalues --    0.32103   0.32356   0.33166   0.33529   0.34874
 Alpha virt. eigenvalues --    0.35155   0.35285   0.35498   0.35863   0.36201
 Alpha virt. eigenvalues --    0.36585   0.36861   0.36943   0.37367   0.38225
 Alpha virt. eigenvalues --    0.38734   0.39601   0.40202   0.40444   0.40729
 Alpha virt. eigenvalues --    0.41010   0.41681   0.42164   0.42392   0.42780
 Alpha virt. eigenvalues --    0.43621   0.44385   0.45352   0.45922   0.47272
 Alpha virt. eigenvalues --    0.47502   0.48171   0.48381   0.50716   0.52909
 Alpha virt. eigenvalues --    0.55116   0.55745
          Condensed to atoms (all electrons):
 Mulliken charges:
               1
     1  Mg   0.425138
     2  C   -0.054418
     3  C   -0.070893
     4  C   -0.055158
     5  C   -0.064183
     6  N   -0.278051
     7  C    0.142468
     8  C    0.018108
     9  C    0.014092
    10  C    0.092332
    11  C   -0.053944
    12  C   -0.016117
    13  C   -0.007465
    14  C    0.476675
    15  O   -0.521187
    16  O   -0.250589
    17  N   -0.327684
    18  C    0.089827
    19  C   -0.005307
    20  C   -0.036099
    21  C    0.121724
    22  C   -0.059037
    23  C    0.326682
    24  O   -0.544766
    25  C   -0.029676
    26  N   -0.297312
    27  C    0.128958
    28  C    0.008937
    29  C    0.006162
    30  C    0.156127
    31  C   -0.063263
    32  C   -0.020279
    33  C   -0.051913
    34  N   -0.339238
    35  C    0.126987
    36  C    0.044539
    37  C   -0.043896
    38  C    0.126414
    39  C   -0.042662
    40  C    0.331681
    41  O   -0.488594
    42  C    0.056710
    43  C    0.481176
    44  O   -0.498099
    45  O   -0.285865
    46  C    0.076510
    47  C    0.103613
    48  C   -0.100676
    49  C   -0.001497
    50  C   -0.047629
    51  C   -0.021429
    52  C   -0.031827
    53  C   -0.030176
    54  C   -0.004940
    55  C   -0.068864
    56  C   -0.026905
    57  C   -0.045281
    58  C   -0.022213
    59  C   -0.001900
    60  C   -0.065352
    61  C   -0.031850
    62  C   -0.046501
    63  C   -0.037164
    64  C   -0.009381
    65  C   -0.052638
    66  C   -0.060691
    67  H    0.020045
    68  H    0.038440
    69  H    0.025680
    70  H    0.045521
    71  H    0.023440
    72  H    0.021764
    73  H    0.028169
    74  H    0.020651
    75  H    0.033291
    76  H    0.025728
    77  H    0.022606
    78  H    0.045561
    79  H    0.031648
    80  H    0.019709
    81  H    0.026001
    82  H    0.033562
    83  H    0.036297
    84  H    0.037052
    85  H    0.033647
    86  H    0.026731
    87  H    0.031397
    88  H    0.019663
    89  H    0.017985
    90  H    0.024183
    91  H    0.008737
    92  H    0.011354
    93  H    0.032556
    94  H    0.029268
    95  H    0.031984
    96  H    0.025942
    97  H    0.038403
    98  H    0.054717
    99  H    0.039930
   100  H    0.046562
   101  H    0.047515
   102  H    0.059090
   103  H    0.051403
   104  H    0.024350
   105  H    0.035206
   106  H    0.020926
   107  H    0.021655
   108  H    0.033218
   109  H    0.005518
   110  H    0.020845
   111  H    0.027344
   112  H    0.014651
   113  H    0.017284
   114  H    0.024676
   115  H    0.016778
   116  H    0.017393
   117  H    0.010499
   118  H    0.021000
   119  H    0.018040
   120  H    0.014018
   121  H    0.015883
   122  H    0.021193
   123  H    0.016401
   124  H    0.019423
   125  H    0.012901
   126  H    0.016551
   127  H    0.013128
   128  H    0.018918
   129  H    0.010855
   130  H    0.018575
   131  H    0.014489
   132  H    0.015039
   133  H    0.030684
   134  H    0.024902
   135  H    0.021011
   136  H    0.009251
   137  H    0.011035
   138  H    0.019642
   139  H    0.018509
   140  H    0.019726
 Sum of Mulliken charges =  -0.00000
 Mulliken charges with hydrogens summed into heavy atoms:
               1
     1  Mg   0.425138
     2  C   -0.054418
     3  C   -0.050848
     4  C   -0.016718
     5  C   -0.038503
     6  N   -0.278051
     7  C    0.142468
     8  C    0.063629
     9  C    0.037531
    10  C    0.092332
    11  C    0.016640
    12  C    0.042901
    13  C    0.060702
    14  C    0.476675
    15  O   -0.521187
    16  O   -0.250589
    17  N   -0.327684
    18  C    0.089827
    19  C   -0.005307
    20  C   -0.036099
    21  C    0.121724
    22  C    0.018322
    23  C    0.326682
    24  O   -0.544766
    25  C    0.077235
    26  N   -0.297312
    27  C    0.128958
    28  C    0.042584
    29  C    0.032893
    30  C    0.156127
    31  C    0.005782
    32  C    0.012642
    33  C    0.021265
    34  N   -0.339238
    35  C    0.126987
    36  C    0.044539
    37  C   -0.043896
    38  C    0.126414
    39  C    0.053667
    40  C    0.331681
    41  O   -0.488594
    42  C    0.111426
    43  C    0.481176
    44  O   -0.498099
    45  O   -0.285865
    46  C    0.210517
    47  C    0.214106
    48  C   -0.076326
    49  C   -0.001497
    50  C    0.030159
    51  C    0.017306
    52  C    0.016361
    53  C    0.001759
    54  C    0.019736
    55  C   -0.024194
    56  C    0.012135
    57  C   -0.015381
    58  C    0.015382
    59  C    0.017522
    60  C   -0.022772
    61  C   -0.002076
    62  C   -0.013436
    63  C    0.008559
    64  C    0.015521
    65  C   -0.011341
    66  C   -0.002815
 Charge=             -0.0000 electrons
 Dipole moment (field-independent basis, Debye):
    X=              4.0257    Y=              1.2306    Z=             -5.7105  Tot=              7.0944
 N-N= 4.381365186665D+03 E-N= 0.000000000000D+00  KE=-9.436999053936D+03
 Leave Link  601 at Fri Apr 29 19:08:18 2022, MaxMem=  6710886400 cpu:               0.8 elap:               0.0
 (Enter /sw/apps/gaussian-16.0/g16/l9999.exe)
 1\1\GINC-BP1-COMPUTE103\SP\RZINDO CIS\STO-3G\C55H74Mg1N4O6\OF15641\29-
 Apr-2022\0\\#p ZINDO=(nstates=5)\\step_401_chromophore_9 ZINDO\\0,1\Mg
 ,0,35.844,1.663,29.803\C,0,33.281,2.861,31.886\C,0,37.955,1.633,32.511
 \C,0,38.248,0.742,27.666\C,0,33.497,1.785,27.036\N,0,35.631,2.295,31.9
 39\C,0,34.458,2.489,32.617\C,0,34.581,2.199,34.128\C,0,36.08,2.096,34.
 332\C,0,36.634,2.048,32.861\C,0,36.745,3.063,35.295\C,0,33.83,0.923,34
 .616\C,0,33.288,0.959,36.132\C,0,33.838,2.027,37.096\O,0,33.363,3.137,
 37.259\O,0,34.965,1.619,37.695\N,0,37.876,1.208,30.075\C,0,38.519,1.18
 5,31.276\C,0,39.848,0.819,30.975\C,0,39.986,0.565,29.609\C,0,38.716,0.
 844,29.019\C,0,40.946,0.743,32.073\C,0,41.163,0.162,28.844\O,0,41.048,
 -0.271,27.698\C,0,42.523,0.058,29.461\N,0,35.882,1.354,27.655\C,0,37.0
 52,1.008,27.03\C,0,36.836,0.885,25.527\C,0,35.294,1.052,25.318\C,0,34.
 816,1.412,26.713\C,0,37.637,2.015,24.7\C,0,34.518,-0.14,24.753\C,0,34.
 179,-1.134,25.784\N,0,33.799,2.25,29.387\C,0,33.035,2.267,28.244\C,0,3
 1.738,2.726,28.652\C,0,31.784,2.991,30.022\C,0,33.1,2.703,30.462\C,0,3
 0.555,2.801,27.677\C,0,30.958,3.36,31.218\O,0,29.806,3.726,31.271\C,0,
 31.943,3.17,32.474\C,0,31.875,4.363,33.435\O,0,31.912,5.542,33.155\O,0
 ,31.546,3.903,34.689\C,0,31.122,4.819,35.709\C,0,35.56,2.654,38.51\C,0
 ,36.897,2.123,39.002\C,0,37.266,1.697,40.227\C,0,36.37,1.599,41.477\C,
 0,38.699,1.403,40.599\C,0,39.045,0.111,41.374\C,0,40.109,0.321,42.468\
 C,0,41.446,-0.341,42.126\C,0,41.337,-1.882,42.385\C,0,42.598,0.151,42.
 957\C,0,43.323,1.289,42.232\C,0,43.662,2.443,43.212\C,0,44.652,3.405,4
 2.61\C,0,46.069,2.726,42.615\C,0,44.703,4.787,43.253\C,0,43.665,5.73,4
 2.641\C,0,44.175,6.519,41.306\C,0,43.743,8.002,41.4\C,0,43.629,8.584,4
 0.032\C,0,44.837,8.797,42.207\H,0,38.583,1.424,33.38\H,0,39.01,0.506,2
 6.919\H,0,32.776,1.797,26.217\H,0,34.225,3.097,34.633\H,0,36.317,1.094
 ,34.69\H,0,37.401,2.613,36.041\H,0,35.962,3.673,35.745\H,0,37.494,3.75
 5,34.911\H,0,34.496,0.062,34.555\H,0,32.922,0.773,34.032\H,0,33.634,-0
 .003,36.509\H,0,32.204,0.85,36.104\H,0,41.296,-0.242,32.383\H,0,40.585
 ,1.242,32.973\H,0,41.766,1.31,31.631\H,0,42.803,0.963,30.\H,0,43.26,-0
 .232,28.712\H,0,42.456,-0.768,30.169\H,0,37.167,-0.068,25.114\H,0,35.0
 67,1.889,24.657\H,0,38.513,1.787,24.094\H,0,38.061,2.711,25.425\H,0,36
 .91,2.544,24.084\H,0,35.053,-0.474,23.864\H,0,33.579,0.296,24.412\H,0,
 34.646,-2.044,25.41\H,0,33.109,-1.216,25.971\H,0,34.798,-0.988,26.67\H
 ,0,30.346,1.838,27.21\H,0,30.89,3.419,26.844\H,0,29.681,3.253,28.146\H
 ,0,31.446,2.372,33.025\H,0,30.665,4.382,36.597\H,0,30.378,5.387,35.151
 \H,0,32.023,5.347,36.02\H,0,34.973,2.966,39.374\H,0,35.912,3.451,37.85
 5\H,0,37.698,2.281,38.28\H,0,36.021,0.576,41.619\H,0,35.6,2.362,41.36\
 H,0,36.856,1.867,42.415\H,0,39.124,2.334,40.976\H,0,39.226,1.349,39.64
 6\H,0,39.541,-0.541,40.655\H,0,38.218,-0.424,41.843\H,0,39.764,-0.172,
 43.377\H,0,40.192,1.382,42.705\H,0,41.64,-0.323,41.054\H,0,40.358,-2.1
 41,42.788\H,0,42.112,-2.287,43.035\H,0,41.495,-2.471,41.482\H,0,43.358
 ,-0.599,43.176\H,0,42.211,0.509,43.912\H,0,42.802,1.773,41.406\H,0,44.
 145,0.844,41.67\H,0,44.072,2.061,44.147\H,0,42.664,2.821,43.431\H,0,44
 .546,3.595,41.542\H,0,46.86,3.476,42.595\H,0,46.249,2.03,41.796\H,0,46
 .253,2.134,43.511\H,0,45.639,5.341,43.183\H,0,44.549,4.652,44.324\H,0,
 43.332,6.408,43.427\H,0,42.8,5.159,42.303\H,0,43.627,6.06,40.482\H,0,4
 5.252,6.445,41.155\H,0,42.776,8.094,41.895\H,0,44.295,8.195,39.262\H,0
 ,43.851,9.651,40.017\H,0,42.584,8.458,39.747\H,0,45.329,8.117,42.904\H
 ,0,44.38,9.655,42.699\H,0,45.567,9.184,41.497\\Version=ES64L-G16RevA.0
 3\State=1-A\HF=-474.4065331\RMSD=7.873e-09\PG=C01 [X(C55H74Mg1N4O6)]\\
 @


 ADVERTISING--  HE WHO HAS SOMETHING TO SELL AND GOES AND WHISPERS
                IN A WELL, IS NOT SO APT TO GET THE DOLLARS AS HE
                WHO CLIMBS A TREE AND HOLLERS.

                   -- FROM THE BACK OF A SUGAR PACKET
 Job cpu time:       0 days  0 hours  2 minutes 19.3 seconds.
 Elapsed time:       0 days  0 hours  0 minutes  6.1 seconds.
 File lengths (MBytes):  RWF=   1263 Int=      0 D2E=      0 Chk=     38 Scr=      1
 Normal termination of Gaussian 16 at Fri Apr 29 19:08:18 2022.
