 Entering Gaussian System, Link 0=g16
 Initial command:
 /sw/apps/gaussian-16.0/g16/l1.exe "/tmp/Gau-170336.inp" -scrdir="/tmp/"
 Entering Link 1 = /sw/apps/gaussian-16.0/g16/l1.exe PID=    170338.
  
 Copyright (c) 1988,1990,1992,1993,1995,1998,2003,2009,2016,
            Gaussian, Inc.  All Rights Reserved.
  
 This is part of the Gaussian(R) 16 program.  It is based on
 the Gaussian(R) 09 system (copyright 2009, Gaussian, Inc.),
 the Gaussian(R) 03 system (copyright 2003, Gaussian, Inc.),
 the Gaussian(R) 98 system (copyright 1998, Gaussian, Inc.),
 the Gaussian(R) 94 system (copyright 1995, Gaussian, Inc.),
 the Gaussian 92(TM) system (copyright 1992, Gaussian, Inc.),
 the Gaussian 90(TM) system (copyright 1990, Gaussian, Inc.),
 the Gaussian 88(TM) system (copyright 1988, Gaussian, Inc.),
 the Gaussian 86(TM) system (copyright 1986, Carnegie Mellon
 University), and the Gaussian 82(TM) system (copyright 1983,
 Carnegie Mellon University). Gaussian is a federally registered
 trademark of Gaussian, Inc.
  
 This software contains proprietary and confidential information,
 including trade secrets, belonging to Gaussian, Inc.
  
 This software is provided under written license and may be
 used, copied, transmitted, or stored only in accord with that
 written license.
  
 The following legend is applicable only to US Government
 contracts under FAR:
  
                    RESTRICTED RIGHTS LEGEND
  
 Use, reproduction and disclosure by the US Government is
 subject to restrictions as set forth in subparagraphs (a)
 and (c) of the Commercial Computer Software - Restricted
 Rights clause in FAR 52.227-19.
  
 Gaussian, Inc.
 340 Quinnipiac St., Bldg. 40, Wallingford CT 06492
  
  
 ---------------------------------------------------------------
 Warning -- This program may not be used in any manner that
 competes with the business of Gaussian, Inc. or will provide
 assistance to any competitor of Gaussian, Inc.  The licensee
 of this program is prohibited from giving any competitor of
 Gaussian, Inc. access to this program.  By using this program,
 the user acknowledges that Gaussian, Inc. is engaged in the
 business of creating and licensing software in the field of
 computational chemistry and represents and warrants to the
 licensee that it is not a competitor of Gaussian, Inc. and that
 it will not use this program in any manner prohibited above.
 ---------------------------------------------------------------
  

 Cite this work as:
 Gaussian 16, Revision A.03,
 M. J. Frisch, G. W. Trucks, H. B. Schlegel, G. E. Scuseria, 
 M. A. Robb, J. R. Cheeseman, G. Scalmani, V. Barone, 
 G. A. Petersson, H. Nakatsuji, X. Li, M. Caricato, A. V. Marenich, 
 J. Bloino, B. G. Janesko, R. Gomperts, B. Mennucci, H. P. Hratchian, 
 J. V. Ortiz, A. F. Izmaylov, J. L. Sonnenberg, D. Williams-Young, 
 F. Ding, F. Lipparini, F. Egidi, J. Goings, B. Peng, A. Petrone, 
 T. Henderson, D. Ranasinghe, V. G. Zakrzewski, J. Gao, N. Rega, 
 G. Zheng, W. Liang, M. Hada, M. Ehara, K. Toyota, R. Fukuda, 
 J. Hasegawa, M. Ishida, T. Nakajima, Y. Honda, O. Kitao, H. Nakai, 
 T. Vreven, K. Throssell, J. A. Montgomery, Jr., J. E. Peralta, 
 F. Ogliaro, M. J. Bearpark, J. J. Heyd, E. N. Brothers, K. N. Kudin, 
 V. N. Staroverov, T. A. Keith, R. Kobayashi, J. Normand, 
 K. Raghavachari, A. P. Rendell, J. C. Burant, S. S. Iyengar, 
 J. Tomasi, M. Cossi, J. M. Millam, M. Klene, C. Adamo, R. Cammi, 
 J. W. Ochterski, R. L. Martin, K. Morokuma, O. Farkas, 
 J. B. Foresman, and D. J. Fox, Gaussian, Inc., Wallingford CT, 2016.
 
 ******************************************
 Gaussian 16:  ES64L-G16RevA.03 25-Dec-2016
                 4-May-2022 
 ******************************************
 %nproc=24
 Will use up to   24 processors via shared memory.
 %mem=75GB
 --------------------------------
 #p wB97XD/Def2SVP td=(nstates=5)
 --------------------------------
 1/38=1,172=1/1;
 2/12=2,17=6,18=5,40=1/2;
 3/5=43,7=101,11=9,25=1,30=1,74=-58/1,2,3,8;
 4//1;
 5/5=2,38=5/2;
 8/6=1,10=1,108=5/1;
 9/41=5,42=1,70=2/14;
 6/7=2,8=2,9=2,10=2/1;
 99/5=1,9=1/99;
 Leave Link    1 at Wed May  4 06:42:54 2022, MaxMem= 10066329600 cpu:               0.6 elap:               0.0
 (Enter /sw/apps/gaussian-16.0/g16/l101.exe)
 -----------------------------------------------------
 step_1451_chromophore_14 TDDFT with wB97XD functional
 -----------------------------------------------------
 Symbolic Z-matrix:
 Charge =  0 Multiplicity = 1
 Mg                    46.592    45.017    42.786 
 C                     43.18     44.154    42.785 
 C                     47.34     41.76     41.777 
 C                     49.496    46.116    41.771 
 C                     45.576    48.441    43.189 
 N                     45.393    43.218    42.351 
 C                     44.017    43.113    42.507 
 C                     43.567    41.716    42.145 
 C                     44.914    40.929    42.018 
 C                     45.96     42.023    41.998 
 C                     45.106    39.805    43.024 
 C                     42.571    41.489    40.934 
 C                     43.104    42.19     39.631 
 C                     43.342    41.256    38.414 
 O                     42.618    40.281    38.2 
 O                     44.296    41.747    37.529 
 N                     48.217    44.047    42.037 
 C                     48.386    42.704    41.764 
 C                     49.743    42.505    41.501 
 C                     50.384    43.747    41.358 
 C                     49.376    44.691    41.793 
 C                     50.371    41.082    41.315 
 C                     51.896    43.916    41.042 
 O                     52.587    42.968    40.718 
 C                     52.554    45.314    41.148 
 N                     47.35     47.008    42.553 
 C                     48.667    47.131    42.173 
 C                     49.181    48.56     42.254 
 C                     47.858    49.33     42.687 
 C                     46.845    48.222    42.821 
 C                     50.427    48.676    43.169 
 C                     47.33     50.541    41.867 
 C                     47.234    51.871    42.639 
 N                     44.846    46.111    43.126 
 C                     44.563    47.444    43.305 
 C                     43.156    47.658    43.408 
 C                     42.615    46.417    43.188 
 C                     43.672    45.521    42.973 
 C                     42.389    48.973    43.707 
 C                     41.411    45.731    43.173 
 O                     40.288    46.221    43.27 
 C                     41.689    44.281    42.698 
 C                     40.982    43.317    43.654 
 O                     40.221    42.444    43.308 
 O                     41.482    43.495    44.919 
 C                     41.352    42.315    45.833 
 C                     44.256    41.122    36.226 
 C                     44.909    42.087    35.267 
 C                     45.974    41.915    34.461 
 C                     46.663    40.606    34.268 
 C                     46.565    43.095    33.528 
 C                     46.108    43.17     32.108 
 C                     45.346    44.499    31.858 
 C                     45.23     44.693    30.318 
 C                     44.979    46.142    29.97 
 C                     44.014    43.825    29.936 
 C                     44.494    42.842    28.846 
 C                     43.636    42.88     27.581 
 C                     44.311    43.84     26.521 
 C                     43.41     45.065    26.14 
 C                     44.85     43.134    25.246 
 C                     46.225    43.7      24.837 
 C                     46.31     44.131    23.362 
 C                     47.702    43.598    22.761 
 C                     48.02     44.396    21.499 
 C                     47.593    42.029    22.479 
 H                     47.457    40.694    41.569 
 H                     50.482    46.461    41.454 
 H                     45.183    49.429    43.439 
 H                     42.896    41.346    42.92 
 H                     44.987    40.507    41.015 
 H                     45.748    40.226    43.798 
 H                     45.582    38.911    42.622 
 H                     44.168    39.655    43.558 
 H                     41.543    41.773    41.155 
 H                     42.402    40.42     40.805 
 H                     44.054    42.722    39.681 
 H                     42.337    42.886    39.291 
 H                     50.89     41.073    40.357 
 H                     49.678    40.241    41.287 
 H                     51.072    40.821    42.107 
 H                     52.265    45.778    42.092 
 H                     52.325    45.893    40.253 
 H                     53.631    45.172    41.24 
 H                     49.592    48.83     41.281 
 H                     48.025    49.64     43.718 
 H                     50.893    47.749    43.504 
 H                     50.088    49.318    43.982 
 H                     51.22     49.226    42.662 
 H                     46.333    50.295    41.502 
 H                     47.995    50.642    41.009 
 H                     47.946    52.557    42.179 
 H                     47.459    51.656    43.683 
 H                     46.273    52.38     42.57 
 H                     41.337    48.695    43.77 
 H                     42.638    49.629    42.873 
 H                     42.725    49.342    44.676 
 H                     41.213    44.092    41.736 
 H                     41.284    41.446    45.178 
 H                     40.358    42.398    46.273 
 H                     42.098    42.217    46.622 
 H                     43.195    41.039    35.99 
 H                     44.509    40.066    36.133 
 H                     44.54     43.112    35.306 
 H                     47.618    40.701    33.751 
 H                     46.147    39.859    33.665 
 H                     46.825    40.203    35.267 
 H                     47.64     43.052    33.702 
 H                     46.266    43.991    34.071 
 H                     45.495    42.287    31.925 
 H                     46.965    42.971    31.466 
 H                     45.962    45.271    32.318 
 H                     44.462    44.371    32.482 
 H                     46.177    44.336    29.913 
 H                     45.746    46.842    30.303 
 H                     44.065    46.388    30.51 
 H                     44.692    46.186    28.92 
 H                     43.171    44.432    29.604 
 H                     43.598    43.284    30.786 
 H                     44.364    41.844    29.265 
 H                     45.571    42.938    28.706 
 H                     42.634    43.219    27.843 
 H                     43.464    41.842    27.297 
 H                     45.079    44.35     27.103 
 H                     43.84     46.005    26.486 
 H                     42.394    44.982    26.524 
 H                     43.275    45.123    25.06 
 H                     44.159    43.303    24.419 
 H                     45.059    42.124    25.598 
 H                     46.996    42.988    25.132 
 H                     46.446    44.59     25.426 
 H                     46.354    45.22     23.322 
 H                     45.384    43.835    22.87 
 H                     48.5      43.796    23.476 
 H                     47.177    44.978    21.126 
 H                     48.325    43.714    20.705 
 H                     48.797    45.156    21.58 
 H                     48.49     41.74     21.932 
 H                     46.694    41.82     21.898 
 H                     47.601    41.62     23.489 
 
 ITRead=  0  0  0  0  0  0  0  0  0  0  0  0  0  0  0  0  0  0  0  0
 ITRead=  0  0  0  0  0  0  0  0  0  0  0  0  0  0  0  0  0  0  0  0
 ITRead=  0  0  0  0  0  0  0  0  0  0  0  0  0  0  0  0  0  0  0  0
 ITRead=  0  0  0  0  0  0  0  0  0  0  0  0  0  0  0  0  0  0  0  0
 ITRead=  0  0  0  0  0  0  0  0  0  0  0  0  0  0  0  0  0  0  0  0
 ITRead=  0  0  0  0  0  0  0  0  0  0  0  0  0  0  0  0  0  0  0  0
 ITRead=  0  0  0  0  0  0  0  0  0  0  0  0  0  0  0  0  0  0  0  0
 MicOpt= -1 -1 -1 -1 -1 -1 -1 -1 -1 -1 -1 -1 -1 -1 -1 -1 -1 -1 -1 -1
 MicOpt= -1 -1 -1 -1 -1 -1 -1 -1 -1 -1 -1 -1 -1 -1 -1 -1 -1 -1 -1 -1
 MicOpt= -1 -1 -1 -1 -1 -1 -1 -1 -1 -1 -1 -1 -1 -1 -1 -1 -1 -1 -1 -1
 MicOpt= -1 -1 -1 -1 -1 -1 -1 -1 -1 -1 -1 -1 -1 -1 -1 -1 -1 -1 -1 -1
 MicOpt= -1 -1 -1 -1 -1 -1 -1 -1 -1 -1 -1 -1 -1 -1 -1 -1 -1 -1 -1 -1
 MicOpt= -1 -1 -1 -1 -1 -1 -1 -1 -1 -1 -1 -1 -1 -1 -1 -1 -1 -1 -1 -1
 MicOpt= -1 -1 -1 -1 -1 -1 -1 -1 -1 -1 -1 -1 -1 -1 -1 -1 -1 -1 -1 -1
 NAtoms=    140 NQM=      140 NQMF=       0 NMMI=      0 NMMIF=      0
                NMic=       0 NMicF=      0.
                    Isotopes and Nuclear Properties:
 (Nuclear quadrupole moments (NQMom) in fm**2, nuclear magnetic moments (NMagM)
  in nuclear magnetons)

  Atom         1           2           3           4           5           6           7           8           9          10
 IAtWgt=          24          12          12          12          12          14          12          12          12          12
 AtmWgt=  23.9850450  12.0000000  12.0000000  12.0000000  12.0000000  14.0030740  12.0000000  12.0000000  12.0000000  12.0000000
 NucSpn=           0           0           0           0           0           2           0           0           0           0
 AtZEff=  -0.0000000  -0.0000000  -0.0000000  -0.0000000  -0.0000000  -0.0000000  -0.0000000  -0.0000000  -0.0000000  -0.0000000
 NQMom=    0.0000000   0.0000000   0.0000000   0.0000000   0.0000000   2.0440000   0.0000000   0.0000000   0.0000000   0.0000000
 NMagM=    0.0000000   0.0000000   0.0000000   0.0000000   0.0000000   0.4037610   0.0000000   0.0000000   0.0000000   0.0000000
 AtZNuc=  12.0000000   6.0000000   6.0000000   6.0000000   6.0000000   7.0000000   6.0000000   6.0000000   6.0000000   6.0000000

  Atom        11          12          13          14          15          16          17          18          19          20
 IAtWgt=          12          12          12          12          16          16          14          12          12          12
 AtmWgt=  12.0000000  12.0000000  12.0000000  12.0000000  15.9949146  15.9949146  14.0030740  12.0000000  12.0000000  12.0000000
 NucSpn=           0           0           0           0           0           0           2           0           0           0
 AtZEff=  -0.0000000  -0.0000000  -0.0000000  -0.0000000  -0.0000000  -0.0000000  -0.0000000  -0.0000000  -0.0000000  -0.0000000
 NQMom=    0.0000000   0.0000000   0.0000000   0.0000000   0.0000000   0.0000000   2.0440000   0.0000000   0.0000000   0.0000000
 NMagM=    0.0000000   0.0000000   0.0000000   0.0000000   0.0000000   0.0000000   0.4037610   0.0000000   0.0000000   0.0000000
 AtZNuc=   6.0000000   6.0000000   6.0000000   6.0000000   8.0000000   8.0000000   7.0000000   6.0000000   6.0000000   6.0000000

  Atom        21          22          23          24          25          26          27          28          29          30
 IAtWgt=          12          12          12          16          12          14          12          12          12          12
 AtmWgt=  12.0000000  12.0000000  12.0000000  15.9949146  12.0000000  14.0030740  12.0000000  12.0000000  12.0000000  12.0000000
 NucSpn=           0           0           0           0           0           2           0           0           0           0
 AtZEff=  -0.0000000  -0.0000000  -0.0000000  -0.0000000  -0.0000000  -0.0000000  -0.0000000  -0.0000000  -0.0000000  -0.0000000
 NQMom=    0.0000000   0.0000000   0.0000000   0.0000000   0.0000000   2.0440000   0.0000000   0.0000000   0.0000000   0.0000000
 NMagM=    0.0000000   0.0000000   0.0000000   0.0000000   0.0000000   0.4037610   0.0000000   0.0000000   0.0000000   0.0000000
 AtZNuc=   6.0000000   6.0000000   6.0000000   8.0000000   6.0000000   7.0000000   6.0000000   6.0000000   6.0000000   6.0000000

  Atom        31          32          33          34          35          36          37          38          39          40
 IAtWgt=          12          12          12          14          12          12          12          12          12          12
 AtmWgt=  12.0000000  12.0000000  12.0000000  14.0030740  12.0000000  12.0000000  12.0000000  12.0000000  12.0000000  12.0000000
 NucSpn=           0           0           0           2           0           0           0           0           0           0
 AtZEff=  -0.0000000  -0.0000000  -0.0000000  -0.0000000  -0.0000000  -0.0000000  -0.0000000  -0.0000000  -0.0000000  -0.0000000
 NQMom=    0.0000000   0.0000000   0.0000000   2.0440000   0.0000000   0.0000000   0.0000000   0.0000000   0.0000000   0.0000000
 NMagM=    0.0000000   0.0000000   0.0000000   0.4037610   0.0000000   0.0000000   0.0000000   0.0000000   0.0000000   0.0000000
 AtZNuc=   6.0000000   6.0000000   6.0000000   7.0000000   6.0000000   6.0000000   6.0000000   6.0000000   6.0000000   6.0000000

  Atom        41          42          43          44          45          46          47          48          49          50
 IAtWgt=          16          12          12          16          16          12          12          12          12          12
 AtmWgt=  15.9949146  12.0000000  12.0000000  15.9949146  15.9949146  12.0000000  12.0000000  12.0000000  12.0000000  12.0000000
 NucSpn=           0           0           0           0           0           0           0           0           0           0
 AtZEff=  -0.0000000  -0.0000000  -0.0000000  -0.0000000  -0.0000000  -0.0000000  -0.0000000  -0.0000000  -0.0000000  -0.0000000
 NQMom=    0.0000000   0.0000000   0.0000000   0.0000000   0.0000000   0.0000000   0.0000000   0.0000000   0.0000000   0.0000000
 NMagM=    0.0000000   0.0000000   0.0000000   0.0000000   0.0000000   0.0000000   0.0000000   0.0000000   0.0000000   0.0000000
 AtZNuc=   8.0000000   6.0000000   6.0000000   8.0000000   8.0000000   6.0000000   6.0000000   6.0000000   6.0000000   6.0000000

  Atom        51          52          53          54          55          56          57          58          59          60
 IAtWgt=          12          12          12          12          12          12          12          12          12          12
 AtmWgt=  12.0000000  12.0000000  12.0000000  12.0000000  12.0000000  12.0000000  12.0000000  12.0000000  12.0000000  12.0000000
 NucSpn=           0           0           0           0           0           0           0           0           0           0
 AtZEff=  -0.0000000  -0.0000000  -0.0000000  -0.0000000  -0.0000000  -0.0000000  -0.0000000  -0.0000000  -0.0000000  -0.0000000
 NQMom=    0.0000000   0.0000000   0.0000000   0.0000000   0.0000000   0.0000000   0.0000000   0.0000000   0.0000000   0.0000000
 NMagM=    0.0000000   0.0000000   0.0000000   0.0000000   0.0000000   0.0000000   0.0000000   0.0000000   0.0000000   0.0000000
 AtZNuc=   6.0000000   6.0000000   6.0000000   6.0000000   6.0000000   6.0000000   6.0000000   6.0000000   6.0000000   6.0000000

  Atom        61          62          63          64          65          66          67          68          69          70
 IAtWgt=          12          12          12          12          12          12           1           1           1           1
 AtmWgt=  12.0000000  12.0000000  12.0000000  12.0000000  12.0000000  12.0000000   1.0078250   1.0078250   1.0078250   1.0078250
 NucSpn=           0           0           0           0           0           0           1           1           1           1
 AtZEff=  -0.0000000  -0.0000000  -0.0000000  -0.0000000  -0.0000000  -0.0000000  -0.0000000  -0.0000000  -0.0000000  -0.0000000
 NQMom=    0.0000000   0.0000000   0.0000000   0.0000000   0.0000000   0.0000000   0.0000000   0.0000000   0.0000000   0.0000000
 NMagM=    0.0000000   0.0000000   0.0000000   0.0000000   0.0000000   0.0000000   2.7928460   2.7928460   2.7928460   2.7928460
 AtZNuc=   6.0000000   6.0000000   6.0000000   6.0000000   6.0000000   6.0000000   1.0000000   1.0000000   1.0000000   1.0000000

  Atom        71          72          73          74          75          76          77          78          79          80
 IAtWgt=           1           1           1           1           1           1           1           1           1           1
 AtmWgt=   1.0078250   1.0078250   1.0078250   1.0078250   1.0078250   1.0078250   1.0078250   1.0078250   1.0078250   1.0078250
 NucSpn=           1           1           1           1           1           1           1           1           1           1
 AtZEff=  -0.0000000  -0.0000000  -0.0000000  -0.0000000  -0.0000000  -0.0000000  -0.0000000  -0.0000000  -0.0000000  -0.0000000
 NQMom=    0.0000000   0.0000000   0.0000000   0.0000000   0.0000000   0.0000000   0.0000000   0.0000000   0.0000000   0.0000000
 NMagM=    2.7928460   2.7928460   2.7928460   2.7928460   2.7928460   2.7928460   2.7928460   2.7928460   2.7928460   2.7928460
 AtZNuc=   1.0000000   1.0000000   1.0000000   1.0000000   1.0000000   1.0000000   1.0000000   1.0000000   1.0000000   1.0000000

  Atom        81          82          83          84          85          86          87          88          89          90
 IAtWgt=           1           1           1           1           1           1           1           1           1           1
 AtmWgt=   1.0078250   1.0078250   1.0078250   1.0078250   1.0078250   1.0078250   1.0078250   1.0078250   1.0078250   1.0078250
 NucSpn=           1           1           1           1           1           1           1           1           1           1
 AtZEff=  -0.0000000  -0.0000000  -0.0000000  -0.0000000  -0.0000000  -0.0000000  -0.0000000  -0.0000000  -0.0000000  -0.0000000
 NQMom=    0.0000000   0.0000000   0.0000000   0.0000000   0.0000000   0.0000000   0.0000000   0.0000000   0.0000000   0.0000000
 NMagM=    2.7928460   2.7928460   2.7928460   2.7928460   2.7928460   2.7928460   2.7928460   2.7928460   2.7928460   2.7928460
 AtZNuc=   1.0000000   1.0000000   1.0000000   1.0000000   1.0000000   1.0000000   1.0000000   1.0000000   1.0000000   1.0000000

  Atom        91          92          93          94          95          96          97          98          99         100
 IAtWgt=           1           1           1           1           1           1           1           1           1           1
 AtmWgt=   1.0078250   1.0078250   1.0078250   1.0078250   1.0078250   1.0078250   1.0078250   1.0078250   1.0078250   1.0078250
 NucSpn=           1           1           1           1           1           1           1           1           1           1
 AtZEff=  -0.0000000  -0.0000000  -0.0000000  -0.0000000  -0.0000000  -0.0000000  -0.0000000  -0.0000000  -0.0000000  -0.0000000
 NQMom=    0.0000000   0.0000000   0.0000000   0.0000000   0.0000000   0.0000000   0.0000000   0.0000000   0.0000000   0.0000000
 NMagM=    2.7928460   2.7928460   2.7928460   2.7928460   2.7928460   2.7928460   2.7928460   2.7928460   2.7928460   2.7928460
 AtZNuc=   1.0000000   1.0000000   1.0000000   1.0000000   1.0000000   1.0000000   1.0000000   1.0000000   1.0000000   1.0000000

  Atom       101         102         103         104         105         106         107         108         109         110
 IAtWgt=           1           1           1           1           1           1           1           1           1           1
 AtmWgt=   1.0078250   1.0078250   1.0078250   1.0078250   1.0078250   1.0078250   1.0078250   1.0078250   1.0078250   1.0078250
 NucSpn=           1           1           1           1           1           1           1           1           1           1
 AtZEff=  -0.0000000  -0.0000000  -0.0000000  -0.0000000  -0.0000000  -0.0000000  -0.0000000  -0.0000000  -0.0000000  -0.0000000
 NQMom=    0.0000000   0.0000000   0.0000000   0.0000000   0.0000000   0.0000000   0.0000000   0.0000000   0.0000000   0.0000000
 NMagM=    2.7928460   2.7928460   2.7928460   2.7928460   2.7928460   2.7928460   2.7928460   2.7928460   2.7928460   2.7928460
 AtZNuc=   1.0000000   1.0000000   1.0000000   1.0000000   1.0000000   1.0000000   1.0000000   1.0000000   1.0000000   1.0000000

  Atom       111         112         113         114         115         116         117         118         119         120
 IAtWgt=           1           1           1           1           1           1           1           1           1           1
 AtmWgt=   1.0078250   1.0078250   1.0078250   1.0078250   1.0078250   1.0078250   1.0078250   1.0078250   1.0078250   1.0078250
 NucSpn=           1           1           1           1           1           1           1           1           1           1
 AtZEff=  -0.0000000  -0.0000000  -0.0000000  -0.0000000  -0.0000000  -0.0000000  -0.0000000  -0.0000000  -0.0000000  -0.0000000
 NQMom=    0.0000000   0.0000000   0.0000000   0.0000000   0.0000000   0.0000000   0.0000000   0.0000000   0.0000000   0.0000000
 NMagM=    2.7928460   2.7928460   2.7928460   2.7928460   2.7928460   2.7928460   2.7928460   2.7928460   2.7928460   2.7928460
 AtZNuc=   1.0000000   1.0000000   1.0000000   1.0000000   1.0000000   1.0000000   1.0000000   1.0000000   1.0000000   1.0000000

  Atom       121         122         123         124         125         126         127         128         129         130
 IAtWgt=           1           1           1           1           1           1           1           1           1           1
 AtmWgt=   1.0078250   1.0078250   1.0078250   1.0078250   1.0078250   1.0078250   1.0078250   1.0078250   1.0078250   1.0078250
 NucSpn=           1           1           1           1           1           1           1           1           1           1
 AtZEff=  -0.0000000  -0.0000000  -0.0000000  -0.0000000  -0.0000000  -0.0000000  -0.0000000  -0.0000000  -0.0000000  -0.0000000
 NQMom=    0.0000000   0.0000000   0.0000000   0.0000000   0.0000000   0.0000000   0.0000000   0.0000000   0.0000000   0.0000000
 NMagM=    2.7928460   2.7928460   2.7928460   2.7928460   2.7928460   2.7928460   2.7928460   2.7928460   2.7928460   2.7928460
 AtZNuc=   1.0000000   1.0000000   1.0000000   1.0000000   1.0000000   1.0000000   1.0000000   1.0000000   1.0000000   1.0000000

  Atom       131         132         133         134         135         136         137         138         139         140
 IAtWgt=           1           1           1           1           1           1           1           1           1           1
 AtmWgt=   1.0078250   1.0078250   1.0078250   1.0078250   1.0078250   1.0078250   1.0078250   1.0078250   1.0078250   1.0078250
 NucSpn=           1           1           1           1           1           1           1           1           1           1
 AtZEff=  -0.0000000  -0.0000000  -0.0000000  -0.0000000  -0.0000000  -0.0000000  -0.0000000  -0.0000000  -0.0000000  -0.0000000
 NQMom=    0.0000000   0.0000000   0.0000000   0.0000000   0.0000000   0.0000000   0.0000000   0.0000000   0.0000000   0.0000000
 NMagM=    2.7928460   2.7928460   2.7928460   2.7928460   2.7928460   2.7928460   2.7928460   2.7928460   2.7928460   2.7928460
 AtZNuc=   1.0000000   1.0000000   1.0000000   1.0000000   1.0000000   1.0000000   1.0000000   1.0000000   1.0000000   1.0000000
 Leave Link  101 at Wed May  4 06:42:54 2022, MaxMem= 10066329600 cpu:               3.2 elap:               0.2
 (Enter /sw/apps/gaussian-16.0/g16/l202.exe)
 Stoichiometry    C55H74MgN4O6
 Framework group  C1[X(C55H74MgN4O6)]
 Deg. of freedom   414
 Full point group                 C1      NOp   1
 Largest Abelian subgroup         C1      NOp   1
 Largest concise Abelian subgroup C1      NOp   1
                         Standard orientation:                         
 ---------------------------------------------------------------------
 Center     Atomic      Atomic             Coordinates (Angstroms)
 Number     Number       Type             X           Y           Z
 ---------------------------------------------------------------------
      1         12           0        4.970713    1.014675   -0.247629
      2          6           0        4.957509   -2.408316    0.570586
      3          6           0        3.619257    0.199758   -3.361326
      4          6           0        4.008705    4.124510   -0.520947
      5          6           0        5.742391    1.685957    3.197996
      6          7           0        4.381610   -0.867672   -1.234014
      7          6           0        4.556565   -2.140062   -0.705666
      8          6           0        4.064371   -3.174741   -1.691739
      9          6           0        3.828149   -2.341211   -2.995324
     10          6           0        3.896387   -0.907847   -2.513493
     11          6           0        4.710070   -2.718363   -4.175259
     12          6           0        2.858925   -4.129078   -1.309369
     13          6           0        1.622519   -3.296722   -0.807588
     14          6           0        0.311836   -3.484033   -1.618214
     15          8           0        0.015842   -4.570550   -2.120673
     16          8           0       -0.539535   -2.387139   -1.538134
     17          7           0        4.091094    2.027132   -1.778553
     18          6           0        3.679196    1.563587   -3.012329
     19          6           0        3.367315    2.681550   -3.788930
     20          6           0        3.337253    3.827768   -2.977035
     21          6           0        3.888263    3.358790   -1.722893
     22          6           0        3.023636    2.585438   -5.314235
     23          6           0        3.006666    5.254689   -3.495851
     24          8           0        2.572668    5.437803   -4.618026
     25          6           0        3.239745    6.481233   -2.579407
     26          7           0        4.924751    2.613322    1.178957
     27          6           0        4.530153    3.847912    0.716250
     28          6           0        4.744712    4.961847    1.729122
     29          6           0        5.283009    4.133301    2.975904
     30          6           0        5.325996    2.719572    2.455029
     31          6           0        5.638935    6.094600    1.163054
     32          6           0        4.602372    4.247750    4.369224
     33          6           0        5.507618    4.756240    5.507674
     34          7           0        5.458851   -0.036435    1.489565
     35          6           0        5.778768    0.324038    2.776705
     36          6           0        5.934153   -0.826898    3.605714
     37          6           0        5.601075   -1.874025    2.784893
     38          6           0        5.272666   -1.345489    1.528276
     39          6           0        6.382309   -0.907023    5.088836
     40          6           0        5.543037   -3.257849    2.739061
     41          8           0        5.714243   -4.029319    3.680422
     42          6           0        4.916936   -3.668687    1.380893
     43          6           0        5.785326   -4.767281    0.762775
     44          8           0        5.369247   -5.835802    0.380535
     45          8           0        7.050482   -4.276690    0.561258
     46          6           0        7.842340   -4.962585   -0.509819
     47          6           0       -1.898154   -2.675626   -1.939338
     48          6           0       -2.768228   -1.624347   -1.295058
     49          6           0       -3.610942   -0.737745   -1.858277
     50          6           0       -3.951336   -0.726898   -3.310677
     51          6           0       -4.431910    0.357259   -0.998540
     52          6           0       -5.826436    0.026007   -0.578488
     53          6           0       -5.922982   -0.028091    0.969781
     54          6           0       -7.432303    0.001204    1.348968
     55          6           0       -7.625428    0.458181    2.776407
     56          6           0       -7.873597   -1.467282    1.185220
     57          6           0       -9.068317   -1.466258    0.206736
     58          6           0      -10.303566   -2.174292    0.764124
     59          6           0      -11.275087   -1.103043    1.403964
     60          6           0      -11.509423   -1.324806    2.938075
     61          6           0      -12.626927   -0.916578    0.660767
     62          6           0      -13.006582    0.575009    0.564370
     63          6           0      -14.431597    0.890222    1.052820
     64          6           0      -15.114398    1.894113   -0.000242
     65          6           0      -16.295394    2.579625    0.682320
     66          6           0      -15.552081    1.079947   -1.303597
     67          1           0        3.301340   -0.183612   -4.333574
     68          1           0        3.706683    5.166626   -0.641313
     69          1           0        6.100259    1.787492    4.224989
     70          1           0        4.812380   -3.961844   -1.785095
     71          1           0        2.786049   -2.443967   -3.300105
     72          1           0        5.508472   -1.976055   -4.179106
     73          1           0        4.208754   -2.698693   -5.142581
     74          1           0        5.246688   -3.633768   -3.927116
     75          1           0        3.130393   -4.914996   -0.605864
     76          1           0        2.625610   -4.769493   -2.159895
     77          1           0        1.705326   -2.210176   -0.783431
     78          1           0        1.372172   -3.645399    0.194437
     79          1           0        2.058429    3.067659   -5.466043
     80          1           0        2.925578    1.583219   -5.731674
     81          1           0        3.769246    3.064263   -5.947938
     82          1           0        4.232224    6.413588   -2.131788
     83          1           0        2.413591    6.570587   -1.873579
     84          1           0        3.292937    7.367602   -3.211924
     85          1           0        3.795365    5.477738    1.874543
     86          1           0        6.336245    4.396222    3.068197
     87          1           0        5.867476    6.069850    0.097284
     88          1           0        6.520343    6.068536    1.803752
     89          1           0        5.173079    7.065662    1.331623
     90          1           0        4.236417    3.260439    4.650368
     91          1           0        3.744579    4.907468    4.236735
     92          1           0        5.104138    5.717087    5.828791
     93          1           0        6.519083    4.827507    5.109373
     94          1           0        5.512069    4.141707    6.407504
     95          1           0        6.439990   -1.969664    5.324257
     96          1           0        5.614068   -0.360100    5.635255
     97          1           0        7.376140   -0.465334    5.161152
     98          1           0        3.951482   -4.151439    1.531193
     99          1           0        7.103994   -5.406537   -1.178072
    100          1           0        8.310415   -5.817321   -0.021088
    101          1           0        8.600553   -4.368441   -1.020454
    102          1           0       -2.117809   -3.647862   -1.497959
    103          1           0       -2.103691   -2.937004   -2.977234
    104          1           0       -2.616981   -1.478623   -0.225387
    105          1           0       -4.477018    0.177680   -3.616839
    106          1           0       -4.615626   -1.512947   -3.669451
    107          1           0       -3.002356   -0.797138   -3.840921
    108          1           0       -4.287047    1.285363   -1.551159
    109          1           0       -3.794078    0.491505   -0.125491
    110          1           0       -6.084697   -0.920454   -1.054366
    111          1           0       -6.504179    0.711259   -1.085744
    112          1           0       -5.400586    0.862085    1.318679
    113          1           0       -5.295811   -0.887944    1.203287
    114          1           0       -7.892404    0.686653    0.637105
    115          1           0       -7.240013    1.452402    3.004785
    116          1           0       -7.043086   -0.253053    3.361672
    117          1           0       -8.658886    0.253077    3.053360
    118          1           0       -8.123359   -1.924682    2.143200
    119          1           0       -7.074042   -2.109496    0.815745
    120          1           0       -8.750251   -2.054381   -0.654316
    121          1           0       -9.221650   -0.463474   -0.192837
    122          1           0       -9.986300   -2.912870    1.499933
    123          1           0      -10.687818   -2.798766   -0.042143
    124          1           0      -10.661378   -0.202629    1.439511
    125          1           0      -11.079194   -0.518678    3.532446
    126          1           0      -11.113445   -2.274238    3.296380
    127          1           0      -12.574660   -1.387894    3.160062
    128          1           0      -13.416929   -1.428105    1.212318
    129          1           0      -12.384229   -1.207946   -0.360941
    130          1           0      -12.802706    0.921075   -0.449081
    131          1           0      -12.335131    1.166092    1.186975
    132          1           0      -14.361559    1.433751    1.995756
    133          1           0      -14.930523   -0.053778    1.269831
    134          1           0      -14.400820    2.673219   -0.266761
    135          1           0      -16.588477    2.111798    1.622396
    136          1           0      -17.161223    2.556541    0.020207
    137          1           0      -16.154726    3.617389    0.984230
    138          1           0      -16.145384    1.756428   -1.918174
    139          1           0      -16.131269    0.202548   -1.013503
    140          1           0      -14.589360    0.870140   -1.768994
 ---------------------------------------------------------------------
 Rotational constants (GHZ):           0.0362702           0.0105628           0.0099088
 Leave Link  202 at Wed May  4 06:42:54 2022, MaxMem= 10066329600 cpu:               0.2 elap:               0.0
 (Enter /sw/apps/gaussian-16.0/g16/l301.exe)
 Standard basis: def2SVP (5D, 7F)
 Ernie: Thresh=  0.10000D-02 Tol=  0.10000D-05 Strict=F.
 There are  1364 symmetry adapted cartesian basis functions of A   symmetry.
 There are  1298 symmetry adapted basis functions of A   symmetry.
  1298 basis functions,  2180 primitive gaussians,  1364 cartesian basis functions
   246 alpha electrons      246 beta electrons
       nuclear repulsion energy      9660.0705126724 Hartrees.
 IExCor= 4639 DFT=T Ex+Corr=wB97XD ExCW=0 ScaHFX=  1.000000
 ScaDFX=  1.000000  1.000000  1.000000  1.000000 ScalE2=  1.000000  1.000000
 IRadAn=      5 IRanWt=     -1 IRanGd=            0 ICorTp=0 IEmpDi=121
 HFx  wShort=  0.000000 wLong=  0.200000 cFull=  0.222036 cShort=  0.000000 cLong=  0.777964
 DFx  wShort=  0.000000 wLong=  0.200000 cFull=  0.000000 cShort=  0.000000 cLong=  1.000000
 NAtoms=  140 NActive=  140 NUniq=  140 SFac= 1.00D+00 NAtFMM=   60 NAOKFM=T Big=T
 Integral buffers will be    131072 words long.
 Raffenetti 1 integral format.
 Two-electron integral symmetry is turned on.
 R6Disp:  Grimme-D2 Dispersion energy=       -0.1360185832 Hartrees.
 Nuclear repulsion after empirical dispersion term =     9659.9344940892 Hartrees.
 Leave Link  301 at Wed May  4 06:42:54 2022, MaxMem= 10066329600 cpu:               1.3 elap:               0.1
 (Enter /sw/apps/gaussian-16.0/g16/l302.exe)
 NPDir=0 NMtPBC=     1 NCelOv=     1 NCel=       1 NClECP=     1 NCelD=      1
         NCelK=      1 NCelE2=     1 NClLst=     1 CellRange=     0.0.
 One-electron integrals computed using PRISM.
 One-electron integral symmetry used in STVInt
   1 Symmetry operations used in ECPInt.
 ECPInt:  NShTT=  192510 NPrTT=  683786 LenC2=   96630 LenP2D=  211178.
 LDataN:  DoStor=T MaxTD1= 4 Len=   56
 NBasis=  1298 RedAO= T EigKep=  2.78D-04  NBF=  1298
 NBsUse=  1298 1.00D-06 EigRej= -1.00D+00 NBFU=  1298
 Precomputing XC quadrature grid using
 IXCGrd= 4 IRadAn=           5 IRanWt=          -1 IRanGd=           0 AccXCQ= 0.00D+00.
 Generated NRdTot=       0 NPtTot=           0 NUsed=           0 NTot=          32
 NSgBfM=  1070  1048  1055  1061  1070 MxSgAt=   140 MxSgA2=   140.
 Leave Link  302 at Wed May  4 06:42:58 2022, MaxMem= 10066329600 cpu:              82.5 elap:               3.5
 (Enter /sw/apps/gaussian-16.0/g16/l303.exe)
 DipDrv:  MaxL=1.
 Leave Link  303 at Wed May  4 06:42:58 2022, MaxMem= 10066329600 cpu:               6.0 elap:               0.3
 (Enter /sw/apps/gaussian-16.0/g16/l308.exe)
 Leave Link  308 at Wed May  4 06:42:59 2022, MaxMem= 10066329600 cpu:              12.3 elap:               0.6
 (Enter /sw/apps/gaussian-16.0/g16/l401.exe)
 ExpMin= 3.36D-02 ExpMax= 4.95D+03 ExpMxC= 7.45D+02 IAcc=3 IRadAn=         5 AccDes= 0.00D+00
 Harris functional with IExCor= 4639 and IRadAn=       5 diagonalized for initial guess.
 HarFok:  IExCor= 4639 AccDes= 0.00D+00 IRadAn=         5 IDoV= 1 UseB2=F ITyADJ=14
 ICtDFT=  3500011 ScaDFX=  1.000000  1.000000  1.000000  1.000000
 FoFCou: FMM=F IPFlag=           0 FMFlag=      100000 FMFlg1=        2001
         NFxFlg=           0 DoJE=T BraDBF=F KetDBF=T FulRan=T
         wScrn=  0.000000 ICntrl=       500 IOpCl=  0 I1Cent=   200000004 NGrid=           0
         NMat0=    1 NMatS0=      1 NMatT0=    0 NMatD0=    1 NMtDS0=    0 NMtDT0=    0
 Petite list used in FoFCou.
 Harris En= -2877.99367626562    
 JPrj=0 DoOrth=F DoCkMO=F.
 Leave Link  401 at Wed May  4 06:43:04 2022, MaxMem= 10066329600 cpu:             132.1 elap:               5.5
 (Enter /sw/apps/gaussian-16.0/g16/l502.exe)
 Integral symmetry usage will be decided dynamically.
 Closed shell SCF:
 Using DIIS extrapolation, IDIIS=  1040.
 NGot= 10066329600 LenX= 10062561258 LenY= 10060699398
 Requested convergence on RMS density matrix=1.00D-08 within 128 cycles.
 Requested convergence on MAX density matrix=1.00D-06.
 Requested convergence on             energy=1.00D-06.
 No special actions if energy rises.
 Fock matrices will be formed incrementally for  20 cycles.

 Cycle   1  Pass 1  IDiag  1:
 FoFJK:  IHMeth= 1 ICntrl=       0 DoSepK=T KAlg= 0 I1Cent=           0 FoldK=F
 IRaf=         1 NMat=       1 IRICut=       1 DoRegI=T DoRafI=F ISym2E= 0 IDoP0=0 IntGTp=1.
 FoFCou: FMM=T IPFlag=           0 FMFlag=      100000 FMFlg1=        2001
         NFxFlg=           0 DoJE=T BraDBF=F KetDBF=F FulRan=T
         wScrn=  0.000000 ICntrl=       500 IOpCl=  0 I1Cent=           0 NGrid=           0
         NMat0=    1 NMatS0=      1 NMatT0=    0 NMatD0=    1 NMtDS0=    0 NMtDT0=    0
 Symmetry not used in FoFCou.
 FMM levels:  10  Number of levels for PrismC:   9
 E= -3007.20367196001    
 DIIS: error= 2.38D-02 at cycle   1 NSaved=   1.
 NSaved= 1 IEnMin= 1 EnMin= -3007.20367196001     IErMin= 1 ErrMin= 2.38D-02
 ErrMax= 2.38D-02  0.00D+00 EMaxC= 1.00D-01 BMatC= 1.49D+00 BMatP= 1.49D+00
 IDIUse=3 WtCom= 7.62D-01 WtEn= 2.38D-01
 Coeff-Com:  0.100D+01
 Coeff-En:   0.100D+01
 Coeff:      0.100D+01
 Gap=     0.147 Goal=   None    Shift=    0.000
 GapD=    0.147 DampG=1.000 DampE=0.500 DampFc=0.5000 IDamp=-1.
 Damping current iteration by 5.00D-01
 RMSDP=1.58D-03 MaxDP=2.14D-01              OVMax= 1.79D-01

 Cycle   2  Pass 1  IDiag  1:
 RMSU=  7.80D-04    CP:  9.86D-01
 E= -3007.52456817362     Delta-E=       -0.320896213605 Rises=F Damp=T
 DIIS: error= 1.32D-02 at cycle   2 NSaved=   2.
 NSaved= 2 IEnMin= 2 EnMin= -3007.52456817362     IErMin= 2 ErrMin= 1.32D-02
 ErrMax= 1.32D-02  0.00D+00 EMaxC= 1.00D-01 BMatC= 2.89D-01 BMatP= 1.49D+00
 IDIUse=3 WtCom= 8.68D-01 WtEn= 1.32D-01
 Coeff-Com: -0.347D+00 0.135D+01
 Coeff-En:   0.000D+00 0.100D+01
 Coeff:     -0.301D+00 0.130D+01
 Gap=     0.174 Goal=   None    Shift=    0.000
 RMSDP=7.31D-04 MaxDP=1.16D-01 DE=-3.21D-01 OVMax= 1.45D-01

 Cycle   3  Pass 1  IDiag  1:
 RMSU=  6.97D-04    CP:  9.77D-01  1.26D+00
 E= -3007.76003623154     Delta-E=       -0.235468057919 Rises=F Damp=F
 DIIS: error= 1.01D-02 at cycle   3 NSaved=   3.
 NSaved= 3 IEnMin= 3 EnMin= -3007.76003623154     IErMin= 3 ErrMin= 1.01D-02
 ErrMax= 1.01D-02  0.00D+00 EMaxC= 1.00D-01 BMatC= 1.38D-01 BMatP= 2.89D-01
 IDIUse=3 WtCom= 8.99D-01 WtEn= 1.01D-01
 Coeff-Com: -0.308D+00 0.684D+00 0.625D+00
 Coeff-En:   0.000D+00 0.000D+00 0.100D+01
 Coeff:     -0.277D+00 0.615D+00 0.663D+00
 Gap=     0.157 Goal=   None    Shift=    0.000
 RMSDP=4.33D-04 MaxDP=4.62D-02 DE=-2.35D-01 OVMax= 8.35D-02

 Cycle   4  Pass 1  IDiag  1:
 RMSU=  2.17D-04    CP:  9.73D-01  1.57D+00  5.95D-01
 E= -3007.86422460930     Delta-E=       -0.104188377765 Rises=F Damp=F
 DIIS: error= 3.74D-03 at cycle   4 NSaved=   4.
 NSaved= 4 IEnMin= 4 EnMin= -3007.86422460930     IErMin= 4 ErrMin= 3.74D-03
 ErrMax= 3.74D-03  0.00D+00 EMaxC= 1.00D-01 BMatC= 1.71D-02 BMatP= 1.38D-01
 IDIUse=3 WtCom= 9.63D-01 WtEn= 3.74D-02
 Coeff-Com: -0.119D+00 0.239D+00 0.358D+00 0.522D+00
 Coeff-En:   0.000D+00 0.000D+00 0.597D-01 0.940D+00
 Coeff:     -0.115D+00 0.230D+00 0.347D+00 0.538D+00
 Gap=     0.157 Goal=   None    Shift=    0.000
 RMSDP=1.20D-04 MaxDP=1.55D-02 DE=-1.04D-01 OVMax= 2.19D-02

 Cycle   5  Pass 1  IDiag  1:
 RMSU=  6.08D-05    CP:  9.73D-01  1.54D+00  7.04D-01  6.94D-01
 E= -3007.87832618132     Delta-E=       -0.014101572013 Rises=F Damp=F
 DIIS: error= 5.94D-04 at cycle   5 NSaved=   5.
 NSaved= 5 IEnMin= 5 EnMin= -3007.87832618132     IErMin= 5 ErrMin= 5.94D-04
 ErrMax= 5.94D-04  0.00D+00 EMaxC= 1.00D-01 BMatC= 3.92D-04 BMatP= 1.71D-02
 IDIUse=3 WtCom= 9.94D-01 WtEn= 5.94D-03
 Coeff-Com: -0.303D-01 0.579D-01 0.112D+00 0.224D+00 0.636D+00
 Coeff-En:   0.000D+00 0.000D+00 0.000D+00 0.000D+00 0.100D+01
 Coeff:     -0.302D-01 0.575D-01 0.111D+00 0.223D+00 0.638D+00
 Gap=     0.157 Goal=   None    Shift=    0.000
 RMSDP=2.36D-05 MaxDP=3.90D-03 DE=-1.41D-02 OVMax= 7.13D-03

 Cycle   6  Pass 1  IDiag  1:
 RMSU=  2.06D-05    CP:  9.73D-01  1.54D+00  7.07D-01  7.37D-01  9.01D-01
 E= -3007.87864313885     Delta-E=       -0.000316957534 Rises=F Damp=F
 DIIS: error= 3.20D-04 at cycle   6 NSaved=   6.
 NSaved= 6 IEnMin= 6 EnMin= -3007.87864313885     IErMin= 6 ErrMin= 3.20D-04
 ErrMax= 3.20D-04  0.00D+00 EMaxC= 1.00D-01 BMatC= 7.08D-05 BMatP= 3.92D-04
 IDIUse=3 WtCom= 9.97D-01 WtEn= 3.20D-03
 EnCoef did     1 forward-backward iterations
 Coeff-Com:  0.970D-02-0.209D-01-0.162D-01-0.126D-02 0.305D+00 0.723D+00
 Coeff-En:   0.000D+00 0.000D+00 0.000D+00 0.000D+00 0.213D-02 0.998D+00
 Coeff:      0.967D-02-0.208D-01-0.162D-01-0.125D-02 0.304D+00 0.724D+00
 Gap=     0.157 Goal=   None    Shift=    0.000
 RMSDP=1.28D-05 MaxDP=2.85D-03 DE=-3.17D-04 OVMax= 4.36D-03

 Cycle   7  Pass 1  IDiag  1:
 RMSU=  8.85D-06    CP:  9.73D-01  1.55D+00  7.13D-01  7.55D-01  1.01D+00
                    CP:  9.34D-01
 E= -3007.87872626902     Delta-E=       -0.000083130171 Rises=F Damp=F
 DIIS: error= 6.79D-05 at cycle   7 NSaved=   7.
 NSaved= 7 IEnMin= 7 EnMin= -3007.87872626902     IErMin= 7 ErrMin= 6.79D-05
 ErrMax= 6.79D-05  0.00D+00 EMaxC= 1.00D-01 BMatC= 6.03D-06 BMatP= 7.08D-05
 IDIUse=1 WtCom= 1.00D+00 WtEn= 0.00D+00
 Coeff-Com:  0.651D-02-0.132D-01-0.160D-01-0.227D-01 0.518D-01 0.270D+00
 Coeff-Com:  0.724D+00
 Coeff:      0.651D-02-0.132D-01-0.160D-01-0.227D-01 0.518D-01 0.270D+00
 Coeff:      0.724D+00
 Gap=     0.158 Goal=   None    Shift=    0.000
 RMSDP=4.54D-06 MaxDP=3.65D-04 DE=-8.31D-05 OVMax= 2.12D-03

 Cycle   8  Pass 1  IDiag  1:
 RMSU=  3.29D-06    CP:  9.73D-01  1.54D+00  7.15D-01  7.59D-01  1.04D+00
                    CP:  1.05D+00  1.02D+00
 E= -3007.87873734536     Delta-E=       -0.000011076339 Rises=F Damp=F
 DIIS: error= 3.45D-05 at cycle   8 NSaved=   8.
 NSaved= 8 IEnMin= 8 EnMin= -3007.87873734536     IErMin= 8 ErrMin= 3.45D-05
 ErrMax= 3.45D-05  0.00D+00 EMaxC= 1.00D-01 BMatC= 1.69D-06 BMatP= 6.03D-06
 IDIUse=1 WtCom= 1.00D+00 WtEn= 0.00D+00
 Coeff-Com:  0.153D-02-0.285D-02-0.511D-02-0.118D-01-0.308D-01-0.424D-02
 Coeff-Com:  0.361D+00 0.692D+00
 Coeff:      0.153D-02-0.285D-02-0.511D-02-0.118D-01-0.308D-01-0.424D-02
 Coeff:      0.361D+00 0.692D+00
 Gap=     0.158 Goal=   None    Shift=    0.000
 RMSDP=2.76D-06 MaxDP=4.22D-04 DE=-1.11D-05 OVMax= 1.43D-03

 Cycle   9  Pass 1  IDiag  1:
 RMSU=  1.65D-06    CP:  9.73D-01  1.55D+00  7.15D-01  7.61D-01  1.05D+00
                    CP:  1.08D+00  1.22D+00  1.13D+00
 E= -3007.87874147176     Delta-E=       -0.000004126399 Rises=F Damp=F
 DIIS: error= 2.50D-05 at cycle   9 NSaved=   9.
 NSaved= 9 IEnMin= 9 EnMin= -3007.87874147176     IErMin= 9 ErrMin= 2.50D-05
 ErrMax= 2.50D-05  0.00D+00 EMaxC= 1.00D-01 BMatC= 2.51D-07 BMatP= 1.69D-06
 IDIUse=1 WtCom= 1.00D+00 WtEn= 0.00D+00
 Coeff-Com: -0.762D-03 0.160D-02 0.150D-02 0.582D-03-0.173D-01-0.547D-01
 Coeff-Com: -0.146D-01 0.187D+00 0.897D+00
 Coeff:     -0.762D-03 0.160D-02 0.150D-02 0.582D-03-0.173D-01-0.547D-01
 Coeff:     -0.146D-01 0.187D+00 0.897D+00
 Gap=     0.158 Goal=   None    Shift=    0.000
 RMSDP=1.78D-06 MaxDP=1.12D-04 DE=-4.13D-06 OVMax= 1.02D-03

 Cycle  10  Pass 1  IDiag  1:
 RMSU=  8.92D-07    CP:  9.73D-01  1.55D+00  7.15D-01  7.61D-01  1.06D+00
                    CP:  1.10D+00  1.31D+00  1.43D+00  1.41D+00
 E= -3007.87874315897     Delta-E=       -0.000001687213 Rises=F Damp=F
 DIIS: error= 1.83D-05 at cycle  10 NSaved=  10.
 NSaved=10 IEnMin=10 EnMin= -3007.87874315897     IErMin=10 ErrMin= 1.83D-05
 ErrMax= 1.83D-05  0.00D+00 EMaxC= 1.00D-01 BMatC= 1.08D-07 BMatP= 2.51D-07
 IDIUse=1 WtCom= 1.00D+00 WtEn= 0.00D+00
 Coeff-Com: -0.808D-03 0.158D-02 0.222D-02 0.400D-02 0.345D-02-0.239D-01
 Coeff-Com: -0.120D+00-0.163D+00 0.363D+00 0.933D+00
 Coeff:     -0.808D-03 0.158D-02 0.222D-02 0.400D-02 0.345D-02-0.239D-01
 Coeff:     -0.120D+00-0.163D+00 0.363D+00 0.933D+00
 Gap=     0.158 Goal=   None    Shift=    0.000
 RMSDP=1.58D-06 MaxDP=1.67D-04 DE=-1.69D-06 OVMax= 9.58D-04

 Cycle  11  Pass 1  IDiag  1:
 RMSU=  5.10D-07    CP:  9.73D-01  1.55D+00  7.15D-01  7.61D-01  1.06D+00
                    CP:  1.11D+00  1.39D+00  1.66D+00  1.97D+00  1.52D+00
 E= -3007.87874408504     Delta-E=       -0.000000926066 Rises=F Damp=F
 DIIS: error= 1.32D-05 at cycle  11 NSaved=  11.
 NSaved=11 IEnMin=11 EnMin= -3007.87874408504     IErMin=11 ErrMin= 1.32D-05
 ErrMax= 1.32D-05  0.00D+00 EMaxC= 1.00D-01 BMatC= 4.23D-08 BMatP= 1.08D-07
 IDIUse=1 WtCom= 1.00D+00 WtEn= 0.00D+00
 Coeff-Com: -0.127D-03 0.221D-03 0.508D-03 0.169D-02 0.730D-02 0.551D-02
 Coeff-Com: -0.480D-01-0.130D+00-0.101D+00 0.448D+00 0.816D+00
 Coeff:     -0.127D-03 0.221D-03 0.508D-03 0.169D-02 0.730D-02 0.551D-02
 Coeff:     -0.480D-01-0.130D+00-0.101D+00 0.448D+00 0.816D+00
 Gap=     0.158 Goal=   None    Shift=    0.000
 RMSDP=9.21D-07 MaxDP=7.34D-05 DE=-9.26D-07 OVMax= 5.99D-04

 Cycle  12  Pass 1  IDiag  1:
 RMSU=  3.07D-07    CP:  9.73D-01  1.55D+00  7.15D-01  7.61D-01  1.06D+00
                    CP:  1.11D+00  1.42D+00  1.79D+00  2.25D+00  2.11D+00
                    CP:  1.35D+00
 E= -3007.87874443015     Delta-E=       -0.000000345117 Rises=F Damp=F
 DIIS: error= 6.85D-06 at cycle  12 NSaved=  12.
 NSaved=12 IEnMin=12 EnMin= -3007.87874443015     IErMin=12 ErrMin= 6.85D-06
 ErrMax= 6.85D-06  0.00D+00 EMaxC= 1.00D-01 BMatC= 1.46D-08 BMatP= 4.23D-08
 IDIUse=1 WtCom= 1.00D+00 WtEn= 0.00D+00
 Coeff-Com:  0.331D-03-0.660D-03-0.879D-03-0.115D-02 0.113D-02 0.136D-01
 Coeff-Com:  0.374D-01 0.313D-01-0.234D+00-0.296D+00 0.283D+00 0.117D+01
 Coeff:      0.331D-03-0.660D-03-0.879D-03-0.115D-02 0.113D-02 0.136D-01
 Coeff:      0.374D-01 0.313D-01-0.234D+00-0.296D+00 0.283D+00 0.117D+01
 Gap=     0.158 Goal=   None    Shift=    0.000
 RMSDP=9.60D-07 MaxDP=6.38D-05 DE=-3.45D-07 OVMax= 6.16D-04

 Cycle  13  Pass 1  IDiag  1:
 RMSU=  1.71D-07    CP:  9.73D-01  1.55D+00  7.15D-01  7.61D-01  1.06D+00
                    CP:  1.12D+00  1.44D+00  1.90D+00  2.54D+00  2.70D+00
                    CP:  2.10D+00  1.65D+00
 E= -3007.87874461465     Delta-E=       -0.000000184493 Rises=F Damp=F
 DIIS: error= 4.65D-06 at cycle  13 NSaved=  13.
 NSaved=13 IEnMin=13 EnMin= -3007.87874461465     IErMin=13 ErrMin= 4.65D-06
 ErrMax= 4.65D-06  0.00D+00 EMaxC= 1.00D-01 BMatC= 4.34D-09 BMatP= 1.46D-08
 IDIUse=1 WtCom= 1.00D+00 WtEn= 0.00D+00
 Coeff-Com:  0.196D-03-0.383D-03-0.582D-03-0.100D-02-0.158D-02 0.469D-02
 Coeff-Com:  0.305D-01 0.571D-01-0.769D-01-0.251D+00-0.116D+00 0.571D+00
 Coeff-Com:  0.783D+00
 Coeff:      0.196D-03-0.383D-03-0.582D-03-0.100D-02-0.158D-02 0.469D-02
 Coeff:      0.305D-01 0.571D-01-0.769D-01-0.251D+00-0.116D+00 0.571D+00
 Coeff:      0.783D+00
 Gap=     0.158 Goal=   None    Shift=    0.000
 RMSDP=3.38D-07 MaxDP=3.07D-05 DE=-1.84D-07 OVMax= 2.40D-04

 Cycle  14  Pass 1  IDiag  1:
 RMSU=  9.31D-08    CP:  9.73D-01  1.55D+00  7.15D-01  7.61D-01  1.06D+00
                    CP:  1.12D+00  1.45D+00  1.93D+00  2.61D+00  2.92D+00
                    CP:  2.38D+00  2.13D+00  1.13D+00
 E= -3007.87874464150     Delta-E=       -0.000000026848 Rises=F Damp=F
 DIIS: error= 7.98D-07 at cycle  14 NSaved=  14.
 NSaved=14 IEnMin=14 EnMin= -3007.87874464150     IErMin=14 ErrMin= 7.98D-07
 ErrMax= 7.98D-07  0.00D+00 EMaxC= 1.00D-01 BMatC= 1.07D-09 BMatP= 4.34D-09
 IDIUse=1 WtCom= 1.00D+00 WtEn= 0.00D+00
 Coeff-Com:  0.205D-04-0.372D-04-0.857D-04-0.203D-03-0.915D-03-0.554D-03
 Coeff-Com:  0.473D-02 0.201D-01 0.828D-02-0.522D-01-0.117D+00 0.171D-01
 Coeff-Com:  0.350D+00 0.771D+00
 Coeff:      0.205D-04-0.372D-04-0.857D-04-0.203D-03-0.915D-03-0.554D-03
 Coeff:      0.473D-02 0.201D-01 0.828D-02-0.522D-01-0.117D+00 0.171D-01
 Coeff:      0.350D+00 0.771D+00
 Gap=     0.158 Goal=   None    Shift=    0.000
 RMSDP=1.54D-07 MaxDP=1.08D-05 DE=-2.68D-08 OVMax= 9.03D-05

 Cycle  15  Pass 1  IDiag  1:
 RMSU=  4.83D-08    CP:  9.73D-01  1.55D+00  7.15D-01  7.61D-01  1.06D+00
                    CP:  1.12D+00  1.45D+00  1.94D+00  2.64D+00  3.00D+00
                    CP:  2.50D+00  2.33D+00  1.42D+00  1.19D+00
 E= -3007.87874464702     Delta-E=       -0.000000005528 Rises=F Damp=F
 DIIS: error= 1.11D-06 at cycle  15 NSaved=  15.
 NSaved=15 IEnMin=15 EnMin= -3007.87874464702     IErMin=14 ErrMin= 7.98D-07
 ErrMax= 1.11D-06  0.00D+00 EMaxC= 1.00D-01 BMatC= 2.06D-10 BMatP= 1.07D-09
 IDIUse=1 WtCom= 1.00D+00 WtEn= 0.00D+00
 Coeff-Com: -0.511D-04 0.101D-03 0.137D-03 0.216D-03 0.358D-04-0.161D-02
 Coeff-Com: -0.773D-02-0.687D-02 0.259D-01 0.547D-01-0.153D-01-0.153D+00
 Coeff-Com: -0.749D-01 0.265D+00 0.913D+00
 Coeff:     -0.511D-04 0.101D-03 0.137D-03 0.216D-03 0.358D-04-0.161D-02
 Coeff:     -0.773D-02-0.687D-02 0.259D-01 0.547D-01-0.153D-01-0.153D+00
 Coeff:     -0.749D-01 0.265D+00 0.913D+00
 Gap=     0.158 Goal=   None    Shift=    0.000
 RMSDP=7.17D-08 MaxDP=7.49D-06 DE=-5.53D-09 OVMax= 5.37D-05

 Cycle  16  Pass 1  IDiag  1:
 RMSU=  3.33D-08    CP:  9.73D-01  1.55D+00  7.15D-01  7.61D-01  1.06D+00
                    CP:  1.12D+00  1.45D+00  1.95D+00  2.65D+00  3.00D+00
                    CP:  2.54D+00  2.43D+00  1.57D+00  1.57D+00  1.41D+00
 E= -3007.87874464863     Delta-E=       -0.000000001612 Rises=F Damp=F
 DIIS: error= 2.67D-07 at cycle  16 NSaved=  16.
 NSaved=16 IEnMin=16 EnMin= -3007.87874464863     IErMin=16 ErrMin= 2.67D-07
 ErrMax= 2.67D-07  0.00D+00 EMaxC= 1.00D-01 BMatC= 1.15D-10 BMatP= 2.06D-10
 IDIUse=1 WtCom= 1.00D+00 WtEn= 0.00D+00
 Coeff-Com: -0.203D-04 0.394D-04 0.605D-04 0.111D-03 0.204D-03-0.264D-03
 Coeff-Com: -0.382D-02-0.579D-02 0.615D-02 0.286D-01 0.204D-01-0.520D-01
 Coeff-Com: -0.101D+00-0.161D+00 0.421D+00 0.848D+00
 Coeff:     -0.203D-04 0.394D-04 0.605D-04 0.111D-03 0.204D-03-0.264D-03
 Coeff:     -0.382D-02-0.579D-02 0.615D-02 0.286D-01 0.204D-01-0.520D-01
 Coeff:     -0.101D+00-0.161D+00 0.421D+00 0.848D+00
 Gap=     0.158 Goal=   None    Shift=    0.000
 RMSDP=4.45D-08 MaxDP=3.11D-06 DE=-1.61D-09 OVMax= 2.62D-05

 Cycle  17  Pass 1  IDiag  1:
 RMSU=  1.23D-08    CP:  9.73D-01  1.55D+00  7.15D-01  7.61D-01  1.06D+00
                    CP:  1.12D+00  1.45D+00  1.95D+00  2.65D+00  3.00D+00
                    CP:  2.56D+00  2.48D+00  1.66D+00  1.77D+00  1.92D+00
                    CP:  1.44D+00
 E= -3007.87874464940     Delta-E=       -0.000000000768 Rises=F Damp=F
 DIIS: error= 2.72D-07 at cycle  17 NSaved=  17.
 NSaved=17 IEnMin=17 EnMin= -3007.87874464940     IErMin=16 ErrMin= 2.67D-07
 ErrMax= 2.72D-07  0.00D+00 EMaxC= 1.00D-01 BMatC= 2.85D-11 BMatP= 1.15D-10
 IDIUse=1 WtCom= 1.00D+00 WtEn= 0.00D+00
 Coeff-Com:  0.140D-04-0.281D-04-0.374D-04-0.514D-04 0.588D-04 0.654D-03
 Coeff-Com:  0.163D-02 0.135D-02-0.941D-02-0.131D-01 0.150D-01 0.506D-01
 Coeff-Com:  0.772D-03-0.215D+00-0.112D+00 0.169D+00 0.111D+01
 Coeff:      0.140D-04-0.281D-04-0.374D-04-0.514D-04 0.588D-04 0.654D-03
 Coeff:      0.163D-02 0.135D-02-0.941D-02-0.131D-01 0.150D-01 0.506D-01
 Coeff:      0.772D-03-0.215D+00-0.112D+00 0.169D+00 0.111D+01
 Gap=     0.158 Goal=   None    Shift=    0.000
 RMSDP=3.37D-08 MaxDP=2.48D-06 DE=-7.68D-10 OVMax= 2.20D-05

 Cycle  18  Pass 1  IDiag  1:
 RMSU=  1.21D-08    CP:  9.73D-01  1.55D+00  7.15D-01  7.61D-01  1.06D+00
                    CP:  1.12D+00  1.45D+00  1.95D+00  2.65D+00  3.00D+00
                    CP:  2.57D+00  2.50D+00  1.72D+00  1.92D+00  2.29D+00
                    CP:  1.89D+00  1.65D+00
 E= -3007.87874464973     Delta-E=       -0.000000000329 Rises=F Damp=F
 DIIS: error= 1.01D-07 at cycle  18 NSaved=  18.
 NSaved=18 IEnMin=18 EnMin= -3007.87874464973     IErMin=18 ErrMin= 1.01D-07
 ErrMax= 1.01D-07  0.00D+00 EMaxC= 1.00D-01 BMatC= 1.47D-11 BMatP= 2.85D-11
 IDIUse=1 WtCom= 1.00D+00 WtEn= 0.00D+00
 Coeff-Com:  0.136D-04-0.269D-04-0.399D-04-0.634D-04-0.449D-04 0.423D-03
 Coeff-Com:  0.206D-02 0.292D-02-0.696D-02-0.168D-01 0.199D-03 0.439D-01
 Coeff-Com:  0.376D-01-0.670D-01-0.170D+00-0.303D+00 0.619D+00 0.857D+00
 Coeff:      0.136D-04-0.269D-04-0.399D-04-0.634D-04-0.449D-04 0.423D-03
 Coeff:      0.206D-02 0.292D-02-0.696D-02-0.168D-01 0.199D-03 0.439D-01
 Coeff:      0.376D-01-0.670D-01-0.170D+00-0.303D+00 0.619D+00 0.857D+00
 Gap=     0.158 Goal=   None    Shift=    0.000
 RMSDP=2.16D-08 MaxDP=1.52D-06 DE=-3.29D-10 OVMax= 1.33D-05

 Cycle  19  Pass 1  IDiag  1:
 RMSU=  4.52D-09    CP:  9.73D-01  1.55D+00  7.15D-01  7.61D-01  1.06D+00
                    CP:  1.12D+00  1.45D+00  1.95D+00  2.65D+00  3.00D+00
                    CP:  2.58D+00  2.51D+00  1.75D+00  2.01D+00  2.53D+00
                    CP:  2.16D+00  2.30D+00  1.40D+00
 E= -3007.87874464993     Delta-E=       -0.000000000196 Rises=F Damp=F
 DIIS: error= 4.91D-08 at cycle  19 NSaved=  19.
 NSaved=19 IEnMin=19 EnMin= -3007.87874464993     IErMin=19 ErrMin= 4.91D-08
 ErrMax= 4.91D-08  0.00D+00 EMaxC= 1.00D-01 BMatC= 2.10D-12 BMatP= 1.47D-11
 IDIUse=1 WtCom= 1.00D+00 WtEn= 0.00D+00
 Coeff-Com:  0.122D-05-0.222D-05-0.515D-05-0.897D-05-0.343D-04-0.171D-04
 Coeff-Com:  0.288D-03 0.843D-03-0.102D-03-0.287D-02-0.393D-02 0.268D-02
 Coeff-Com:  0.144D-01 0.270D-01-0.160D-01-0.184D+00-0.356D-01 0.314D+00
 Coeff-Com:  0.883D+00
 Coeff:      0.122D-05-0.222D-05-0.515D-05-0.897D-05-0.343D-04-0.171D-04
 Coeff:      0.288D-03 0.843D-03-0.102D-03-0.287D-02-0.393D-02 0.268D-02
 Coeff:      0.144D-01 0.270D-01-0.160D-01-0.184D+00-0.356D-01 0.314D+00
 Coeff:      0.883D+00
 Gap=     0.158 Goal=   None    Shift=    0.000
 RMSDP=8.21D-09 MaxDP=6.27D-07 DE=-1.96D-10 OVMax= 5.35D-06

 SCF Done:  E(RwB97XD) =  -3007.87874465     A.U. after   19 cycles
            NFock= 19  Conv=0.82D-08     -V/T= 2.0106
 KE= 2.976246570432D+03 PE=-2.631289010600D+04 EE= 1.066883029683D+04
 Leave Link  502 at Wed May  4 06:50:01 2022, MaxMem= 10066329600 cpu:            9536.8 elap:             416.5
 (Enter /sw/apps/gaussian-16.0/g16/l801.exe)
 DoSCS=F DFT=T ScalE2(SS,OS)=  1.000000  1.000000
 ExpMin= 3.36D-02 ExpMax= 4.95D+03 ExpMxC= 7.45D+02 IAcc=3 IRadAn=         5 AccDes= 0.00D+00
 HarFok:  IExCor=  205 AccDes= 0.00D+00 IRadAn=         5 IDoV=-2 UseB2=F ITyADJ=14
 ICtDFT= 12500011 ScaDFX=  1.000000  1.000000  1.000000  1.000000
 GSVD:  LWork=       -5460 too small for GESVD, short by       25550 words or       25550 for optimal perf.
 Largest valence mixing into a core orbital is  1.64D-04
 Largest core mixing into a valence orbital is  5.26D-05
 Range of M.O.s used for correlation:    71  1298
 NBasis=  1298 NAE=   246 NBE=   246 NFC=    70 NFV=     0
 NROrb=   1228 NOA=   176 NOB=   176 NVA=  1052 NVB=  1052
 Leave Link  801 at Wed May  4 06:50:01 2022, MaxMem= 10066329600 cpu:               7.5 elap:               0.3
 (Enter /sw/apps/gaussian-16.0/g16/l914.exe)
 RHF ground state
 Two-electron integrals replicated using symmetry.
 MDV= 10066329600 DFT=T DoStab=F Mixed=T DoRPA=T DoScal=F NonHer=T
 Making orbital integer symmetry assigments:
 Orbital symmetries:
       Occupied  (A) (A) (A) (A) (A) (A) (A) (A) (A) (A) (A) (A)
                 (A) (A) (A) (A) (A) (A) (A) (A) (A) (A) (A) (A)
                 (A) (A) (A) (A) (A) (A) (A) (A) (A) (A) (A) (A)
                 (A) (A) (A) (A) (A) (A) (A) (A) (A) (A) (A) (A)
                 (A) (A) (A) (A) (A) (A) (A) (A) (A) (A) (A) (A)
                 (A) (A) (A) (A) (A) (A) (A) (A) (A) (A) (A) (A)
                 (A) (A) (A) (A) (A) (A) (A) (A) (A) (A) (A) (A)
                 (A) (A) (A) (A) (A) (A) (A) (A) (A) (A) (A) (A)
                 (A) (A) (A) (A) (A) (A) (A) (A) (A) (A) (A) (A)
                 (A) (A) (A) (A) (A) (A) (A) (A) (A) (A) (A) (A)
                 (A) (A) (A) (A) (A) (A) (A) (A) (A) (A) (A) (A)
                 (A) (A) (A) (A) (A) (A) (A) (A) (A) (A) (A) (A)
                 (A) (A) (A) (A) (A) (A) (A) (A) (A) (A) (A) (A)
                 (A) (A) (A) (A) (A) (A) (A) (A) (A) (A) (A) (A)
                 (A) (A) (A) (A) (A) (A) (A) (A) (A) (A) (A) (A)
                 (A) (A) (A) (A) (A) (A) (A) (A) (A) (A) (A) (A)
                 (A) (A) (A) (A) (A) (A) (A) (A) (A) (A) (A) (A)
                 (A) (A) (A) (A) (A) (A) (A) (A) (A) (A) (A) (A)
                 (A) (A) (A) (A) (A) (A) (A) (A) (A) (A) (A) (A)
                 (A) (A) (A) (A) (A) (A) (A) (A) (A) (A) (A) (A)
                 (A) (A) (A) (A) (A) (A)
       Virtual   (A) (A) (A) (A) (A) (A) (A) (A) (A) (A) (A) (A)
                 (A) (A) (A) (A) (A) (A) (A) (A) (A) (A) (A) (A)
                 (A) (A) (A) (A) (A) (A) (A) (A) (A) (A) (A) (A)
                 (A) (A) (A) (A) (A) (A) (A) (A) (A) (A) (A) (A)
                 (A) (A) (A) (A) (A) (A) (A) (A) (A) (A) (A) (A)
                 (A) (A) (A) (A) (A) (A) (A) (A) (A) (A) (A) (A)
                 (A) (A) (A) (A) (A) (A) (A) (A) (A) (A) (A) (A)
                 (A) (A) (A) (A) (A) (A) (A) (A) (A) (A) (A) (A)
                 (A) (A) (A) (A) (A) (A) (A) (A) (A) (A) (A) (A)
                 (A) (A) (A) (A) (A) (A) (A) (A) (A) (A) (A) (A)
                 (A) (A) (A) (A) (A) (A) (A) (A) (A) (A) (A) (A)
                 (A) (A) (A) (A) (A) (A) (A) (A) (A) (A) (A) (A)
                 (A) (A) (A) (A) (A) (A) (A) (A) (A) (A) (A) (A)
                 (A) (A) (A) (A) (A) (A) (A) (A) (A) (A) (A) (A)
                 (A) (A) (A) (A) (A) (A) (A) (A) (A) (A) (A) (A)
                 (A) (A) (A) (A) (A) (A) (A) (A) (A) (A) (A) (A)
                 (A) (A) (A) (A) (A) (A) (A) (A) (A) (A) (A) (A)
                 (A) (A) (A) (A) (A) (A) (A) (A) (A) (A) (A) (A)
                 (A) (A) (A) (A) (A) (A) (A) (A) (A) (A) (A) (A)
                 (A) (A) (A) (A) (A) (A) (A) (A) (A) (A) (A) (A)
                 (A) (A) (A) (A) (A) (A) (A) (A) (A) (A) (A) (A)
                 (A) (A) (A) (A) (A) (A) (A) (A) (A) (A) (A) (A)
                 (A) (A) (A) (A) (A) (A) (A) (A) (A) (A) (A) (A)
                 (A) (A) (A) (A) (A) (A) (A) (A) (A) (A) (A) (A)
                 (A) (A) (A) (A) (A) (A) (A) (A) (A) (A) (A) (A)
                 (A) (A) (A) (A) (A) (A) (A) (A) (A) (A) (A) (A)
                 (A) (A) (A) (A) (A) (A) (A) (A) (A) (A) (A) (A)
                 (A) (A) (A) (A) (A) (A) (A) (A) (A) (A) (A) (A)
                 (A) (A) (A) (A) (A) (A) (A) (A) (A) (A) (A) (A)
                 (A) (A) (A) (A) (A) (A) (A) (A) (A) (A) (A) (A)
                 (A) (A) (A) (A) (A) (A) (A) (A) (A) (A) (A) (A)
                 (A) (A) (A) (A) (A) (A) (A) (A) (A) (A) (A) (A)
                 (A) (A) (A) (A) (A) (A) (A) (A) (A) (A) (A) (A)
                 (A) (A) (A) (A) (A) (A) (A) (A) (A) (A) (A) (A)
                 (A) (A) (A) (A) (A) (A) (A) (A) (A) (A) (A) (A)
                 (A) (A) (A) (A) (A) (A) (A) (A) (A) (A) (A) (A)
                 (A) (A) (A) (A) (A) (A) (A) (A) (A) (A) (A) (A)
                 (A) (A) (A) (A) (A) (A) (A) (A) (A) (A) (A) (A)
                 (A) (A) (A) (A) (A) (A) (A) (A) (A) (A) (A) (A)
                 (A) (A) (A) (A) (A) (A) (A) (A) (A) (A) (A) (A)
                 (A) (A) (A) (A) (A) (A) (A) (A) (A) (A) (A) (A)
                 (A) (A) (A) (A) (A) (A) (A) (A) (A) (A) (A) (A)
                 (A) (A) (A) (A) (A) (A) (A) (A) (A) (A) (A) (A)
                 (A) (A) (A) (A) (A) (A) (A) (A) (A) (A) (A) (A)
                 (A) (A) (A) (A) (A) (A) (A) (A) (A) (A) (A) (A)
                 (A) (A) (A) (A) (A) (A) (A) (A) (A) (A) (A) (A)
                 (A) (A) (A) (A) (A) (A) (A) (A) (A) (A) (A) (A)
                 (A) (A) (A) (A) (A) (A) (A) (A) (A) (A) (A) (A)
                 (A) (A) (A) (A) (A) (A) (A) (A) (A) (A) (A) (A)
                 (A) (A) (A) (A) (A) (A) (A) (A) (A) (A) (A) (A)
                 (A) (A) (A) (A) (A) (A) (A) (A) (A) (A) (A) (A)
                 (A) (A) (A) (A) (A) (A) (A) (A) (A) (A) (A) (A)
                 (A) (A) (A) (A) (A) (A) (A) (A) (A) (A) (A) (A)
                 (A) (A) (A) (A) (A) (A) (A) (A) (A) (A) (A) (A)
                 (A) (A) (A) (A) (A) (A) (A) (A) (A) (A) (A) (A)
                 (A) (A) (A) (A) (A) (A) (A) (A) (A) (A) (A) (A)
                 (A) (A) (A) (A) (A) (A) (A) (A) (A) (A) (A) (A)
                 (A) (A) (A) (A) (A) (A) (A) (A) (A) (A) (A) (A)
                 (A) (A) (A) (A) (A) (A) (A) (A) (A) (A) (A) (A)
                 (A) (A) (A) (A) (A) (A) (A) (A) (A) (A) (A) (A)
                 (A) (A) (A) (A) (A) (A) (A) (A) (A) (A) (A) (A)
                 (A) (A) (A) (A) (A) (A) (A) (A) (A) (A) (A) (A)
                 (A) (A) (A) (A) (A) (A) (A) (A) (A) (A) (A) (A)
                 (A) (A) (A) (A) (A) (A) (A) (A) (A) (A) (A) (A)
                 (A) (A) (A) (A) (A) (A) (A) (A) (A) (A) (A) (A)
                 (A) (A) (A) (A) (A) (A) (A) (A) (A) (A) (A) (A)
                 (A) (A) (A) (A) (A) (A) (A) (A) (A) (A) (A) (A)
                 (A) (A) (A) (A) (A) (A) (A) (A) (A) (A) (A) (A)
                 (A) (A) (A) (A) (A) (A) (A) (A) (A) (A) (A) (A)
                 (A) (A) (A) (A) (A) (A) (A) (A) (A) (A) (A) (A)
                 (A) (A) (A) (A) (A) (A) (A) (A) (A) (A) (A) (A)
                 (A) (A) (A) (A) (A) (A) (A) (A) (A) (A) (A) (A)
                 (A) (A) (A) (A) (A) (A) (A) (A) (A) (A) (A) (A)
                 (A) (A) (A) (A) (A) (A) (A) (A) (A) (A) (A) (A)
                 (A) (A) (A) (A) (A) (A) (A) (A) (A) (A) (A) (A)
                 (A) (A) (A) (A) (A) (A) (A) (A) (A) (A) (A) (A)
                 (A) (A) (A) (A) (A) (A) (A) (A) (A) (A) (A) (A)
                 (A) (A) (A) (A) (A) (A) (A) (A) (A) (A) (A) (A)
                 (A) (A) (A) (A) (A) (A) (A) (A) (A) (A) (A) (A)
                 (A) (A) (A) (A) (A) (A) (A) (A) (A) (A) (A) (A)
                 (A) (A) (A) (A) (A) (A) (A) (A) (A) (A) (A) (A)
                 (A) (A) (A) (A) (A) (A) (A) (A) (A) (A) (A) (A)
                 (A) (A) (A) (A) (A) (A) (A) (A) (A) (A) (A) (A)
                 (A) (A) (A) (A) (A) (A) (A) (A) (A) (A) (A) (A)
                 (A) (A) (A) (A) (A) (A) (A) (A) (A) (A) (A) (A)
                 (A) (A) (A) (A) (A) (A) (A) (A) (A) (A) (A) (A)
                 (A) (A) (A) (A) (A) (A) (A) (A) (A) (A) (A) (A)
                 (A) (A) (A) (A) (A) (A) (A) (A)
    20 initial guesses have been made.
 Convergence on wavefunction:    0.001000000000000
 Davidson Disk Diagonalization:  ConvIn= 1.00D-03 SkipCon=T Conv= 1.00D-03.
 Max sub-space:  2000 roots to seek:    20 dimension of matrix:       370304
 Iteration     1 Dimension    20 NMult     0 NNew     20
 CISAX will form    20 AO SS matrices at one time.
 NMat=    20 NSing=    20 JSym2X= 0.
 FoFJK:  IHMeth= 1 ICntrl=       0 DoSepK=T KAlg= 0 I1Cent=           0 FoldK=F
 IRaf=         1 NMat=      40 IRICut=       1 DoRegI=T DoRafI=F ISym2E= 0 IDoP0=3 IntGTp=3.
 FoFCou: FMM=T IPFlag=           0 FMFlag=      100000 FMFlg1=        2001
         NFxFlg=           0 DoJE=F BraDBF=F KetDBF=F FulRan=T
         wScrn=  0.000000 ICntrl=       500 IOpCl=  0 I1Cent=           0 NGrid=           0
         NMat0=   20 NMatS0=     20 NMatT0=    0 NMatD0=   20 NMtDS0=    0 NMtDT0=    0
 Symmetry not used in FoFCou.
 FMM levels:  10  Number of levels for PrismC:   9
 New state      3 was old state      6
 New state      5 was old state      7
 Excitation Energies [eV] at current iteration:
 Root      1 :     2.211156515456335
 Root      2 :     2.683611047965435
 Root      3 :     3.739141783168171
 Root      4 :     3.834338522306611
 Root      5 :     4.056823613280701
 Root      6 :     4.347613030516006
 Root      7 :     4.359590062062741
 Root      8 :     4.436745841590445
 Root      9 :     4.641516793479359
 Root     10 :     4.744734650697191
 Root     11 :     4.777469241551398
 Root     12 :     4.954463076889550
 Root     13 :     4.979909706329890
 Root     14 :     5.086266170021923
 Root     15 :     5.262264041166893
 Root     16 :     5.348177563778892
 Root     17 :     5.732602641904135
 Root     18 :     6.420943636109032
 Root     19 :     6.809655443206120
 Root     20 :     7.001318097784839
 Iteration     2 Dimension    30 NMult    20 NNew     10
 CISAX will form    10 AO SS matrices at one time.
 NMat=    10 NSing=    10 JSym2X= 0.
 Root      1 not converged, maximum delta is    0.080444362734046
 Root      2 not converged, maximum delta is    0.064654116670791
 Root      3 not converged, maximum delta is    0.105920753338721
 Root      4 not converged, maximum delta is    0.101603084751658
 Root      5 not converged, maximum delta is    0.124314196193769
 Excitation Energies [eV] at current iteration:
 Root      1 :     1.689929488232811   Change is   -0.521227027223523
 Root      2 :     2.257079535365034   Change is   -0.426531512600401
 Root      3 :     3.383641215240331   Change is   -0.355500567927840
 Root      4 :     3.491801461016301   Change is   -0.342537061290310
 Root      5 :     3.662660875740920   Change is   -0.394162737539782
 Iteration     3 Dimension    40 NMult    30 NNew     10
 CISAX will form    10 AO SS matrices at one time.
 NMat=    10 NSing=    10 JSym2X= 0.
 Root      1 not converged, maximum delta is    0.017043106588114
 Root      2 not converged, maximum delta is    0.018968621554288
 Root      3 not converged, maximum delta is    0.010671128471376
 Root      4 not converged, maximum delta is    0.178919149657136
 Root      5 not converged, maximum delta is    0.294552784927313
 Excitation Energies [eV] at current iteration:
 Root      1 :     1.652011533189788   Change is   -0.037917955043024
 Root      2 :     2.232806185251202   Change is   -0.024273350113832
 Root      3 :     3.369485473879886   Change is   -0.014155741360445
 Root      4 :     3.426692792053468   Change is   -0.065108668962833
 Root      5 :     3.563275688857770   Change is   -0.099385186883150
 Iteration     4 Dimension    50 NMult    40 NNew     10
 CISAX will form    10 AO SS matrices at one time.
 NMat=    10 NSing=    10 JSym2X= 0.
 Root      1 not converged, maximum delta is    0.005214880721531
 Root      2 not converged, maximum delta is    0.002324739693390
 Root      3 not converged, maximum delta is    0.005723115048549
 Root      4 not converged, maximum delta is    0.029079275784638
 Root      5 not converged, maximum delta is    0.046837404360850
 Excitation Energies [eV] at current iteration:
 Root      1 :     1.647856077917673   Change is   -0.004155455272115
 Root      2 :     2.229849460357056   Change is   -0.002956724894145
 Root      3 :     3.366672036823780   Change is   -0.002813437056106
 Root      4 :     3.411468422975639   Change is   -0.015224369077829
 Root      5 :     3.552784021805988   Change is   -0.010491667051782
 Iteration     5 Dimension    60 NMult    50 NNew     10
 CISAX will form    10 AO SS matrices at one time.
 NMat=    10 NSing=    10 JSym2X= 0.
 Root      1 not converged, maximum delta is    0.001273495766407
 Root      2 has converged.
 Root      3 not converged, maximum delta is    0.002038696675793
 Root      4 not converged, maximum delta is    0.005933639778505
 Root      5 not converged, maximum delta is    0.005444476770848
 Excitation Energies [eV] at current iteration:
 Root      1 :     1.647489476586047   Change is   -0.000366601331626
 Root      2 :     2.229583738186743   Change is   -0.000265722170314
 Root      3 :     3.366293078068456   Change is   -0.000378958755324
 Root      4 :     3.409533255484888   Change is   -0.001935167490752
 Root      5 :     3.551618576564771   Change is   -0.001165445241217
 Iteration     6 Dimension    68 NMult    60 NNew      8
 CISAX will form     8 AO SS matrices at one time.
 NMat=     8 NSing=     8 JSym2X= 0.
 Root      1 has converged.
 Root      2 has converged.
 Root      3 not converged, maximum delta is    0.002978847589008
 Root      4 not converged, maximum delta is    0.002595049758706
 Root      5 not converged, maximum delta is    0.002523676961775
 Excitation Energies [eV] at current iteration:
 Root      1 :     1.647453841581496   Change is   -0.000035635004551
 Root      2 :     2.229579221727964   Change is   -0.000004516458778
 Root      3 :     3.366158933636203   Change is   -0.000134144432252
 Root      4 :     3.409249876614687   Change is   -0.000283378870201
 Root      5 :     3.551474134651833   Change is   -0.000144441912938
 Iteration     7 Dimension    74 NMult    68 NNew      6
 CISAX will form     6 AO SS matrices at one time.
 NMat=     6 NSing=     6 JSym2X= 0.
 Root      1 has converged.
 Root      2 has converged.
 Root      3 not converged, maximum delta is    0.003009168973641
 Root      4 not converged, maximum delta is    0.002460644111266
 Root      5 has converged.
 Excitation Energies [eV] at current iteration:
 Root      1 :     1.647453584361099   Change is   -0.000000257220398
 Root      2 :     2.229578444890683   Change is   -0.000000776837281
 Root      3 :     3.366088287416913   Change is   -0.000070646219290
 Root      4 :     3.409186300059752   Change is   -0.000063576554935
 Root      5 :     3.551455076597821   Change is   -0.000019058054012
 Iteration     8 Dimension    78 NMult    74 NNew      4
 CISAX will form     4 AO SS matrices at one time.
 NMat=     4 NSing=     4 JSym2X= 0.
 Root      1 has converged.
 Root      2 has converged.
 Root      3 not converged, maximum delta is    0.001449002000273
 Root      4 not converged, maximum delta is    0.001120053569897
 Root      5 has converged.
 Excitation Energies [eV] at current iteration:
 Root      1 :     1.647453553166921   Change is   -0.000000031194178
 Root      2 :     2.229577426535225   Change is   -0.000001018355459
 Root      3 :     3.366066129514914   Change is   -0.000022157902000
 Root      4 :     3.409172891412505   Change is   -0.000013408647248
 Root      5 :     3.551454320688138   Change is   -0.000000755909683
 Iteration     9 Dimension    82 NMult    78 NNew      4
 CISAX will form     4 AO SS matrices at one time.
 NMat=     4 NSing=     4 JSym2X= 0.
 Root      1 has converged.
 Root      2 has converged.
 Root      3 has converged.
 Root      4 has converged.
 Root      5 has converged.
 Excitation Energies [eV] at current iteration:
 Root      1 :     1.647453521004587   Change is   -0.000000032162333
 Root      2 :     2.229577270395476   Change is   -0.000000156139749
 Root      3 :     3.366060995304733   Change is   -0.000005134210181
 Root      4 :     3.409169779113498   Change is   -0.000003112299006
 Root      5 :     3.551454276381687   Change is   -0.000000044306451
 Convergence achieved on expansion vectors.
 ***********************************************************************
 Excited states from <AA,BB:AA,BB> singles matrix:
 ***********************************************************************
 
 1PDM for each excited state written to RWF  633
 Ground to excited state transition densities written to RWF  633
 Ground to excited state transition electric dipole moments (Au):
       state          X           Y           Z        Dip. S.      Osc.
         1         0.9067     -1.3927      2.5708      9.3707      0.3782
         2        -0.0939     -1.5203     -0.5695      2.6445      0.1445
         3        -0.0726      0.0413     -0.0375      0.0084      0.0007
         4        -0.0184      0.1839      0.0513      0.0368      0.0031
         5         0.0149      0.1378      0.0309      0.0202      0.0018
 Ground to excited state transition velocity dipole moments (Au):
       state          X           Y           Z        Dip. S.      Osc.
         1        -0.0529      0.0831     -0.1508      0.0324      0.3572
         2         0.0075      0.1195      0.0436      0.0162      0.1322
         3         0.0076     -0.0039      0.0045      0.0001      0.0005
         4        -0.0002     -0.0236     -0.0070      0.0006      0.0032
         5        -0.0022     -0.0158     -0.0007      0.0003      0.0013
 Ground to excited state transition magnetic dipole moments (Au):
       state          X           Y           Z
         1        -0.3792      1.3543      0.9055
         2         0.5544     -0.3686      0.9636
         3        -0.8754     -0.1153      0.2036
         4         0.3263     -0.4284      0.1769
         5        -0.2268     -0.1188      0.1354
 Ground to excited state transition velocity quadrupole moments (Au):
       state          XX          YY          ZZ          XY          XZ          YZ
         1        -0.9208      0.2688      0.0437      0.6477     -1.3618     -0.2933
         2         0.0070      0.3547      0.0606      1.0745      0.4230      0.0827
         3         0.1191     -0.3239      0.0706      0.1045      0.0154      0.2261
         4        -0.0441      0.1518     -0.0933     -0.2428     -0.1268     -0.1000
         5         0.0781     -0.1564      0.0533     -0.1921      0.0732      0.0058
 <0|del|b> * <b|rxdel|0> + <0|del|b> * <b|delr+rdel|0>
 Rotatory Strengths (R) in cgs (10**-40 erg-esu-cm/Gauss)
       state          XX          YY          ZZ    R(velocity)    E-M Angle
         1       -49.3506    -19.2977     22.8943    -15.2513       90.74
         2       -25.0620     -0.2543     43.3107      5.9981       89.20
         3         5.4715    -12.8668    -22.8929    -10.0961      127.02
         4        21.3542     -8.3770     36.7238     16.5670       50.79
         5         8.3250      0.7261      3.3335      4.1282       60.39
 1/2[<0|r|b>*<b|rxdel|0> + (<0|rxdel|b>*<b|r|0>)*]
 Rotatory Strengths (R) in cgs (10**-40 erg-esu-cm/Gauss)
       state          XX          YY          ZZ     R(length)
         1       243.1609   1333.8412  -1646.0925    -23.0301
         2        36.8333   -396.2360    388.0658      9.5543
         3       -44.9255      3.3657      5.3916    -12.0560
         4         4.2481     55.7163     -6.4119     17.8508
         5         2.3922     11.5771     -2.9581      3.6704
  1/2[<0|del|b>*<b|r|0> + (<0|r|b>*<b|del|0>)*] (Au)
       state          X           Y           Z        Dip. S.   Osc.(frdel)
         1        -0.0480     -0.1157     -0.3876      0.5513      0.3676
         2        -0.0007     -0.1817     -0.0248      0.2073      0.1382
         3        -0.0006     -0.0002     -0.0002      0.0009      0.0006
         4         0.0000     -0.0043     -0.0004      0.0047      0.0031
         5        -0.0000     -0.0022     -0.0000      0.0022      0.0015

 Excitation energies and oscillator strengths:
 
[...]
 Alpha virt. eigenvalues --    1.24986   1.25744   1.26004   1.26759   1.27079
 Alpha virt. eigenvalues --    1.27230   1.27422   1.27900   1.28438   1.28814
 Alpha virt. eigenvalues --    1.29592   1.29834   1.29931   1.30540   1.31044
 Alpha virt. eigenvalues --    1.31335   1.31823   1.32211   1.32350   1.32729
 Alpha virt. eigenvalues --    1.32937   1.33458   1.33919   1.34179   1.34639
 Alpha virt. eigenvalues --    1.35472   1.36048   1.36411   1.36645   1.37297
 Alpha virt. eigenvalues --    1.37955   1.38772   1.39387   1.39503   1.39866
 Alpha virt. eigenvalues --    1.40093   1.40552   1.41091   1.41474   1.41821
 Alpha virt. eigenvalues --    1.42321   1.42772   1.42976   1.43146   1.43714
 Alpha virt. eigenvalues --    1.44200   1.44571   1.45039   1.45237   1.45419
 Alpha virt. eigenvalues --    1.45736   1.46295   1.47059   1.47133   1.47418
 Alpha virt. eigenvalues --    1.48054   1.49064   1.49265   1.49665   1.50064
 Alpha virt. eigenvalues --    1.50195   1.50490   1.50802   1.51058   1.51342
 Alpha virt. eigenvalues --    1.52343   1.52544   1.52938   1.53275   1.53654
 Alpha virt. eigenvalues --    1.54454   1.54696   1.55777   1.56286   1.56686
 Alpha virt. eigenvalues --    1.57148   1.57512   1.57739   1.58201   1.58439
 Alpha virt. eigenvalues --    1.59183   1.59324   1.59719   1.60024   1.60122
 Alpha virt. eigenvalues --    1.60543   1.60914   1.61042   1.61078   1.61445
 Alpha virt. eigenvalues --    1.61476   1.61737   1.61933   1.62079   1.62145
 Alpha virt. eigenvalues --    1.62470   1.62708   1.63186   1.63245   1.63784
 Alpha virt. eigenvalues --    1.63933   1.64009   1.64237   1.64900   1.65047
 Alpha virt. eigenvalues --    1.65255   1.65269   1.65574   1.65882   1.66092
 Alpha virt. eigenvalues --    1.66735   1.67089   1.67679   1.67999   1.68083
 Alpha virt. eigenvalues --    1.68374   1.68621   1.68769   1.69714   1.70079
 Alpha virt. eigenvalues --    1.70798   1.70866   1.71923   1.72552   1.72828
 Alpha virt. eigenvalues --    1.73264   1.74083   1.74335   1.74704   1.75068
 Alpha virt. eigenvalues --    1.75422   1.76597   1.77081   1.77140   1.77705
 Alpha virt. eigenvalues --    1.77956   1.78295   1.78413   1.78887   1.79669
 Alpha virt. eigenvalues --    1.79875   1.80093   1.80244   1.80557   1.80800
 Alpha virt. eigenvalues --    1.80824   1.81126   1.81168   1.81688   1.81915
 Alpha virt. eigenvalues --    1.82197   1.82207   1.82569   1.82800   1.83258
 Alpha virt. eigenvalues --    1.83680   1.83824   1.83910   1.84001   1.84198
 Alpha virt. eigenvalues --    1.84254   1.84343   1.84844   1.85330   1.85392
 Alpha virt. eigenvalues --    1.85607   1.85847   1.85901   1.86207   1.86355
 Alpha virt. eigenvalues --    1.86474   1.86687   1.86961   1.87085   1.87291
 Alpha virt. eigenvalues --    1.87405   1.87646   1.87746   1.87843   1.88069
 Alpha virt. eigenvalues --    1.88148   1.88290   1.88625   1.88946   1.88969
 Alpha virt. eigenvalues --    1.89044   1.89407   1.89900   1.90010   1.90194
 Alpha virt. eigenvalues --    1.90364   1.90652   1.90690   1.91157   1.91318
 Alpha virt. eigenvalues --    1.91550   1.91583   1.91774   1.91889   1.92150
 Alpha virt. eigenvalues --    1.92417   1.92478   1.92942   1.93205   1.93476
 Alpha virt. eigenvalues --    1.93578   1.93896   1.94006   1.94241   1.94388
 Alpha virt. eigenvalues --    1.94709   1.95020   1.95077   1.95395   1.95422
 Alpha virt. eigenvalues --    1.95854   1.96030   1.96256   1.96512   1.96685
 Alpha virt. eigenvalues --    1.97097   1.97300   1.97437   1.97481   1.97818
 Alpha virt. eigenvalues --    1.98062   1.98182   1.98470   1.98675   1.98773
 Alpha virt. eigenvalues --    1.99050   1.99723   1.99803   1.99947   2.00248
 Alpha virt. eigenvalues --    2.00343   2.00838   2.00900   2.01121   2.01738
 Alpha virt. eigenvalues --    2.02097   2.02374   2.03300   2.03551   2.03732
 Alpha virt. eigenvalues --    2.04008   2.04217   2.04288   2.04383   2.04950
 Alpha virt. eigenvalues --    2.05099   2.05572   2.05882   2.06068   2.06265
 Alpha virt. eigenvalues --    2.06326   2.06624   2.07100   2.07541   2.08059
 Alpha virt. eigenvalues --    2.08239   2.08742   2.08807   2.09029   2.09204
 Alpha virt. eigenvalues --    2.09476   2.09928   2.10168   2.10337   2.10408
 Alpha virt. eigenvalues --    2.11403   2.11631   2.12077   2.12412   2.12681
 Alpha virt. eigenvalues --    2.12745   2.13085   2.13257   2.13330   2.13459
 Alpha virt. eigenvalues --    2.14210   2.14351   2.14547   2.15028   2.15486
 Alpha virt. eigenvalues --    2.15645   2.15872   2.15959   2.16555   2.16825
 Alpha virt. eigenvalues --    2.16906   2.17259   2.17820   2.18210   2.18467
 Alpha virt. eigenvalues --    2.18515   2.18668   2.18872   2.19511   2.19602
 Alpha virt. eigenvalues --    2.19722   2.20056   2.20378   2.20627   2.20969
 Alpha virt. eigenvalues --    2.21261   2.21538   2.21850   2.22160   2.22357
 Alpha virt. eigenvalues --    2.23069   2.23208   2.23560   2.23971   2.24107
 Alpha virt. eigenvalues --    2.24695   2.24940   2.25285   2.25385   2.26198
 Alpha virt. eigenvalues --    2.26593   2.26921   2.27008   2.27349   2.28229
 Alpha virt. eigenvalues --    2.29198   2.29812   2.29950   2.30711   2.31260
 Alpha virt. eigenvalues --    2.31456   2.31804   2.32217   2.32505   2.32702
 Alpha virt. eigenvalues --    2.32760   2.33122   2.33574   2.34203   2.34289
 Alpha virt. eigenvalues --    2.34751   2.35066   2.35591   2.35790   2.36580
 Alpha virt. eigenvalues --    2.36816   2.37014   2.37364   2.37822   2.38152
 Alpha virt. eigenvalues --    2.38422   2.38634   2.39204   2.39535   2.40143
 Alpha virt. eigenvalues --    2.40182   2.40989   2.41612   2.41906   2.42247
 Alpha virt. eigenvalues --    2.42419   2.42905   2.43365   2.43521   2.44066
 Alpha virt. eigenvalues --    2.44433   2.44968   2.45025   2.45465   2.45531
 Alpha virt. eigenvalues --    2.45871   2.46249   2.46546   2.46581   2.47390
 Alpha virt. eigenvalues --    2.47537   2.47794   2.48062   2.49153   2.49348
 Alpha virt. eigenvalues --    2.49961   2.50418   2.50509   2.51070   2.51295
 Alpha virt. eigenvalues --    2.51560   2.52156   2.52494   2.52741   2.52795
 Alpha virt. eigenvalues --    2.53303   2.53494   2.54313   2.54847   2.55757
 Alpha virt. eigenvalues --    2.55840   2.56041   2.56466   2.56677   2.57146
 Alpha virt. eigenvalues --    2.57661   2.57820   2.58606   2.58746   2.59300
 Alpha virt. eigenvalues --    2.59327   2.60106   2.60327   2.60852   2.61192
 Alpha virt. eigenvalues --    2.62128   2.62212   2.63020   2.63212   2.63914
 Alpha virt. eigenvalues --    2.63983   2.64313   2.64610   2.64991   2.65440
 Alpha virt. eigenvalues --    2.65956   2.66733   2.67138   2.67570   2.67797
 Alpha virt. eigenvalues --    2.67903   2.68752   2.68935   2.69351   2.69458
 Alpha virt. eigenvalues --    2.69561   2.69644   2.70687   2.71323   2.71412
 Alpha virt. eigenvalues --    2.71834   2.72100   2.72307   2.72764   2.73265
 Alpha virt. eigenvalues --    2.73788   2.73927   2.74146   2.74713   2.75236
 Alpha virt. eigenvalues --    2.75269   2.75692   2.75924   2.76354   2.76767
 Alpha virt. eigenvalues --    2.77191   2.77652   2.77940   2.78570   2.78742
 Alpha virt. eigenvalues --    2.79267   2.79355   2.79998   2.80573   2.81225
 Alpha virt. eigenvalues --    2.81474   2.81499   2.82311   2.83029   2.83313
 Alpha virt. eigenvalues --    2.83600   2.84714   2.84929   2.85397   2.85637
 Alpha virt. eigenvalues --    2.86057   2.86798   2.87422   2.87699   2.89060
 Alpha virt. eigenvalues --    2.89603   2.89636   2.90151   2.90302   2.91482
 Alpha virt. eigenvalues --    2.92368   2.92625   2.93241   2.93315   2.93722
 Alpha virt. eigenvalues --    2.94508   2.94901   2.95289   2.95504   2.96383
 Alpha virt. eigenvalues --    2.96677   2.97545   2.97893   2.98188   2.98367
 Alpha virt. eigenvalues --    2.98765   2.99065   2.99365   2.99519   2.99691
 Alpha virt. eigenvalues --    2.99944   3.00052   3.00112   3.00352   3.01108
 Alpha virt. eigenvalues --    3.01366   3.01437   3.02035   3.02811   3.02866
 Alpha virt. eigenvalues --    3.03063   3.03191   3.03473   3.04113   3.04422
 Alpha virt. eigenvalues --    3.04790   3.05474   3.05617   3.05778   3.05830
 Alpha virt. eigenvalues --    3.06447   3.06552   3.06758   3.07346   3.07783
 Alpha virt. eigenvalues --    3.08155   3.08260   3.08599   3.08767   3.08850
 Alpha virt. eigenvalues --    3.09217   3.09557   3.10005   3.10138   3.10359
 Alpha virt. eigenvalues --    3.10682   3.10929   3.11255   3.11605   3.11622
 Alpha virt. eigenvalues --    3.11680   3.11842   3.12717   3.12867   3.13132
 Alpha virt. eigenvalues --    3.14071   3.15443   3.15507   3.15563   3.16358
 Alpha virt. eigenvalues --    3.17650   3.17757   3.18046   3.19227   3.19721
 Alpha virt. eigenvalues --    3.19779   3.20602   3.21398   3.22450   3.23193
 Alpha virt. eigenvalues --    3.23840   3.24404   3.24748   3.24781   3.25873
 Alpha virt. eigenvalues --    3.28163   3.28410   3.29732   3.30251   3.31928
 Alpha virt. eigenvalues --    3.32645   3.36662   3.44283   3.45833   3.46917
 Alpha virt. eigenvalues --    3.50332   3.51948   3.53992   3.58642   3.60950
 Alpha virt. eigenvalues --    3.64722   3.66001   3.68723   3.70753   3.71159
 Alpha virt. eigenvalues --    3.75123   3.78142
          Condensed to atoms (all electrons):
 Mulliken charges:
               1
     1  Mg   0.980688
     2  C   -0.014516
     3  C   -0.082531
     4  C   -0.070229
     5  C   -0.122299
     6  N   -0.365671
     7  C    0.049878
     8  C   -0.095494
     9  C   -0.089097
    10  C    0.012750
    11  C    0.053934
    12  C    0.007478
    13  C   -0.028124
    14  C    0.210780
    15  O   -0.276067
    16  O   -0.357657
    17  N   -0.483098
    18  C    0.203215
    19  C   -0.154595
    20  C   -0.089661
    21  C    0.171987
    22  C    0.082011
    23  C    0.043433
    24  O   -0.217387
    25  C   -0.016407
    26  N   -0.355663
    27  C    0.069117
    28  C   -0.105798
    29  C   -0.016639
    30  C    0.085769
    31  C    0.011581
    32  C   -0.007384
    33  C   -0.054242
    34  N   -0.405080
    35  C    0.073818
    36  C   -0.216413
    37  C   -0.002921
    38  C    0.126694
    39  C    0.091108
    40  C    0.100447
    41  O   -0.223972
    42  C   -0.076445
    43  C    0.253211
    44  O   -0.224788
    45  O   -0.381282
    46  C    0.138947
    47  C    0.257396
    48  C   -0.099573
    49  C   -0.234484
    50  C    0.012797
    51  C    0.017210
    52  C    0.000385
    53  C   -0.027701
    54  C   -0.182050
    55  C    0.047507
    56  C    0.018788
    57  C   -0.056639
    58  C    0.032452
    59  C   -0.201500
    60  C   -0.013923
    61  C    0.064423
    62  C   -0.052885
    63  C   -0.006526
    64  C   -0.230354
    65  C    0.003652
    66  C   -0.003320
    67  H   -0.000535
    68  H   -0.039292
    69  H   -0.004078
    70  H    0.033812
    71  H    0.040518
    72  H    0.025683
    73  H    0.053309
    74  H    0.034992
    75  H    0.046738
    76  H    0.048130
    77  H    0.065824
    78  H    0.073694
    79  H    0.060331
    80  H    0.019154
    81  H    0.052352
    82  H    0.051573
    83  H    0.079718
    84  H    0.051589
    85  H    0.042419
    86  H    0.031505
    87  H    0.055636
    88  H    0.029015
    89  H    0.030993
    90  H    0.042591
    91  H    0.031672
    92  H    0.039408
    93  H    0.034765
    94  H    0.041266
    95  H    0.064272
    96  H    0.050923
    97  H    0.048430
    98  H    0.069825
    99  H    0.051903
   100  H    0.057536
   101  H    0.071423
   102  H    0.032953
   103  H    0.038021
   104  H    0.015238
   105  H    0.023779
   106  H    0.051064
   107  H    0.052242
   108  H    0.028662
   109  H    0.014206
   110  H    0.018349
   111  H    0.013244
   112  H    0.014196
   113  H    0.032067
   114  H    0.024296
   115  H    0.035170
   116  H    0.015904
   117  H    0.017902
   118  H    0.011886
   119  H    0.025185
   120  H    0.008708
   121  H    0.020884
   122  H    0.006748
   123  H    0.012066
   124  H    0.022887
   125  H    0.037508
   126  H    0.023360
   127  H    0.013863
   128  H    0.025965
   129  H    0.018158
   130  H    0.020853
   131  H    0.016738
   132  H    0.021097
   133  H    0.020604
   134  H    0.029243
   135  H    0.021520
   136  H    0.015098
   137  H    0.026132
   138  H    0.036675
   139  H    0.041369
   140  H    0.030030
 Sum of Mulliken charges =  -0.00000
 Mulliken charges with hydrogens summed into heavy atoms:
               1
     1  Mg   0.980688
     2  C   -0.014516
     3  C   -0.083065
     4  C   -0.109521
     5  C   -0.126377
     6  N   -0.365671
     7  C    0.049878
     8  C   -0.061682
     9  C   -0.048579
    10  C    0.012750
    11  C    0.167917
    12  C    0.102346
    13  C    0.111393
    14  C    0.210780
    15  O   -0.276067
    16  O   -0.357657
    17  N   -0.483098
    18  C    0.203215
    19  C   -0.154595
    20  C   -0.089661
    21  C    0.171987
    22  C    0.213848
    23  C    0.043433
    24  O   -0.217387
    25  C    0.166473
    26  N   -0.355663
    27  C    0.069117
    28  C   -0.063380
    29  C    0.014865
    30  C    0.085769
    31  C    0.127225
    32  C    0.066879
    33  C    0.061196
    34  N   -0.405080
    35  C    0.073818
    36  C   -0.216413
    37  C   -0.002921
    38  C    0.126694
    39  C    0.254733
    40  C    0.100447
    41  O   -0.223972
    42  C   -0.006620
    43  C    0.253211
    44  O   -0.224788
    45  O   -0.381282
    46  C    0.319809
    47  C    0.328370
    48  C   -0.084335
    49  C   -0.234484
    50  C    0.139882
    51  C    0.060079
    52  C    0.031978
    53  C    0.018561
    54  C   -0.157754
    55  C    0.116483
    56  C    0.055858
    57  C   -0.027046
    58  C    0.051266
    59  C   -0.178613
    60  C    0.060809
    61  C    0.108545
    62  C   -0.015294
    63  C    0.035175
    64  C   -0.201111
    65  C    0.066402
    66  C    0.104753
 Electronic spatial extent (au):  <R**2>=         113446.1864
 Charge=             -0.0000 electrons
 Dipole moment (field-independent basis, Debye):
    X=              1.4695    Y=              6.2008    Z=             -0.8608  Tot=              6.4305
 Quadrupole moment (field-independent basis, Debye-Ang):
   XX=           -370.9826   YY=           -421.3880   ZZ=           -409.0607
   XY=             23.7690   XZ=            -15.0920   YZ=             39.4693
 Traceless Quadrupole moment (field-independent basis, Debye-Ang):
   XX=             29.4945   YY=            -20.9109   ZZ=             -8.5836
   XY=             23.7690   XZ=            -15.0920   YZ=             39.4693
 Octapole moment (field-independent basis, Debye-Ang**2):
  XXX=            394.1730  YYY=            252.6987  ZZZ=             15.2000  XYY=             29.8757
  XXY=             80.3782  XXZ=           -147.3120  XZZ=             18.0057  YZZ=            -28.1102
  YYZ=             51.4706  XYZ=            210.1173
 Hexadecapole moment (field-independent basis, Debye-Ang**3):
 XXXX=        -118072.5986 YYYY=         -23427.9697 ZZZZ=         -15147.8593 XXXY=           -372.7840
 XXXZ=           -961.7126 YYYX=            723.7958 YYYZ=            743.6652 ZZZX=            185.7450
 ZZZY=            880.5710 XXYY=         -23053.3470 XXZZ=         -22258.1215 YYZZ=          -7065.0971
 XXYZ=            961.5652 YYXZ=           -347.5695 ZZXY=            152.4582
 N-N= 9.659934494089D+03 E-N=-2.631289010870D+04  KE= 2.976246570432D+03
 Leave Link  601 at Wed May  4 07:09:06 2022, MaxMem= 10066329600 cpu:              10.3 elap:               0.5
 (Enter /sw/apps/gaussian-16.0/g16/l9999.exe)
 1\1\GINC-BP1-COMPUTE058\SP\RwB97XD TD-FC\def2SVP\C55H74Mg1N4O6\OF15641
 \04-May-2022\0\\#p wB97XD/Def2SVP td=(nstates=5)\\step_1451_chromophor
 e_14 TDDFT with wB97XD functional\\0,1\Mg,0,46.592,45.017,42.786\C,0,4
 3.18,44.154,42.785\C,0,47.34,41.76,41.777\C,0,49.496,46.116,41.771\C,0
 ,45.576,48.441,43.189\N,0,45.393,43.218,42.351\C,0,44.017,43.113,42.50
 7\C,0,43.567,41.716,42.145\C,0,44.914,40.929,42.018\C,0,45.96,42.023,4
 1.998\C,0,45.106,39.805,43.024\C,0,42.571,41.489,40.934\C,0,43.104,42.
 19,39.631\C,0,43.342,41.256,38.414\O,0,42.618,40.281,38.2\O,0,44.296,4
 1.747,37.529\N,0,48.217,44.047,42.037\C,0,48.386,42.704,41.764\C,0,49.
 743,42.505,41.501\C,0,50.384,43.747,41.358\C,0,49.376,44.691,41.793\C,
 0,50.371,41.082,41.315\C,0,51.896,43.916,41.042\O,0,52.587,42.968,40.7
 18\C,0,52.554,45.314,41.148\N,0,47.35,47.008,42.553\C,0,48.667,47.131,
 42.173\C,0,49.181,48.56,42.254\C,0,47.858,49.33,42.687\C,0,46.845,48.2
 22,42.821\C,0,50.427,48.676,43.169\C,0,47.33,50.541,41.867\C,0,47.234,
 51.871,42.639\N,0,44.846,46.111,43.126\C,0,44.563,47.444,43.305\C,0,43
 .156,47.658,43.408\C,0,42.615,46.417,43.188\C,0,43.672,45.521,42.973\C
 ,0,42.389,48.973,43.707\C,0,41.411,45.731,43.173\O,0,40.288,46.221,43.
 27\C,0,41.689,44.281,42.698\C,0,40.982,43.317,43.654\O,0,40.221,42.444
 ,43.308\O,0,41.482,43.495,44.919\C,0,41.352,42.315,45.833\C,0,44.256,4
 1.122,36.226\C,0,44.909,42.087,35.267\C,0,45.974,41.915,34.461\C,0,46.
 663,40.606,34.268\C,0,46.565,43.095,33.528\C,0,46.108,43.17,32.108\C,0
 ,45.346,44.499,31.858\C,0,45.23,44.693,30.318\C,0,44.979,46.142,29.97\
 C,0,44.014,43.825,29.936\C,0,44.494,42.842,28.846\C,0,43.636,42.88,27.
 581\C,0,44.311,43.84,26.521\C,0,43.41,45.065,26.14\C,0,44.85,43.134,25
 .246\C,0,46.225,43.7,24.837\C,0,46.31,44.131,23.362\C,0,47.702,43.598,
 22.761\C,0,48.02,44.396,21.499\C,0,47.593,42.029,22.479\H,0,47.457,40.
 694,41.569\H,0,50.482,46.461,41.454\H,0,45.183,49.429,43.439\H,0,42.89
 6,41.346,42.92\H,0,44.987,40.507,41.015\H,0,45.748,40.226,43.798\H,0,4
 5.582,38.911,42.622\H,0,44.168,39.655,43.558\H,0,41.543,41.773,41.155\
 H,0,42.402,40.42,40.805\H,0,44.054,42.722,39.681\H,0,42.337,42.886,39.
 291\H,0,50.89,41.073,40.357\H,0,49.678,40.241,41.287\H,0,51.072,40.821
 ,42.107\H,0,52.265,45.778,42.092\H,0,52.325,45.893,40.253\H,0,53.631,4
 5.172,41.24\H,0,49.592,48.83,41.281\H,0,48.025,49.64,43.718\H,0,50.893
 ,47.749,43.504\H,0,50.088,49.318,43.982\H,0,51.22,49.226,42.662\H,0,46
 .333,50.295,41.502\H,0,47.995,50.642,41.009\H,0,47.946,52.557,42.179\H
 ,0,47.459,51.656,43.683\H,0,46.273,52.38,42.57\H,0,41.337,48.695,43.77
 \H,0,42.638,49.629,42.873\H,0,42.725,49.342,44.676\H,0,41.213,44.092,4
 1.736\H,0,41.284,41.446,45.178\H,0,40.358,42.398,46.273\H,0,42.098,42.
 217,46.622\H,0,43.195,41.039,35.99\H,0,44.509,40.066,36.133\H,0,44.54,
 43.112,35.306\H,0,47.618,40.701,33.751\H,0,46.147,39.859,33.665\H,0,46
 .825,40.203,35.267\H,0,47.64,43.052,33.702\H,0,46.266,43.991,34.071\H,
 0,45.495,42.287,31.925\H,0,46.965,42.971,31.466\H,0,45.962,45.271,32.3
 18\H,0,44.462,44.371,32.482\H,0,46.177,44.336,29.913\H,0,45.746,46.842
 ,30.303\H,0,44.065,46.388,30.51\H,0,44.692,46.186,28.92\H,0,43.171,44.
 432,29.604\H,0,43.598,43.284,30.786\H,0,44.364,41.844,29.265\H,0,45.57
 1,42.938,28.706\H,0,42.634,43.219,27.843\H,0,43.464,41.842,27.297\H,0,
 45.079,44.35,27.103\H,0,43.84,46.005,26.486\H,0,42.394,44.982,26.524\H
 ,0,43.275,45.123,25.06\H,0,44.159,43.303,24.419\H,0,45.059,42.124,25.5
 98\H,0,46.996,42.988,25.132\H,0,46.446,44.59,25.426\H,0,46.354,45.22,2
 3.322\H,0,45.384,43.835,22.87\H,0,48.5,43.796,23.476\H,0,47.177,44.978
 ,21.126\H,0,48.325,43.714,20.705\H,0,48.797,45.156,21.58\H,0,48.49,41.
 74,21.932\H,0,46.694,41.82,21.898\H,0,47.601,41.62,23.489\\Version=ES6
 4L-G16RevA.03\State=1-A\HF=-3007.8787446\RMSD=8.214e-09\PG=C01 [X(C55H
 74Mg1N4O6)]\\@


 Ideas are like rabbits. You get a couple and learn
 how to handle them, and pretty soon you have a dozen.
                                    -- John Steinbeck
 Job cpu time:       0 days 10 hours 16 minutes 43.9 seconds.
 Elapsed time:       0 days  0 hours 26 minutes 12.1 seconds.
 File lengths (MBytes):  RWF=   8929 Int=      0 D2E=      0 Chk=    390 Scr=      1
 Normal termination of Gaussian 16 at Wed May  4 07:09:07 2022.
