 Entering Gaussian System, Link 0=g16
 Initial command:
 /sw/apps/gaussian-16.0/g16/l1.exe "/tmp/Gau-97185.inp" -scrdir="/tmp/"
 Entering Link 1 = /sw/apps/gaussian-16.0/g16/l1.exe PID=     97186.
  
 Copyright (c) 1988,1990,1992,1993,1995,1998,2003,2009,2016,
            Gaussian, Inc.  All Rights Reserved.
  
 This is part of the Gaussian(R) 16 program.  It is based on
 the Gaussian(R) 09 system (copyright 2009, Gaussian, Inc.),
 the Gaussian(R) 03 system (copyright 2003, Gaussian, Inc.),
 the Gaussian(R) 98 system (copyright 1998, Gaussian, Inc.),
 the Gaussian(R) 94 system (copyright 1995, Gaussian, Inc.),
 the Gaussian 92(TM) system (copyright 1992, Gaussian, Inc.),
 the Gaussian 90(TM) system (copyright 1990, Gaussian, Inc.),
 the Gaussian 88(TM) system (copyright 1988, Gaussian, Inc.),
 the Gaussian 86(TM) system (copyright 1986, Carnegie Mellon
 University), and the Gaussian 82(TM) system (copyright 1983,
 Carnegie Mellon University). Gaussian is a federally registered
 trademark of Gaussian, Inc.
  
 This software contains proprietary and confidential information,
 including trade secrets, belonging to Gaussian, Inc.
  
 This software is provided under written license and may be
 used, copied, transmitted, or stored only in accord with that
 written license.
  
 The following legend is applicable only to US Government
 contracts under FAR:
  
                    RESTRICTED RIGHTS LEGEND
  
 Use, reproduction and disclosure by the US Government is
 subject to restrictions as set forth in subparagraphs (a)
 and (c) of the Commercial Computer Software - Restricted
 Rights clause in FAR 52.227-19.
  
 Gaussian, Inc.
 340 Quinnipiac St., Bldg. 40, Wallingford CT 06492
  
  
 ---------------------------------------------------------------
 Warning -- This program may not be used in any manner that
 competes with the business of Gaussian, Inc. or will provide
 assistance to any competitor of Gaussian, Inc.  The licensee
 of this program is prohibited from giving any competitor of
 Gaussian, Inc. access to this program.  By using this program,
 the user acknowledges that Gaussian, Inc. is engaged in the
 business of creating and licensing software in the field of
 computational chemistry and represents and warrants to the
 licensee that it is not a competitor of Gaussian, Inc. and that
 it will not use this program in any manner prohibited above.
 ---------------------------------------------------------------
  

 Cite this work as:
 Gaussian 16, Revision A.03,
 M. J. Frisch, G. W. Trucks, H. B. Schlegel, G. E. Scuseria, 
 M. A. Robb, J. R. Cheeseman, G. Scalmani, V. Barone, 
 G. A. Petersson, H. Nakatsuji, X. Li, M. Caricato, A. V. Marenich, 
 J. Bloino, B. G. Janesko, R. Gomperts, B. Mennucci, H. P. Hratchian, 
 J. V. Ortiz, A. F. Izmaylov, J. L. Sonnenberg, D. Williams-Young, 
 F. Ding, F. Lipparini, F. Egidi, J. Goings, B. Peng, A. Petrone, 
 T. Henderson, D. Ranasinghe, V. G. Zakrzewski, J. Gao, N. Rega, 
 G. Zheng, W. Liang, M. Hada, M. Ehara, K. Toyota, R. Fukuda, 
 J. Hasegawa, M. Ishida, T. Nakajima, Y. Honda, O. Kitao, H. Nakai, 
 T. Vreven, K. Throssell, J. A. Montgomery, Jr., J. E. Peralta, 
 F. Ogliaro, M. J. Bearpark, J. J. Heyd, E. N. Brothers, K. N. Kudin, 
 V. N. Staroverov, T. A. Keith, R. Kobayashi, J. Normand, 
 K. Raghavachari, A. P. Rendell, J. C. Burant, S. S. Iyengar, 
 J. Tomasi, M. Cossi, J. M. Millam, M. Klene, C. Adamo, R. Cammi, 
 J. W. Ochterski, R. L. Martin, K. Morokuma, O. Farkas, 
 J. B. Foresman, and D. J. Fox, Gaussian, Inc., Wallingford CT, 2016.
 
 ******************************************
 Gaussian 16:  ES64L-G16RevA.03 25-Dec-2016
                28-Apr-2022 
 ******************************************
 %nproc=24
 Will use up to   24 processors via shared memory.
 %mem=75GB
 ---------------------------------
 #p PBE1PBE/Def2SVP td=(nstates=5)
 ---------------------------------
 1/38=1,172=1/1;
 2/12=2,17=6,18=5,40=1/2;
 3/5=43,7=101,11=9,25=1,30=1,74=-13/1,2,3,8;
 4//1;
 5/5=2,38=5/2;
 8/6=1,10=1,108=5/1;
 9/41=5,42=1,70=2/14;
 6/7=2,8=2,9=2,10=2/1;
 99/5=1,9=1/99;
 Leave Link    1 at Thu Apr 28 10:46:48 2022, MaxMem= 10066329600 cpu:               1.0 elap:               0.0
 (Enter /sw/apps/gaussian-16.0/g16/l101.exe)
 ----------------------------------------------------
 step_151_chromophore_8 TDDFT with PBE1PBE functional
 ----------------------------------------------------
 Symbolic Z-matrix:
 Charge =  0 Multiplicity = 1
 Mg                    45.097    3.719     48.064 
 C                     42.934    6.396     47.436 
 C                     42.547    1.52      47.568 
 C                     47.349    1.237     48.463 
 C                     47.853    6.126     48.125 
 N                     43.       3.929     47.589 
 C                     42.321    5.136     47.351 
 C                     40.796    4.857     46.973 
 C                     40.687    3.339     47.371 
 C                     42.119    2.867     47.569 
 C                     39.758    3.132     48.56 
 C                     40.438    5.149     45.542 
 C                     39.184    6.038     45.414 
 C                     38.443    5.899     44.083 
 O                     37.227    5.766     43.911 
 O                     39.311    6.02      43.076 
 N                     44.983    1.615     47.919 
 C                     43.816    0.88      47.678 
 C                     44.137   -0.516     47.659 
 C                     45.488   -0.658     48.064 
 C                     45.998    0.739     48.18 
 C                     43.199   -1.57      47.049 
 C                     46.353   -1.911     48.113 
 O                     45.756   -3.002     47.914 
 C                     47.915   -1.99      48.366 
 N                     47.287    3.713     47.97 
 C                     47.886    2.549     48.399 
 C                     49.301    2.825     48.754 
 C                     49.54     4.315     48.533 
 C                     48.135    4.777     48.156 
 C                     49.81     2.409     50.201 
 C                     50.627    4.692     47.482 
 C                     50.286    4.756     46.012 
 N                     45.393    5.826     47.804 
 C                     46.524    6.64      47.816 
 C                     46.159    7.978     47.654 
 C                     44.764    7.938     47.6 
 C                     44.346    6.627     47.585 
 C                     47.029    9.166     47.672 
 C                     43.545    8.713     47.385 
 O                     43.382    9.898     47.184 
 C                     42.34     7.731     47.316 
 C                     41.415    8.07      48.435 
 O                     41.58     8.018     49.633 
 O                     40.171    8.251     47.914 
 C                     39.051    8.142     48.807 
 C                     38.724    6.055     41.713 
 C                     39.912    5.85      40.685 
 C                     40.197    6.533     39.557 
 C                     39.442    7.716     39.005 
 C                     41.521    6.229     38.85 
 C                     41.149    5.239     37.715 
 C                     42.133    4.063     37.755 
 C                     41.905    3.098     36.542 
 C                     41.014    1.748     36.902 
 C                     43.286    2.662     35.858 
 C                     43.298    2.655     34.322 
 C                     43.635    4.126     33.77 
 C                     44.631    4.118     32.623 
 C                     46.055    4.178     33.166 
 C                     44.295    5.182     31.626 
 C                     43.07     4.885     30.705 
 C                     43.396    5.251     29.209 
 C                     42.937    4.108     28.315 
 C                     41.401    4.011     28.128 
 C                     43.562    3.975     26.963 
 H                     41.817    0.776     47.244 
 H                     48.081    0.522     48.846 
 H                     48.723    6.782     48.195 
 H                     40.244    5.523     47.636 
 H                     40.382    2.722     46.527 
 H                     39.116    2.297     48.278 
 H                     39.152    4.031     48.671 
 H                     40.414    2.795     49.362 
 H                     40.287    4.267     44.92 
 H                     41.24     5.796     45.187 
 H                     39.389    7.108     45.437 
 H                     38.539    5.809     46.263 
 H                     43.756   -2.251     46.406 
 H                     42.506   -1.08      46.365 
 H                     42.466   -1.969     47.751 
 H                     48.28    -1.307     47.599 
 H                     48.146   -3.052     48.273 
 H                     48.173   -1.639     49.365 
 H                     49.895    2.386     47.952 
 H                     49.864    4.8       49.454 
 H                     50.608    1.667     50.224 
 H                     48.982    1.988     50.771 
 H                     50.24     3.182     50.838 
 H                     51.444    3.971     47.515 
 H                     51.072    5.634     47.801 
 H                     49.207    4.755     45.855 
 H                     50.897    4.054     45.444 
 H                     50.566    5.723     45.593 
 H                     47.623    9.352     48.566 
 H                     46.448    10.005    47.289 
 H                     47.682    8.944     46.828 
 H                     41.759    7.734     46.394 
 H                     39.142    8.935     49.55 
 H                     38.879    7.168     49.266 
 H                     38.161    8.243     48.186 
 H                     38.212    6.996     41.511 
 H                     38.029    5.246     41.486 
 H                     40.525    5.002     40.993 
 H                     40.089    8.578     38.844 
 H                     38.55     8.062     39.526 
 H                     39.094    7.427     38.013 
 H                     42.096    5.574     39.505 
 H                     41.98     7.142     38.472 
 H                     41.316    5.796     36.793 
 H                     40.189    4.722     37.679 
 H                     42.001    3.43      38.632 
 H                     43.158    4.428     37.813 
 H                     41.256    3.482     35.755 
 H                     40.169    1.668     36.218 
 H                     40.696    1.757     37.945 
 H                     41.521    0.793     36.764 
 H                     43.605    1.659     36.143 
 H                     44.064    3.332     36.222 
 H                     42.275    2.37      34.076 
 H                     44.064    1.931     34.044 
 H                     44.155    4.647     34.573 
 H                     42.715    4.615     33.45 
 H                     44.678    3.142     32.139 
 H                     46.418    5.205     33.123 
 H                     46.704    3.598     32.51 
 H                     46.171    3.946     34.224 
 H                     45.179    5.422     31.035 
 H                     44.006    6.012     32.271 
 H                     42.378    5.686     30.966 
 H                     42.699    3.888     30.945 
 H                     44.474    5.406     29.163 
 H                     43.036    6.232     28.9 
 H                     43.125    3.103     28.692 
 H                     41.024    3.162     27.557 
 H                     41.151    4.838     27.463 
 H                     40.87     3.922     29.076 
 H                     42.835    3.753     26.182 
 H                     44.173    3.106     26.722 
 H                     44.18     4.872     26.909 
 
 ITRead=  0  0  0  0  0  0  0  0  0  0  0  0  0  0  0  0  0  0  0  0
 ITRead=  0  0  0  0  0  0  0  0  0  0  0  0  0  0  0  0  0  0  0  0
 ITRead=  0  0  0  0  0  0  0  0  0  0  0  0  0  0  0  0  0  0  0  0
 ITRead=  0  0  0  0  0  0  0  0  0  0  0  0  0  0  0  0  0  0  0  0
 ITRead=  0  0  0  0  0  0  0  0  0  0  0  0  0  0  0  0  0  0  0  0
 ITRead=  0  0  0  0  0  0  0  0  0  0  0  0  0  0  0  0  0  0  0  0
 ITRead=  0  0  0  0  0  0  0  0  0  0  0  0  0  0  0  0  0  0  0  0
 MicOpt= -1 -1 -1 -1 -1 -1 -1 -1 -1 -1 -1 -1 -1 -1 -1 -1 -1 -1 -1 -1
 MicOpt= -1 -1 -1 -1 -1 -1 -1 -1 -1 -1 -1 -1 -1 -1 -1 -1 -1 -1 -1 -1
 MicOpt= -1 -1 -1 -1 -1 -1 -1 -1 -1 -1 -1 -1 -1 -1 -1 -1 -1 -1 -1 -1
 MicOpt= -1 -1 -1 -1 -1 -1 -1 -1 -1 -1 -1 -1 -1 -1 -1 -1 -1 -1 -1 -1
 MicOpt= -1 -1 -1 -1 -1 -1 -1 -1 -1 -1 -1 -1 -1 -1 -1 -1 -1 -1 -1 -1
 MicOpt= -1 -1 -1 -1 -1 -1 -1 -1 -1 -1 -1 -1 -1 -1 -1 -1 -1 -1 -1 -1
 MicOpt= -1 -1 -1 -1 -1 -1 -1 -1 -1 -1 -1 -1 -1 -1 -1 -1 -1 -1 -1 -1
 NAtoms=    140 NQM=      140 NQMF=       0 NMMI=      0 NMMIF=      0
                NMic=       0 NMicF=      0.
                    Isotopes and Nuclear Properties:
 (Nuclear quadrupole moments (NQMom) in fm**2, nuclear magnetic moments (NMagM)
  in nuclear magnetons)

  Atom         1           2           3           4           5           6           7           8           9          10
 IAtWgt=          24          12          12          12          12          14          12          12          12          12
 AtmWgt=  23.9850450  12.0000000  12.0000000  12.0000000  12.0000000  14.0030740  12.0000000  12.0000000  12.0000000  12.0000000
 NucSpn=           0           0           0           0           0           2           0           0           0           0
 AtZEff=  -0.0000000  -0.0000000  -0.0000000  -0.0000000  -0.0000000  -0.0000000  -0.0000000  -0.0000000  -0.0000000  -0.0000000
 NQMom=    0.0000000   0.0000000   0.0000000   0.0000000   0.0000000   2.0440000   0.0000000   0.0000000   0.0000000   0.0000000
 NMagM=    0.0000000   0.0000000   0.0000000   0.0000000   0.0000000   0.4037610   0.0000000   0.0000000   0.0000000   0.0000000
 AtZNuc=  12.0000000   6.0000000   6.0000000   6.0000000   6.0000000   7.0000000   6.0000000   6.0000000   6.0000000   6.0000000

  Atom        11          12          13          14          15          16          17          18          19          20
 IAtWgt=          12          12          12          12          16          16          14          12          12          12
 AtmWgt=  12.0000000  12.0000000  12.0000000  12.0000000  15.9949146  15.9949146  14.0030740  12.0000000  12.0000000  12.0000000
 NucSpn=           0           0           0           0           0           0           2           0           0           0
 AtZEff=  -0.0000000  -0.0000000  -0.0000000  -0.0000000  -0.0000000  -0.0000000  -0.0000000  -0.0000000  -0.0000000  -0.0000000
 NQMom=    0.0000000   0.0000000   0.0000000   0.0000000   0.0000000   0.0000000   2.0440000   0.0000000   0.0000000   0.0000000
 NMagM=    0.0000000   0.0000000   0.0000000   0.0000000   0.0000000   0.0000000   0.4037610   0.0000000   0.0000000   0.0000000
 AtZNuc=   6.0000000   6.0000000   6.0000000   6.0000000   8.0000000   8.0000000   7.0000000   6.0000000   6.0000000   6.0000000

  Atom        21          22          23          24          25          26          27          28          29          30
 IAtWgt=          12          12          12          16          12          14          12          12          12          12
 AtmWgt=  12.0000000  12.0000000  12.0000000  15.9949146  12.0000000  14.0030740  12.0000000  12.0000000  12.0000000  12.0000000
 NucSpn=           0           0           0           0           0           2           0           0           0           0
 AtZEff=  -0.0000000  -0.0000000  -0.0000000  -0.0000000  -0.0000000  -0.0000000  -0.0000000  -0.0000000  -0.0000000  -0.0000000
 NQMom=    0.0000000   0.0000000   0.0000000   0.0000000   0.0000000   2.0440000   0.0000000   0.0000000   0.0000000   0.0000000
 NMagM=    0.0000000   0.0000000   0.0000000   0.0000000   0.0000000   0.4037610   0.0000000   0.0000000   0.0000000   0.0000000
 AtZNuc=   6.0000000   6.0000000   6.0000000   8.0000000   6.0000000   7.0000000   6.0000000   6.0000000   6.0000000   6.0000000

  Atom        31          32          33          34          35          36          37          38          39          40
 IAtWgt=          12          12          12          14          12          12          12          12          12          12
 AtmWgt=  12.0000000  12.0000000  12.0000000  14.0030740  12.0000000  12.0000000  12.0000000  12.0000000  12.0000000  12.0000000
 NucSpn=           0           0           0           2           0           0           0           0           0           0
 AtZEff=  -0.0000000  -0.0000000  -0.0000000  -0.0000000  -0.0000000  -0.0000000  -0.0000000  -0.0000000  -0.0000000  -0.0000000
 NQMom=    0.0000000   0.0000000   0.0000000   2.0440000   0.0000000   0.0000000   0.0000000   0.0000000   0.0000000   0.0000000
 NMagM=    0.0000000   0.0000000   0.0000000   0.4037610   0.0000000   0.0000000   0.0000000   0.0000000   0.0000000   0.0000000
 AtZNuc=   6.0000000   6.0000000   6.0000000   7.0000000   6.0000000   6.0000000   6.0000000   6.0000000   6.0000000   6.0000000

  Atom        41          42          43          44          45          46          47          48          49          50
 IAtWgt=          16          12          12          16          16          12          12          12          12          12
 AtmWgt=  15.9949146  12.0000000  12.0000000  15.9949146  15.9949146  12.0000000  12.0000000  12.0000000  12.0000000  12.0000000
 NucSpn=           0           0           0           0           0           0           0           0           0           0
 AtZEff=  -0.0000000  -0.0000000  -0.0000000  -0.0000000  -0.0000000  -0.0000000  -0.0000000  -0.0000000  -0.0000000  -0.0000000
 NQMom=    0.0000000   0.0000000   0.0000000   0.0000000   0.0000000   0.0000000   0.0000000   0.0000000   0.0000000   0.0000000
 NMagM=    0.0000000   0.0000000   0.0000000   0.0000000   0.0000000   0.0000000   0.0000000   0.0000000   0.0000000   0.0000000
 AtZNuc=   8.0000000   6.0000000   6.0000000   8.0000000   8.0000000   6.0000000   6.0000000   6.0000000   6.0000000   6.0000000

  Atom        51          52          53          54          55          56          57          58          59          60
 IAtWgt=          12          12          12          12          12          12          12          12          12          12
 AtmWgt=  12.0000000  12.0000000  12.0000000  12.0000000  12.0000000  12.0000000  12.0000000  12.0000000  12.0000000  12.0000000
 NucSpn=           0           0           0           0           0           0           0           0           0           0
 AtZEff=  -0.0000000  -0.0000000  -0.0000000  -0.0000000  -0.0000000  -0.0000000  -0.0000000  -0.0000000  -0.0000000  -0.0000000
 NQMom=    0.0000000   0.0000000   0.0000000   0.0000000   0.0000000   0.0000000   0.0000000   0.0000000   0.0000000   0.0000000
 NMagM=    0.0000000   0.0000000   0.0000000   0.0000000   0.0000000   0.0000000   0.0000000   0.0000000   0.0000000   0.0000000
 AtZNuc=   6.0000000   6.0000000   6.0000000   6.0000000   6.0000000   6.0000000   6.0000000   6.0000000   6.0000000   6.0000000

  Atom        61          62          63          64          65          66          67          68          69          70
 IAtWgt=          12          12          12          12          12          12           1           1           1           1
 AtmWgt=  12.0000000  12.0000000  12.0000000  12.0000000  12.0000000  12.0000000   1.0078250   1.0078250   1.0078250   1.0078250
 NucSpn=           0           0           0           0           0           0           1           1           1           1
 AtZEff=  -0.0000000  -0.0000000  -0.0000000  -0.0000000  -0.0000000  -0.0000000  -0.0000000  -0.0000000  -0.0000000  -0.0000000
 NQMom=    0.0000000   0.0000000   0.0000000   0.0000000   0.0000000   0.0000000   0.0000000   0.0000000   0.0000000   0.0000000
 NMagM=    0.0000000   0.0000000   0.0000000   0.0000000   0.0000000   0.0000000   2.7928460   2.7928460   2.7928460   2.7928460
 AtZNuc=   6.0000000   6.0000000   6.0000000   6.0000000   6.0000000   6.0000000   1.0000000   1.0000000   1.0000000   1.0000000

  Atom        71          72          73          74          75          76          77          78          79          80
 IAtWgt=           1           1           1           1           1           1           1           1           1           1
 AtmWgt=   1.0078250   1.0078250   1.0078250   1.0078250   1.0078250   1.0078250   1.0078250   1.0078250   1.0078250   1.0078250
 NucSpn=           1           1           1           1           1           1           1           1           1           1
 AtZEff=  -0.0000000  -0.0000000  -0.0000000  -0.0000000  -0.0000000  -0.0000000  -0.0000000  -0.0000000  -0.0000000  -0.0000000
 NQMom=    0.0000000   0.0000000   0.0000000   0.0000000   0.0000000   0.0000000   0.0000000   0.0000000   0.0000000   0.0000000
 NMagM=    2.7928460   2.7928460   2.7928460   2.7928460   2.7928460   2.7928460   2.7928460   2.7928460   2.7928460   2.7928460
 AtZNuc=   1.0000000   1.0000000   1.0000000   1.0000000   1.0000000   1.0000000   1.0000000   1.0000000   1.0000000   1.0000000

  Atom        81          82          83          84          85          86          87          88          89          90
 IAtWgt=           1           1           1           1           1           1           1           1           1           1
 AtmWgt=   1.0078250   1.0078250   1.0078250   1.0078250   1.0078250   1.0078250   1.0078250   1.0078250   1.0078250   1.0078250
 NucSpn=           1           1           1           1           1           1           1           1           1           1
 AtZEff=  -0.0000000  -0.0000000  -0.0000000  -0.0000000  -0.0000000  -0.0000000  -0.0000000  -0.0000000  -0.0000000  -0.0000000
 NQMom=    0.0000000   0.0000000   0.0000000   0.0000000   0.0000000   0.0000000   0.0000000   0.0000000   0.0000000   0.0000000
 NMagM=    2.7928460   2.7928460   2.7928460   2.7928460   2.7928460   2.7928460   2.7928460   2.7928460   2.7928460   2.7928460
 AtZNuc=   1.0000000   1.0000000   1.0000000   1.0000000   1.0000000   1.0000000   1.0000000   1.0000000   1.0000000   1.0000000

  Atom        91          92          93          94          95          96          97          98          99         100
 IAtWgt=           1           1           1           1           1           1           1           1           1           1
 AtmWgt=   1.0078250   1.0078250   1.0078250   1.0078250   1.0078250   1.0078250   1.0078250   1.0078250   1.0078250   1.0078250
 NucSpn=           1           1           1           1           1           1           1           1           1           1
 AtZEff=  -0.0000000  -0.0000000  -0.0000000  -0.0000000  -0.0000000  -0.0000000  -0.0000000  -0.0000000  -0.0000000  -0.0000000
 NQMom=    0.0000000   0.0000000   0.0000000   0.0000000   0.0000000   0.0000000   0.0000000   0.0000000   0.0000000   0.0000000
 NMagM=    2.7928460   2.7928460   2.7928460   2.7928460   2.7928460   2.7928460   2.7928460   2.7928460   2.7928460   2.7928460
 AtZNuc=   1.0000000   1.0000000   1.0000000   1.0000000   1.0000000   1.0000000   1.0000000   1.0000000   1.0000000   1.0000000

  Atom       101         102         103         104         105         106         107         108         109         110
 IAtWgt=           1           1           1           1           1           1           1           1           1           1
 AtmWgt=   1.0078250   1.0078250   1.0078250   1.0078250   1.0078250   1.0078250   1.0078250   1.0078250   1.0078250   1.0078250
 NucSpn=           1           1           1           1           1           1           1           1           1           1
 AtZEff=  -0.0000000  -0.0000000  -0.0000000  -0.0000000  -0.0000000  -0.0000000  -0.0000000  -0.0000000  -0.0000000  -0.0000000
 NQMom=    0.0000000   0.0000000   0.0000000   0.0000000   0.0000000   0.0000000   0.0000000   0.0000000   0.0000000   0.0000000
 NMagM=    2.7928460   2.7928460   2.7928460   2.7928460   2.7928460   2.7928460   2.7928460   2.7928460   2.7928460   2.7928460
 AtZNuc=   1.0000000   1.0000000   1.0000000   1.0000000   1.0000000   1.0000000   1.0000000   1.0000000   1.0000000   1.0000000

  Atom       111         112         113         114         115         116         117         118         119         120
 IAtWgt=           1           1           1           1           1           1           1           1           1           1
 AtmWgt=   1.0078250   1.0078250   1.0078250   1.0078250   1.0078250   1.0078250   1.0078250   1.0078250   1.0078250   1.0078250
 NucSpn=           1           1           1           1           1           1           1           1           1           1
 AtZEff=  -0.0000000  -0.0000000  -0.0000000  -0.0000000  -0.0000000  -0.0000000  -0.0000000  -0.0000000  -0.0000000  -0.0000000
 NQMom=    0.0000000   0.0000000   0.0000000   0.0000000   0.0000000   0.0000000   0.0000000   0.0000000   0.0000000   0.0000000
 NMagM=    2.7928460   2.7928460   2.7928460   2.7928460   2.7928460   2.7928460   2.7928460   2.7928460   2.7928460   2.7928460
 AtZNuc=   1.0000000   1.0000000   1.0000000   1.0000000   1.0000000   1.0000000   1.0000000   1.0000000   1.0000000   1.0000000

  Atom       121         122         123         124         125         126         127         128         129         130
 IAtWgt=           1           1           1           1           1           1           1           1           1           1
 AtmWgt=   1.0078250   1.0078250   1.0078250   1.0078250   1.0078250   1.0078250   1.0078250   1.0078250   1.0078250   1.0078250
 NucSpn=           1           1           1           1           1           1           1           1           1           1
 AtZEff=  -0.0000000  -0.0000000  -0.0000000  -0.0000000  -0.0000000  -0.0000000  -0.0000000  -0.0000000  -0.0000000  -0.0000000
 NQMom=    0.0000000   0.0000000   0.0000000   0.0000000   0.0000000   0.0000000   0.0000000   0.0000000   0.0000000   0.0000000
 NMagM=    2.7928460   2.7928460   2.7928460   2.7928460   2.7928460   2.7928460   2.7928460   2.7928460   2.7928460   2.7928460
 AtZNuc=   1.0000000   1.0000000   1.0000000   1.0000000   1.0000000   1.0000000   1.0000000   1.0000000   1.0000000   1.0000000

  Atom       131         132         133         134         135         136         137         138         139         140
 IAtWgt=           1           1           1           1           1           1           1           1           1           1
 AtmWgt=   1.0078250   1.0078250   1.0078250   1.0078250   1.0078250   1.0078250   1.0078250   1.0078250   1.0078250   1.0078250
 NucSpn=           1           1           1           1           1           1           1           1           1           1
 AtZEff=  -0.0000000  -0.0000000  -0.0000000  -0.0000000  -0.0000000  -0.0000000  -0.0000000  -0.0000000  -0.0000000  -0.0000000
 NQMom=    0.0000000   0.0000000   0.0000000   0.0000000   0.0000000   0.0000000   0.0000000   0.0000000   0.0000000   0.0000000
 NMagM=    2.7928460   2.7928460   2.7928460   2.7928460   2.7928460   2.7928460   2.7928460   2.7928460   2.7928460   2.7928460
 AtZNuc=   1.0000000   1.0000000   1.0000000   1.0000000   1.0000000   1.0000000   1.0000000   1.0000000   1.0000000   1.0000000
 Leave Link  101 at Thu Apr 28 10:46:48 2022, MaxMem= 10066329600 cpu:               3.0 elap:               0.1
 (Enter /sw/apps/gaussian-16.0/g16/l202.exe)
 Stoichiometry    C55H74MgN4O6
 Framework group  C1[X(C55H74MgN4O6)]
 Deg. of freedom   414
 Full point group                 C1      NOp   1
 Largest Abelian subgroup         C1      NOp   1
 Largest concise Abelian subgroup C1      NOp   1
                         Standard orientation:                         
 ---------------------------------------------------------------------
 Center     Atomic      Atomic             Coordinates (Angstroms)
 Number     Number       Type             X           Y           Z
 ---------------------------------------------------------------------
      1         12           0       -4.920718   -0.899946    0.006520
      2          6           0       -3.891832    2.308977    0.946461
      3          6           0       -4.094111   -0.236197   -3.227715
      4          6           0       -5.732025   -4.097222   -0.707787
      5          6           0       -5.344161   -1.666620    3.559802
      6          7           0       -4.120006    0.825131   -1.018225
      7          6           0       -3.746741    2.042626   -0.424159
      8          6           0       -3.143976    3.038282   -1.515806
      9          6           0       -3.561169    2.287253   -2.833575
     10          6           0       -3.992077    0.897832   -2.390360
     11          6           0       -4.596471    3.072679   -3.627847
     12          6           0       -1.667343    3.292752   -1.389368
     13          6           0       -1.321932    4.796035   -1.396465
     14          6           0        0.103815    5.115555   -1.849362
     15          8           0        0.459082    5.980462   -2.656611
     16          8           0        0.966550    4.353753   -1.173003
     17          7           0       -4.816811   -2.068916   -1.749484
     18          6           0       -4.417334   -1.607310   -3.009457
     19          6           0       -4.486288   -2.687604   -3.947769
     20          6           0       -5.100071   -3.788944   -3.299918
     21          6           0       -5.256051   -3.355564   -1.881110
     22          6           0       -3.766673   -2.648272   -5.305512
     23          6           0       -5.316863   -5.208257   -3.809022
     24          8           0       -5.057109   -5.403926   -5.025794
     25          6           0       -5.811643   -6.461878   -2.976124
     26          7           0       -5.168488   -2.659340    1.290310
     27          6           0       -5.716760   -3.760843    0.670772
     28          6           0       -6.279794   -4.673993    1.697211
     29          6           0       -6.058350   -4.017864    3.056078
     30          6           0       -5.455154   -2.681129    2.633122
     31          6           0       -7.799059   -5.119380    1.557895
     32          6           0       -5.179275   -4.809371    4.070496
     33          6           0       -3.672949   -4.708226    4.025459
     34          7           0       -4.652908    0.068702    1.899841
     35          6           0       -4.818518   -0.350115    3.218578
     36          6           0       -4.565563    0.705433    4.096954
     37          6           0       -4.296473    1.784229    3.251773
     38          6           0       -4.252199    1.342580    1.949216
     39          6           0       -4.686393    0.715411    5.564560
     40          6           0       -3.873681    3.180219    3.179177
     41          8           0       -3.617760    3.979411    4.054957
     42          6           0       -3.644834    3.550912    1.685414
     43          6           0       -4.596843    4.644828    1.339393
     44          8           0       -5.806893    4.652328    1.310128
     45          8           0       -3.884090    5.667595    0.793801
     46          6           0       -4.594754    6.620858   -0.012410
     47          6           0        2.404671    4.648689   -1.392965
     48          6           0        3.229567    3.437295   -0.791116
     49          6           0        4.317637    3.453266    0.006347
     50          6           0        5.012132    4.672694    0.558516
     51          6           0        4.801732    2.120745    0.585380
     52          6           0        5.953520    1.673165   -0.352577
     53          6           0        5.729203    0.203242   -0.729194
     54          6           0        6.936308   -0.355224   -1.557199
     55          6           0        6.682750   -0.390449   -3.194407
     56          6           0        7.385255   -1.807590   -1.053025
     57          6           0        8.899958   -2.038475   -0.944138
     58          6           0        9.432506   -1.518323    0.479922
     59          6           0       10.410095   -2.477747    1.136819
     60          6           0        9.654165   -3.498688    1.980902
     61          6           0       11.475659   -1.724731    1.869308
     62          6           0       12.567499   -1.055172    0.976754
     63          6           0       14.003997   -1.310565    1.567936
     64          6           0       14.927184   -1.744950    0.438599
     65          6           0       15.347981   -0.606340   -0.525855
     66          6           0       16.161489   -2.511783    0.791694
     67          1           0       -3.680848   -0.139346   -4.233322
     68          1           0       -6.243384   -5.046614   -0.883583
     69          1           0       -5.530753   -1.962615    4.594068
     70          1           0       -3.694822    3.963510   -1.347430
     71          1           0       -2.697046    2.047196   -3.451404
     72          1           0       -4.240827    3.051852   -4.658379
     73          1           0       -4.587526    4.100042   -3.264248
     74          1           0       -5.499527    2.465640   -3.572150
     75          1           0       -1.053555    2.805477   -2.146625
     76          1           0       -1.423931    2.985461   -0.372431
     77          1           0       -1.347524    5.266359   -0.413819
     78          1           0       -2.066236    5.294446   -2.018450
     79          1           0       -3.236760   -3.583485   -5.484477
     80          1           0       -2.970242   -1.904994   -5.267549
     81          1           0       -4.356744   -2.200751   -6.106034
     82          1           0       -5.092487   -6.458511   -2.157096
     83          1           0       -5.784486   -7.284312   -3.692169
     84          1           0       -6.828725   -6.319168   -2.611509
     85          1           0       -5.592069   -5.518603    1.746501
     86          1           0       -7.005039   -3.859779    3.573023
     87          1           0       -7.965919   -6.188099    1.424126
     88          1           0       -8.244613   -4.627893    0.693229
     89          1           0       -8.473981   -4.916180    2.389392
     90          1           0       -5.358394   -5.879426    3.964112
     91          1           0       -5.537934   -4.563541    5.069536
     92          1           0       -3.350215   -3.872465    3.403979
     93          1           0       -3.226060   -5.688169    3.855894
     94          1           0       -3.276527   -4.420748    4.999757
     95          1           0       -5.656491    0.478742    5.999952
     96          1           0       -4.195148    1.617685    5.928910
     97          1           0       -3.960488   -0.054280    5.826602
     98          1           0       -2.643988    3.884591    1.412249
     99          1           0       -5.321110    7.120567    0.629367
    100          1           0       -5.047653    6.248978   -0.931936
    101          1           0       -3.840449    7.300690   -0.408381
    102          1           0        2.709221    5.581730   -0.918505
    103          1           0        2.714947    4.693125   -2.437374
    104          1           0        2.807164    2.493652   -1.138753
    105          1           0        5.093892    4.642797    1.644792
    106          1           0        4.645691    5.659910    0.279325
    107          1           0        6.037971    4.639102    0.190802
    108          1           0        4.047811    1.370079    0.347097
    109          1           0        5.128379    2.239788    1.617981
    110          1           0        6.853100    1.737951    0.259617
    111          1           0        6.124294    2.127446   -1.329639
    112          1           0        4.866561    0.059482   -1.379135
    113          1           0        5.522484   -0.389170    0.161609
    114          1           0        7.824737    0.276048   -1.571885
    115          1           0        7.487367    0.138066   -3.705820
    116          1           0        5.702492    0.015377   -3.446306
    117          1           0        6.714338   -1.375839   -3.659303
    118          1           0        7.027066   -2.611841   -1.696358
    119          1           0        6.923027   -1.980560   -0.081888
    120          1           0        9.294178   -1.427123   -1.755994
    121          1           0        9.035789   -3.113696   -1.061032
    122          1           0        8.572847   -1.511678    1.148945
    123          1           0        9.904756   -0.543536    0.358709
    124          1           0       10.854285   -3.158416    0.409890
    125          1           0        9.668020   -3.188742    3.025933
    126          1           0       10.185349   -4.449458    1.938284
    127          1           0        8.585102   -3.578010    1.787365
    128          1           0       11.928341   -2.370349    2.622032
    129          1           0       10.906148   -0.914726    2.325372
    130          1           0       12.439037    0.004114    1.200352
    131          1           0       12.361168   -1.313225   -0.062518
    132          1           0       13.886047   -2.083538    2.327426
    133          1           0       14.391663   -0.490042    2.171177
    134          1           0       14.498457   -2.433132   -0.289478
    135          1           0       15.947432   -0.887139   -1.392331
    136          1           0       16.065916   -0.014387    0.042314
    137          1           0       14.491989   -0.102183   -0.974953
    138          1           0       17.039702   -2.174508    0.241455
    139          1           0       16.280950   -3.543839    0.464353
    140          1           0       16.143046   -2.482859    1.881773
 ---------------------------------------------------------------------
 Rotational constants (GHZ):           0.0317455           0.0112110           0.0100865
 Leave Link  202 at Thu Apr 28 10:46:48 2022, MaxMem= 10066329600 cpu:               0.2 elap:               0.0
 (Enter /sw/apps/gaussian-16.0/g16/l301.exe)
 Standard basis: def2SVP (5D, 7F)
 Ernie: Thresh=  0.10000D-02 Tol=  0.10000D-05 Strict=F.
 There are  1364 symmetry adapted cartesian basis functions of A   symmetry.
 There are  1298 symmetry adapted basis functions of A   symmetry.
  1298 basis functions,  2180 primitive gaussians,  1364 cartesian basis functions
   246 alpha electrons      246 beta electrons
       nuclear repulsion energy      9559.0011670988 Hartrees.
 IExCor= 1009 DFT=T Ex+Corr=PBE1PBE ExCW=0 ScaHFX=  0.250000
 ScaDFX=  0.750000  0.750000  1.000000  1.000000 ScalE2=  1.000000  1.000000
 IRadAn=      5 IRanWt=     -1 IRanGd=            0 ICorTp=0 IEmpDi=  4
 NAtoms=  140 NActive=  140 NUniq=  140 SFac= 1.00D+00 NAtFMM=   60 NAOKFM=T Big=T
 Integral buffers will be    131072 words long.
 Regular integral format.
 Two-electron integral symmetry is turned on.
 Leave Link  301 at Thu Apr 28 10:46:48 2022, MaxMem= 10066329600 cpu:               1.4 elap:               0.1
 (Enter /sw/apps/gaussian-16.0/g16/l302.exe)
 NPDir=0 NMtPBC=     1 NCelOv=     1 NCel=       1 NClECP=     1 NCelD=      1
         NCelK=      1 NCelE2=     1 NClLst=     1 CellRange=     0.0.
 One-electron integrals computed using PRISM.
 One-electron integral symmetry used in STVInt
   1 Symmetry operations used in ECPInt.
 ECPInt:  NShTT=  192510 NPrTT=  683786 LenC2=   95251 LenP2D=  206696.
 LDataN:  DoStor=T MaxTD1= 4 Len=   56
 NBasis=  1298 RedAO= T EigKep=  3.15D-04  NBF=  1298
 NBsUse=  1298 1.00D-06 EigRej= -1.00D+00 NBFU=  1298
 Precomputing XC quadrature grid using
 IXCGrd= 4 IRadAn=           5 IRanWt=          -1 IRanGd=           0 AccXCQ= 0.00D+00.
 Generated NRdTot=       0 NPtTot=           0 NUsed=           0 NTot=          32
 NSgBfM=   971   957   957   961   971 MxSgAt=   140 MxSgA2=   140.
 Leave Link  302 at Thu Apr 28 10:46:51 2022, MaxMem= 10066329600 cpu:              77.7 elap:               3.3
 (Enter /sw/apps/gaussian-16.0/g16/l303.exe)
 DipDrv:  MaxL=1.
 Leave Link  303 at Thu Apr 28 10:46:52 2022, MaxMem= 10066329600 cpu:               7.1 elap:               0.3
 (Enter /sw/apps/gaussian-16.0/g16/l308.exe)
 Leave Link  308 at Thu Apr 28 10:46:52 2022, MaxMem= 10066329600 cpu:               8.8 elap:               0.4
 (Enter /sw/apps/gaussian-16.0/g16/l401.exe)
 ExpMin= 3.36D-02 ExpMax= 4.95D+03 ExpMxC= 7.45D+02 IAcc=3 IRadAn=         5 AccDes= 0.00D+00
 Harris functional with IExCor= 1009 and IRadAn=       5 diagonalized for initial guess.
 HarFok:  IExCor= 1009 AccDes= 0.00D+00 IRadAn=         5 IDoV= 1 UseB2=F ITyADJ=14
 ICtDFT=  3500011 ScaDFX=  1.000000  1.000000  1.000000  1.000000
 FoFCou: FMM=F IPFlag=           0 FMFlag=      100000 FMFlg1=        2001
         NFxFlg=           0 DoJE=T BraDBF=F KetDBF=T FulRan=T
         wScrn=  0.000000 ICntrl=       500 IOpCl=  0 I1Cent=   200000004 NGrid=           0
         NMat0=    1 NMatS0=      1 NMatT0=    0 NMatD0=    1 NMtDS0=    0 NMtDT0=    0
 Petite list used in FoFCou.
 Harris En= -3006.12195190383    
 JPrj=0 DoOrth=F DoCkMO=F.
 Leave Link  401 at Thu Apr 28 10:46:58 2022, MaxMem= 10066329600 cpu:             132.0 elap:               5.5
 (Enter /sw/apps/gaussian-16.0/g16/l502.exe)
 Integral symmetry usage will be decided dynamically.
 Closed shell SCF:
 Using DIIS extrapolation, IDIIS=  1040.
 NGot= 10066329600 LenX= 10062561258 LenY= 10060699398
 Requested convergence on RMS density matrix=1.00D-08 within 128 cycles.
 Requested convergence on MAX density matrix=1.00D-06.
 Requested convergence on             energy=1.00D-06.
 No special actions if energy rises.
 Fock matrices will be formed incrementally for  20 cycles.

 Cycle   1  Pass 1  IDiag  1:
 FoFJK:  IHMeth= 1 ICntrl=       0 DoSepK=F KAlg= 0 I1Cent=           0 FoldK=F
 IRaf= 510000000 NMat=       1 IRICut=       1 DoRegI=T DoRafI=F ISym2E= 0 IDoP0=0 IntGTp=1.
 FoFCou: FMM=T IPFlag=           0 FMFlag=      100000 FMFlg1=        2001
         NFxFlg=           0 DoJE=F BraDBF=F KetDBF=F FulRan=T
         wScrn=  0.000000 ICntrl=         0 IOpCl=  0 I1Cent=           0 NGrid=           0
         NMat0=    1 NMatS0=      1 NMatT0=    0 NMatD0=    1 NMtDS0=    0 NMtDT0=    0
 Symmetry not used in FoFCou.
 FMM levels:  10  Number of levels for PrismC:   9
 E= -3003.75932356341    
 DIIS: error= 1.62D-02 at cycle   1 NSaved=   1.
 NSaved= 1 IEnMin= 1 EnMin= -3003.75932356341     IErMin= 1 ErrMin= 1.62D-02
 ErrMax= 1.62D-02  0.00D+00 EMaxC= 1.00D-01 BMatC= 1.48D+00 BMatP= 1.48D+00
 IDIUse=3 WtCom= 8.38D-01 WtEn= 1.62D-01
 Coeff-Com:  0.100D+01
 Coeff-En:   0.100D+01
 Coeff:      0.100D+01
 Gap=     0.062 Goal=   None    Shift=    0.000
 GapD=    0.062 DampG=0.500 DampE=0.500 DampFc=0.2500 IDamp=-1.
 Damping current iteration by 2.50D-01
 RMSDP=2.82D-03 MaxDP=6.61D-01              OVMax= 5.05D-01

 Cycle   2  Pass 1  IDiag  1:
 RMSU=  6.99D-04    CP:  9.90D-01
 E= -3004.31331145874     Delta-E=       -0.553987895328 Rises=F Damp=T
 DIIS: error= 8.54D-03 at cycle   2 NSaved=   2.
 NSaved= 2 IEnMin= 2 EnMin= -3004.31331145874     IErMin= 2 ErrMin= 8.54D-03
 ErrMax= 8.54D-03  0.00D+00 EMaxC= 1.00D-01 BMatC= 3.63D-01 BMatP= 1.48D+00
 IDIUse=3 WtCom= 9.15D-01 WtEn= 8.54D-02
 Coeff-Com: -0.737D+00 0.174D+01
 Coeff-En:   0.000D+00 0.100D+01
 Coeff:     -0.674D+00 0.167D+01
 Gap=     0.155 Goal=   None    Shift=    0.000
 RMSDP=1.06D-03 MaxDP=6.38D-02 DE=-5.54D-01 OVMax= 4.19D-01

 Cycle   3  Pass 1  IDiag  1:
 RMSU=  9.55D-04    CP:  9.65D-01  1.56D+00
 E= -3005.06408036741     Delta-E=       -0.750768908669 Rises=F Damp=F
 DIIS: error= 1.27D-02 at cycle   3 NSaved=   3.
 NSaved= 3 IEnMin= 3 EnMin= -3005.06408036741     IErMin= 2 ErrMin= 8.54D-03
 ErrMax= 1.27D-02  0.00D+00 EMaxC= 1.00D-01 BMatC= 2.33D-01 BMatP= 3.63D-01
 IDIUse=3 WtCom= 8.73D-01 WtEn= 1.27D-01
 Coeff-Com: -0.511D+00 0.110D+01 0.413D+00
 Coeff-En:   0.000D+00 0.000D+00 0.100D+01
 Coeff:     -0.446D+00 0.958D+00 0.488D+00
 Gap=     0.071 Goal=   None    Shift=    0.000
 RMSDP=8.32D-04 MaxDP=6.88D-02 DE=-7.51D-01 OVMax= 5.20D-01

 Cycle   4  Pass 1  IDiag  1:
 RMSU=  5.23D-04    CP:  9.70D-01  1.91D+00  3.76D-01
 E= -3005.20562964680     Delta-E=       -0.141549279388 Rises=F Damp=F
 DIIS: error= 9.54D-03 at cycle   4 NSaved=   4.
 NSaved= 4 IEnMin= 4 EnMin= -3005.20562964680     IErMin= 2 ErrMin= 8.54D-03
 ErrMax= 9.54D-03  0.00D+00 EMaxC= 1.00D-01 BMatC= 8.31D-02 BMatP= 2.33D-01
 IDIUse=3 WtCom= 9.05D-01 WtEn= 9.54D-02
 Coeff-Com: -0.183D+00 0.396D+00 0.356D+00 0.430D+00
 Coeff-En:   0.000D+00 0.000D+00 0.353D+00 0.647D+00
 Coeff:     -0.165D+00 0.358D+00 0.356D+00 0.451D+00
 Gap=     0.062 Goal=   None    Shift=    0.000
 RMSDP=5.07D-04 MaxDP=4.22D-02 DE=-1.42D-01 OVMax= 3.82D-01

 Cycle   5  Pass 1  IDiag  1:
 RMSU=  2.41D-04    CP:  9.70D-01  1.75D+00  6.58D-01  3.56D-01
 E= -3005.29011399988     Delta-E=       -0.084484353079 Rises=F Damp=F
 DIIS: error= 5.50D-03 at cycle   5 NSaved=   5.
 NSaved= 5 IEnMin= 5 EnMin= -3005.29011399988     IErMin= 5 ErrMin= 5.50D-03
 ErrMax= 5.50D-03  0.00D+00 EMaxC= 1.00D-01 BMatC= 2.04D-02 BMatP= 8.31D-02
 IDIUse=3 WtCom= 9.45D-01 WtEn= 5.50D-02
 Coeff-Com: -0.371D-01 0.848D-01 0.205D+00 0.374D+00 0.373D+00
 Coeff-En:   0.000D+00 0.000D+00 0.000D+00 0.253D+00 0.747D+00
 Coeff:     -0.350D-01 0.801D-01 0.194D+00 0.367D+00 0.393D+00
 Gap=     0.069 Goal=   None    Shift=    0.000
 RMSDP=2.21D-04 MaxDP=2.59D-02 DE=-8.45D-02 OVMax= 1.65D-01

 Cycle   6  Pass 1  IDiag  1:
 RMSU=  9.01D-05    CP:  9.69D-01  1.75D+00  6.00D-01  5.86D-01  3.70D-01
 E= -3005.31742670521     Delta-E=       -0.027312705331 Rises=F Damp=F
 DIIS: error= 1.15D-03 at cycle   6 NSaved=   6.
 NSaved= 6 IEnMin= 6 EnMin= -3005.31742670521     IErMin= 6 ErrMin= 1.15D-03
 ErrMax= 1.15D-03  0.00D+00 EMaxC= 1.00D-01 BMatC= 1.29D-03 BMatP= 2.04D-02
 IDIUse=3 WtCom= 9.88D-01 WtEn= 1.15D-02
 Coeff-Com:  0.292D-02-0.552D-02 0.401D-01 0.117D+00 0.229D+00 0.616D+00
 Coeff-En:   0.000D+00 0.000D+00 0.000D+00 0.000D+00 0.434D-01 0.957D+00
 Coeff:      0.288D-02-0.545D-02 0.396D-01 0.116D+00 0.227D+00 0.620D+00
 Gap=     0.073 Goal=   None    Shift=    0.000
 RMSDP=6.13D-05 MaxDP=5.99D-03 DE=-2.73D-02 OVMax= 3.66D-02

 Cycle   7  Pass 1  IDiag  1:
 RMSU=  4.25D-05    CP:  9.69D-01  1.75D+00  6.05D-01  5.61D-01  5.17D-01
                    CP:  7.50D-01
 E= -3005.31845783887     Delta-E=       -0.001031133661 Rises=F Damp=F
 DIIS: error= 5.35D-04 at cycle   7 NSaved=   7.
 NSaved= 7 IEnMin= 7 EnMin= -3005.31845783887     IErMin= 7 ErrMin= 5.35D-04
 ErrMax= 5.35D-04  0.00D+00 EMaxC= 1.00D-01 BMatC= 3.71D-04 BMatP= 1.29D-03
 IDIUse=3 WtCom= 9.95D-01 WtEn= 5.35D-03
 Coeff-Com:  0.438D-02-0.991D-02-0.117D-02 0.242D-01 0.948D-01 0.428D+00
 Coeff-Com:  0.460D+00
 Coeff-En:   0.000D+00 0.000D+00 0.000D+00 0.000D+00 0.000D+00 0.260D+00
 Coeff-En:   0.740D+00
 Coeff:      0.435D-02-0.986D-02-0.116D-02 0.241D-01 0.943D-01 0.427D+00
 Coeff:      0.462D+00
 Gap=     0.074 Goal=   None    Shift=    0.000
 RMSDP=3.16D-05 MaxDP=3.90D-03 DE=-1.03D-03 OVMax= 1.49D-02

 Cycle   8  Pass 1  IDiag  1:
 RMSU=  1.51D-05    CP:  9.69D-01  1.76D+00  6.06D-01  5.66D-01  4.86D-01
                    CP:  8.36D-01  4.00D-01
 E= -3005.31884389908     Delta-E=       -0.000386060206 Rises=F Damp=F
 DIIS: error= 1.81D-04 at cycle   8 NSaved=   8.
 NSaved= 8 IEnMin= 8 EnMin= -3005.31884389908     IErMin= 8 ErrMin= 1.81D-04
 ErrMax= 1.81D-04  0.00D+00 EMaxC= 1.00D-01 BMatC= 5.78D-05 BMatP= 3.71D-04
 IDIUse=3 WtCom= 9.98D-01 WtEn= 1.81D-03
 Coeff-Com:  0.168D-02-0.416D-02-0.579D-02 0.723D-03 0.339D-01 0.214D+00
 Coeff-Com:  0.328D+00 0.432D+00
 Coeff-En:   0.000D+00 0.000D+00 0.000D+00 0.000D+00 0.000D+00 0.000D+00
 Coeff-En:   0.154D+00 0.846D+00
 Coeff:      0.168D-02-0.416D-02-0.578D-02 0.722D-03 0.339D-01 0.214D+00
 Coeff:      0.328D+00 0.432D+00
 Gap=     0.074 Goal=   None    Shift=    0.000
 RMSDP=1.16D-05 MaxDP=1.09D-03 DE=-3.86D-04 OVMax= 6.33D-03

 Cycle   9  Pass 1  IDiag  1:
 RMSU=  5.49D-06    CP:  9.69D-01  1.76D+00  6.05D-01  5.67D-01  4.96D-01
                    CP:  8.31D-01  5.49D-01  4.99D-01
 E= -3005.31891155937     Delta-E=       -0.000067660292 Rises=F Damp=F
 DIIS: error= 4.66D-05 at cycle   9 NSaved=   9.
 NSaved= 9 IEnMin= 9 EnMin= -3005.31891155937     IErMin= 9 ErrMin= 4.66D-05
 ErrMax= 4.66D-05  0.00D+00 EMaxC= 1.00D-01 BMatC= 5.29D-06 BMatP= 5.78D-05
 IDIUse=1 WtCom= 1.00D+00 WtEn= 0.00D+00
 Coeff-Com:  0.323D-03-0.966D-03-0.365D-02-0.292D-02 0.918D-02 0.850D-01
 Coeff-Com:  0.161D+00 0.282D+00 0.470D+00
 Coeff:      0.323D-03-0.966D-03-0.365D-02-0.292D-02 0.918D-02 0.850D-01
 Coeff:      0.161D+00 0.282D+00 0.470D+00
 Gap=     0.074 Goal=   None    Shift=    0.000
 RMSDP=3.48D-06 MaxDP=5.73D-04 DE=-6.77D-05 OVMax= 1.94D-03

 Cycle  10  Pass 1  IDiag  1:
 RMSU=  2.54D-06    CP:  9.69D-01  1.75D+00  6.05D-01  5.66D-01  4.96D-01
                    CP:  8.38D-01  5.46D-01  5.85D-01  6.76D-01
 E= -3005.31891674646     Delta-E=       -0.000005187094 Rises=F Damp=F
 DIIS: error= 1.73D-05 at cycle  10 NSaved=  10.
 NSaved=10 IEnMin=10 EnMin= -3005.31891674646     IErMin=10 ErrMin= 1.73D-05
 ErrMax= 1.73D-05  0.00D+00 EMaxC= 1.00D-01 BMatC= 8.21D-07 BMatP= 5.29D-06
 IDIUse=1 WtCom= 1.00D+00 WtEn= 0.00D+00
 Coeff-Com: -0.112D-03 0.180D-03-0.132D-02-0.193D-02-0.707D-03 0.166D-01
 Coeff-Com:  0.485D-01 0.109D+00 0.307D+00 0.523D+00
 Coeff:     -0.112D-03 0.180D-03-0.132D-02-0.193D-02-0.707D-03 0.166D-01
 Coeff:      0.485D-01 0.109D+00 0.307D+00 0.523D+00
 Gap=     0.074 Goal=   None    Shift=    0.000
 RMSDP=1.33D-06 MaxDP=1.22D-04 DE=-5.19D-06 OVMax= 5.64D-04

 Cycle  11  Pass 1  IDiag  1:
 RMSU=  7.98D-07    CP:  9.69D-01  1.75D+00  6.05D-01  5.66D-01  4.96D-01
                    CP:  8.39D-01  5.50D-01  5.83D-01  8.04D-01  6.96D-01
 E= -3005.31891768628     Delta-E=       -0.000000939817 Rises=F Damp=F
 DIIS: error= 9.28D-06 at cycle  11 NSaved=  11.
 NSaved=11 IEnMin=11 EnMin= -3005.31891768628     IErMin=11 ErrMin= 9.28D-06
 ErrMax= 9.28D-06  0.00D+00 EMaxC= 1.00D-01 BMatC= 1.35D-07 BMatP= 8.21D-07
 IDIUse=1 WtCom= 1.00D+00 WtEn= 0.00D+00
 Coeff-Com: -0.104D-03 0.232D-03-0.285D-03-0.694D-03-0.241D-02-0.398D-02
 Coeff-Com:  0.421D-02 0.213D-01 0.108D+00 0.326D+00 0.548D+00
 Coeff:     -0.104D-03 0.232D-03-0.285D-03-0.694D-03-0.241D-02-0.398D-02
 Coeff:      0.421D-02 0.213D-01 0.108D+00 0.326D+00 0.548D+00
 Gap=     0.074 Goal=   None    Shift=    0.000
 RMSDP=4.79D-07 MaxDP=3.70D-05 DE=-9.40D-07 OVMax= 2.06D-04

 Cycle  12  Pass 1  IDiag  1:
 RMSU=  3.11D-07    CP:  9.69D-01  1.75D+00  6.05D-01  5.66D-01  4.96D-01
                    CP:  8.39D-01  5.53D-01  5.97D-01  8.08D-01  7.80D-01
                    CP:  8.10D-01
 E= -3005.31891783796     Delta-E=       -0.000000151676 Rises=F Damp=F
 DIIS: error= 2.79D-06 at cycle  12 NSaved=  12.
 NSaved=12 IEnMin=12 EnMin= -3005.31891783796     IErMin=12 ErrMin= 2.79D-06
 ErrMax= 2.79D-06  0.00D+00 EMaxC= 1.00D-01 BMatC= 1.83D-08 BMatP= 1.35D-07
 IDIUse=1 WtCom= 1.00D+00 WtEn= 0.00D+00
 Coeff-Com: -0.204D-04 0.618D-04 0.341D-04 0.189D-04-0.138D-02-0.477D-02
 Coeff-Com: -0.535D-02-0.663D-02 0.457D-02 0.883D-01 0.286D+00 0.639D+00
 Coeff:     -0.204D-04 0.618D-04 0.341D-04 0.189D-04-0.138D-02-0.477D-02
 Coeff:     -0.535D-02-0.663D-02 0.457D-02 0.883D-01 0.286D+00 0.639D+00
 Gap=     0.074 Goal=   None    Shift=    0.000
 RMSDP=2.10D-07 MaxDP=3.40D-05 DE=-1.52D-07 OVMax= 7.03D-05

 Cycle  13  Pass 1  IDiag  1:
 RMSU=  1.39D-07    CP:  9.69D-01  1.75D+00  6.05D-01  5.66D-01  4.96D-01
                    CP:  8.40D-01  5.54D-01  5.98D-01  8.20D-01  8.05D-01
                    CP:  9.10D-01  7.98D-01
 E= -3005.31891785689     Delta-E=       -0.000000018936 Rises=F Damp=F
 DIIS: error= 1.86D-06 at cycle  13 NSaved=  13.
 NSaved=13 IEnMin=13 EnMin= -3005.31891785689     IErMin=13 ErrMin= 1.86D-06
 ErrMax= 1.86D-06  0.00D+00 EMaxC= 1.00D-01 BMatC= 5.07D-09 BMatP= 1.83D-08
 IDIUse=1 WtCom= 1.00D+00 WtEn= 0.00D+00
 Coeff-Com:  0.111D-05 0.642D-05 0.650D-04 0.150D-03-0.612D-03-0.257D-02
 Coeff-Com: -0.449D-02-0.816D-02-0.157D-01 0.287D-02 0.906D-01 0.413D+00
 Coeff-Com:  0.525D+00
 Coeff:      0.111D-05 0.642D-05 0.650D-04 0.150D-03-0.612D-03-0.257D-02
 Coeff:     -0.449D-02-0.816D-02-0.157D-01 0.287D-02 0.906D-01 0.413D+00
 Coeff:      0.525D+00
 Gap=     0.074 Goal=   None    Shift=    0.000
 RMSDP=8.72D-08 MaxDP=1.82D-05 DE=-1.89D-08 OVMax= 3.62D-05

 Cycle  14  Pass 1  IDiag  1:
 RMSU=  5.71D-08    CP:  9.69D-01  1.75D+00  6.05D-01  5.66D-01  4.96D-01
                    CP:  8.40D-01  5.54D-01  5.98D-01  8.25D-01  8.12D-01
                    CP:  9.25D-01  9.19D-01  8.12D-01
 E= -3005.31891786271     Delta-E=       -0.000000005823 Rises=F Damp=F
 DIIS: error= 5.61D-07 at cycle  14 NSaved=  14.
 NSaved=14 IEnMin=14 EnMin= -3005.31891786271     IErMin=14 ErrMin= 5.61D-07
 ErrMax= 5.61D-07  0.00D+00 EMaxC= 1.00D-01 BMatC= 5.98D-10 BMatP= 5.07D-09
 IDIUse=1 WtCom= 1.00D+00 WtEn= 0.00D+00
 Coeff-Com:  0.231D-05-0.382D-05 0.260D-04 0.910D-04-0.182D-03-0.669D-03
 Coeff-Com: -0.173D-02-0.334D-02-0.868D-02-0.101D-01 0.924D-02 0.136D+00
 Coeff-Com:  0.264D+00 0.616D+00
 Coeff:      0.231D-05-0.382D-05 0.260D-04 0.910D-04-0.182D-03-0.669D-03
 Coeff:     -0.173D-02-0.334D-02-0.868D-02-0.101D-01 0.924D-02 0.136D+00
 Coeff:      0.264D+00 0.616D+00
 Gap=     0.074 Goal=   None    Shift=    0.000
 RMSDP=3.21D-08 MaxDP=2.89D-06 DE=-5.82D-09 OVMax= 1.46D-05

 Cycle  15  Pass 1  IDiag  1:
 RMSU=  2.17D-08    CP:  9.69D-01  1.75D+00  6.05D-01  5.66D-01  4.96D-01
                    CP:  8.40D-01  5.54D-01  5.99D-01  8.25D-01  8.14D-01
                    CP:  9.35D-01  9.53D-01  9.14D-01  1.04D+00
 E= -3005.31891786347     Delta-E=       -0.000000000753 Rises=F Damp=F
 DIIS: error= 3.12D-07 at cycle  15 NSaved=  15.
 NSaved=15 IEnMin=15 EnMin= -3005.31891786347     IErMin=15 ErrMin= 3.12D-07
 ErrMax= 3.12D-07  0.00D+00 EMaxC= 1.00D-01 BMatC= 1.39D-10 BMatP= 5.98D-10
 IDIUse=1 WtCom= 1.00D+00 WtEn= 0.00D+00
 Coeff-Com: -0.658D-06-0.636D-06-0.134D-05 0.249D-04 0.432D-05 0.206D-03
 Coeff-Com: -0.341D-04 0.328D-04-0.101D-02-0.540D-02-0.129D-01-0.870D-02
 Coeff-Com:  0.286D-01 0.337D+00 0.662D+00
 Coeff:     -0.658D-06-0.636D-06-0.134D-05 0.249D-04 0.432D-05 0.206D-03
 Coeff:     -0.341D-04 0.328D-04-0.101D-02-0.540D-02-0.129D-01-0.870D-02
 Coeff:      0.286D-01 0.337D+00 0.662D+00
 Gap=     0.074 Goal=   None    Shift=    0.000
 RMSDP=1.65D-08 MaxDP=1.79D-06 DE=-7.53D-10 OVMax= 8.15D-06

 Cycle  16  Pass 1  IDiag  1:
 RMSU=  9.34D-09    CP:  9.69D-01  1.75D+00  6.05D-01  5.66D-01  4.96D-01
                    CP:  8.40D-01  5.54D-01  5.99D-01  8.25D-01  8.14D-01
                    CP:  9.41D-01  9.71D-01  9.56D-01  1.18D+00  8.71D-01
 E= -3005.31891786369     Delta-E=       -0.000000000227 Rises=F Damp=F
 DIIS: error= 1.34D-07 at cycle  16 NSaved=  16.
 NSaved=16 IEnMin=16 EnMin= -3005.31891786369     IErMin=16 ErrMin= 1.34D-07
 ErrMax= 1.34D-07  0.00D+00 EMaxC= 1.00D-01 BMatC= 2.50D-11 BMatP= 1.39D-10
 IDIUse=1 WtCom= 1.00D+00 WtEn= 0.00D+00
 Coeff-Com: -0.140D-05 0.122D-05-0.663D-05-0.364D-06 0.274D-04 0.254D-03
 Coeff-Com:  0.280D-03 0.672D-03 0.115D-02-0.104D-02-0.871D-02-0.286D-01
 Coeff-Com: -0.341D-01 0.772D-01 0.364D+00 0.629D+00
 Coeff:     -0.140D-05 0.122D-05-0.663D-05-0.364D-06 0.274D-04 0.254D-03
 Coeff:      0.280D-03 0.672D-03 0.115D-02-0.104D-02-0.871D-02-0.286D-01
 Coeff:     -0.341D-01 0.772D-01 0.364D+00 0.629D+00
 Gap=     0.074 Goal=   None    Shift=    0.000
 RMSDP=7.85D-09 MaxDP=5.24D-07 DE=-2.27D-10 OVMax= 3.90D-06

 SCF Done:  E(RPBE1PBE) =  -3005.31891786     A.U. after   16 cycles
            NFock= 16  Conv=0.79D-08     -V/T= 2.0102
 KE= 2.974868419909D+03 PE=-2.610773295743D+04 EE= 1.056854445256D+04
 Leave Link  502 at Thu Apr 28 10:51:35 2022, MaxMem= 10066329600 cpu:            6610.1 elap:             277.3
 (Enter /sw/apps/gaussian-16.0/g16/l801.exe)
 DoSCS=F DFT=T ScalE2(SS,OS)=  1.000000  1.000000
 ExpMin= 3.36D-02 ExpMax= 4.95D+03 ExpMxC= 7.45D+02 IAcc=3 IRadAn=         5 AccDes= 0.00D+00
 HarFok:  IExCor=  205 AccDes= 0.00D+00 IRadAn=         5 IDoV=-2 UseB2=F ITyADJ=14
 ICtDFT= 12500011 ScaDFX=  1.000000  1.000000  1.000000  1.000000
 GSVD:  LWork=       -5460 too small for GESVD, short by       25550 words or       25550 for optimal perf.
 Largest valence mixing into a core orbital is  1.11D-04
 Largest core mixing into a valence orbital is  5.37D-05
 Range of M.O.s used for correlation:    71  1298
 NBasis=  1298 NAE=   246 NBE=   246 NFC=    70 NFV=     0
 NROrb=   1228 NOA=   176 NOB=   176 NVA=  1052 NVB=  1052

 **** Warning!!: The smallest alpha delta epsilon is  0.74177642D-01

 Leave Link  801 at Thu Apr 28 10:51:35 2022, MaxMem= 10066329600 cpu:               6.6 elap:               0.3
 (Enter /sw/apps/gaussian-16.0/g16/l914.exe)
 RHF ground state
 Two-electron integrals replicated using symmetry.
 MDV= 10066329600 DFT=T DoStab=F Mixed=T DoRPA=T DoScal=F NonHer=T
 Making orbital integer symmetry assigments:
 Orbital symmetries:
       Occupied  (A) (A) (A) (A) (A) (A) (A) (A) (A) (A) (A) (A)
                 (A) (A) (A) (A) (A) (A) (A) (A) (A) (A) (A) (A)
                 (A) (A) (A) (A) (A) (A) (A) (A) (A) (A) (A) (A)
                 (A) (A) (A) (A) (A) (A) (A) (A) (A) (A) (A) (A)
                 (A) (A) (A) (A) (A) (A) (A) (A) (A) (A) (A) (A)
                 (A) (A) (A) (A) (A) (A) (A) (A) (A) (A) (A) (A)
                 (A) (A) (A) (A) (A) (A) (A) (A) (A) (A) (A) (A)
                 (A) (A) (A) (A) (A) (A) (A) (A) (A) (A) (A) (A)
                 (A) (A) (A) (A) (A) (A) (A) (A) (A) (A) (A) (A)
                 (A) (A) (A) (A) (A) (A) (A) (A) (A) (A) (A) (A)
                 (A) (A) (A) (A) (A) (A) (A) (A) (A) (A) (A) (A)
                 (A) (A) (A) (A) (A) (A) (A) (A) (A) (A) (A) (A)
                 (A) (A) (A) (A) (A) (A) (A) (A) (A) (A) (A) (A)
                 (A) (A) (A) (A) (A) (A) (A) (A) (A) (A) (A) (A)
                 (A) (A) (A) (A) (A) (A) (A) (A) (A) (A) (A) (A)
                 (A) (A) (A) (A) (A) (A) (A) (A) (A) (A) (A) (A)
                 (A) (A) (A) (A) (A) (A) (A) (A) (A) (A) (A) (A)
                 (A) (A) (A) (A) (A) (A) (A) (A) (A) (A) (A) (A)
                 (A) (A) (A) (A) (A) (A) (A) (A) (A) (A) (A) (A)
                 (A) (A) (A) (A) (A) (A) (A) (A) (A) (A) (A) (A)
                 (A) (A) (A) (A) (A) (A)
       Virtual   (A) (A) (A) (A) (A) (A) (A) (A) (A) (A) (A) (A)
                 (A) (A) (A) (A) (A) (A) (A) (A) (A) (A) (A) (A)
                 (A) (A) (A) (A) (A) (A) (A) (A) (A) (A) (A) (A)
                 (A) (A) (A) (A) (A) (A) (A) (A) (A) (A) (A) (A)
                 (A) (A) (A) (A) (A) (A) (A) (A) (A) (A) (A) (A)
                 (A) (A) (A) (A) (A) (A) (A) (A) (A) (A) (A) (A)
                 (A) (A) (A) (A) (A) (A) (A) (A) (A) (A) (A) (A)
                 (A) (A) (A) (A) (A) (A) (A) (A) (A) (A) (A) (A)
                 (A) (A) (A) (A) (A) (A) (A) (A) (A) (A) (A) (A)
                 (A) (A) (A) (A) (A) (A) (A) (A) (A) (A) (A) (A)
                 (A) (A) (A) (A) (A) (A) (A) (A) (A) (A) (A) (A)
                 (A) (A) (A) (A) (A) (A) (A) (A) (A) (A) (A) (A)
                 (A) (A) (A) (A) (A) (A) (A) (A) (A) (A) (A) (A)
                 (A) (A) (A) (A) (A) (A) (A) (A) (A) (A) (A) (A)
                 (A) (A) (A) (A) (A) (A) (A) (A) (A) (A) (A) (A)
                 (A) (A) (A) (A) (A) (A) (A) (A) (A) (A) (A) (A)
                 (A) (A) (A) (A) (A) (A) (A) (A) (A) (A) (A) (A)
                 (A) (A) (A) (A) (A) (A) (A) (A) (A) (A) (A) (A)
                 (A) (A) (A) (A) (A) (A) (A) (A) (A) (A) (A) (A)
                 (A) (A) (A) (A) (A) (A) (A) (A) (A) (A) (A) (A)
                 (A) (A) (A) (A) (A) (A) (A) (A) (A) (A) (A) (A)
                 (A) (A) (A) (A) (A) (A) (A) (A) (A) (A) (A) (A)
                 (A) (A) (A) (A) (A) (A) (A) (A) (A) (A) (A) (A)
                 (A) (A) (A) (A) (A) (A) (A) (A) (A) (A) (A) (A)
                 (A) (A) (A) (A) (A) (A) (A) (A) (A) (A) (A) (A)
                 (A) (A) (A) (A) (A) (A) (A) (A) (A) (A) (A) (A)
                 (A) (A) (A) (A) (A) (A) (A) (A) (A) (A) (A) (A)
                 (A) (A) (A) (A) (A) (A) (A) (A) (A) (A) (A) (A)
                 (A) (A) (A) (A) (A) (A) (A) (A) (A) (A) (A) (A)
                 (A) (A) (A) (A) (A) (A) (A) (A) (A) (A) (A) (A)
                 (A) (A) (A) (A) (A) (A) (A) (A) (A) (A) (A) (A)
                 (A) (A) (A) (A) (A) (A) (A) (A) (A) (A) (A) (A)
                 (A) (A) (A) (A) (A) (A) (A) (A) (A) (A) (A) (A)
                 (A) (A) (A) (A) (A) (A) (A) (A) (A) (A) (A) (A)
                 (A) (A) (A) (A) (A) (A) (A) (A) (A) (A) (A) (A)
                 (A) (A) (A) (A) (A) (A) (A) (A) (A) (A) (A) (A)
                 (A) (A) (A) (A) (A) (A) (A) (A) (A) (A) (A) (A)
                 (A) (A) (A) (A) (A) (A) (A) (A) (A) (A) (A) (A)
                 (A) (A) (A) (A) (A) (A) (A) (A) (A) (A) (A) (A)
                 (A) (A) (A) (A) (A) (A) (A) (A) (A) (A) (A) (A)
                 (A) (A) (A) (A) (A) (A) (A) (A) (A) (A) (A) (A)
                 (A) (A) (A) (A) (A) (A) (A) (A) (A) (A) (A) (A)
                 (A) (A) (A) (A) (A) (A) (A) (A) (A) (A) (A) (A)
                 (A) (A) (A) (A) (A) (A) (A) (A) (A) (A) (A) (A)
                 (A) (A) (A) (A) (A) (A) (A) (A) (A) (A) (A) (A)
                 (A) (A) (A) (A) (A) (A) (A) (A) (A) (A) (A) (A)
                 (A) (A) (A) (A) (A) (A) (A) (A) (A) (A) (A) (A)
                 (A) (A) (A) (A) (A) (A) (A) (A) (A) (A) (A) (A)
                 (A) (A) (A) (A) (A) (A) (A) (A) (A) (A) (A) (A)
                 (A) (A) (A) (A) (A) (A) (A) (A) (A) (A) (A) (A)
                 (A) (A) (A) (A) (A) (A) (A) (A) (A) (A) (A) (A)
                 (A) (A) (A) (A) (A) (A) (A) (A) (A) (A) (A) (A)
                 (A) (A) (A) (A) (A) (A) (A) (A) (A) (A) (A) (A)
                 (A) (A) (A) (A) (A) (A) (A) (A) (A) (A) (A) (A)
                 (A) (A) (A) (A) (A) (A) (A) (A) (A) (A) (A) (A)
                 (A) (A) (A) (A) (A) (A) (A) (A) (A) (A) (A) (A)
                 (A) (A) (A) (A) (A) (A) (A) (A) (A) (A) (A) (A)
                 (A) (A) (A) (A) (A) (A) (A) (A) (A) (A) (A) (A)
                 (A) (A) (A) (A) (A) (A) (A) (A) (A) (A) (A) (A)
                 (A) (A) (A) (A) (A) (A) (A) (A) (A) (A) (A) (A)
                 (A) (A) (A) (A) (A) (A) (A) (A) (A) (A) (A) (A)
                 (A) (A) (A) (A) (A) (A) (A) (A) (A) (A) (A) (A)
                 (A) (A) (A) (A) (A) (A) (A) (A) (A) (A) (A) (A)
                 (A) (A) (A) (A) (A) (A) (A) (A) (A) (A) (A) (A)
                 (A) (A) (A) (A) (A) (A) (A) (A) (A) (A) (A) (A)
                 (A) (A) (A) (A) (A) (A) (A) (A) (A) (A) (A) (A)
                 (A) (A) (A) (A) (A) (A) (A) (A) (A) (A) (A) (A)
                 (A) (A) (A) (A) (A) (A) (A) (A) (A) (A) (A) (A)
                 (A) (A) (A) (A) (A) (A) (A) (A) (A) (A) (A) (A)
                 (A) (A) (A) (A) (A) (A) (A) (A) (A) (A) (A) (A)
                 (A) (A) (A) (A) (A) (A) (A) (A) (A) (A) (A) (A)
                 (A) (A) (A) (A) (A) (A) (A) (A) (A) (A) (A) (A)
                 (A) (A) (A) (A) (A) (A) (A) (A) (A) (A) (A) (A)
                 (A) (A) (A) (A) (A) (A) (A) (A) (A) (A) (A) (A)
                 (A) (A) (A) (A) (A) (A) (A) (A) (A) (A) (A) (A)
                 (A) (A) (A) (A) (A) (A) (A) (A) (A) (A) (A) (A)
                 (A) (A) (A) (A) (A) (A) (A) (A) (A) (A) (A) (A)
                 (A) (A) (A) (A) (A) (A) (A) (A) (A) (A) (A) (A)
                 (A) (A) (A) (A) (A) (A) (A) (A) (A) (A) (A) (A)
                 (A) (A) (A) (A) (A) (A) (A) (A) (A) (A) (A) (A)
                 (A) (A) (A) (A) (A) (A) (A) (A) (A) (A) (A) (A)
                 (A) (A) (A) (A) (A) (A) (A) (A) (A) (A) (A) (A)
                 (A) (A) (A) (A) (A) (A) (A) (A) (A) (A) (A) (A)
                 (A) (A) (A) (A) (A) (A) (A) (A) (A) (A) (A) (A)
                 (A) (A) (A) (A) (A) (A) (A) (A) (A) (A) (A) (A)
                 (A) (A) (A) (A) (A) (A) (A) (A) (A) (A) (A) (A)
                 (A) (A) (A) (A) (A) (A) (A) (A) (A) (A) (A) (A)
                 (A) (A) (A) (A) (A) (A) (A) (A)
    20 initial guesses have been made.
 Convergence on wavefunction:    0.001000000000000
 Davidson Disk Diagonalization:  ConvIn= 1.00D-03 SkipCon=T Conv= 1.00D-03.
 Max sub-space:  2000 roots to seek:    20 dimension of matrix:       370304
 Iteration     1 Dimension    20 NMult     0 NNew     20
 CISAX will form    20 AO SS matrices at one time.
 NMat=    20 NSing=    20 JSym2X= 0.
 FoFJK:  IHMeth= 1 ICntrl=       0 DoSepK=F KAlg= 0 I1Cent=           0 FoldK=F
 IRaf= 510000000 NMat=      40 IRICut=       1 DoRegI=T DoRafI=F ISym2E= 0 IDoP0=3 IntGTp=3.
 FoFCou: FMM=T IPFlag=           0 FMFlag=      100000 FMFlg1=        2001
         NFxFlg=           0 DoJE=F BraDBF=F KetDBF=F FulRan=T
         wScrn=  0.000000 ICntrl=         0 IOpCl=  0 I1Cent=           0 NGrid=           0
         NMat0=   40 NMatS0=     20 NMatT0=    0 NMatD0=   40 NMtDS0=    0 NMtDT0=    0
 Symmetry not used in FoFCou.
 FMM levels:  10  Number of levels for PrismC:   9
 New state      3 was old state      4
 New state      4 was old state      5
 New state      5 was old state      3
 Excitation Energies [eV] at current iteration:
 Root      1 :     2.210002447967849
 Root      2 :     2.463589047586884
 Root      3 :     2.871272301945108
 Root      4 :     2.896513054382124
 Root      5 :     3.032435310695990
 Root      6 :     3.077809513754539
 Root      7 :     3.311018822674330
 Root      8 :     3.704594539159070
 Root      9 :     3.828479445038957
 Root     10 :     3.909667190100587
 Root     11 :     3.968541917259189
 Root     12 :     4.064884534491628
 Root     13 :     4.229889415977277
 Root     14 :     4.330437545690882
 Root     15 :     4.379894106661711
 Root     16 :     4.460583374366971
 Root     17 :     4.517415634284459
 Root     18 :     4.684891323677119
 Root     19 :     4.701032119739244
 Root     20 :     4.844087788996757
 Iteration     2 Dimension    30 NMult    20 NNew     10
 CISAX will form    10 AO SS matrices at one time.
 NMat=    10 NSing=    10 JSym2X= 0.
 Root      1 not converged, maximum delta is    0.056766816647249
 Root      2 not converged, maximum delta is    0.072249139266452
 Root      3 not converged, maximum delta is    0.205459331161604
 Root      4 not converged, maximum delta is    0.159535760705476
 New state      5 was old state      6
 Root      5 not converged, maximum delta is    0.180983501388622
 Excitation Energies [eV] at current iteration:
 Root      1 :     1.856064049333522   Change is   -0.353938398634327
 Root      2 :     2.176985651924722   Change is   -0.286603395662162
 Root      3 :     2.736039626481162   Change is   -0.135232675463946
 Root      4 :     2.779529626533073   Change is   -0.116983427849051
 Root      5 :     2.940539353527399   Change is   -0.137270160227141
 Iteration     3 Dimension    40 NMult    30 NNew     10
 CISAX will form    10 AO SS matrices at one time.
 NMat=    10 NSing=    10 JSym2X= 0.
 Root      1 not converged, maximum delta is    0.024465630353647
 Root      2 not converged, maximum delta is    0.026716600058383
 Root      3 not converged, maximum delta is    0.017612085534530
 Root      4 not converged, maximum delta is    0.022414957076755
 Root      5 not converged, maximum delta is    0.032667952430119
 Excitation Energies [eV] at current iteration:
 Root      1 :     1.825563139512796   Change is   -0.030500909820726
 Root      2 :     2.153345021991151   Change is   -0.023640629933571
 Root      3 :     2.727624136206990   Change is   -0.008415490274171
 Root      4 :     2.765468999038325   Change is   -0.014060627494748
 Root      5 :     2.894610254237019   Change is   -0.045929099290380
 Iteration     4 Dimension    50 NMult    40 NNew     10
 CISAX will form    10 AO SS matrices at one time.
 NMat=    10 NSing=    10 JSym2X= 0.
 Root      1 not converged, maximum delta is    0.003344970521567
 Root      2 not converged, maximum delta is    0.006832725448917
 Root      3 not converged, maximum delta is    0.003978368268950
 Root      4 not converged, maximum delta is    0.003229458706932
 Root      5 not converged, maximum delta is    0.010640612361821
 Excitation Energies [eV] at current iteration:
 Root      1 :     1.822417089646133   Change is   -0.003146049866663
 Root      2 :     2.150348404219928   Change is   -0.002996617771222
 Root      3 :     2.726205399286603   Change is   -0.001418736920388
 Root      4 :     2.764408570517778   Change is   -0.001060428520547
 Root      5 :     2.888875345178132   Change is   -0.005734909058887
 Iteration     5 Dimension    60 NMult    50 NNew     10
 CISAX will form    10 AO SS matrices at one time.
 NMat=    10 NSing=    10 JSym2X= 0.
 Root      1 has converged.
 Root      2 not converged, maximum delta is    0.001224316997723
 Root      3 has converged.
 Root      4 has converged.
 Root      5 not converged, maximum delta is    0.006599660289584
 Excitation Energies [eV] at current iteration:
 Root      1 :     1.822060390704412   Change is   -0.000356698941721
 Root      2 :     2.150053569842176   Change is   -0.000294834377752
 Root      3 :     2.726084083806096   Change is   -0.000121315480507
 Root      4 :     2.764266704101703   Change is   -0.000141866416074
 Root      5 :     2.888230663272576   Change is   -0.000644681905555
 Iteration     6 Dimension    64 NMult    60 NNew      4
 CISAX will form     4 AO SS matrices at one time.
 NMat=     4 NSing=     4 JSym2X= 0.
 Root      1 has converged.
 Root      2 has converged.
 Root      3 has converged.
 Root      4 has converged.
 Root      5 not converged, maximum delta is    0.001807343149712
 Excitation Energies [eV] at current iteration:
 Root      1 :     1.822055784198318   Change is   -0.000004606506094
 Root      2 :     2.150021612887146   Change is   -0.000031956955030
 Root      3 :     2.726080556296469   Change is   -0.000003527509627
 Root      4 :     2.764266338317336   Change is   -0.000000365784367
 Root      5 :     2.888143194761256   Change is   -0.000087468511320
 Iteration     7 Dimension    66 NMult    64 NNew      2
 CISAX will form     2 AO SS matrices at one time.
 NMat=     2 NSing=     2 JSym2X= 0.
 Root      1 has converged.
 Root      2 has converged.
 Root      3 has converged.
 Root      4 has converged.
 Root      5 has converged.
 Excitation Energies [eV] at current iteration:
 Root      1 :     1.822055631379895   Change is   -0.000000152818423
 Root      2 :     2.150021501512679   Change is   -0.000000111374467
 Root      3 :     2.726080527026662   Change is   -0.000000029269806
 Root      4 :     2.764266212844558   Change is   -0.000000125472778
 Root      5 :     2.888133322610242   Change is   -0.000009872151014
 Convergence achieved on expansion vectors.
 ***********************************************************************
 Excited states from <AA,BB:AA,BB> singles matrix:
 ***********************************************************************
 
 1PDM for each excited state written to RWF  633
 Ground to excited state transition densities written to RWF  633
 Ground to excited state transition electric dipole moments (Au):
       state          X           Y           Z        Dip. S.      Osc.
         1        -0.1587     -1.3769     -2.4911      8.1265      0.3628
         2        -0.5024     -1.4659      0.4933      2.6447      0.1393
         3        -0.0646     -0.2445      0.1911      0.1005      0.0067
         4        -0.0300     -0.0590      0.0100      0.0045      0.0003
         5         0.0261      0.0876      0.0016      0.0084      0.0006
 Ground to excited state transition velocity dipole moments (Au):
       state          X           Y           Z        Dip. S.      Osc.
         1         0.0116      0.0898      0.1613      0.0342      0.3406
         2         0.0383      0.1106     -0.0355      0.0150      0.1263
         3         0.0074      0.0246     -0.0193      0.0010      0.0069
         4        -0.0000      0.0071     -0.0022      0.0001      0.0004
         5        -0.0006     -0.0099      0.0016      0.0001      0.0006
 Ground to excited state transition magnetic dipole moments (Au):
       state          X           Y           Z
         1        -0.0898      1.4595     -0.7702
         2         0.4565     -0.5086     -0.9558
         3        -0.5474      0.1925     -0.1064
         4        -0.0500      0.1401      0.3842
         5         0.4911      0.1289      0.3115
 Ground to excited state transition velocity quadrupole moments (Au):
       state          XX          YY          ZZ          XY          XZ          YZ
         1        -0.1793     -0.2827      0.0198     -0.8223     -1.4420     -0.3658
         2        -0.5632     -0.2629     -0.0948     -1.0572      0.3432      0.0976
         3        -0.1287      0.1469     -0.1386     -0.2045      0.2179      0.1268
         4         0.0043     -0.0442     -0.0033     -0.0603      0.0372     -0.0006
         5         0.0083     -0.1903      0.1642      0.0453     -0.0440     -0.0667
 <0|del|b> * <b|rxdel|0> + <0|del|b> * <b|delr+rdel|0>
 Rotatory Strengths (R) in cgs (10**-40 erg-esu-cm/Gauss)
       state          XX          YY          ZZ    R(velocity)    E-M Angle
         1        19.4964     16.3114     25.2454     20.3511       88.92
         2      -102.0590     78.9809    -20.2841    -14.4541       91.93
         3        18.9593    -17.6485     17.9984      6.4364       81.69
         4         0.0426     -3.4208      4.3726      0.3315       87.32
         5        -3.8637      0.5013     -3.9553     -2.4393      100.57
 1/2[<0|r|b>*<b|rxdel|0> + (<0|rxdel|b>*<b|r|0>)*]
 Rotatory Strengths (R) in cgs (10**-40 erg-esu-cm/Gauss)
       state          XX          YY          ZZ     R(length)
         1       -10.0770   1421.0554  -1356.8292     18.0497
         2       162.2101   -527.2059    333.4417    -10.5180
         3       -24.9969     33.2902     14.3765      7.5566
         4        -1.0607      5.8465     -2.7089      0.6923
         5        -9.0549     -7.9849     -0.3456     -5.7951
  1/2[<0|del|b>*<b|r|0> + (<0|r|b>*<b|del|0>)*] (Au)
       state          X           Y           Z        Dip. S.   Osc.(frdel)
         1        -0.0018     -0.1236     -0.4018      0.5273      0.3515
         2        -0.0193     -0.1622     -0.0175      0.1989      0.1326
         3        -0.0005     -0.0060     -0.0037      0.0102      0.0068
         4         0.0000     -0.0004     -0.0000      0.0004      0.0003
         5        -0.0000     -0.0009      0.0000      0.0009      0.0006

 Excitation energies and oscillator strengths:
 
 Excited State   1:      Singlet-A      1.8221 eV  680.46 nm  f=0.3628  <S**2>=0.000
     245 -> 248       -0.16697
     246 -> 247        0.69611
     246 <- 247       -0.11414
 This state for optimization and/or second-order correction.
 Total Energy, E(TD-HF/TD-DFT) =  -3005.25195855    
 Copying the excited state density for this state as the 1-particle RhoCI density.
 
 Excited State   2:      Singlet-A      2.1500 eV  576.66 nm  f=0.1393  <S**2>=0.000
     245 -> 247        0.66360
     246 -> 248        0.22209
 
 Excited State   3:      Singlet-A      2.7261 eV  454.81 nm  f=0.0067  <S**2>=0.000
     241 -> 247        0.12381
     243 -> 247        0.67760
 
 Excited State   4:      Singlet-A      2.7643 eV  448.52 nm  f=0.0003  <S**2>=0.000
     242 -> 247        0.67285
     242 -> 249        0.18544
 
 Excited State   5:      Singlet-A      2.8881 eV  429.29 nm  f=0.0006  <S**2>=0.000
     240 -> 247       -0.12723
     241 -> 247        0.66918
     243 -> 247       -0.12828
 SavETr:  write IOETrn=   770 NScale= 10 NData=  16 NLR=1 NState=    5 LETran=     100.
 Leave Link  914 at Thu Apr 28 11:04:33 2022, MaxMem= 10066329600 cpu:           18616.7 elap:             777.3
 (Enter /sw/apps/gaussian-16.0/g16/l601.exe)
 Copying SCF densities to generalized density rwf, IOpCl= 0 IROHF=0.
 Hyperfine terms turned off by default for NAtoms > 100.

 **********************************************************************

            Population analysis using the SCF density.

 **********************************************************************

 Orbital symmetries:
       Occupied  (A) (A) (A) (A) (A) (A) (A) (A) (A) (A) (A) (A)
                 (A) (A) (A) (A) (A) (A) (A) (A) (A) (A) (A) (A)
                 (A) (A) (A) (A) (A) (A) (A) (A) (A) (A) (A) (A)
                 (A) (A) (A) (A) (A) (A) (A) (A) (A) (A) (A) (A)
                 (A) (A) (A) (A) (A) (A) (A) (A) (A) (A) (A) (A)
                 (A) (A) (A) (A) (A) (A) (A) (A) (A) (A) (A) (A)
                 (A) (A) (A) (A) (A) (A) (A) (A) (A) (A) (A) (A)
                 (A) (A) (A) (A) (A) (A) (A) (A) (A) (A) (A) (A)
                 (A) (A) (A) (A) (A) (A) (A) (A) (A) (A) (A) (A)
                 (A) (A) (A) (A) (A) (A) (A) (A) (A) (A) (A) (A)
                 (A) (A) (A) (A) (A) (A) (A) (A) (A) (A) (A) (A)
                 (A) (A) (A) (A) (A) (A) (A) (A) (A) (A) (A) (A)
                 (A) (A) (A) (A) (A) (A) (A) (A) (A) (A) (A) (A)
                 (A) (A) (A) (A) (A) (A) (A) (A) (A) (A) (A) (A)
                 (A) (A) (A) (A) (A) (A) (A) (A) (A) (A) (A) (A)
                 (A) (A) (A) (A) (A) (A) (A) (A) (A) (A) (A) (A)
                 (A) (A) (A) (A) (A) (A) (A) (A) (A) (A) (A) (A)
                 (A) (A) (A) (A) (A) (A) (A) (A) (A) (A) (A) (A)
                 (A) (A) (A) (A) (A) (A) (A) (A) (A) (A) (A) (A)
                 (A) (A) (A) (A) (A) (A) (A) (A) (A) (A) (A) (A)
                 (A) (A) (A) (A) (A) (A)
       Virtual   (A) (A) (A) (A) (A) (A) (A) (A) (A) (A) (A) (A)
                 (A) (A) (A) (A) (A) (A) (A) (A) (A) (A) (A) (A)
                 (A) (A) (A) (A) (A) (A) (A) (A) (A) (A) (A) (A)
                 (A) (A) (A) (A) (A) (A) (A) (A) (A) (A) (A) (A)
                 (A) (A) (A) (A) (A) (A) (A) (A) (A) (A) (A) (A)
                 (A) (A) (A) (A) (A) (A) (A) (A) (A) (A) (A) (A)
                 (A) (A) (A) (A) (A) (A) (A) (A) (A) (A) (A) (A)
                 (A) (A) (A) (A) (A) (A) (A) (A) (A) (A) (A) (A)
                 (A) (A) (A) (A) (A) (A) (A) (A) (A) (A) (A) (A)
                 (A) (A) (A) (A) (A) (A) (A) (A) (A) (A) (A) (A)
                 (A) (A) (A) (A) (A) (A) (A) (A) (A) (A) (A) (A)
                 (A) (A) (A) (A) (A) (A) (A) (A) (A) (A) (A) (A)
                 (A) (A) (A) (A) (A) (A) (A) (A) (A) (A) (A) (A)
                 (A) (A) (A) (A) (A) (A) (A) (A) (A) (A) (A) (A)
                 (A) (A) (A) (A) (A) (A) (A) (A) (A) (A) (A) (A)
                 (A) (A) (A) (A) (A) (A) (A) (A) (A) (A) (A) (A)
                 (A) (A) (A) (A) (A) (A) (A) (A) (A) (A) (A) (A)
                 (A) (A) (A) (A) (A) (A) (A) (A) (A) (A) (A) (A)
                 (A) (A) (A) (A) (A) (A) (A) (A) (A) (A) (A) (A)
                 (A) (A) (A) (A) (A) (A) (A) (A) (A) (A) (A) (A)
                 (A) (A) (A) (A) (A) (A) (A) (A) (A) (A) (A) (A)
                 (A) (A) (A) (A) (A) (A) (A) (A) (A) (A) (A) (A)
                 (A) (A) (A) (A) (A) (A) (A) (A) (A) (A) (A) (A)
                 (A) (A) (A) (A) (A) (A) (A) (A) (A) (A) (A) (A)
                 (A) (A) (A) (A) (A) (A) (A) (A) (A) (A) (A) (A)
                 (A) (A) (A) (A) (A) (A) (A) (A) (A) (A) (A) (A)
                 (A) (A) (A) (A) (A) (A) (A) (A) (A) (A) (A) (A)
                 (A) (A) (A) (A) (A) (A) (A) (A) (A) (A) (A) (A)
                 (A) (A) (A) (A) (A) (A) (A) (A) (A) (A) (A) (A)
                 (A) (A) (A) (A) (A) (A) (A) (A) (A) (A) (A) (A)
                 (A) (A) (A) (A) (A) (A) (A) (A) (A) (A) (A) (A)
                 (A) (A) (A) (A) (A) (A) (A) (A) (A) (A) (A) (A)
                 (A) (A) (A) (A) (A) (A) (A) (A) (A) (A) (A) (A)
                 (A) (A) (A) (A) (A) (A) (A) (A) (A) (A) (A) (A)
                 (A) (A) (A) (A) (A) (A) (A) (A) (A) (A) (A) (A)
[...]
 Alpha virt. eigenvalues --    1.14238   1.14731   1.14959   1.15808   1.16034
 Alpha virt. eigenvalues --    1.16393   1.16826   1.17359   1.17792   1.18397
 Alpha virt. eigenvalues --    1.19478   1.19544   1.19931   1.20074   1.21195
 Alpha virt. eigenvalues --    1.21455   1.21721   1.21980   1.22844   1.23378
 Alpha virt. eigenvalues --    1.23712   1.24143   1.24254   1.24694   1.25391
 Alpha virt. eigenvalues --    1.25763   1.26282   1.26553   1.26804   1.27330
 Alpha virt. eigenvalues --    1.27689   1.27944   1.28573   1.29357   1.29625
 Alpha virt. eigenvalues --    1.30431   1.31025   1.31118   1.31735   1.32019
 Alpha virt. eigenvalues --    1.32473   1.32754   1.33091   1.33457   1.33488
 Alpha virt. eigenvalues --    1.34478   1.34848   1.35321   1.35655   1.36062
 Alpha virt. eigenvalues --    1.36795   1.36876   1.37378   1.37703   1.38298
 Alpha virt. eigenvalues --    1.38611   1.39060   1.39222   1.39548   1.39658
 Alpha virt. eigenvalues --    1.39847   1.40415   1.41198   1.41411   1.41828
 Alpha virt. eigenvalues --    1.42079   1.42123   1.42293   1.42504   1.43141
 Alpha virt. eigenvalues --    1.43330   1.43422   1.44156   1.45186   1.45629
 Alpha virt. eigenvalues --    1.45803   1.46247   1.46787   1.46994   1.47340
 Alpha virt. eigenvalues --    1.47993   1.49054   1.49420   1.49837   1.50169
 Alpha virt. eigenvalues --    1.50570   1.50855   1.50962   1.51459   1.52021
 Alpha virt. eigenvalues --    1.52334   1.52587   1.52676   1.52766   1.52935
 Alpha virt. eigenvalues --    1.53241   1.53548   1.53815   1.54385   1.54534
 Alpha virt. eigenvalues --    1.55072   1.55272   1.55508   1.55690   1.55746
 Alpha virt. eigenvalues --    1.55879   1.56258   1.56440   1.56550   1.56824
 Alpha virt. eigenvalues --    1.57035   1.57465   1.57656   1.58240   1.58644
 Alpha virt. eigenvalues --    1.58744   1.59273   1.59575   1.59813   1.59949
 Alpha virt. eigenvalues --    1.60134   1.60734   1.61418   1.61603   1.62121
 Alpha virt. eigenvalues --    1.62373   1.62671   1.64493   1.64523   1.65332
 Alpha virt. eigenvalues --    1.65549   1.65885   1.66061   1.66843   1.67247
 Alpha virt. eigenvalues --    1.67373   1.68201   1.68241   1.68876   1.69436
 Alpha virt. eigenvalues --    1.69518   1.69555   1.69945   1.70975   1.71016
 Alpha virt. eigenvalues --    1.71203   1.71362   1.72085   1.72212   1.72412
 Alpha virt. eigenvalues --    1.72502   1.73087   1.73148   1.73382   1.73510
 Alpha virt. eigenvalues --    1.73669   1.74039   1.74328   1.74455   1.74676
 Alpha virt. eigenvalues --    1.75184   1.75552   1.75612   1.76157   1.76402
 Alpha virt. eigenvalues --    1.76569   1.76976   1.77067   1.77250   1.77429
 Alpha virt. eigenvalues --    1.77603   1.77728   1.78030   1.78123   1.78355
 Alpha virt. eigenvalues --    1.78575   1.78637   1.78760   1.78952   1.79166
 Alpha virt. eigenvalues --    1.79199   1.79644   1.79896   1.80216   1.80309
 Alpha virt. eigenvalues --    1.80740   1.80848   1.81003   1.81274   1.81614
 Alpha virt. eigenvalues --    1.81687   1.81869   1.82297   1.82594   1.82647
 Alpha virt. eigenvalues --    1.82949   1.83197   1.83419   1.83508   1.83714
 Alpha virt. eigenvalues --    1.83746   1.84125   1.84337   1.84492   1.84660
 Alpha virt. eigenvalues --    1.85000   1.85355   1.85417   1.85761   1.85839
 Alpha virt. eigenvalues --    1.86119   1.86179   1.86468   1.86821   1.86882
 Alpha virt. eigenvalues --    1.87126   1.87255   1.87427   1.87583   1.87763
 Alpha virt. eigenvalues --    1.88076   1.88150   1.88486   1.88589   1.88684
 Alpha virt. eigenvalues --    1.89378   1.89460   1.89835   1.90070   1.90134
 Alpha virt. eigenvalues --    1.90328   1.90567   1.90892   1.91047   1.91281
 Alpha virt. eigenvalues --    1.91487   1.91598   1.91967   1.92396   1.92583
 Alpha virt. eigenvalues --    1.92956   1.93435   1.93524   1.93864   1.94152
 Alpha virt. eigenvalues --    1.94606   1.94735   1.95158   1.95304   1.95339
 Alpha virt. eigenvalues --    1.95975   1.96109   1.96515   1.96566   1.96785
 Alpha virt. eigenvalues --    1.97036   1.97133   1.97811   1.97981   1.98143
 Alpha virt. eigenvalues --    1.98246   1.98840   1.98984   1.99011   1.99280
 Alpha virt. eigenvalues --    1.99613   1.99837   2.00410   2.00804   2.00922
 Alpha virt. eigenvalues --    2.01049   2.01707   2.01834   2.01940   2.02128
 Alpha virt. eigenvalues --    2.02266   2.02927   2.03546   2.03617   2.03779
 Alpha virt. eigenvalues --    2.04078   2.04464   2.04583   2.05198   2.05587
 Alpha virt. eigenvalues --    2.05899   2.06073   2.06457   2.07175   2.07436
 Alpha virt. eigenvalues --    2.07634   2.07907   2.08507   2.08749   2.08874
 Alpha virt. eigenvalues --    2.09235   2.09819   2.09906   2.10200   2.10481
 Alpha virt. eigenvalues --    2.10769   2.10944   2.11239   2.11599   2.11861
 Alpha virt. eigenvalues --    2.12263   2.12516   2.13158   2.13319   2.13469
 Alpha virt. eigenvalues --    2.13661   2.13911   2.14554   2.14661   2.15312
 Alpha virt. eigenvalues --    2.15663   2.15808   2.16329   2.16581   2.16890
 Alpha virt. eigenvalues --    2.17284   2.17428   2.17662   2.18308   2.18464
 Alpha virt. eigenvalues --    2.18920   2.19155   2.19465   2.19699   2.19943
 Alpha virt. eigenvalues --    2.20291   2.20776   2.21166   2.21328   2.21982
 Alpha virt. eigenvalues --    2.22381   2.22999   2.23369   2.24030   2.24321
 Alpha virt. eigenvalues --    2.24426   2.25169   2.25356   2.26112   2.26349
 Alpha virt. eigenvalues --    2.26759   2.26955   2.28178   2.28378   2.28553
 Alpha virt. eigenvalues --    2.28799   2.29185   2.29224   2.30590   2.30902
 Alpha virt. eigenvalues --    2.31014   2.31925   2.32004   2.32299   2.32828
 Alpha virt. eigenvalues --    2.32951   2.33330   2.33688   2.34006   2.34171
 Alpha virt. eigenvalues --    2.35213   2.35229   2.35268   2.35666   2.36600
 Alpha virt. eigenvalues --    2.36947   2.37118   2.37275   2.37602   2.37816
 Alpha virt. eigenvalues --    2.37866   2.38262   2.38753   2.39087   2.39658
 Alpha virt. eigenvalues --    2.39703   2.39819   2.40141   2.40636   2.41195
 Alpha virt. eigenvalues --    2.41356   2.41497   2.42063   2.42375   2.42474
 Alpha virt. eigenvalues --    2.42485   2.43139   2.43237   2.43988   2.44168
 Alpha virt. eigenvalues --    2.44653   2.44833   2.45314   2.45895   2.45955
 Alpha virt. eigenvalues --    2.46746   2.47020   2.47234   2.48100   2.48528
 Alpha virt. eigenvalues --    2.49272   2.49397   2.50350   2.50606   2.50833
 Alpha virt. eigenvalues --    2.51347   2.52239   2.52574   2.52704   2.53022
 Alpha virt. eigenvalues --    2.53599   2.54283   2.55112   2.55556   2.55657
 Alpha virt. eigenvalues --    2.55870   2.56133   2.56482   2.56514   2.57689
 Alpha virt. eigenvalues --    2.58130   2.58328   2.58689   2.59042   2.59295
 Alpha virt. eigenvalues --    2.59462   2.60772   2.61443   2.61722   2.61985
 Alpha virt. eigenvalues --    2.62560   2.62870   2.63249   2.63826   2.64092
 Alpha virt. eigenvalues --    2.64701   2.65071   2.65610   2.65926   2.65950
 Alpha virt. eigenvalues --    2.66315   2.66873   2.67380   2.67591   2.67960
 Alpha virt. eigenvalues --    2.68131   2.68751   2.69110   2.69476   2.69804
 Alpha virt. eigenvalues --    2.69942   2.70418   2.70605   2.71039   2.71169
 Alpha virt. eigenvalues --    2.71871   2.72672   2.72731   2.72873   2.73227
 Alpha virt. eigenvalues --    2.73864   2.74544   2.74668   2.75169   2.75441
 Alpha virt. eigenvalues --    2.76206   2.76386   2.76499   2.77997   2.78196
 Alpha virt. eigenvalues --    2.78611   2.79624   2.79663   2.80270   2.81043
 Alpha virt. eigenvalues --    2.81615   2.81758   2.81899   2.82596   2.82739
 Alpha virt. eigenvalues --    2.83189   2.84152   2.84764   2.85241   2.85421
 Alpha virt. eigenvalues --    2.86458   2.86844   2.87211   2.87311   2.88270
 Alpha virt. eigenvalues --    2.89285   2.89643   2.89927   2.90459   2.91163
 Alpha virt. eigenvalues --    2.91260   2.91508   2.91788   2.91915   2.92038
 Alpha virt. eigenvalues --    2.92588   2.93071   2.93319   2.93824   2.93881
 Alpha virt. eigenvalues --    2.94098   2.94567   2.94976   2.95190   2.95282
 Alpha virt. eigenvalues --    2.96017   2.96087   2.96179   2.96740   2.97083
 Alpha virt. eigenvalues --    2.97607   2.97931   2.98158   2.98277   2.98576
 Alpha virt. eigenvalues --    2.99296   2.99826   2.99880   3.00314   3.00455
 Alpha virt. eigenvalues --    3.00515   3.00779   3.01067   3.01511   3.01758
 Alpha virt. eigenvalues --    3.02292   3.02346   3.02758   3.02853   3.02899
 Alpha virt. eigenvalues --    3.03558   3.03582   3.03944   3.04132   3.04576
 Alpha virt. eigenvalues --    3.04722   3.05062   3.05243   3.05671   3.06166
 Alpha virt. eigenvalues --    3.06434   3.06758   3.07114   3.07530   3.08595
 Alpha virt. eigenvalues --    3.09084   3.09900   3.10292   3.10953   3.11386
 Alpha virt. eigenvalues --    3.12613   3.13409   3.13491   3.14370   3.14805
 Alpha virt. eigenvalues --    3.14911   3.16889   3.17142   3.17527   3.19039
 Alpha virt. eigenvalues --    3.20052   3.21540   3.22079   3.23154   3.24275
 Alpha virt. eigenvalues --    3.24400   3.26179   3.33637   3.36519   3.40727
 Alpha virt. eigenvalues --    3.42174   3.44162   3.44398   3.46723   3.47976
 Alpha virt. eigenvalues --    3.55880   3.60033   3.61192   3.62937   3.64818
 Alpha virt. eigenvalues --    3.66932   3.70375
          Condensed to atoms (all electrons):
 Mulliken charges:
               1
     1  Mg   0.951324
     2  C   -0.010331
     3  C   -0.043364
     4  C   -0.063277
     5  C   -0.054767
     6  N   -0.417859
     7  C    0.032482
     8  C   -0.110136
     9  C   -0.137152
    10  C    0.100829
    11  C    0.054007
    12  C    0.057714
    13  C   -0.040768
    14  C    0.195803
    15  O   -0.282218
    16  O   -0.346044
    17  N   -0.489745
    18  C    0.116258
    19  C   -0.141248
    20  C   -0.052562
    21  C    0.162473
    22  C    0.073676
    23  C    0.019968
    24  O   -0.273541
    25  C   -0.016313
    26  N   -0.387787
    27  C    0.069474
    28  C   -0.057990
    29  C   -0.092386
    30  C    0.049756
    31  C   -0.013484
    32  C   -0.062767
    33  C   -0.058574
    34  N   -0.448892
    35  C    0.135802
    36  C   -0.221378
    37  C   -0.016983
    38  C    0.123267
    39  C    0.088101
    40  C    0.126998
    41  O   -0.207826
    42  C   -0.107061
    43  C    0.285886
    44  O   -0.236585
    45  O   -0.362341
    46  C    0.116983
    47  C    0.233900
    48  C   -0.152126
    49  C   -0.200126
    50  C    0.030216
    51  C    0.036915
    52  C   -0.070582
    53  C   -0.022022
    54  C   -0.201281
    55  C   -0.048712
    56  C   -0.027676
    57  C   -0.041275
    58  C   -0.002590
    59  C   -0.236937
    60  C   -0.010419
    61  C   -0.006008
    62  C   -0.037346
    63  C    0.026144
    64  C   -0.237235
    65  C   -0.045033
    66  C   -0.004247
    67  H    0.001671
    68  H   -0.005889
    69  H    0.007971
    70  H    0.053744
    71  H    0.045699
    72  H    0.041946
    73  H    0.049936
    74  H    0.055666
    75  H    0.055298
    76  H    0.053086
    77  H    0.085440
    78  H    0.046038
    79  H    0.074774
    80  H    0.021102
    81  H    0.054831
    82  H    0.068703
    83  H    0.068245
    84  H    0.076765
    85  H    0.051322
    86  H    0.042027
    87  H    0.040608
    88  H    0.044786
    89  H    0.044101
    90  H    0.032467
    91  H    0.035176
    92  H    0.064760
    93  H    0.042903
    94  H    0.030055
    95  H    0.066417
    96  H    0.056908
    97  H    0.037515
    98  H    0.073975
    99  H    0.072914
   100  H    0.048420
   101  H    0.053009
   102  H    0.048189
   103  H    0.067999
   104  H    0.025335
   105  H    0.047479
   106  H    0.037917
   107  H    0.042256
   108  H    0.044946
   109  H    0.045656
   110  H    0.035828
   111  H    0.050574
   112  H    0.030793
   113  H    0.032983
   114  H    0.040215
   115  H    0.035978
   116  H    0.035835
   117  H    0.031817
   118  H    0.024004
   119  H    0.016587
   120  H    0.033838
   121  H    0.035687
   122  H    0.025587
   123  H    0.032089
   124  H    0.025753
   125  H    0.018759
   126  H    0.037238
   127  H    0.032955
   128  H    0.023040
   129  H    0.019847
   130  H    0.033376
   131  H    0.051653
   132  H    0.023961
   133  H    0.030347
   134  H    0.031133
   135  H    0.028125
   136  H    0.030318
   137  H    0.036883
   138  H    0.016873
   139  H    0.024141
   140  H    0.030635
 Sum of Mulliken charges =  -0.00000
 Mulliken charges with hydrogens summed into heavy atoms:
               1
     1  Mg   0.951324
     2  C   -0.010331
     3  C   -0.041692
     4  C   -0.069166
     5  C   -0.046796
     6  N   -0.417859
     7  C    0.032482
     8  C   -0.056391
     9  C   -0.091453
    10  C    0.100829
    11  C    0.201555
    12  C    0.166098
    13  C    0.090709
    14  C    0.195803
    15  O   -0.282218
    16  O   -0.346044
    17  N   -0.489745
    18  C    0.116258
    19  C   -0.141248
    20  C   -0.052562
    21  C    0.162473
    22  C    0.224383
    23  C    0.019968
    24  O   -0.273541
    25  C    0.197400
    26  N   -0.387787
    27  C    0.069474
    28  C   -0.006668
    29  C   -0.050359
    30  C    0.049756
    31  C    0.116010
    32  C    0.004876
    33  C    0.079144
    34  N   -0.448892
    35  C    0.135802
    36  C   -0.221378
    37  C   -0.016983
    38  C    0.123267
    39  C    0.248942
    40  C    0.126998
    41  O   -0.207826
    42  C   -0.033086
    43  C    0.285886
    44  O   -0.236585
    45  O   -0.362341
    46  C    0.291326
    47  C    0.350089
    48  C   -0.126790
    49  C   -0.200126
    50  C    0.157868
    51  C    0.127517
    52  C    0.015821
    53  C    0.041754
    54  C   -0.161066
    55  C    0.054918
    56  C    0.012915
    57  C    0.028250
    58  C    0.055086
    59  C   -0.211185
    60  C    0.078533
    61  C    0.036879
    62  C    0.047683
    63  C    0.080452
    64  C   -0.206102
    65  C    0.050293
    66  C    0.067403
 Electronic spatial extent (au):  <R**2>=         111571.9060
 Charge=             -0.0000 electrons
 Dipole moment (field-independent basis, Debye):
    X=              0.9475    Y=             -3.7142    Z=              0.8307  Tot=              3.9221
 Quadrupole moment (field-independent basis, Debye-Ang):
   XX=           -386.1153   YY=           -412.4563   ZZ=           -420.6775
   XY=             22.5446   XZ=             -5.8882   YZ=            -37.3924
 Traceless Quadrupole moment (field-independent basis, Debye-Ang):
   XX=             20.3011   YY=             -6.0400   ZZ=            -14.2611
   XY=             22.5446   XZ=             -5.8882   YZ=            -37.3924
 Octapole moment (field-independent basis, Debye-Ang**2):
  XXX=           -146.7299  YYY=            -38.8316  ZZZ=            108.8271  XYY=            -65.6729
  XXY=           -148.2980  XXZ=             30.2168  XZZ=             55.4759  YZZ=              7.1375
  YYZ=            117.3265  XYZ=            277.3090
 Hexadecapole moment (field-independent basis, Debye-Ang**3):
 XXXX=        -112342.9178 YYYY=         -27472.5371 ZZZZ=         -15438.4269 XXXY=           1180.6054
 XXXZ=          -1378.0424 YYYX=            113.9814 YYYZ=           -431.9034 ZZZX=           -770.0678
 ZZZY=          -1019.4254 XXYY=         -22308.8365 XXZZ=         -21142.7428 YYZZ=          -8356.8148
 XXYZ=           -929.5957 YYXZ=           -176.9653 ZZXY=           -246.1827
 N-N= 9.559001167099D+03 E-N=-2.610773292550D+04  KE= 2.974868419909D+03
 Leave Link  601 at Thu Apr 28 11:04:34 2022, MaxMem= 10066329600 cpu:              12.7 elap:               0.6
 (Enter /sw/apps/gaussian-16.0/g16/l9999.exe)
 1\1\GINC-BP1-COMPUTE070\SP\RPBE1PBE TD-FC\def2SVP\C55H74Mg1N4O6\OF1564
 1\28-Apr-2022\0\\#p PBE1PBE/Def2SVP td=(nstates=5)\\step_151_chromopho
 re_8 TDDFT with PBE1PBE functional\\0,1\Mg,0,45.097,3.719,48.064\C,0,4
 2.934,6.396,47.436\C,0,42.547,1.52,47.568\C,0,47.349,1.237,48.463\C,0,
 47.853,6.126,48.125\N,0,43.,3.929,47.589\C,0,42.321,5.136,47.351\C,0,4
 0.796,4.857,46.973\C,0,40.687,3.339,47.371\C,0,42.119,2.867,47.569\C,0
 ,39.758,3.132,48.56\C,0,40.438,5.149,45.542\C,0,39.184,6.038,45.414\C,
 0,38.443,5.899,44.083\O,0,37.227,5.766,43.911\O,0,39.311,6.02,43.076\N
 ,0,44.983,1.615,47.919\C,0,43.816,0.88,47.678\C,0,44.137,-0.516,47.659
 \C,0,45.488,-0.658,48.064\C,0,45.998,0.739,48.18\C,0,43.199,-1.57,47.0
 49\C,0,46.353,-1.911,48.113\O,0,45.756,-3.002,47.914\C,0,47.915,-1.99,
 48.366\N,0,47.287,3.713,47.97\C,0,47.886,2.549,48.399\C,0,49.301,2.825
 ,48.754\C,0,49.54,4.315,48.533\C,0,48.135,4.777,48.156\C,0,49.81,2.409
 ,50.201\C,0,50.627,4.692,47.482\C,0,50.286,4.756,46.012\N,0,45.393,5.8
 26,47.804\C,0,46.524,6.64,47.816\C,0,46.159,7.978,47.654\C,0,44.764,7.
 938,47.6\C,0,44.346,6.627,47.585\C,0,47.029,9.166,47.672\C,0,43.545,8.
 713,47.385\O,0,43.382,9.898,47.184\C,0,42.34,7.731,47.316\C,0,41.415,8
 .07,48.435\O,0,41.58,8.018,49.633\O,0,40.171,8.251,47.914\C,0,39.051,8
 .142,48.807\C,0,38.724,6.055,41.713\C,0,39.912,5.85,40.685\C,0,40.197,
 6.533,39.557\C,0,39.442,7.716,39.005\C,0,41.521,6.229,38.85\C,0,41.149
 ,5.239,37.715\C,0,42.133,4.063,37.755\C,0,41.905,3.098,36.542\C,0,41.0
 14,1.748,36.902\C,0,43.286,2.662,35.858\C,0,43.298,2.655,34.322\C,0,43
 .635,4.126,33.77\C,0,44.631,4.118,32.623\C,0,46.055,4.178,33.166\C,0,4
 4.295,5.182,31.626\C,0,43.07,4.885,30.705\C,0,43.396,5.251,29.209\C,0,
 42.937,4.108,28.315\C,0,41.401,4.011,28.128\C,0,43.562,3.975,26.963\H,
 0,41.817,0.776,47.244\H,0,48.081,0.522,48.846\H,0,48.723,6.782,48.195\
 H,0,40.244,5.523,47.636\H,0,40.382,2.722,46.527\H,0,39.116,2.297,48.27
 8\H,0,39.152,4.031,48.671\H,0,40.414,2.795,49.362\H,0,40.287,4.267,44.
 92\H,0,41.24,5.796,45.187\H,0,39.389,7.108,45.437\H,0,38.539,5.809,46.
 263\H,0,43.756,-2.251,46.406\H,0,42.506,-1.08,46.365\H,0,42.466,-1.969
 ,47.751\H,0,48.28,-1.307,47.599\H,0,48.146,-3.052,48.273\H,0,48.173,-1
 .639,49.365\H,0,49.895,2.386,47.952\H,0,49.864,4.8,49.454\H,0,50.608,1
 .667,50.224\H,0,48.982,1.988,50.771\H,0,50.24,3.182,50.838\H,0,51.444,
 3.971,47.515\H,0,51.072,5.634,47.801\H,0,49.207,4.755,45.855\H,0,50.89
 7,4.054,45.444\H,0,50.566,5.723,45.593\H,0,47.623,9.352,48.566\H,0,46.
 448,10.005,47.289\H,0,47.682,8.944,46.828\H,0,41.759,7.734,46.394\H,0,
 39.142,8.935,49.55\H,0,38.879,7.168,49.266\H,0,38.161,8.243,48.186\H,0
 ,38.212,6.996,41.511\H,0,38.029,5.246,41.486\H,0,40.525,5.002,40.993\H
 ,0,40.089,8.578,38.844\H,0,38.55,8.062,39.526\H,0,39.094,7.427,38.013\
 H,0,42.096,5.574,39.505\H,0,41.98,7.142,38.472\H,0,41.316,5.796,36.793
 \H,0,40.189,4.722,37.679\H,0,42.001,3.43,38.632\H,0,43.158,4.428,37.81
 3\H,0,41.256,3.482,35.755\H,0,40.169,1.668,36.218\H,0,40.696,1.757,37.
 945\H,0,41.521,0.793,36.764\H,0,43.605,1.659,36.143\H,0,44.064,3.332,3
 6.222\H,0,42.275,2.37,34.076\H,0,44.064,1.931,34.044\H,0,44.155,4.647,
 34.573\H,0,42.715,4.615,33.45\H,0,44.678,3.142,32.139\H,0,46.418,5.205
 ,33.123\H,0,46.704,3.598,32.51\H,0,46.171,3.946,34.224\H,0,45.179,5.42
 2,31.035\H,0,44.006,6.012,32.271\H,0,42.378,5.686,30.966\H,0,42.699,3.
 888,30.945\H,0,44.474,5.406,29.163\H,0,43.036,6.232,28.9\H,0,43.125,3.
 103,28.692\H,0,41.024,3.162,27.557\H,0,41.151,4.838,27.463\H,0,40.87,3
 .922,29.076\H,0,42.835,3.753,26.182\H,0,44.173,3.106,26.722\H,0,44.18,
 4.872,26.909\\Version=ES64L-G16RevA.03\State=1-A\HF=-3005.3189179\RMSD
 =7.853e-09\PG=C01 [X(C55H74Mg1N4O6)]\\@


 HIGGLEDY-PIGGLEDY
 NIC'LAUS COPERNICUS
 LOOKED AT THE UNIVERSE,
 SPOKE TO THE THRONG;
 GIVE UP YOUR PTOLOMY,
 RISE UP AND FOLLOW ME,
 HELIOCENTRICALLY
 PTOLEMY'S WRONG.
   -- NANCY L. STARK
 Job cpu time:       0 days  7 hours  4 minutes 44.8 seconds.
 Elapsed time:       0 days  0 hours 17 minutes 45.7 seconds.
 File lengths (MBytes):  RWF=   8929 Int=      0 D2E=      0 Chk=    390 Scr=      1
 Normal termination of Gaussian 16 at Thu Apr 28 11:04:34 2022.
