 Entering Gaussian System, Link 0=g16
 Initial command:
 /sw/apps/gaussian-16.0/g16/l1.exe "/tmp/Gau-266815.inp" -scrdir="/tmp/"
 Entering Link 1 = /sw/apps/gaussian-16.0/g16/l1.exe PID=    266816.
  
 Copyright (c) 1988,1990,1992,1993,1995,1998,2003,2009,2016,
            Gaussian, Inc.  All Rights Reserved.
  
 This is part of the Gaussian(R) 16 program.  It is based on
 the Gaussian(R) 09 system (copyright 2009, Gaussian, Inc.),
 the Gaussian(R) 03 system (copyright 2003, Gaussian, Inc.),
 the Gaussian(R) 98 system (copyright 1998, Gaussian, Inc.),
 the Gaussian(R) 94 system (copyright 1995, Gaussian, Inc.),
 the Gaussian 92(TM) system (copyright 1992, Gaussian, Inc.),
 the Gaussian 90(TM) system (copyright 1990, Gaussian, Inc.),
 the Gaussian 88(TM) system (copyright 1988, Gaussian, Inc.),
 the Gaussian 86(TM) system (copyright 1986, Carnegie Mellon
 University), and the Gaussian 82(TM) system (copyright 1983,
 Carnegie Mellon University). Gaussian is a federally registered
 trademark of Gaussian, Inc.
  
 This software contains proprietary and confidential information,
 including trade secrets, belonging to Gaussian, Inc.
  
 This software is provided under written license and may be
 used, copied, transmitted, or stored only in accord with that
 written license.
  
 The following legend is applicable only to US Government
 contracts under FAR:
  
                    RESTRICTED RIGHTS LEGEND
  
 Use, reproduction and disclosure by the US Government is
 subject to restrictions as set forth in subparagraphs (a)
 and (c) of the Commercial Computer Software - Restricted
 Rights clause in FAR 52.227-19.
  
 Gaussian, Inc.
 340 Quinnipiac St., Bldg. 40, Wallingford CT 06492
  
  
 ---------------------------------------------------------------
 Warning -- This program may not be used in any manner that
 competes with the business of Gaussian, Inc. or will provide
 assistance to any competitor of Gaussian, Inc.  The licensee
 of this program is prohibited from giving any competitor of
 Gaussian, Inc. access to this program.  By using this program,
 the user acknowledges that Gaussian, Inc. is engaged in the
 business of creating and licensing software in the field of
 computational chemistry and represents and warrants to the
 licensee that it is not a competitor of Gaussian, Inc. and that
 it will not use this program in any manner prohibited above.
 ---------------------------------------------------------------
  

 Cite this work as:
 Gaussian 16, Revision A.03,
 M. J. Frisch, G. W. Trucks, H. B. Schlegel, G. E. Scuseria, 
 M. A. Robb, J. R. Cheeseman, G. Scalmani, V. Barone, 
 G. A. Petersson, H. Nakatsuji, X. Li, M. Caricato, A. V. Marenich, 
 J. Bloino, B. G. Janesko, R. Gomperts, B. Mennucci, H. P. Hratchian, 
 J. V. Ortiz, A. F. Izmaylov, J. L. Sonnenberg, D. Williams-Young, 
 F. Ding, F. Lipparini, F. Egidi, J. Goings, B. Peng, A. Petrone, 
 T. Henderson, D. Ranasinghe, V. G. Zakrzewski, J. Gao, N. Rega, 
 G. Zheng, W. Liang, M. Hada, M. Ehara, K. Toyota, R. Fukuda, 
 J. Hasegawa, M. Ishida, T. Nakajima, Y. Honda, O. Kitao, H. Nakai, 
 T. Vreven, K. Throssell, J. A. Montgomery, Jr., J. E. Peralta, 
 F. Ogliaro, M. J. Bearpark, J. J. Heyd, E. N. Brothers, K. N. Kudin, 
 V. N. Staroverov, T. A. Keith, R. Kobayashi, J. Normand, 
 K. Raghavachari, A. P. Rendell, J. C. Burant, S. S. Iyengar, 
 J. Tomasi, M. Cossi, J. M. Millam, M. Klene, C. Adamo, R. Cammi, 
 J. W. Ochterski, R. L. Martin, K. Morokuma, O. Farkas, 
 J. B. Foresman, and D. J. Fox, Gaussian, Inc., Wallingford CT, 2016.
 
 ******************************************
 Gaussian 16:  ES64L-G16RevA.03 25-Dec-2016
                30-Apr-2022 
 ******************************************
 %nproc=24
 Will use up to   24 processors via shared memory.
 %mem=75GB
 --------------------------------
 #p wB97XD/Def2SVP td=(nstates=5)
 --------------------------------
 1/38=1,172=1/1;
 2/12=2,17=6,18=5,40=1/2;
 3/5=43,7=101,11=9,25=1,30=1,74=-58/1,2,3,8;
 4//1;
 5/5=2,38=5/2;
 8/6=1,10=1,108=5/1;
 9/41=5,42=1,70=2/14;
 6/7=2,8=2,9=2,10=2/1;
 99/5=1,9=1/99;
 Leave Link    1 at Sat Apr 30 00:43:43 2022, MaxMem= 10066329600 cpu:               1.0 elap:               0.0
 (Enter /sw/apps/gaussian-16.0/g16/l101.exe)
 ---------------------------------------------------
 step_51_chromophore_18 TDDFT with wB97XD functional
 ---------------------------------------------------
 Symbolic Z-matrix:
 Charge =  0 Multiplicity = 1
 Mg                    35.034    49.199    25.986 
 C                     35.198    47.432    28.955 
 C                     33.409    51.848    27.81 
 C                     34.407    50.878    23.066 
 C                     36.088    46.414    24.203 
 N                     34.314    49.582    28.141 
 C                     34.77     48.711    29.179 
 C                     34.503    49.457    30.506 
 C                     34.002    50.864    30.056 
 C                     33.899    50.732    28.526 
 C                     32.731    51.395    30.826 
 C                     35.769    49.461    31.446 
 C                     35.467    48.984    32.84 
 C                     33.997    48.918    33.351 
 O                     33.226    47.971    33.26 
 O                     33.634    50.013    34.045 
 N                     34.141    51.147    25.508 
 C                     33.484    52.036    26.377 
 C                     33.055    53.119    25.565 
 C                     33.364    52.95     24.212 
 C                     33.992    51.615    24.208 
 C                     32.219    54.158    26.241 
 C                     33.19     53.794    22.955 
 O                     33.619    53.471    21.847 
 C                     32.382    55.01     23.154 
 N                     35.051    48.633    23.928 
 C                     34.914    49.54     22.947 
 C                     35.104    48.918    21.556 
 C                     35.814    47.63     21.897 
 C                     35.69     47.519    23.471 
 C                     33.852    48.839    20.615 
 C                     37.251    47.484    21.312 
 C                     38.426    48.133    22.145 
 N                     35.504    47.243    26.418 
 C                     35.925    46.227    25.622 
 C                     36.137    45.068    26.403 
 C                     35.891    45.49     27.751 
 C                     35.462    46.81     27.703 
 C                     36.368    43.653    25.881 
 C                     35.972    45.043    29.142 
 O                     36.253    43.939    29.595 
 C                     35.449    46.324    29.992 
 C                     34.146    45.901    30.618 
 O                     32.999    46.257    30.319 
 O                     34.426    45.156    31.722 
 C                     33.255    44.492    32.364 
 C                     32.281    50.06     34.677 
 C                     31.794    51.441    34.601 
 C                     30.788    52.148    35.248 
 C                     29.952    51.594    36.42 
 C                     30.321    53.412    34.59 
 C                     31.343    54.597    34.474 
 C                     30.657    55.946    34.275 
 C                     31.266    57.061    35.196 
 C                     32.758    57.307    34.842 
 C                     30.237    58.252    35.101 
 C                     29.611    58.6      36.434 
 C                     30.51     59.638    37.162 
 C                     29.977    61.117    37.162 
 C                     31.175    62.053    37.477 
 C                     28.728    61.324    38.12 
 C                     27.458    61.934    37.382 
 C                     27.17     63.462    37.709 
 C                     25.713    64.044    37.7 
 C                     25.054    63.835    39.03 
 C                     24.9      63.494    36.535 
 H                     33.032    52.659    28.437 
 H                     34.317    51.416    22.12 
 H                     36.24     45.459    23.696 
 H                     33.699    48.808    30.852 
 H                     34.748    51.638    30.235 
 H                     31.879    51.408    30.146 
 H                     32.837    52.426    31.163 
 H                     32.638    50.689    31.65 
 H                     36.108    50.494    31.515 
 H                     36.575    48.824    31.084 
 H                     36.       49.569    33.589 
 H                     35.817    47.962    32.988 
 H                     32.872    54.943    26.62 
 H                     31.68     53.643    27.036 
 H                     31.638    54.618    25.441 
 H                     31.43     54.544    23.411 
 H                     32.397    55.533    22.198 
 H                     32.888    55.585    23.929 
 H                     35.764    49.606    21.026 
 H                     35.141    46.834    21.578 
 H                     33.035    49.288    21.18 
 H                     33.526    47.809    20.472 
 H                     34.072    49.253    19.631 
 H                     37.25     47.901    20.306 
 H                     37.338    46.431    21.044 
 H                     38.198    48.459    23.16 
 H                     38.698    49.083    21.685 
 H                     39.241    47.41     22.164 
 H                     36.135    42.979    26.706 
 H                     37.389    43.471    25.544 
 H                     35.719    43.502    25.018 
 H                     36.165    46.556    30.781 
 H                     32.671    44.063    31.549 
 H                     32.754    45.228    32.992 
 H                     33.8      43.792    32.996 
 H                     32.423    49.713    35.701 
 H                     31.476    49.423    34.311 
 H                     32.078    52.024    33.724 
 H                     30.232    50.622    36.827 
 H                     28.883    51.46     36.257 
 H                     30.071    52.316    37.227 
 H                     29.523    53.868    35.175 
 H                     29.923    53.231    33.592 
 H                     31.907    54.272    33.6 
 H                     32.019    54.615    35.329 
 H                     29.575    55.903    34.4 
 H                     30.865    56.28     33.259 
 H                     31.187    56.685    36.216 
 H                     33.13     56.596    34.104 
 H                     33.4      57.263    35.722 
 H                     32.899    58.3      34.416 
 H                     29.511    57.977    34.336 
 H                     30.655    59.206    34.78 
 H                     29.5      57.726    37.075 
 H                     28.681    59.124    36.214 
 H                     31.46     59.69     36.629 
 H                     30.727    59.418    38.208 
 H                     29.799    61.423    36.132 
 H                     30.739    62.955    37.907 
 H                     31.794    62.328    36.623 
 H                     31.796    61.548    38.216 
 H                     29.028    62.029    38.895 
 H                     28.553    60.369    38.616 
 H                     26.572    61.343    37.614 
 H                     27.586    61.873    36.302 
 H                     27.704    64.132    37.035 
 H                     27.553    63.623    38.716 
 H                     25.722    65.132    37.628 
 H                     24.987    64.832    39.466 
 H                     25.587    63.169    39.709 
 H                     24.029    63.468    39.076 
 H                     25.641    63.026    35.887 
 H                     24.325    64.226    35.969 
 H                     24.299    62.679    36.939 
 
 ITRead=  0  0  0  0  0  0  0  0  0  0  0  0  0  0  0  0  0  0  0  0
 ITRead=  0  0  0  0  0  0  0  0  0  0  0  0  0  0  0  0  0  0  0  0
 ITRead=  0  0  0  0  0  0  0  0  0  0  0  0  0  0  0  0  0  0  0  0
 ITRead=  0  0  0  0  0  0  0  0  0  0  0  0  0  0  0  0  0  0  0  0
 ITRead=  0  0  0  0  0  0  0  0  0  0  0  0  0  0  0  0  0  0  0  0
 ITRead=  0  0  0  0  0  0  0  0  0  0  0  0  0  0  0  0  0  0  0  0
 ITRead=  0  0  0  0  0  0  0  0  0  0  0  0  0  0  0  0  0  0  0  0
 MicOpt= -1 -1 -1 -1 -1 -1 -1 -1 -1 -1 -1 -1 -1 -1 -1 -1 -1 -1 -1 -1
 MicOpt= -1 -1 -1 -1 -1 -1 -1 -1 -1 -1 -1 -1 -1 -1 -1 -1 -1 -1 -1 -1
 MicOpt= -1 -1 -1 -1 -1 -1 -1 -1 -1 -1 -1 -1 -1 -1 -1 -1 -1 -1 -1 -1
 MicOpt= -1 -1 -1 -1 -1 -1 -1 -1 -1 -1 -1 -1 -1 -1 -1 -1 -1 -1 -1 -1
 MicOpt= -1 -1 -1 -1 -1 -1 -1 -1 -1 -1 -1 -1 -1 -1 -1 -1 -1 -1 -1 -1
 MicOpt= -1 -1 -1 -1 -1 -1 -1 -1 -1 -1 -1 -1 -1 -1 -1 -1 -1 -1 -1 -1
 MicOpt= -1 -1 -1 -1 -1 -1 -1 -1 -1 -1 -1 -1 -1 -1 -1 -1 -1 -1 -1 -1
 NAtoms=    140 NQM=      140 NQMF=       0 NMMI=      0 NMMIF=      0
                NMic=       0 NMicF=      0.
                    Isotopes and Nuclear Properties:
 (Nuclear quadrupole moments (NQMom) in fm**2, nuclear magnetic moments (NMagM)
  in nuclear magnetons)

  Atom         1           2           3           4           5           6           7           8           9          10
 IAtWgt=          24          12          12          12          12          14          12          12          12          12
 AtmWgt=  23.9850450  12.0000000  12.0000000  12.0000000  12.0000000  14.0030740  12.0000000  12.0000000  12.0000000  12.0000000
 NucSpn=           0           0           0           0           0           2           0           0           0           0
 AtZEff=  -0.0000000  -0.0000000  -0.0000000  -0.0000000  -0.0000000  -0.0000000  -0.0000000  -0.0000000  -0.0000000  -0.0000000
 NQMom=    0.0000000   0.0000000   0.0000000   0.0000000   0.0000000   2.0440000   0.0000000   0.0000000   0.0000000   0.0000000
 NMagM=    0.0000000   0.0000000   0.0000000   0.0000000   0.0000000   0.4037610   0.0000000   0.0000000   0.0000000   0.0000000
 AtZNuc=  12.0000000   6.0000000   6.0000000   6.0000000   6.0000000   7.0000000   6.0000000   6.0000000   6.0000000   6.0000000

  Atom        11          12          13          14          15          16          17          18          19          20
 IAtWgt=          12          12          12          12          16          16          14          12          12          12
 AtmWgt=  12.0000000  12.0000000  12.0000000  12.0000000  15.9949146  15.9949146  14.0030740  12.0000000  12.0000000  12.0000000
 NucSpn=           0           0           0           0           0           0           2           0           0           0
 AtZEff=  -0.0000000  -0.0000000  -0.0000000  -0.0000000  -0.0000000  -0.0000000  -0.0000000  -0.0000000  -0.0000000  -0.0000000
 NQMom=    0.0000000   0.0000000   0.0000000   0.0000000   0.0000000   0.0000000   2.0440000   0.0000000   0.0000000   0.0000000
 NMagM=    0.0000000   0.0000000   0.0000000   0.0000000   0.0000000   0.0000000   0.4037610   0.0000000   0.0000000   0.0000000
 AtZNuc=   6.0000000   6.0000000   6.0000000   6.0000000   8.0000000   8.0000000   7.0000000   6.0000000   6.0000000   6.0000000

  Atom        21          22          23          24          25          26          27          28          29          30
 IAtWgt=          12          12          12          16          12          14          12          12          12          12
 AtmWgt=  12.0000000  12.0000000  12.0000000  15.9949146  12.0000000  14.0030740  12.0000000  12.0000000  12.0000000  12.0000000
 NucSpn=           0           0           0           0           0           2           0           0           0           0
 AtZEff=  -0.0000000  -0.0000000  -0.0000000  -0.0000000  -0.0000000  -0.0000000  -0.0000000  -0.0000000  -0.0000000  -0.0000000
 NQMom=    0.0000000   0.0000000   0.0000000   0.0000000   0.0000000   2.0440000   0.0000000   0.0000000   0.0000000   0.0000000
 NMagM=    0.0000000   0.0000000   0.0000000   0.0000000   0.0000000   0.4037610   0.0000000   0.0000000   0.0000000   0.0000000
 AtZNuc=   6.0000000   6.0000000   6.0000000   8.0000000   6.0000000   7.0000000   6.0000000   6.0000000   6.0000000   6.0000000

  Atom        31          32          33          34          35          36          37          38          39          40
 IAtWgt=          12          12          12          14          12          12          12          12          12          12
 AtmWgt=  12.0000000  12.0000000  12.0000000  14.0030740  12.0000000  12.0000000  12.0000000  12.0000000  12.0000000  12.0000000
 NucSpn=           0           0           0           2           0           0           0           0           0           0
 AtZEff=  -0.0000000  -0.0000000  -0.0000000  -0.0000000  -0.0000000  -0.0000000  -0.0000000  -0.0000000  -0.0000000  -0.0000000
 NQMom=    0.0000000   0.0000000   0.0000000   2.0440000   0.0000000   0.0000000   0.0000000   0.0000000   0.0000000   0.0000000
 NMagM=    0.0000000   0.0000000   0.0000000   0.4037610   0.0000000   0.0000000   0.0000000   0.0000000   0.0000000   0.0000000
 AtZNuc=   6.0000000   6.0000000   6.0000000   7.0000000   6.0000000   6.0000000   6.0000000   6.0000000   6.0000000   6.0000000

  Atom        41          42          43          44          45          46          47          48          49          50
 IAtWgt=          16          12          12          16          16          12          12          12          12          12
 AtmWgt=  15.9949146  12.0000000  12.0000000  15.9949146  15.9949146  12.0000000  12.0000000  12.0000000  12.0000000  12.0000000
 NucSpn=           0           0           0           0           0           0           0           0           0           0
 AtZEff=  -0.0000000  -0.0000000  -0.0000000  -0.0000000  -0.0000000  -0.0000000  -0.0000000  -0.0000000  -0.0000000  -0.0000000
 NQMom=    0.0000000   0.0000000   0.0000000   0.0000000   0.0000000   0.0000000   0.0000000   0.0000000   0.0000000   0.0000000
 NMagM=    0.0000000   0.0000000   0.0000000   0.0000000   0.0000000   0.0000000   0.0000000   0.0000000   0.0000000   0.0000000
 AtZNuc=   8.0000000   6.0000000   6.0000000   8.0000000   8.0000000   6.0000000   6.0000000   6.0000000   6.0000000   6.0000000

  Atom        51          52          53          54          55          56          57          58          59          60
 IAtWgt=          12          12          12          12          12          12          12          12          12          12
 AtmWgt=  12.0000000  12.0000000  12.0000000  12.0000000  12.0000000  12.0000000  12.0000000  12.0000000  12.0000000  12.0000000
 NucSpn=           0           0           0           0           0           0           0           0           0           0
 AtZEff=  -0.0000000  -0.0000000  -0.0000000  -0.0000000  -0.0000000  -0.0000000  -0.0000000  -0.0000000  -0.0000000  -0.0000000
 NQMom=    0.0000000   0.0000000   0.0000000   0.0000000   0.0000000   0.0000000   0.0000000   0.0000000   0.0000000   0.0000000
 NMagM=    0.0000000   0.0000000   0.0000000   0.0000000   0.0000000   0.0000000   0.0000000   0.0000000   0.0000000   0.0000000
 AtZNuc=   6.0000000   6.0000000   6.0000000   6.0000000   6.0000000   6.0000000   6.0000000   6.0000000   6.0000000   6.0000000

  Atom        61          62          63          64          65          66          67          68          69          70
 IAtWgt=          12          12          12          12          12          12           1           1           1           1
 AtmWgt=  12.0000000  12.0000000  12.0000000  12.0000000  12.0000000  12.0000000   1.0078250   1.0078250   1.0078250   1.0078250
 NucSpn=           0           0           0           0           0           0           1           1           1           1
 AtZEff=  -0.0000000  -0.0000000  -0.0000000  -0.0000000  -0.0000000  -0.0000000  -0.0000000  -0.0000000  -0.0000000  -0.0000000
 NQMom=    0.0000000   0.0000000   0.0000000   0.0000000   0.0000000   0.0000000   0.0000000   0.0000000   0.0000000   0.0000000
 NMagM=    0.0000000   0.0000000   0.0000000   0.0000000   0.0000000   0.0000000   2.7928460   2.7928460   2.7928460   2.7928460
 AtZNuc=   6.0000000   6.0000000   6.0000000   6.0000000   6.0000000   6.0000000   1.0000000   1.0000000   1.0000000   1.0000000

  Atom        71          72          73          74          75          76          77          78          79          80
 IAtWgt=           1           1           1           1           1           1           1           1           1           1
 AtmWgt=   1.0078250   1.0078250   1.0078250   1.0078250   1.0078250   1.0078250   1.0078250   1.0078250   1.0078250   1.0078250
 NucSpn=           1           1           1           1           1           1           1           1           1           1
 AtZEff=  -0.0000000  -0.0000000  -0.0000000  -0.0000000  -0.0000000  -0.0000000  -0.0000000  -0.0000000  -0.0000000  -0.0000000
 NQMom=    0.0000000   0.0000000   0.0000000   0.0000000   0.0000000   0.0000000   0.0000000   0.0000000   0.0000000   0.0000000
 NMagM=    2.7928460   2.7928460   2.7928460   2.7928460   2.7928460   2.7928460   2.7928460   2.7928460   2.7928460   2.7928460
 AtZNuc=   1.0000000   1.0000000   1.0000000   1.0000000   1.0000000   1.0000000   1.0000000   1.0000000   1.0000000   1.0000000

  Atom        81          82          83          84          85          86          87          88          89          90
 IAtWgt=           1           1           1           1           1           1           1           1           1           1
 AtmWgt=   1.0078250   1.0078250   1.0078250   1.0078250   1.0078250   1.0078250   1.0078250   1.0078250   1.0078250   1.0078250
 NucSpn=           1           1           1           1           1           1           1           1           1           1
 AtZEff=  -0.0000000  -0.0000000  -0.0000000  -0.0000000  -0.0000000  -0.0000000  -0.0000000  -0.0000000  -0.0000000  -0.0000000
 NQMom=    0.0000000   0.0000000   0.0000000   0.0000000   0.0000000   0.0000000   0.0000000   0.0000000   0.0000000   0.0000000
 NMagM=    2.7928460   2.7928460   2.7928460   2.7928460   2.7928460   2.7928460   2.7928460   2.7928460   2.7928460   2.7928460
 AtZNuc=   1.0000000   1.0000000   1.0000000   1.0000000   1.0000000   1.0000000   1.0000000   1.0000000   1.0000000   1.0000000

  Atom        91          92          93          94          95          96          97          98          99         100
 IAtWgt=           1           1           1           1           1           1           1           1           1           1
 AtmWgt=   1.0078250   1.0078250   1.0078250   1.0078250   1.0078250   1.0078250   1.0078250   1.0078250   1.0078250   1.0078250
 NucSpn=           1           1           1           1           1           1           1           1           1           1
 AtZEff=  -0.0000000  -0.0000000  -0.0000000  -0.0000000  -0.0000000  -0.0000000  -0.0000000  -0.0000000  -0.0000000  -0.0000000
 NQMom=    0.0000000   0.0000000   0.0000000   0.0000000   0.0000000   0.0000000   0.0000000   0.0000000   0.0000000   0.0000000
 NMagM=    2.7928460   2.7928460   2.7928460   2.7928460   2.7928460   2.7928460   2.7928460   2.7928460   2.7928460   2.7928460
 AtZNuc=   1.0000000   1.0000000   1.0000000   1.0000000   1.0000000   1.0000000   1.0000000   1.0000000   1.0000000   1.0000000

  Atom       101         102         103         104         105         106         107         108         109         110
 IAtWgt=           1           1           1           1           1           1           1           1           1           1
 AtmWgt=   1.0078250   1.0078250   1.0078250   1.0078250   1.0078250   1.0078250   1.0078250   1.0078250   1.0078250   1.0078250
 NucSpn=           1           1           1           1           1           1           1           1           1           1
 AtZEff=  -0.0000000  -0.0000000  -0.0000000  -0.0000000  -0.0000000  -0.0000000  -0.0000000  -0.0000000  -0.0000000  -0.0000000
 NQMom=    0.0000000   0.0000000   0.0000000   0.0000000   0.0000000   0.0000000   0.0000000   0.0000000   0.0000000   0.0000000
 NMagM=    2.7928460   2.7928460   2.7928460   2.7928460   2.7928460   2.7928460   2.7928460   2.7928460   2.7928460   2.7928460
 AtZNuc=   1.0000000   1.0000000   1.0000000   1.0000000   1.0000000   1.0000000   1.0000000   1.0000000   1.0000000   1.0000000

  Atom       111         112         113         114         115         116         117         118         119         120
 IAtWgt=           1           1           1           1           1           1           1           1           1           1
 AtmWgt=   1.0078250   1.0078250   1.0078250   1.0078250   1.0078250   1.0078250   1.0078250   1.0078250   1.0078250   1.0078250
 NucSpn=           1           1           1           1           1           1           1           1           1           1
 AtZEff=  -0.0000000  -0.0000000  -0.0000000  -0.0000000  -0.0000000  -0.0000000  -0.0000000  -0.0000000  -0.0000000  -0.0000000
 NQMom=    0.0000000   0.0000000   0.0000000   0.0000000   0.0000000   0.0000000   0.0000000   0.0000000   0.0000000   0.0000000
 NMagM=    2.7928460   2.7928460   2.7928460   2.7928460   2.7928460   2.7928460   2.7928460   2.7928460   2.7928460   2.7928460
 AtZNuc=   1.0000000   1.0000000   1.0000000   1.0000000   1.0000000   1.0000000   1.0000000   1.0000000   1.0000000   1.0000000

  Atom       121         122         123         124         125         126         127         128         129         130
 IAtWgt=           1           1           1           1           1           1           1           1           1           1
 AtmWgt=   1.0078250   1.0078250   1.0078250   1.0078250   1.0078250   1.0078250   1.0078250   1.0078250   1.0078250   1.0078250
 NucSpn=           1           1           1           1           1           1           1           1           1           1
 AtZEff=  -0.0000000  -0.0000000  -0.0000000  -0.0000000  -0.0000000  -0.0000000  -0.0000000  -0.0000000  -0.0000000  -0.0000000
 NQMom=    0.0000000   0.0000000   0.0000000   0.0000000   0.0000000   0.0000000   0.0000000   0.0000000   0.0000000   0.0000000
 NMagM=    2.7928460   2.7928460   2.7928460   2.7928460   2.7928460   2.7928460   2.7928460   2.7928460   2.7928460   2.7928460
 AtZNuc=   1.0000000   1.0000000   1.0000000   1.0000000   1.0000000   1.0000000   1.0000000   1.0000000   1.0000000   1.0000000

  Atom       131         132         133         134         135         136         137         138         139         140
 IAtWgt=           1           1           1           1           1           1           1           1           1           1
 AtmWgt=   1.0078250   1.0078250   1.0078250   1.0078250   1.0078250   1.0078250   1.0078250   1.0078250   1.0078250   1.0078250
 NucSpn=           1           1           1           1           1           1           1           1           1           1
 AtZEff=  -0.0000000  -0.0000000  -0.0000000  -0.0000000  -0.0000000  -0.0000000  -0.0000000  -0.0000000  -0.0000000  -0.0000000
 NQMom=    0.0000000   0.0000000   0.0000000   0.0000000   0.0000000   0.0000000   0.0000000   0.0000000   0.0000000   0.0000000
 NMagM=    2.7928460   2.7928460   2.7928460   2.7928460   2.7928460   2.7928460   2.7928460   2.7928460   2.7928460   2.7928460
 AtZNuc=   1.0000000   1.0000000   1.0000000   1.0000000   1.0000000   1.0000000   1.0000000   1.0000000   1.0000000   1.0000000
 Leave Link  101 at Sat Apr 30 00:43:43 2022, MaxMem= 10066329600 cpu:               2.9 elap:               0.1
 (Enter /sw/apps/gaussian-16.0/g16/l202.exe)
 Stoichiometry    C55H74MgN4O6
 Framework group  C1[X(C55H74MgN4O6)]
 Deg. of freedom   414
 Full point group                 C1      NOp   1
 Largest Abelian subgroup         C1      NOp   1
 Largest concise Abelian subgroup C1      NOp   1
                         Standard orientation:                         
 ---------------------------------------------------------------------
 Center     Atomic      Atomic             Coordinates (Angstroms)
 Number     Number       Type             X           Y           Z
 ---------------------------------------------------------------------
      1         12           0        5.123354    1.140570    0.300091
      2          6           0        4.531283   -2.267116    0.335760
      3          6           0        1.563359    1.618707    0.012641
      4          6           0        5.574580    4.501977   -0.185617
      5          6           0        8.540690    0.602515    0.019847
      6          7           0        3.242594   -0.178828    0.123894
      7          6           0        3.356002   -1.573420    0.417618
      8          6           0        1.912941   -2.076780    0.647700
      9          6           0        1.046204   -0.780989    0.594389
     10          6           0        2.059473    0.308380    0.200060
     11          6           0       -0.269248   -0.895844   -0.269727
     12          6           0        1.785988   -2.918674    1.974903
     13          6           0        1.126667   -4.253691    1.762784
     14          6           0        0.309989   -4.534061    0.466325
     15          8           0        0.732750   -4.993202   -0.587237
     16          8           0       -1.010291   -4.322424    0.622853
     17          7           0        3.758908    2.844733    0.066094
     18          6           0        2.361798    2.821296   -0.090961
     19          6           0        1.971045    4.177216   -0.249285
     20          6           0        3.050204    5.066068   -0.246257
     21          6           0        4.199372    4.148683   -0.126082
     22          6           0        0.526364    4.415068   -0.552133
     23          6           0        3.196620    6.581002   -0.324984
     24          8           0        4.271726    7.172500   -0.223441
     25          6           0        1.940365    7.292223   -0.620128
     26          7           0        6.809937    2.340844   -0.220283
     27          6           0        6.753473    3.682509   -0.197365
     28          6           0        8.123341    4.321941   -0.466536
     29          6           0        9.053841    3.163948   -0.197196
     30          6           0        8.096031    1.908534   -0.088991
     31          6           0        8.307507    5.115066   -1.806783
     32          6           0       10.050218    3.368017    0.983524
     33          6           0        9.514634    3.030438    2.430903
     34          7           0        6.366467   -0.490424    0.132798
     35          6           0        7.717964   -0.579775    0.040148
     36          6           0        8.100424   -1.938637   -0.033365
     37          6           0        6.874096   -2.667893    0.108082
     38          6           0        5.841114   -1.740962    0.158024
     39          6           0        9.483566   -2.472763   -0.393504
     40          6           0        6.337063   -4.020611    0.259735
     41          8           0        6.913150   -5.101845    0.214529
     42          6           0        4.732387   -3.791938    0.358293
     43          6           0        4.149792   -4.405800   -0.887648
     44          8           0        3.671198   -3.832671   -1.874673
     45          8           0        4.070569   -5.751755   -0.702258
     46          6           0        3.691784   -6.545851   -1.906515
     47          6           0       -1.937368   -4.634324   -0.506522
     48          6           0       -3.015949   -3.641043   -0.493827
     49          6           0       -4.277323   -3.576636   -1.072863
     50          6           0       -4.941010   -4.737530   -1.841786
     51          6           0       -4.902881   -2.217860   -1.178466
     52          6           0       -5.266491   -1.474386    0.154651
     53          6           0       -6.319149   -0.387713   -0.047967
     54          6           0       -7.437891   -0.435410    1.051345
     55          6           0       -6.835131   -0.161250    2.456127
     56          6           0       -8.573752    0.505979    0.494610
     57          6           0       -9.879789   -0.220410    0.256928
     58          6           0      -10.717801   -0.200419    1.565732
     59          6           0      -11.928239    0.802625    1.582252
     60          6           0      -12.326928    1.040646    3.063778
     61          6           0      -13.131447    0.334777    0.658118
     62          6           0      -13.553858    1.417222   -0.427942
     63          6           0      -14.913035    2.177935   -0.113919
     64          6           0      -15.842804    2.707215   -1.261545
     65          6           0      -16.777134    1.629290   -1.721945
     66          6           0      -15.033406    3.323675   -2.395364
     67          1           0        0.474752    1.700603    0.047366
     68          1           0        5.766488    5.575579   -0.240474
     69          1           0        9.569882    0.360064   -0.252476
     70          1           0        1.844812   -2.673750   -0.261321
     71          1           0        0.677625   -0.497148    1.579893
     72          1           0       -0.164814   -0.283159   -1.165374
     73          1           0       -1.148851   -0.501802    0.238992
     74          1           0       -0.336705   -1.965668   -0.462045
     75          1           0        1.159051   -2.343412    2.655194
     76          1           0        2.746794   -3.134434    2.440467
     77          1           0        0.451401   -4.502690    2.580911
     78          1           0        1.863423   -5.057471    1.758992
     79          1           0       -0.009567    4.563399    0.384377
     80          1           0        0.181967    3.535455   -1.095679
     81          1           0        0.499359    5.377908   -1.063377
     82          1           0        1.748145    6.895443   -1.617688
     83          1           0        2.187487    8.353058   -0.584771
     84          1           0        1.245694    7.019805    0.173916
     85          1           0        8.227251    5.098589    0.292322
     86          1           0        9.552281    2.964984   -1.146025
     87          1           0        7.344116    5.057022   -2.313562
     88          1           0        8.983636    4.596669   -2.486298
     89          1           0        8.722416    6.106299   -1.624141
     90          1           0       10.395536    4.400536    0.959317
     91          1           0       10.972625    2.887632    0.657032
     92          1           0        8.569849    2.491001    2.500722
     93          1           0        9.252103    3.961606    2.932987
     94          1           0       10.298505    2.468879    2.938360
     95          1           0        9.342003   -3.508489   -0.704020
     96          1           0       10.195790   -2.437766    0.431508
     97          1           0        9.890089   -1.846876   -1.188348
     98          1           0        4.341441   -4.316469    1.230664
     99          1           0        4.282738   -6.141400   -2.729020
    100          1           0        2.608338   -6.500114   -2.012032
    101          1           0        3.975606   -7.531159   -1.539008
    102          1           0       -2.290091   -5.650080   -0.324933
    103          1           0       -1.567041   -4.682064   -1.530402
    104          1           0       -2.760560   -2.629353   -0.176126
    105          1           0       -4.426929   -5.699031   -1.850109
    106          1           0       -5.140259   -4.590037   -2.902838
    107          1           0       -5.899031   -4.900382   -1.349477
    108          1           0       -5.876636   -2.288569   -1.661959
    109          1           0       -4.298629   -1.534257   -1.774064
    110          1           0       -4.287246   -1.075938    0.419065
    111          1           0       -5.566847   -2.182244    0.927339
    112          1           0       -6.766418   -0.399539   -1.041953
    113          1           0       -5.833703    0.577780    0.090742
    114          1           0       -7.849563   -1.444090    1.018055
    115          1           0       -5.747245   -0.094096    2.432796
    116          1           0       -7.121181   -0.924397    3.180200
    117          1           0       -7.196717    0.785054    2.857588
    118          1           0       -8.172068    0.985709   -0.397823
    119          1           0       -8.872560    1.319060    1.156044
    120          1           0       -9.723761   -1.256967   -0.040196
    121          1           0      -10.443319    0.378158   -0.458632
    122          1           0      -10.069115    0.140954    2.373174
    123          1           0      -11.143823   -1.159143    1.863993
    124          1           0      -11.556883    1.800338    1.352287
    125          1           0      -13.375964    1.336746    3.042635
    126          1           0      -11.751455    1.803024    3.588861
    127          1           0      -12.216039    0.091238    3.586383
    128          1           0      -13.991094    0.166822    1.306537
    129          1           0      -12.852386   -0.636906    0.249924
    130          1           0      -13.620366    0.952533   -1.411681
    131          1           0      -12.786798    2.186268   -0.509738
    132          1           0      -14.752745    3.065446    0.498424
    133          1           0      -15.514743    1.476199    0.462425
    134          1           0      -16.540397    3.458763   -0.890669
    135          1           0      -17.759261    1.943961   -1.368388
    136          1           0      -16.550555    0.631273   -1.346031
    137          1           0      -16.931631    1.463925   -2.787879
    138          1           0      -14.032846    3.440434   -1.979123
    139          1           0      -15.391655    4.282388   -2.768636
    140          1           0      -14.949393    2.555357   -3.164306
 ---------------------------------------------------------------------
 Rotational constants (GHZ):           0.0424277           0.0100762           0.0084343
 Leave Link  202 at Sat Apr 30 00:43:43 2022, MaxMem= 10066329600 cpu:               0.2 elap:               0.0
 (Enter /sw/apps/gaussian-16.0/g16/l301.exe)
 Standard basis: def2SVP (5D, 7F)
 Ernie: Thresh=  0.10000D-02 Tol=  0.10000D-05 Strict=F.
 There are  1364 symmetry adapted cartesian basis functions of A   symmetry.
 There are  1298 symmetry adapted basis functions of A   symmetry.
  1298 basis functions,  2180 primitive gaussians,  1364 cartesian basis functions
   246 alpha electrons      246 beta electrons
       nuclear repulsion energy      9583.1070796842 Hartrees.
 IExCor= 4639 DFT=T Ex+Corr=wB97XD ExCW=0 ScaHFX=  1.000000
 ScaDFX=  1.000000  1.000000  1.000000  1.000000 ScalE2=  1.000000  1.000000
 IRadAn=      5 IRanWt=     -1 IRanGd=            0 ICorTp=0 IEmpDi=121
 HFx  wShort=  0.000000 wLong=  0.200000 cFull=  0.222036 cShort=  0.000000 cLong=  0.777964
 DFx  wShort=  0.000000 wLong=  0.200000 cFull=  0.000000 cShort=  0.000000 cLong=  1.000000
 NAtoms=  140 NActive=  140 NUniq=  140 SFac= 1.00D+00 NAtFMM=   60 NAOKFM=T Big=T
 Integral buffers will be    131072 words long.
 Raffenetti 1 integral format.
 Two-electron integral symmetry is turned on.
 R6Disp:  Grimme-D2 Dispersion energy=       -0.1366632721 Hartrees.
 Nuclear repulsion after empirical dispersion term =     9582.9704164121 Hartrees.
 Leave Link  301 at Sat Apr 30 00:43:43 2022, MaxMem= 10066329600 cpu:               1.3 elap:               0.1
 (Enter /sw/apps/gaussian-16.0/g16/l302.exe)
 NPDir=0 NMtPBC=     1 NCelOv=     1 NCel=       1 NClECP=     1 NCelD=      1
         NCelK=      1 NCelE2=     1 NClLst=     1 CellRange=     0.0.
 One-electron integrals computed using PRISM.
 One-electron integral symmetry used in STVInt
   1 Symmetry operations used in ECPInt.
 ECPInt:  NShTT=  192510 NPrTT=  683786 LenC2=   94938 LenP2D=  208253.
 LDataN:  DoStor=T MaxTD1= 4 Len=   56
 NBasis=  1298 RedAO= T EigKep=  2.65D-04  NBF=  1298
 NBsUse=  1298 1.00D-06 EigRej= -1.00D+00 NBFU=  1298
 Precomputing XC quadrature grid using
 IXCGrd= 4 IRadAn=           5 IRanWt=          -1 IRanGd=           0 AccXCQ= 0.00D+00.
 Generated NRdTot=       0 NPtTot=           0 NUsed=           0 NTot=          32
 NSgBfM=  1109  1109  1109  1109  1109 MxSgAt=   140 MxSgA2=   140.
 Leave Link  302 at Sat Apr 30 00:43:47 2022, MaxMem= 10066329600 cpu:              80.0 elap:               3.4
 (Enter /sw/apps/gaussian-16.0/g16/l303.exe)
 DipDrv:  MaxL=1.
 Leave Link  303 at Sat Apr 30 00:43:47 2022, MaxMem= 10066329600 cpu:               6.1 elap:               0.3
 (Enter /sw/apps/gaussian-16.0/g16/l308.exe)
 Leave Link  308 at Sat Apr 30 00:43:47 2022, MaxMem= 10066329600 cpu:               9.0 elap:               0.4
 (Enter /sw/apps/gaussian-16.0/g16/l401.exe)
 ExpMin= 3.36D-02 ExpMax= 4.95D+03 ExpMxC= 7.45D+02 IAcc=3 IRadAn=         5 AccDes= 0.00D+00
 Harris functional with IExCor= 4639 and IRadAn=       5 diagonalized for initial guess.
 HarFok:  IExCor= 4639 AccDes= 0.00D+00 IRadAn=         5 IDoV= 1 UseB2=F ITyADJ=14
 ICtDFT=  3500011 ScaDFX=  1.000000  1.000000  1.000000  1.000000
 FoFCou: FMM=F IPFlag=           0 FMFlag=      100000 FMFlg1=        2001
         NFxFlg=           0 DoJE=T BraDBF=F KetDBF=T FulRan=T
         wScrn=  0.000000 ICntrl=       500 IOpCl=  0 I1Cent=   200000004 NGrid=           0
         NMat0=    1 NMatS0=      1 NMatT0=    0 NMatD0=    1 NMtDS0=    0 NMtDT0=    0
 Petite list used in FoFCou.
 Harris En= -2878.02733552702    
 JPrj=0 DoOrth=F DoCkMO=F.
 Leave Link  401 at Sat Apr 30 00:43:53 2022, MaxMem= 10066329600 cpu:             131.7 elap:               5.5
 (Enter /sw/apps/gaussian-16.0/g16/l502.exe)
 Integral symmetry usage will be decided dynamically.
 Closed shell SCF:
 Using DIIS extrapolation, IDIIS=  1040.
 NGot= 10066329600 LenX= 10062561258 LenY= 10060699398
 Requested convergence on RMS density matrix=1.00D-08 within 128 cycles.
 Requested convergence on MAX density matrix=1.00D-06.
 Requested convergence on             energy=1.00D-06.
 No special actions if energy rises.
 Fock matrices will be formed incrementally for  20 cycles.

 Cycle   1  Pass 1  IDiag  1:
 FoFJK:  IHMeth= 1 ICntrl=       0 DoSepK=T KAlg= 0 I1Cent=           0 FoldK=F
 IRaf=         1 NMat=       1 IRICut=       1 DoRegI=T DoRafI=F ISym2E= 0 IDoP0=0 IntGTp=1.
 FoFCou: FMM=T IPFlag=           0 FMFlag=      100000 FMFlg1=        2001
         NFxFlg=           0 DoJE=T BraDBF=F KetDBF=F FulRan=T
         wScrn=  0.000000 ICntrl=       500 IOpCl=  0 I1Cent=           0 NGrid=           0
         NMat0=    1 NMatS0=      1 NMatT0=    0 NMatD0=    1 NMtDS0=    0 NMtDT0=    0
 Symmetry not used in FoFCou.
 FMM levels:  10  Number of levels for PrismC:   9
 E= -3007.21055782633    
 DIIS: error= 2.14D-02 at cycle   1 NSaved=   1.
 NSaved= 1 IEnMin= 1 EnMin= -3007.21055782633     IErMin= 1 ErrMin= 2.14D-02
 ErrMax= 2.14D-02  0.00D+00 EMaxC= 1.00D-01 BMatC= 1.48D+00 BMatP= 1.48D+00
 IDIUse=3 WtCom= 7.86D-01 WtEn= 2.14D-01
 Coeff-Com:  0.100D+01
 Coeff-En:   0.100D+01
 Coeff:      0.100D+01
 Gap=     0.150 Goal=   None    Shift=    0.000
 GapD=    0.150 DampG=1.000 DampE=0.500 DampFc=0.5000 IDamp=-1.
 Damping current iteration by 5.00D-01
 RMSDP=1.50D-03 MaxDP=1.56D-01              OVMax= 1.65D-01

 Cycle   2  Pass 1  IDiag  1:
 RMSU=  7.41D-04    CP:  9.88D-01
 E= -3007.52772518145     Delta-E=       -0.317167355119 Rises=F Damp=T
 DIIS: error= 1.22D-02 at cycle   2 NSaved=   2.
 NSaved= 2 IEnMin= 2 EnMin= -3007.52772518145     IErMin= 2 ErrMin= 1.22D-02
 ErrMax= 1.22D-02  0.00D+00 EMaxC= 1.00D-01 BMatC= 2.88D-01 BMatP= 1.48D+00
 IDIUse=3 WtCom= 8.78D-01 WtEn= 1.22D-01
 Coeff-Com: -0.363D+00 0.136D+01
 Coeff-En:   0.000D+00 0.100D+01
 Coeff:     -0.319D+00 0.132D+01
 Gap=     0.178 Goal=   None    Shift=    0.000
 RMSDP=6.84D-04 MaxDP=7.67D-02 DE=-3.17D-01 OVMax= 1.44D-01

 Cycle   3  Pass 1  IDiag  1:
 RMSU=  6.32D-04    CP:  9.81D-01  1.34D+00
 E= -3007.75974302645     Delta-E=       -0.232017844997 Rises=F Damp=F
 DIIS: error= 9.50D-03 at cycle   3 NSaved=   3.
 NSaved= 3 IEnMin= 3 EnMin= -3007.75974302645     IErMin= 3 ErrMin= 9.50D-03
 ErrMax= 9.50D-03  0.00D+00 EMaxC= 1.00D-01 BMatC= 1.35D-01 BMatP= 2.88D-01
 IDIUse=3 WtCom= 9.05D-01 WtEn= 9.50D-02
 Coeff-Com: -0.314D+00 0.692D+00 0.622D+00
 Coeff-En:   0.000D+00 0.000D+00 0.100D+01
 Coeff:     -0.284D+00 0.626D+00 0.658D+00
 Gap=     0.158 Goal=   None    Shift=    0.000
 RMSDP=3.87D-04 MaxDP=4.43D-02 DE=-2.32D-01 OVMax= 8.40D-02

 Cycle   4  Pass 1  IDiag  1:
 RMSU=  2.08D-04    CP:  9.77D-01  1.61D+00  5.98D-01
 E= -3007.86149768524     Delta-E=       -0.101754658790 Rises=F Damp=F
 DIIS: error= 3.01D-03 at cycle   4 NSaved=   4.
 NSaved= 4 IEnMin= 4 EnMin= -3007.86149768524     IErMin= 4 ErrMin= 3.01D-03
 ErrMax= 3.01D-03  0.00D+00 EMaxC= 1.00D-01 BMatC= 1.54D-02 BMatP= 1.35D-01
 IDIUse=3 WtCom= 9.70D-01 WtEn= 3.01D-02
 Coeff-Com: -0.122D+00 0.244D+00 0.352D+00 0.525D+00
 Coeff-En:   0.000D+00 0.000D+00 0.411D-01 0.959D+00
 Coeff:     -0.118D+00 0.236D+00 0.343D+00 0.538D+00
 Gap=     0.159 Goal=   None    Shift=    0.000
 RMSDP=1.11D-04 MaxDP=1.39D-02 DE=-1.02D-01 OVMax= 2.31D-02

 Cycle   5  Pass 1  IDiag  1:
 RMSU=  5.93D-05    CP:  9.77D-01  1.59D+00  7.00D-01  6.77D-01
 E= -3007.87411693636     Delta-E=       -0.012619251125 Rises=F Damp=F
 DIIS: error= 6.04D-04 at cycle   5 NSaved=   5.
 NSaved= 5 IEnMin= 5 EnMin= -3007.87411693636     IErMin= 5 ErrMin= 6.04D-04
 ErrMax= 6.04D-04  0.00D+00 EMaxC= 1.00D-01 BMatC= 3.95D-04 BMatP= 1.54D-02
 IDIUse=3 WtCom= 9.94D-01 WtEn= 6.04D-03
 Coeff-Com: -0.327D-01 0.625D-01 0.114D+00 0.231D+00 0.625D+00
 Coeff-En:   0.000D+00 0.000D+00 0.000D+00 0.000D+00 0.100D+01
 Coeff:     -0.325D-01 0.622D-01 0.114D+00 0.230D+00 0.627D+00
 Gap=     0.159 Goal=   None    Shift=    0.000
 RMSDP=2.50D-05 MaxDP=4.21D-03 DE=-1.26D-02 OVMax= 5.39D-03

 Cycle   6  Pass 1  IDiag  1:
 RMSU=  2.19D-05    CP:  9.77D-01  1.60D+00  7.05D-01  7.25D-01  9.21D-01
 E= -3007.87446980286     Delta-E=       -0.000352866495 Rises=F Damp=F
 DIIS: error= 2.80D-04 at cycle   6 NSaved=   6.
 NSaved= 6 IEnMin= 6 EnMin= -3007.87446980286     IErMin= 6 ErrMin= 2.80D-04
 ErrMax= 2.80D-04  0.00D+00 EMaxC= 1.00D-01 BMatC= 6.81D-05 BMatP= 3.95D-04
 IDIUse=3 WtCom= 9.97D-01 WtEn= 2.80D-03
 Coeff-Com:  0.109D-01-0.234D-01-0.192D-01-0.513D-02 0.290D+00 0.746D+00
 Coeff-En:   0.000D+00 0.000D+00 0.000D+00 0.000D+00 0.000D+00 0.100D+01
 Coeff:      0.109D-01-0.233D-01-0.191D-01-0.512D-02 0.290D+00 0.747D+00
 Gap=     0.160 Goal=   None    Shift=    0.000
 RMSDP=1.36D-05 MaxDP=1.39D-03 DE=-3.53D-04 OVMax= 6.72D-03

 Cycle   7  Pass 1  IDiag  1:
 RMSU=  9.80D-06    CP:  9.77D-01  1.60D+00  7.10D-01  7.42D-01  1.05D+00
                    CP:  1.00D+00
 E= -3007.87458887029     Delta-E=       -0.000119067427 Rises=F Damp=F
 DIIS: error= 8.27D-05 at cycle   7 NSaved=   7.
 NSaved= 7 IEnMin= 7 EnMin= -3007.87458887029     IErMin= 7 ErrMin= 8.27D-05
 ErrMax= 8.27D-05  0.00D+00 EMaxC= 1.00D-01 BMatC= 8.66D-06 BMatP= 6.81D-05
 IDIUse=1 WtCom= 1.00D+00 WtEn= 0.00D+00
 Coeff-Com:  0.711D-02-0.143D-01-0.180D-01-0.267D-01 0.282D-01 0.263D+00
 Coeff-Com:  0.760D+00
 Coeff:      0.711D-02-0.143D-01-0.180D-01-0.267D-01 0.282D-01 0.263D+00
 Coeff:      0.760D+00
 Gap=     0.160 Goal=   None    Shift=    0.000
 RMSDP=7.37D-06 MaxDP=1.13D-03 DE=-1.19D-04 OVMax= 4.35D-03

 Cycle   8  Pass 1  IDiag  1:
 RMSU=  4.44D-06    CP:  9.77D-01  1.60D+00  7.12D-01  7.49D-01  1.09D+00
                    CP:  1.20D+00  1.27D+00
 E= -3007.87462382720     Delta-E=       -0.000034956918 Rises=F Damp=F
 DIIS: error= 6.56D-05 at cycle   8 NSaved=   8.
 NSaved= 8 IEnMin= 8 EnMin= -3007.87462382720     IErMin= 8 ErrMin= 6.56D-05
 ErrMax= 6.56D-05  0.00D+00 EMaxC= 1.00D-01 BMatC= 2.86D-06 BMatP= 8.66D-06
 IDIUse=1 WtCom= 1.00D+00 WtEn= 0.00D+00
 Coeff-Com:  0.364D-03-0.361D-03-0.323D-02-0.109D-01-0.661D-01-0.810D-01
 Coeff-Com:  0.305D+00 0.856D+00
 Coeff:      0.364D-03-0.361D-03-0.323D-02-0.109D-01-0.661D-01-0.810D-01
 Coeff:      0.305D+00 0.856D+00
 Gap=     0.160 Goal=   None    Shift=    0.000
 RMSDP=6.11D-06 MaxDP=4.91D-04 DE=-3.50D-05 OVMax= 4.60D-03

 Cycle   9  Pass 1  IDiag  1:
 RMSU=  2.62D-06    CP:  9.77D-01  1.60D+00  7.12D-01  7.52D-01  1.12D+00
                    CP:  1.30D+00  1.70D+00  1.47D+00
 E= -3007.87464579525     Delta-E=       -0.000021968051 Rises=F Damp=F
 DIIS: error= 4.73D-05 at cycle   9 NSaved=   9.
 NSaved= 9 IEnMin= 9 EnMin= -3007.87464579525     IErMin= 9 ErrMin= 4.73D-05
 ErrMax= 4.73D-05  0.00D+00 EMaxC= 1.00D-01 BMatC= 1.12D-06 BMatP= 2.86D-06
 IDIUse=1 WtCom= 1.00D+00 WtEn= 0.00D+00
 Coeff-Com: -0.287D-02 0.580D-02 0.645D-02 0.893D-02-0.248D-01-0.122D+00
 Coeff-Com: -0.252D+00 0.231D+00 0.115D+01
 Coeff:     -0.287D-02 0.580D-02 0.645D-02 0.893D-02-0.248D-01-0.122D+00
 Coeff:     -0.252D+00 0.231D+00 0.115D+01
 Gap=     0.160 Goal=   None    Shift=    0.000
 RMSDP=6.35D-06 MaxDP=5.32D-04 DE=-2.20D-05 OVMax= 4.61D-03

 Cycle  10  Pass 1  IDiag  1:
 RMSU=  1.51D-06    CP:  9.77D-01  1.60D+00  7.13D-01  7.54D-01  1.13D+00
                    CP:  1.41D+00  2.10D+00  2.24D+00  1.70D+00
 E= -3007.87465925422     Delta-E=       -0.000013458968 Rises=F Damp=F
 DIIS: error= 1.98D-05 at cycle  10 NSaved=  10.
 NSaved=10 IEnMin=10 EnMin= -3007.87465925422     IErMin=10 ErrMin= 1.98D-05
 ErrMax= 1.98D-05  0.00D+00 EMaxC= 1.00D-01 BMatC= 3.75D-07 BMatP= 1.12D-06
 IDIUse=1 WtCom= 1.00D+00 WtEn= 0.00D+00
 Coeff-Com: -0.154D-02 0.297D-02 0.426D-02 0.900D-02 0.147D-01-0.274D-01
 Coeff-Com: -0.249D+00-0.212D+00 0.544D+00 0.915D+00
 Coeff:     -0.154D-02 0.297D-02 0.426D-02 0.900D-02 0.147D-01-0.274D-01
 Coeff:     -0.249D+00-0.212D+00 0.544D+00 0.915D+00
 Gap=     0.161 Goal=   None    Shift=    0.000
 RMSDP=4.08D-06 MaxDP=3.42D-04 DE=-1.35D-05 OVMax= 3.22D-03

 Cycle  11  Pass 1  IDiag  1:
 RMSU=  8.63D-07    CP:  9.77D-01  1.60D+00  7.13D-01  7.55D-01  1.15D+00
                    CP:  1.46D+00  2.36D+00  2.70D+00  2.41D+00  1.36D+00
 E= -3007.87466336799     Delta-E=       -0.000004113772 Rises=F Damp=F
 DIIS: error= 1.16D-05 at cycle  11 NSaved=  11.
 NSaved=11 IEnMin=11 EnMin= -3007.87466336799     IErMin=11 ErrMin= 1.16D-05
 ErrMax= 1.16D-05  0.00D+00 EMaxC= 1.00D-01 BMatC= 1.13D-07 BMatP= 3.75D-07
 IDIUse=1 WtCom= 1.00D+00 WtEn= 0.00D+00
 Coeff-Com: -0.788D-04 0.993D-04 0.488D-03 0.243D-02 0.127D-01 0.148D-01
 Coeff-Com: -0.623D-01-0.159D+00-0.159D-01 0.433D+00 0.774D+00
 Coeff:     -0.788D-04 0.993D-04 0.488D-03 0.243D-02 0.127D-01 0.148D-01
 Coeff:     -0.623D-01-0.159D+00-0.159D-01 0.433D+00 0.774D+00
 Gap=     0.161 Goal=   None    Shift=    0.000
 RMSDP=1.66D-06 MaxDP=1.28D-04 DE=-4.11D-06 OVMax= 1.17D-03

 Cycle  12  Pass 1  IDiag  1:
 RMSU=  4.10D-07    CP:  9.77D-01  1.60D+00  7.13D-01  7.55D-01  1.15D+00
                    CP:  1.48D+00  2.45D+00  2.90D+00  2.68D+00  1.71D+00
                    CP:  1.20D+00
 E= -3007.87466404756     Delta-E=       -0.000000679569 Rises=F Damp=F
 DIIS: error= 3.76D-06 at cycle  12 NSaved=  12.
 NSaved=12 IEnMin=12 EnMin= -3007.87466404756     IErMin=12 ErrMin= 3.76D-06
 ErrMax= 3.76D-06  0.00D+00 EMaxC= 1.00D-01 BMatC= 2.23D-08 BMatP= 1.13D-07
 IDIUse=1 WtCom= 1.00D+00 WtEn= 0.00D+00
 Coeff-Com:  0.461D-03-0.914D-03-0.121D-02-0.183D-02 0.118D-03 0.141D-01
 Coeff-Com:  0.603D-01 0.113D-01-0.178D+00-0.146D+00 0.305D+00 0.938D+00
 Coeff:      0.461D-03-0.914D-03-0.121D-02-0.183D-02 0.118D-03 0.141D-01
 Coeff:      0.603D-01 0.113D-01-0.178D+00-0.146D+00 0.305D+00 0.938D+00
 Gap=     0.161 Goal=   None    Shift=    0.000
 RMSDP=7.81D-07 MaxDP=1.24D-04 DE=-6.80D-07 OVMax= 5.67D-04

 Cycle  13  Pass 1  IDiag  1:
 RMSU=  1.84D-07    CP:  9.77D-01  1.60D+00  7.13D-01  7.55D-01  1.15D+00
                    CP:  1.48D+00  2.48D+00  2.96D+00  2.84D+00  1.91D+00
                    CP:  1.58D+00  1.22D+00
 E= -3007.87466417097     Delta-E=       -0.000000123411 Rises=F Damp=F
 DIIS: error= 1.09D-06 at cycle  13 NSaved=  13.
 NSaved=13 IEnMin=13 EnMin= -3007.87466417097     IErMin=13 ErrMin= 1.09D-06
 ErrMax= 1.09D-06  0.00D+00 EMaxC= 1.00D-01 BMatC= 3.87D-09 BMatP= 2.23D-08
 IDIUse=1 WtCom= 1.00D+00 WtEn= 0.00D+00
 Coeff-Com:  0.203D-03-0.396D-03-0.581D-03-0.108D-02-0.166D-02 0.322D-02
 Coeff-Com:  0.338D-01 0.259D-01-0.680D-01-0.127D+00 0.832D-02 0.388D+00
 Coeff-Com:  0.739D+00
 Coeff:      0.203D-03-0.396D-03-0.581D-03-0.108D-02-0.166D-02 0.322D-02
 Coeff:      0.338D-01 0.259D-01-0.680D-01-0.127D+00 0.832D-02 0.388D+00
 Coeff:      0.739D+00
 Gap=     0.161 Goal=   None    Shift=    0.000
 RMSDP=2.19D-07 MaxDP=2.90D-05 DE=-1.23D-07 OVMax= 1.34D-04

 Cycle  14  Pass 1  IDiag  1:
 RMSU=  7.41D-08    CP:  9.77D-01  1.60D+00  7.13D-01  7.55D-01  1.15D+00
                    CP:  1.48D+00  2.49D+00  2.97D+00  2.88D+00  1.96D+00
                    CP:  1.69D+00  1.39D+00  1.07D+00
 E= -3007.87466418294     Delta-E=       -0.000000011969 Rises=F Damp=F
 DIIS: error= 6.16D-07 at cycle  14 NSaved=  14.
 NSaved=14 IEnMin=14 EnMin= -3007.87466418294     IErMin=14 ErrMin= 6.16D-07
 ErrMax= 6.16D-07  0.00D+00 EMaxC= 1.00D-01 BMatC= 4.74D-10 BMatP= 3.87D-09
 IDIUse=1 WtCom= 1.00D+00 WtEn= 0.00D+00
 Coeff-Com: -0.955D-05 0.217D-04 0.809D-05-0.499D-04-0.515D-03-0.151D-02
 Coeff-Com:  0.122D-02 0.608D-02 0.890D-02-0.188D-01-0.475D-01-0.223D-01
 Coeff-Com:  0.215D+00 0.859D+00
 Coeff:     -0.955D-05 0.217D-04 0.809D-05-0.499D-04-0.515D-03-0.151D-02
 Coeff:      0.122D-02 0.608D-02 0.890D-02-0.188D-01-0.475D-01-0.223D-01
 Coeff:      0.215D+00 0.859D+00
 Gap=     0.161 Goal=   None    Shift=    0.000
 RMSDP=7.90D-08 MaxDP=2.02D-05 DE=-1.20D-08 OVMax= 4.37D-05

 Cycle  15  Pass 1  IDiag  1:
 RMSU=  3.33D-08    CP:  9.77D-01  1.60D+00  7.13D-01  7.55D-01  1.15D+00
                    CP:  1.48D+00  2.49D+00  2.97D+00  2.89D+00  1.98D+00
                    CP:  1.73D+00  1.45D+00  1.26D+00  1.15D+00
 E= -3007.87466418466     Delta-E=       -0.000000001713 Rises=F Damp=F
 DIIS: error= 2.55D-07 at cycle  15 NSaved=  15.
 NSaved=15 IEnMin=15 EnMin= -3007.87466418466     IErMin=15 ErrMin= 2.55D-07
 ErrMax= 2.55D-07  0.00D+00 EMaxC= 1.00D-01 BMatC= 2.00D-10 BMatP= 4.74D-10
 IDIUse=1 WtCom= 1.00D+00 WtEn= 0.00D+00
 Coeff-Com: -0.467D-04 0.928D-04 0.124D-03 0.195D-03 0.989D-04-0.144D-02
 Coeff-Com: -0.624D-02-0.271D-02 0.188D-01 0.164D-01-0.228D-01-0.853D-01
 Coeff-Com: -0.640D-01 0.445D+00 0.702D+00
 Coeff:     -0.467D-04 0.928D-04 0.124D-03 0.195D-03 0.989D-04-0.144D-02
 Coeff:     -0.624D-02-0.271D-02 0.188D-01 0.164D-01-0.228D-01-0.853D-01
 Coeff:     -0.640D-01 0.445D+00 0.702D+00
 Gap=     0.161 Goal=   None    Shift=    0.000
 RMSDP=3.09D-08 MaxDP=3.72D-06 DE=-1.71D-09 OVMax= 1.55D-05

 Cycle  16  Pass 1  IDiag  1:
 RMSU=  1.69D-08    CP:  9.77D-01  1.60D+00  7.13D-01  7.55D-01  1.15D+00
                    CP:  1.48D+00  2.49D+00  2.97D+00  2.89D+00  1.98D+00
                    CP:  1.74D+00  1.48D+00  1.31D+00  1.38D+00  1.10D+00
 E= -3007.87466418541     Delta-E=       -0.000000000753 Rises=F Damp=F
 DIIS: error= 1.49D-07 at cycle  16 NSaved=  16.
 NSaved=16 IEnMin=16 EnMin= -3007.87466418541     IErMin=16 ErrMin= 1.49D-07
 ErrMax= 1.49D-07  0.00D+00 EMaxC= 1.00D-01 BMatC= 2.86D-11 BMatP= 2.00D-10
 IDIUse=1 WtCom= 1.00D+00 WtEn= 0.00D+00
 Coeff-Com: -0.138D-04 0.268D-04 0.405D-04 0.710D-04 0.139D-03-0.213D-03
 Coeff-Com: -0.236D-02-0.213D-02 0.546D-02 0.847D-02-0.370D-03-0.248D-01
 Coeff-Com: -0.752D-01 0.128D-01 0.217D+00 0.861D+00
 Coeff:     -0.138D-04 0.268D-04 0.405D-04 0.710D-04 0.139D-03-0.213D-03
 Coeff:     -0.236D-02-0.213D-02 0.546D-02 0.847D-02-0.370D-03-0.248D-01
 Coeff:     -0.752D-01 0.128D-01 0.217D+00 0.861D+00
 Gap=     0.161 Goal=   None    Shift=    0.000
 RMSDP=1.93D-08 MaxDP=4.06D-06 DE=-7.53D-10 OVMax= 1.03D-05

 Cycle  17  Pass 1  IDiag  1:
 RMSU=  8.04D-09    CP:  9.77D-01  1.60D+00  7.13D-01  7.55D-01  1.15D+00
                    CP:  1.48D+00  2.49D+00  2.97D+00  2.89D+00  1.98D+00
                    CP:  1.74D+00  1.49D+00  1.35D+00  1.49D+00  1.35D+00
                    CP:  1.38D+00
 E= -3007.87466418561     Delta-E=       -0.000000000202 Rises=F Damp=F
 DIIS: error= 9.41D-08 at cycle  17 NSaved=  17.
 NSaved=17 IEnMin=17 EnMin= -3007.87466418561     IErMin=17 ErrMin= 9.41D-08
 ErrMax= 9.41D-08  0.00D+00 EMaxC= 1.00D-01 BMatC= 1.07D-11 BMatP= 2.86D-11
 IDIUse=1 WtCom= 1.00D+00 WtEn= 0.00D+00
 Coeff-Com:  0.800D-05-0.162D-04-0.204D-04-0.312D-04 0.309D-04 0.332D-03
 Coeff-Com:  0.896D-03-0.562D-04-0.325D-02-0.184D-02 0.669D-02 0.181D-01
 Coeff-Com: -0.153D-01-0.104D+00-0.131D+00 0.333D+00 0.896D+00
 Coeff:      0.800D-05-0.162D-04-0.204D-04-0.312D-04 0.309D-04 0.332D-03
 Coeff:      0.896D-03-0.562D-04-0.325D-02-0.184D-02 0.669D-02 0.181D-01
 Coeff:     -0.153D-01-0.104D+00-0.131D+00 0.333D+00 0.896D+00
 Gap=     0.161 Goal=   None    Shift=    0.000
 RMSDP=1.22D-08 MaxDP=8.77D-07 DE=-2.02D-10 OVMax= 8.34D-06

 Cycle  18  Pass 1  IDiag  1:
 RMSU=  4.35D-09    CP:  9.77D-01  1.60D+00  7.13D-01  7.55D-01  1.15D+00
                    CP:  1.48D+00  2.49D+00  2.97D+00  2.89D+00  1.98D+00
                    CP:  1.74D+00  1.50D+00  1.35D+00  1.55D+00  1.52D+00
                    CP:  1.83D+00  1.43D+00
 E= -3007.87466418567     Delta-E=       -0.000000000055 Rises=F Damp=F
 DIIS: error= 5.44D-08 at cycle  18 NSaved=  18.
 NSaved=18 IEnMin=18 EnMin= -3007.87466418567     IErMin=18 ErrMin= 5.44D-08
 ErrMax= 5.44D-08  0.00D+00 EMaxC= 1.00D-01 BMatC= 3.99D-12 BMatP= 1.07D-11
 IDIUse=1 WtCom= 1.00D+00 WtEn= 0.00D+00
 Coeff-Com:  0.902D-05-0.177D-04-0.256D-04-0.431D-04-0.354D-04 0.238D-03
 Coeff-Com:  0.130D-02 0.858D-03-0.355D-02-0.430D-02 0.305D-02 0.187D-01
 Coeff-Com:  0.172D-01-0.497D-01-0.153D+00-0.162D+00 0.427D+00 0.904D+00
 Coeff:      0.902D-05-0.177D-04-0.256D-04-0.431D-04-0.354D-04 0.238D-03
 Coeff:      0.130D-02 0.858D-03-0.355D-02-0.430D-02 0.305D-02 0.187D-01
 Coeff:      0.172D-01-0.497D-01-0.153D+00-0.162D+00 0.427D+00 0.904D+00
 Gap=     0.161 Goal=   None    Shift=    0.000
 RMSDP=9.65D-09 MaxDP=7.94D-07 DE=-5.46D-11 OVMax= 6.13D-06

 SCF Done:  E(RwB97XD) =  -3007.87466419     A.U. after   18 cycles
            NFock= 18  Conv=0.96D-08     -V/T= 2.0110
 KE= 2.975253649727D+03 PE=-2.615912462060D+04 EE= 1.059302589028D+04
 Leave Link  502 at Sat Apr 30 00:50:33 2022, MaxMem= 10066329600 cpu:            9156.6 elap:             399.7
 (Enter /sw/apps/gaussian-16.0/g16/l801.exe)
 DoSCS=F DFT=T ScalE2(SS,OS)=  1.000000  1.000000
 ExpMin= 3.36D-02 ExpMax= 4.95D+03 ExpMxC= 7.45D+02 IAcc=3 IRadAn=         5 AccDes= 0.00D+00
 HarFok:  IExCor=  205 AccDes= 0.00D+00 IRadAn=         5 IDoV=-2 UseB2=F ITyADJ=14
 ICtDFT= 12500011 ScaDFX=  1.000000  1.000000  1.000000  1.000000
 GSVD:  LWork=       -5460 too small for GESVD, short by       25550 words or       25550 for optimal perf.
 Largest valence mixing into a core orbital is  1.27D-04
 Largest core mixing into a valence orbital is  5.63D-05
 Range of M.O.s used for correlation:    71  1298
 NBasis=  1298 NAE=   246 NBE=   246 NFC=    70 NFV=     0
 NROrb=   1228 NOA=   176 NOB=   176 NVA=  1052 NVB=  1052
 Leave Link  801 at Sat Apr 30 00:50:33 2022, MaxMem= 10066329600 cpu:               6.4 elap:               0.3
 (Enter /sw/apps/gaussian-16.0/g16/l914.exe)
 RHF ground state
 Two-electron integrals replicated using symmetry.
 MDV= 10066329600 DFT=T DoStab=F Mixed=T DoRPA=T DoScal=F NonHer=T
 Making orbital integer symmetry assigments:
 Orbital symmetries:
       Occupied  (A) (A) (A) (A) (A) (A) (A) (A) (A) (A) (A) (A)
                 (A) (A) (A) (A) (A) (A) (A) (A) (A) (A) (A) (A)
                 (A) (A) (A) (A) (A) (A) (A) (A) (A) (A) (A) (A)
                 (A) (A) (A) (A) (A) (A) (A) (A) (A) (A) (A) (A)
                 (A) (A) (A) (A) (A) (A) (A) (A) (A) (A) (A) (A)
                 (A) (A) (A) (A) (A) (A) (A) (A) (A) (A) (A) (A)
                 (A) (A) (A) (A) (A) (A) (A) (A) (A) (A) (A) (A)
                 (A) (A) (A) (A) (A) (A) (A) (A) (A) (A) (A) (A)
                 (A) (A) (A) (A) (A) (A) (A) (A) (A) (A) (A) (A)
                 (A) (A) (A) (A) (A) (A) (A) (A) (A) (A) (A) (A)
                 (A) (A) (A) (A) (A) (A) (A) (A) (A) (A) (A) (A)
                 (A) (A) (A) (A) (A) (A) (A) (A) (A) (A) (A) (A)
                 (A) (A) (A) (A) (A) (A) (A) (A) (A) (A) (A) (A)
                 (A) (A) (A) (A) (A) (A) (A) (A) (A) (A) (A) (A)
                 (A) (A) (A) (A) (A) (A) (A) (A) (A) (A) (A) (A)
                 (A) (A) (A) (A) (A) (A) (A) (A) (A) (A) (A) (A)
                 (A) (A) (A) (A) (A) (A) (A) (A) (A) (A) (A) (A)
                 (A) (A) (A) (A) (A) (A) (A) (A) (A) (A) (A) (A)
                 (A) (A) (A) (A) (A) (A) (A) (A) (A) (A) (A) (A)
                 (A) (A) (A) (A) (A) (A) (A) (A) (A) (A) (A) (A)
                 (A) (A) (A) (A) (A) (A)
       Virtual   (A) (A) (A) (A) (A) (A) (A) (A) (A) (A) (A) (A)
                 (A) (A) (A) (A) (A) (A) (A) (A) (A) (A) (A) (A)
                 (A) (A) (A) (A) (A) (A) (A) (A) (A) (A) (A) (A)
                 (A) (A) (A) (A) (A) (A) (A) (A) (A) (A) (A) (A)
                 (A) (A) (A) (A) (A) (A) (A) (A) (A) (A) (A) (A)
                 (A) (A) (A) (A) (A) (A) (A) (A) (A) (A) (A) (A)
                 (A) (A) (A) (A) (A) (A) (A) (A) (A) (A) (A) (A)
                 (A) (A) (A) (A) (A) (A) (A) (A) (A) (A) (A) (A)
                 (A) (A) (A) (A) (A) (A) (A) (A) (A) (A) (A) (A)
                 (A) (A) (A) (A) (A) (A) (A) (A) (A) (A) (A) (A)
                 (A) (A) (A) (A) (A) (A) (A) (A) (A) (A) (A) (A)
                 (A) (A) (A) (A) (A) (A) (A) (A) (A) (A) (A) (A)
                 (A) (A) (A) (A) (A) (A) (A) (A) (A) (A) (A) (A)
                 (A) (A) (A) (A) (A) (A) (A) (A) (A) (A) (A) (A)
                 (A) (A) (A) (A) (A) (A) (A) (A) (A) (A) (A) (A)
                 (A) (A) (A) (A) (A) (A) (A) (A) (A) (A) (A) (A)
                 (A) (A) (A) (A) (A) (A) (A) (A) (A) (A) (A) (A)
                 (A) (A) (A) (A) (A) (A) (A) (A) (A) (A) (A) (A)
                 (A) (A) (A) (A) (A) (A) (A) (A) (A) (A) (A) (A)
                 (A) (A) (A) (A) (A) (A) (A) (A) (A) (A) (A) (A)
                 (A) (A) (A) (A) (A) (A) (A) (A) (A) (A) (A) (A)
                 (A) (A) (A) (A) (A) (A) (A) (A) (A) (A) (A) (A)
                 (A) (A) (A) (A) (A) (A) (A) (A) (A) (A) (A) (A)
                 (A) (A) (A) (A) (A) (A) (A) (A) (A) (A) (A) (A)
                 (A) (A) (A) (A) (A) (A) (A) (A) (A) (A) (A) (A)
                 (A) (A) (A) (A) (A) (A) (A) (A) (A) (A) (A) (A)
                 (A) (A) (A) (A) (A) (A) (A) (A) (A) (A) (A) (A)
                 (A) (A) (A) (A) (A) (A) (A) (A) (A) (A) (A) (A)
                 (A) (A) (A) (A) (A) (A) (A) (A) (A) (A) (A) (A)
                 (A) (A) (A) (A) (A) (A) (A) (A) (A) (A) (A) (A)
                 (A) (A) (A) (A) (A) (A) (A) (A) (A) (A) (A) (A)
                 (A) (A) (A) (A) (A) (A) (A) (A) (A) (A) (A) (A)
                 (A) (A) (A) (A) (A) (A) (A) (A) (A) (A) (A) (A)
                 (A) (A) (A) (A) (A) (A) (A) (A) (A) (A) (A) (A)
                 (A) (A) (A) (A) (A) (A) (A) (A) (A) (A) (A) (A)
                 (A) (A) (A) (A) (A) (A) (A) (A) (A) (A) (A) (A)
                 (A) (A) (A) (A) (A) (A) (A) (A) (A) (A) (A) (A)
                 (A) (A) (A) (A) (A) (A) (A) (A) (A) (A) (A) (A)
                 (A) (A) (A) (A) (A) (A) (A) (A) (A) (A) (A) (A)
                 (A) (A) (A) (A) (A) (A) (A) (A) (A) (A) (A) (A)
                 (A) (A) (A) (A) (A) (A) (A) (A) (A) (A) (A) (A)
                 (A) (A) (A) (A) (A) (A) (A) (A) (A) (A) (A) (A)
                 (A) (A) (A) (A) (A) (A) (A) (A) (A) (A) (A) (A)
                 (A) (A) (A) (A) (A) (A) (A) (A) (A) (A) (A) (A)
                 (A) (A) (A) (A) (A) (A) (A) (A) (A) (A) (A) (A)
                 (A) (A) (A) (A) (A) (A) (A) (A) (A) (A) (A) (A)
                 (A) (A) (A) (A) (A) (A) (A) (A) (A) (A) (A) (A)
                 (A) (A) (A) (A) (A) (A) (A) (A) (A) (A) (A) (A)
                 (A) (A) (A) (A) (A) (A) (A) (A) (A) (A) (A) (A)
                 (A) (A) (A) (A) (A) (A) (A) (A) (A) (A) (A) (A)
                 (A) (A) (A) (A) (A) (A) (A) (A) (A) (A) (A) (A)
                 (A) (A) (A) (A) (A) (A) (A) (A) (A) (A) (A) (A)
                 (A) (A) (A) (A) (A) (A) (A) (A) (A) (A) (A) (A)
                 (A) (A) (A) (A) (A) (A) (A) (A) (A) (A) (A) (A)
                 (A) (A) (A) (A) (A) (A) (A) (A) (A) (A) (A) (A)
                 (A) (A) (A) (A) (A) (A) (A) (A) (A) (A) (A) (A)
                 (A) (A) (A) (A) (A) (A) (A) (A) (A) (A) (A) (A)
                 (A) (A) (A) (A) (A) (A) (A) (A) (A) (A) (A) (A)
                 (A) (A) (A) (A) (A) (A) (A) (A) (A) (A) (A) (A)
                 (A) (A) (A) (A) (A) (A) (A) (A) (A) (A) (A) (A)
                 (A) (A) (A) (A) (A) (A) (A) (A) (A) (A) (A) (A)
                 (A) (A) (A) (A) (A) (A) (A) (A) (A) (A) (A) (A)
                 (A) (A) (A) (A) (A) (A) (A) (A) (A) (A) (A) (A)
                 (A) (A) (A) (A) (A) (A) (A) (A) (A) (A) (A) (A)
                 (A) (A) (A) (A) (A) (A) (A) (A) (A) (A) (A) (A)
                 (A) (A) (A) (A) (A) (A) (A) (A) (A) (A) (A) (A)
                 (A) (A) (A) (A) (A) (A) (A) (A) (A) (A) (A) (A)
                 (A) (A) (A) (A) (A) (A) (A) (A) (A) (A) (A) (A)
                 (A) (A) (A) (A) (A) (A) (A) (A) (A) (A) (A) (A)
                 (A) (A) (A) (A) (A) (A) (A) (A) (A) (A) (A) (A)
                 (A) (A) (A) (A) (A) (A) (A) (A) (A) (A) (A) (A)
                 (A) (A) (A) (A) (A) (A) (A) (A) (A) (A) (A) (A)
                 (A) (A) (A) (A) (A) (A) (A) (A) (A) (A) (A) (A)
                 (A) (A) (A) (A) (A) (A) (A) (A) (A) (A) (A) (A)
                 (A) (A) (A) (A) (A) (A) (A) (A) (A) (A) (A) (A)
                 (A) (A) (A) (A) (A) (A) (A) (A) (A) (A) (A) (A)
                 (A) (A) (A) (A) (A) (A) (A) (A) (A) (A) (A) (A)
                 (A) (A) (A) (A) (A) (A) (A) (A) (A) (A) (A) (A)
                 (A) (A) (A) (A) (A) (A) (A) (A) (A) (A) (A) (A)
                 (A) (A) (A) (A) (A) (A) (A) (A) (A) (A) (A) (A)
                 (A) (A) (A) (A) (A) (A) (A) (A) (A) (A) (A) (A)
                 (A) (A) (A) (A) (A) (A) (A) (A) (A) (A) (A) (A)
                 (A) (A) (A) (A) (A) (A) (A) (A) (A) (A) (A) (A)
                 (A) (A) (A) (A) (A) (A) (A) (A) (A) (A) (A) (A)
                 (A) (A) (A) (A) (A) (A) (A) (A) (A) (A) (A) (A)
                 (A) (A) (A) (A) (A) (A) (A) (A) (A) (A) (A) (A)
                 (A) (A) (A) (A) (A) (A) (A) (A) (A) (A) (A) (A)
                 (A) (A) (A) (A) (A) (A) (A) (A)
    20 initial guesses have been made.
 Convergence on wavefunction:    0.001000000000000
 Davidson Disk Diagonalization:  ConvIn= 1.00D-03 SkipCon=T Conv= 1.00D-03.
 Max sub-space:  2000 roots to seek:    20 dimension of matrix:       370304
 Iteration     1 Dimension    20 NMult     0 NNew     20
 CISAX will form    20 AO SS matrices at one time.
 NMat=    20 NSing=    20 JSym2X= 0.
 FoFJK:  IHMeth= 1 ICntrl=       0 DoSepK=T KAlg= 0 I1Cent=           0 FoldK=F
 IRaf=         1 NMat=      40 IRICut=       1 DoRegI=T DoRafI=F ISym2E= 0 IDoP0=3 IntGTp=3.
 FoFCou: FMM=T IPFlag=           0 FMFlag=      100000 FMFlg1=        2001
         NFxFlg=           0 DoJE=F BraDBF=F KetDBF=F FulRan=T
         wScrn=  0.000000 ICntrl=       500 IOpCl=  0 I1Cent=           0 NGrid=           0
         NMat0=   20 NMatS0=     20 NMatT0=    0 NMatD0=   20 NMtDS0=    0 NMtDT0=    0
 Symmetry not used in FoFCou.
 FMM levels:  10  Number of levels for PrismC:   9
 New state      4 was old state      8
 New state      5 was old state     11
 Excitation Energies [eV] at current iteration:
 Root      1 :     2.276292643645934
 Root      2 :     2.603551045725047
 Root      3 :     3.692261072082998
 Root      4 :     3.840816988217358
 Root      5 :     4.241452172922481
 Root      6 :     4.289375775163029
 Root      7 :     4.326095845575379
 Root      8 :     4.366218628762379
 Root      9 :     4.481434184286524
 Root     10 :     4.642651278796401
 Root     11 :     4.675067472125924
 Root     12 :     4.909879300288700
 Root     13 :     5.003443407747883
 Root     14 :     5.108937249087425
 Root     15 :     5.148414640033277
 Root     16 :     5.246188757057562
 Root     17 :     5.335329747846783
 Root     18 :     5.977544210500694
 Root     19 :     6.034974442834195
 Root     20 :     6.595604681787813
 Iteration     2 Dimension    30 NMult    20 NNew     10
 CISAX will form    10 AO SS matrices at one time.
 NMat=    10 NSing=    10 JSym2X= 0.
 Root      1 not converged, maximum delta is    0.068036761297910
 Root      2 not converged, maximum delta is    0.059689203324100
 Root      3 not converged, maximum delta is    0.229283363385128
 Root      4 not converged, maximum delta is    0.185821757266762
 Root      5 not converged, maximum delta is    0.112870594393240
 Excitation Energies [eV] at current iteration:
 Root      1 :     1.811094103664439   Change is   -0.465198539981495
 Root      2 :     2.178282281643870   Change is   -0.425268764081178
 Root      3 :     3.318953409455278   Change is   -0.373307662627720
 Root      4 :     3.490147915925679   Change is   -0.350669072291678
 Root      5 :     3.903354199726502   Change is   -0.338097973195980
 Iteration     3 Dimension    40 NMult    30 NNew     10
 CISAX will form    10 AO SS matrices at one time.
 NMat=    10 NSing=    10 JSym2X= 0.
 Root      1 not converged, maximum delta is    0.023828819678177
 Root      2 not converged, maximum delta is    0.023133363373505
 Root      3 not converged, maximum delta is    0.027491764112809
 Root      4 not converged, maximum delta is    0.024015096792260
 Root      5 not converged, maximum delta is    0.107529670616697
 Excitation Energies [eV] at current iteration:
 Root      1 :     1.772330593660299   Change is   -0.038763510004139
 Root      2 :     2.153160746606186   Change is   -0.025121535037684
 Root      3 :     3.301943101318375   Change is   -0.017010308136904
 Root      4 :     3.472676860451471   Change is   -0.017471055474208
 Root      5 :     3.770522390674150   Change is   -0.132831809052352
 Iteration     4 Dimension    50 NMult    40 NNew     10
 CISAX will form    10 AO SS matrices at one time.
 NMat=    10 NSing=    10 JSym2X= 0.
 Root      1 not converged, maximum delta is    0.005963020460145
 Root      2 not converged, maximum delta is    0.002595410690780
 Root      3 not converged, maximum delta is    0.008777294357163
 Root      4 not converged, maximum delta is    0.013764493320296
 Root      5 not converged, maximum delta is    0.093286012664396
 Excitation Energies [eV] at current iteration:
 Root      1 :     1.767961285158746   Change is   -0.004369308501554
 Root      2 :     2.150376518083990   Change is   -0.002784228522196
 Root      3 :     3.298880162300339   Change is   -0.003062939018035
 Root      4 :     3.468491634861583   Change is   -0.004185225589888
 Root      5 :     3.700478538458781   Change is   -0.070043852215369
 Iteration     5 Dimension    60 NMult    50 NNew     10
 CISAX will form    10 AO SS matrices at one time.
 NMat=    10 NSing=    10 JSym2X= 0.
 Root      1 not converged, maximum delta is    0.001341156234483
 Root      2 has converged.
 Root      3 not converged, maximum delta is    0.001093594491426
 Root      4 not converged, maximum delta is    0.004789622085592
 Root      5 not converged, maximum delta is    0.045043676497331
 Excitation Energies [eV] at current iteration:
 Root      1 :     1.767563674118143   Change is   -0.000397611040603
 Root      2 :     2.150176831041211   Change is   -0.000199687042779
 Root      3 :     3.298556915127053   Change is   -0.000323247173287
 Root      4 :     3.467735434243105   Change is   -0.000756200618478
 Root      5 :     3.679948250997361   Change is   -0.020530287461420
 Iteration     6 Dimension    68 NMult    60 NNew      8
 CISAX will form     8 AO SS matrices at one time.
 NMat=     8 NSing=     8 JSym2X= 0.
 Root      1 has converged.
 Root      2 has converged.
 Root      3 has converged.
 Root      4 not converged, maximum delta is    0.002243890654863
 Root      5 not converged, maximum delta is    0.023608401773816
 Excitation Energies [eV] at current iteration:
 Root      1 :     1.767528171731262   Change is   -0.000035502386881
 Root      2 :     2.150176301200886   Change is   -0.000000529840325
 Root      3 :     3.298515025565248   Change is   -0.000041889561805
 Root      4 :     3.467566413916095   Change is   -0.000169020327010
 Root      5 :     3.674896766298280   Change is   -0.005051484699081
 Iteration     7 Dimension    72 NMult    68 NNew      4
 CISAX will form     4 AO SS matrices at one time.
 NMat=     4 NSing=     4 JSym2X= 0.
 Root      1 has converged.
 Root      2 has converged.
 Root      3 has converged.
 Root      4 not converged, maximum delta is    0.001066551556758
 Root      5 not converged, maximum delta is    0.013387305011310
 Excitation Energies [eV] at current iteration:
 Root      1 :     1.767527756416579   Change is   -0.000000415314682
 Root      2 :     2.150175250677971   Change is   -0.000001050522915
 Root      3 :     3.298514200596756   Change is   -0.000000824968493
 Root      4 :     3.467522921854915   Change is   -0.000043492061180
 Root      5 :     3.673934575452749   Change is   -0.000962190845530
 Iteration     8 Dimension    76 NMult    72 NNew      4
 CISAX will form     4 AO SS matrices at one time.
 NMat=     4 NSing=     4 JSym2X= 0.
 Root      1 has converged.
 Root      2 has converged.
 Root      3 has converged.
 Root      4 not converged, maximum delta is    0.001036653062005
 Root      5 not converged, maximum delta is    0.005905529473989
 Excitation Energies [eV] at current iteration:
 Root      1 :     1.767527719023746   Change is   -0.000000037392833
 Root      2 :     2.150174824143785   Change is   -0.000000426534186
 Root      3 :     3.298513756201082   Change is   -0.000000444395673
 Root      4 :     3.467507399643407   Change is   -0.000015522211508
 Root      5 :     3.673778841466131   Change is   -0.000155733986619
 Iteration     9 Dimension    80 NMult    76 NNew      4
 CISAX will form     4 AO SS matrices at one time.
 NMat=     4 NSing=     4 JSym2X= 0.
 Root      1 has converged.
 Root      2 has converged.
 Root      3 has converged.
 Root      4 has converged.
 Root      5 not converged, maximum delta is    0.002475774549847
 Excitation Energies [eV] at current iteration:
 Root      1 :     1.767527702591989   Change is   -0.000000016431757
 Root      2 :     2.150174586514472   Change is   -0.000000237629313
 Root      3 :     3.298512929333968   Change is   -0.000000826867115
 Root      4 :     3.467498094748231   Change is   -0.000009304895176
 Root      5 :     3.673745816111486   Change is   -0.000033025354646
 Iteration    10 Dimension    82 NMult    80 NNew      2
 CISAX will form     2 AO SS matrices at one time.
 NMat=     2 NSing=     2 JSym2X= 0.
 Root      1 has converged.
 Root      2 has converged.
 Root      3 has converged.
 Root      4 has converged.
 Root      5 not converged, maximum delta is    0.001029097445106
 Excitation Energies [eV] at current iteration:
 Root      1 :     1.767527699424851   Change is   -0.000000003167137
 Root      2 :     2.150174263093519   Change is   -0.000000323420953
 Root      3 :     3.298512919939792   Change is   -0.000000009394175
 Root      4 :     3.467497968909257   Change is   -0.000000125838975
 Root      5 :     3.673738563293267   Change is   -0.000007252818218
 Convergence on energies, max DE= 7.25D-06.
 Convergence on expansion vectors.
 ***********************************************************************
 Excited states from <AA,BB:AA,BB> singles matrix:
 ***********************************************************************
 
 1PDM for each excited state written to RWF  633
 Ground to excited state transition densities written to RWF  633
 Ground to excited state transition electric dipole moments (Au):
       state          X           Y           Z        Dip. S.      Osc.
         1         1.7499     -2.3524      0.1157      8.6092      0.3728
         2        -1.2475     -1.0806      0.0556      2.7270      0.1437
         3        -0.4007     -0.2409      0.0661      0.2230      0.0180
         4        -0.3203     -0.1898      0.0295      0.1395      0.0119
         5        -1.1233     -1.0923      0.0809      2.4614      0.2215
 Ground to excited state transition velocity dipole moments (Au):
       state          X           Y           Z        Dip. S.      Osc.
         1        -0.1107      0.1490     -0.0079      0.0345      0.3541
         2         0.0912      0.0801     -0.0044      0.0148      0.1245
         3         0.0446      0.0289     -0.0086      0.0029      0.0160
         4         0.0348      0.0235     -0.0032      0.0018      0.0093
         5         0.1480      0.1431     -0.0119      0.0425      0.2099
 Ground to excited state transition magnetic dipole moments (Au):
       state          X           Y           Z
         1        -0.0497      0.0831      1.9389
         2        -0.1049     -0.0093     -0.5235
         3        -0.0645      0.2406      1.8416
         4        -0.1506      0.1344      0.3186
         5         0.5093      0.2744      1.1455
 Ground to excited state transition velocity quadrupole moments (Au):
       state          XX          YY          ZZ          XY          XZ          YZ
         1        -2.0788      0.6351     -0.0096      1.1980     -0.0671     -0.0867
         2         1.5361      0.2267      0.0034      0.9308     -0.0385     -0.0337
         3         0.9029     -0.3390      0.0172      0.3200     -0.0859     -0.0159
         4         0.3576      0.1672     -0.0018      0.4835      0.0460     -0.0018
         5         2.2266      0.5829     -0.0025      1.7365     -0.0969     -0.0142
 <0|del|b> * <b|rxdel|0> + <0|del|b> * <b|delr+rdel|0>
 Rotatory Strengths (R) in cgs (10**-40 erg-esu-cm/Gauss)
       state          XX          YY          ZZ    R(velocity)    E-M Angle
         1       -13.6130     50.2012     -9.3877      9.0668       89.60
         2         2.4987    -28.1333    -46.1570    -23.9305       97.10
         3       -26.8265    -48.7357      6.7010    -22.9537       96.77
         4        -1.2461    -13.2772     -2.5861     -5.7031      101.19
         5        49.5440    210.2828    269.4724    176.4331       67.55
 1/2[<0|r|b>*<b|rxdel|0> + (<0|rxdel|b>*<b|r|0>)*]
 Rotatory Strengths (R) in cgs (10**-40 erg-esu-cm/Gauss)
       state          XX          YY          ZZ     R(length)
         1        61.4608    138.2268   -158.6711     13.6722
         2       -92.4962     -7.1092     20.5672    -26.3461
         3       -18.2880     40.9851    -86.0383    -21.1137
         4       -34.1161     18.0351     -6.6507     -7.5772
         5       404.5567    211.9582    -65.5542    183.6536
  1/2[<0|del|b>*<b|r|0> + (<0|r|b>*<b|del|0>)*] (Au)
       state          X           Y           Z        Dip. S.   Osc.(frdel)
         1        -0.1937     -0.3504     -0.0009      0.5450      0.3634
         2        -0.1138     -0.0866     -0.0002      0.2006      0.1337
         3        -0.0179     -0.0070     -0.0006      0.0254      0.0169
         4        -0.0111     -0.0045     -0.0001      0.0157      0.0105
         5        -0.1663     -0.1562     -0.0010      0.3235      0.2157

 Excitation energies and oscillator strengths:
 
 Excited State   1:      Singlet-A      1.7675 eV  701.46 nm  f=0.3728  <S**2>=0.000
     245 -> 248        0.15331
     246 -> 247        0.68851
 This state for optimization and/or second-order correction.
 Total Energy, E(TD-HF/TD-DFT) =  -3007.80970874    
 Copying the excited state density for this state as the 1-particle RhoCI density.
 
 Excited State   2:      Singlet-A      2.1502 eV  576.62 nm  f=0.1437  <S**2>=0.000
     245 -> 247        0.65050
     246 -> 248       -0.23524
 
[...]
 Alpha virt. eigenvalues --    1.22574   1.23405   1.23560   1.23961   1.24271
 Alpha virt. eigenvalues --    1.24897   1.25346   1.25763   1.26409   1.26556
 Alpha virt. eigenvalues --    1.26977   1.27117   1.28032   1.28153   1.28724
 Alpha virt. eigenvalues --    1.29261   1.29438   1.30034   1.30586   1.31186
 Alpha virt. eigenvalues --    1.31315   1.31979   1.32751   1.33362   1.34669
 Alpha virt. eigenvalues --    1.34881   1.35014   1.35258   1.35598   1.36310
 Alpha virt. eigenvalues --    1.36614   1.37299   1.37633   1.38236   1.38535
 Alpha virt. eigenvalues --    1.38700   1.38987   1.39692   1.40048   1.40609
 Alpha virt. eigenvalues --    1.40738   1.40978   1.41465   1.41564   1.42297
 Alpha virt. eigenvalues --    1.42763   1.43055   1.43252   1.43766   1.44203
 Alpha virt. eigenvalues --    1.44477   1.44847   1.44908   1.45600   1.46232
 Alpha virt. eigenvalues --    1.46314   1.46582   1.46979   1.47070   1.47340
 Alpha virt. eigenvalues --    1.48134   1.48314   1.48547   1.48864   1.49037
 Alpha virt. eigenvalues --    1.49540   1.50361   1.50538   1.50687   1.51532
 Alpha virt. eigenvalues --    1.51794   1.52106   1.52826   1.53620   1.53846
 Alpha virt. eigenvalues --    1.54237   1.54562   1.55408   1.55683   1.56173
 Alpha virt. eigenvalues --    1.56655   1.57046   1.57324   1.58176   1.58409
 Alpha virt. eigenvalues --    1.58887   1.58976   1.59076   1.59613   1.59732
 Alpha virt. eigenvalues --    1.60026   1.60124   1.60566   1.60743   1.61040
 Alpha virt. eigenvalues --    1.61255   1.61457   1.61945   1.62115   1.62745
 Alpha virt. eigenvalues --    1.63394   1.63645   1.63795   1.63892   1.64034
 Alpha virt. eigenvalues --    1.64480   1.64712   1.64874   1.65250   1.65273
 Alpha virt. eigenvalues --    1.65672   1.65732   1.66095   1.66557   1.66714
 Alpha virt. eigenvalues --    1.66876   1.67621   1.67921   1.68082   1.68237
 Alpha virt. eigenvalues --    1.68816   1.69571   1.69818   1.70056   1.70115
 Alpha virt. eigenvalues --    1.71315   1.71969   1.72527   1.72804   1.72984
 Alpha virt. eigenvalues --    1.73629   1.74082   1.74504   1.75570   1.76021
 Alpha virt. eigenvalues --    1.76213   1.76452   1.77210   1.77369   1.77552
 Alpha virt. eigenvalues --    1.77788   1.78364   1.78686   1.79304   1.79488
 Alpha virt. eigenvalues --    1.79761   1.79923   1.80405   1.80509   1.80779
 Alpha virt. eigenvalues --    1.81006   1.81166   1.81216   1.81690   1.81983
 Alpha virt. eigenvalues --    1.82333   1.82479   1.82712   1.82845   1.83072
 Alpha virt. eigenvalues --    1.83487   1.83596   1.83776   1.84187   1.84311
 Alpha virt. eigenvalues --    1.84422   1.84665   1.84942   1.85339   1.85362
 Alpha virt. eigenvalues --    1.85610   1.85813   1.85915   1.86126   1.86210
 Alpha virt. eigenvalues --    1.86569   1.86747   1.86931   1.86975   1.87128
 Alpha virt. eigenvalues --    1.87251   1.87388   1.87980   1.88156   1.88268
 Alpha virt. eigenvalues --    1.88477   1.88567   1.88893   1.88996   1.89151
 Alpha virt. eigenvalues --    1.89484   1.89592   1.89677   1.89932   1.90080
 Alpha virt. eigenvalues --    1.90187   1.90492   1.90773   1.90986   1.91088
 Alpha virt. eigenvalues --    1.91387   1.91566   1.91688   1.91856   1.92105
 Alpha virt. eigenvalues --    1.92158   1.92414   1.92682   1.93029   1.93188
 Alpha virt. eigenvalues --    1.93463   1.93573   1.93794   1.93929   1.94334
 Alpha virt. eigenvalues --    1.94522   1.94580   1.94768   1.95054   1.95157
 Alpha virt. eigenvalues --    1.95467   1.95623   1.95822   1.95864   1.96219
 Alpha virt. eigenvalues --    1.96825   1.97127   1.97616   1.97746   1.97910
 Alpha virt. eigenvalues --    1.98075   1.98357   1.98762   1.98860   1.99889
 Alpha virt. eigenvalues --    2.00031   2.00205   2.00420   2.00525   2.00628
 Alpha virt. eigenvalues --    2.01045   2.01377   2.01641   2.01721   2.02316
 Alpha virt. eigenvalues --    2.02677   2.02875   2.03370   2.03391   2.03780
 Alpha virt. eigenvalues --    2.03918   2.04104   2.04142   2.04490   2.04771
 Alpha virt. eigenvalues --    2.05117   2.05522   2.05856   2.06333   2.06435
 Alpha virt. eigenvalues --    2.06497   2.06646   2.07069   2.07220   2.07587
 Alpha virt. eigenvalues --    2.08107   2.08181   2.08606   2.08648   2.09049
 Alpha virt. eigenvalues --    2.09729   2.09877   2.10140   2.10181   2.10334
 Alpha virt. eigenvalues --    2.10958   2.11426   2.11490   2.11832   2.12002
 Alpha virt. eigenvalues --    2.12056   2.12200   2.12412   2.12961   2.13323
 Alpha virt. eigenvalues --    2.13593   2.14046   2.14716   2.15160   2.15436
 Alpha virt. eigenvalues --    2.15551   2.15708   2.15813   2.15892   2.16219
 Alpha virt. eigenvalues --    2.16705   2.16751   2.16818   2.17048   2.17287
 Alpha virt. eigenvalues --    2.17610   2.18462   2.18584   2.18740   2.19042
 Alpha virt. eigenvalues --    2.19410   2.19456   2.19650   2.20462   2.20820
 Alpha virt. eigenvalues --    2.21409   2.21703   2.22028   2.22645   2.22794
 Alpha virt. eigenvalues --    2.23125   2.23181   2.23481   2.23518   2.23837
 Alpha virt. eigenvalues --    2.24345   2.24764   2.25400   2.25703   2.26037
 Alpha virt. eigenvalues --    2.26491   2.26863   2.26938   2.27414   2.27529
 Alpha virt. eigenvalues --    2.28366   2.28836   2.28970   2.29666   2.30380
 Alpha virt. eigenvalues --    2.30561   2.31111   2.31460   2.32131   2.32309
 Alpha virt. eigenvalues --    2.32726   2.33216   2.33678   2.33950   2.34296
 Alpha virt. eigenvalues --    2.34584   2.34792   2.35336   2.35766   2.36745
 Alpha virt. eigenvalues --    2.37166   2.37468   2.37495   2.38338   2.38505
 Alpha virt. eigenvalues --    2.39052   2.39283   2.39865   2.40157   2.40699
 Alpha virt. eigenvalues --    2.40861   2.40935   2.41235   2.41572   2.41615
 Alpha virt. eigenvalues --    2.42131   2.42371   2.42893   2.43332   2.43521
 Alpha virt. eigenvalues --    2.43976   2.44139   2.44244   2.44678   2.44921
 Alpha virt. eigenvalues --    2.45287   2.45898   2.46057   2.46331   2.47067
 Alpha virt. eigenvalues --    2.47347   2.47726   2.48094   2.48238   2.48664
 Alpha virt. eigenvalues --    2.49357   2.49425   2.49679   2.50250   2.51369
 Alpha virt. eigenvalues --    2.51709   2.51786   2.51916   2.52085   2.52274
 Alpha virt. eigenvalues --    2.52769   2.52969   2.53286   2.53782   2.53969
 Alpha virt. eigenvalues --    2.54409   2.54796   2.55267   2.55741   2.56258
 Alpha virt. eigenvalues --    2.56755   2.57472   2.57504   2.57928   2.58297
 Alpha virt. eigenvalues --    2.58608   2.59640   2.59991   2.60689   2.61498
 Alpha virt. eigenvalues --    2.61725   2.62679   2.63285   2.63514   2.63663
 Alpha virt. eigenvalues --    2.63818   2.63932   2.64634   2.64733   2.65053
 Alpha virt. eigenvalues --    2.65765   2.66580   2.66700   2.66973   2.67410
 Alpha virt. eigenvalues --    2.67716   2.68186   2.68815   2.68978   2.69698
 Alpha virt. eigenvalues --    2.69920   2.70749   2.71003   2.71181   2.71269
 Alpha virt. eigenvalues --    2.71671   2.72632   2.72776   2.72999   2.73734
 Alpha virt. eigenvalues --    2.73888   2.74105   2.74427   2.75793   2.75912
 Alpha virt. eigenvalues --    2.76367   2.76730   2.77571   2.77676   2.78029
 Alpha virt. eigenvalues --    2.78221   2.78760   2.79336   2.79442   2.80010
 Alpha virt. eigenvalues --    2.80499   2.80862   2.81039   2.81377   2.81603
 Alpha virt. eigenvalues --    2.81643   2.82158   2.82355   2.83245   2.83383
 Alpha virt. eigenvalues --    2.84602   2.84829   2.85308   2.85495   2.86149
 Alpha virt. eigenvalues --    2.86883   2.87221   2.87619   2.88284   2.88667
 Alpha virt. eigenvalues --    2.89048   2.89817   2.90093   2.90708   2.91395
 Alpha virt. eigenvalues --    2.92133   2.92432   2.92725   2.92754   2.93415
 Alpha virt. eigenvalues --    2.93729   2.94363   2.94468   2.94626   2.95343
 Alpha virt. eigenvalues --    2.95661   2.96177   2.97392   2.97563   2.97701
 Alpha virt. eigenvalues --    2.98175   2.98748   2.98944   2.99158   2.99515
 Alpha virt. eigenvalues --    2.99715   3.00529   3.00698   3.00852   3.01257
 Alpha virt. eigenvalues --    3.01340   3.01594   3.01862   3.02106   3.02972
 Alpha virt. eigenvalues --    3.03036   3.03201   3.03516   3.03943   3.04175
 Alpha virt. eigenvalues --    3.04452   3.04833   3.04875   3.05459   3.05600
 Alpha virt. eigenvalues --    3.05755   3.05769   3.06462   3.06683   3.07188
 Alpha virt. eigenvalues --    3.07446   3.07780   3.08173   3.08258   3.08452
 Alpha virt. eigenvalues --    3.09023   3.09332   3.09560   3.09956   3.10126
 Alpha virt. eigenvalues --    3.10375   3.10644   3.10807   3.10945   3.11601
 Alpha virt. eigenvalues --    3.11822   3.12203   3.12515   3.12637   3.13015
 Alpha virt. eigenvalues --    3.13432   3.13641   3.14124   3.14801   3.15439
 Alpha virt. eigenvalues --    3.16277   3.16430   3.17015   3.17963   3.18910
 Alpha virt. eigenvalues --    3.19799   3.20269   3.21303   3.21575   3.21863
 Alpha virt. eigenvalues --    3.22729   3.22949   3.24833   3.26252   3.26486
 Alpha virt. eigenvalues --    3.27711   3.28343   3.28929   3.29767   3.30489
 Alpha virt. eigenvalues --    3.30618   3.36354   3.44854   3.47497   3.49223
 Alpha virt. eigenvalues --    3.50008   3.50785   3.53501   3.55996   3.58310
 Alpha virt. eigenvalues --    3.62594   3.67883   3.70976   3.72580   3.73822
 Alpha virt. eigenvalues --    3.74636   3.74861
          Condensed to atoms (all electrons):
 Mulliken charges:
               1
     1  Mg   0.927722
     2  C    0.019699
     3  C   -0.101291
     4  C   -0.079944
     5  C   -0.059572
     6  N   -0.314309
     7  C   -0.040552
     8  C   -0.074184
     9  C   -0.157129
    10  C    0.091990
    11  C    0.022451
    12  C    0.074459
    13  C    0.003427
    14  C    0.176068
    15  O   -0.265890
    16  O   -0.355133
    17  N   -0.456291
    18  C    0.172517
    19  C   -0.183210
    20  C   -0.077456
    21  C    0.131301
    22  C    0.075683
    23  C    0.057615
    24  O   -0.227087
    25  C   -0.006987
    26  N   -0.352079
    27  C    0.064575
    28  C   -0.119997
    29  C   -0.037713
    30  C    0.059400
    31  C    0.035404
    32  C   -0.004303
    33  C   -0.047644
    34  N   -0.449929
    35  C    0.068925
    36  C   -0.184098
    37  C   -0.054794
    38  C    0.158076
    39  C    0.070532
    40  C    0.123581
    41  O   -0.203762
    42  C   -0.158712
    43  C    0.293395
    44  O   -0.268940
    45  O   -0.369553
    46  C    0.145859
    47  C    0.283726
    48  C   -0.142878
    49  C   -0.196948
    50  C    0.013538
    51  C    0.004953
    52  C   -0.028807
    53  C   -0.019778
    54  C   -0.190339
    55  C    0.012760
    56  C    0.014189
    57  C    0.011086
    58  C   -0.038603
    59  C   -0.209995
    60  C   -0.007434
    61  C    0.046024
    62  C   -0.043806
    63  C   -0.024696
    64  C   -0.209669
    65  C   -0.016777
    66  C    0.021035
    67  H    0.001870
    68  H    0.028092
    69  H    0.005634
    70  H    0.078762
    71  H    0.040719
    72  H    0.040067
    73  H    0.035659
    74  H    0.049038
    75  H    0.031484
    76  H    0.045768
    77  H    0.047821
    78  H    0.058496
    79  H    0.053888
    80  H    0.063865
    81  H    0.027524
    82  H    0.083365
    83  H    0.059795
    84  H    0.066248
    85  H    0.034510
    86  H    0.026075
    87  H    0.044643
    88  H    0.026347
    89  H    0.051016
    90  H    0.022008
    91  H    0.024340
    92  H    0.046015
    93  H    0.034882
    94  H    0.051204
    95  H    0.058559
    96  H    0.040771
    97  H    0.038834
    98  H    0.072771
    99  H    0.065276
   100  H    0.070805
   101  H    0.052811
   102  H    0.047509
   103  H    0.079185
   104  H    0.014090
   105  H    0.023682
   106  H    0.048773
   107  H    0.040833
   108  H    0.009905
   109  H    0.045304
   110  H    0.020950
   111  H    0.031598
   112  H    0.027316
   113  H    0.019844
   114  H    0.018787
   115  H    0.031352
   116  H    0.034841
   117  H    0.026153
   118  H    0.014270
   119  H    0.004708
   120  H    0.022940
   121  H    0.022634
   122  H    0.014091
   123  H    0.018525
   124  H    0.014488
   125  H    0.024927
   126  H    0.035247
   127  H    0.022156
   128  H    0.016762
   129  H    0.024560
   130  H    0.024887
   131  H    0.034082
   132  H    0.024864
   133  H    0.012868
   134  H    0.022913
   135  H    0.023542
   136  H    0.025769
   137  H    0.018867
   138  H    0.014793
   139  H    0.040834
   140  H    0.022486
 Sum of Mulliken charges =  -0.00000
 Mulliken charges with hydrogens summed into heavy atoms:
               1
     1  Mg   0.927722
     2  C    0.019699
     3  C   -0.099421
     4  C   -0.051852
     5  C   -0.053938
     6  N   -0.314309
     7  C   -0.040552
     8  C    0.004579
     9  C   -0.116410
    10  C    0.091990
    11  C    0.147215
    12  C    0.151712
    13  C    0.109744
    14  C    0.176068
    15  O   -0.265890
    16  O   -0.355133
    17  N   -0.456291
    18  C    0.172517
    19  C   -0.183210
    20  C   -0.077456
    21  C    0.131301
    22  C    0.220961
    23  C    0.057615
    24  O   -0.227087
    25  C    0.202422
    26  N   -0.352079
    27  C    0.064575
    28  C   -0.085488
    29  C   -0.011637
    30  C    0.059400
    31  C    0.157410
    32  C    0.042045
    33  C    0.084457
    34  N   -0.449929
    35  C    0.068925
    36  C   -0.184098
    37  C   -0.054794
    38  C    0.158076
    39  C    0.208695
    40  C    0.123581
    41  O   -0.203762
    42  C   -0.085941
    43  C    0.293395
    44  O   -0.268940
    45  O   -0.369553
    46  C    0.334751
    47  C    0.410420
    48  C   -0.128788
    49  C   -0.196948
    50  C    0.126825
    51  C    0.060162
    52  C    0.023741
    53  C    0.027382
    54  C   -0.171552
    55  C    0.105105
    56  C    0.033166
    57  C    0.056660
    58  C   -0.005987
    59  C   -0.195507
    60  C    0.074896
    61  C    0.087346
    62  C    0.015163
    63  C    0.013036
    64  C   -0.186755
    65  C    0.051400
    66  C    0.099148
 Electronic spatial extent (au):  <R**2>=         122560.5946
 Charge=             -0.0000 electrons
 Dipole moment (field-independent basis, Debye):
    X=             -5.9162    Y=              4.2875    Z=              1.7124  Tot=              7.5044
 Quadrupole moment (field-independent basis, Debye-Ang):
   XX=           -398.9697   YY=           -409.9766   ZZ=           -400.8192
   XY=             32.4178   XZ=              7.4219   YZ=             -1.7691
 Traceless Quadrupole moment (field-independent basis, Debye-Ang):
   XX=              4.2855   YY=             -6.7214   ZZ=              2.4359
   XY=             32.4178   XZ=              7.4219   YZ=             -1.7691
 Octapole moment (field-independent basis, Debye-Ang**2):
  XXX=            134.8465  YYY=           -114.9670  ZZZ=             -7.6525  XYY=           -242.8234
  XXY=            276.6699  XXZ=            -51.1191  XZZ=             42.2920  YZZ=            -40.6186
  YYZ=            -54.6381  XYZ=            -23.7341
 Hexadecapole moment (field-independent basis, Debye-Ang**3):
 XXXX=        -132989.7900 YYYY=         -28627.9288 ZZZZ=          -3578.4944 XXXY=           1867.9137
 XXXZ=           -196.7165 YYYX=            -44.4646 YYYZ=            303.1262 ZZZX=             25.6268
 ZZZY=             47.9285 XXYY=         -28287.8073 XXZZ=         -23682.3767 YYZZ=          -5113.4078
 XXYZ=            173.7081 YYXZ=           -160.8694 ZZXY=             -1.4381
 N-N= 9.582970416412D+03 E-N=-2.615912460450D+04  KE= 2.975253649727D+03
 Leave Link  601 at Sat Apr 30 01:10:24 2022, MaxMem= 10066329600 cpu:               9.9 elap:               0.5
 (Enter /sw/apps/gaussian-16.0/g16/l9999.exe)
 1\1\GINC-BP1-COMPUTE103\SP\RwB97XD TD-FC\def2SVP\C55H74Mg1N4O6\OF15641
 \30-Apr-2022\0\\#p wB97XD/Def2SVP td=(nstates=5)\\step_51_chromophore_
 18 TDDFT with wB97XD functional\\0,1\Mg,0,35.034,49.199,25.986\C,0,35.
 198,47.432,28.955\C,0,33.409,51.848,27.81\C,0,34.407,50.878,23.066\C,0
 ,36.088,46.414,24.203\N,0,34.314,49.582,28.141\C,0,34.77,48.711,29.179
 \C,0,34.503,49.457,30.506\C,0,34.002,50.864,30.056\C,0,33.899,50.732,2
 8.526\C,0,32.731,51.395,30.826\C,0,35.769,49.461,31.446\C,0,35.467,48.
 984,32.84\C,0,33.997,48.918,33.351\O,0,33.226,47.971,33.26\O,0,33.634,
 50.013,34.045\N,0,34.141,51.147,25.508\C,0,33.484,52.036,26.377\C,0,33
 .055,53.119,25.565\C,0,33.364,52.95,24.212\C,0,33.992,51.615,24.208\C,
 0,32.219,54.158,26.241\C,0,33.19,53.794,22.955\O,0,33.619,53.471,21.84
 7\C,0,32.382,55.01,23.154\N,0,35.051,48.633,23.928\C,0,34.914,49.54,22
 .947\C,0,35.104,48.918,21.556\C,0,35.814,47.63,21.897\C,0,35.69,47.519
 ,23.471\C,0,33.852,48.839,20.615\C,0,37.251,47.484,21.312\C,0,38.426,4
 8.133,22.145\N,0,35.504,47.243,26.418\C,0,35.925,46.227,25.622\C,0,36.
 137,45.068,26.403\C,0,35.891,45.49,27.751\C,0,35.462,46.81,27.703\C,0,
 36.368,43.653,25.881\C,0,35.972,45.043,29.142\O,0,36.253,43.939,29.595
 \C,0,35.449,46.324,29.992\C,0,34.146,45.901,30.618\O,0,32.999,46.257,3
 0.319\O,0,34.426,45.156,31.722\C,0,33.255,44.492,32.364\C,0,32.281,50.
 06,34.677\C,0,31.794,51.441,34.601\C,0,30.788,52.148,35.248\C,0,29.952
 ,51.594,36.42\C,0,30.321,53.412,34.59\C,0,31.343,54.597,34.474\C,0,30.
 657,55.946,34.275\C,0,31.266,57.061,35.196\C,0,32.758,57.307,34.842\C,
 0,30.237,58.252,35.101\C,0,29.611,58.6,36.434\C,0,30.51,59.638,37.162\
 C,0,29.977,61.117,37.162\C,0,31.175,62.053,37.477\C,0,28.728,61.324,38
 .12\C,0,27.458,61.934,37.382\C,0,27.17,63.462,37.709\C,0,25.713,64.044
 ,37.7\C,0,25.054,63.835,39.03\C,0,24.9,63.494,36.535\H,0,33.032,52.659
 ,28.437\H,0,34.317,51.416,22.12\H,0,36.24,45.459,23.696\H,0,33.699,48.
 808,30.852\H,0,34.748,51.638,30.235\H,0,31.879,51.408,30.146\H,0,32.83
 7,52.426,31.163\H,0,32.638,50.689,31.65\H,0,36.108,50.494,31.515\H,0,3
 6.575,48.824,31.084\H,0,36.,49.569,33.589\H,0,35.817,47.962,32.988\H,0
 ,32.872,54.943,26.62\H,0,31.68,53.643,27.036\H,0,31.638,54.618,25.441\
 H,0,31.43,54.544,23.411\H,0,32.397,55.533,22.198\H,0,32.888,55.585,23.
 929\H,0,35.764,49.606,21.026\H,0,35.141,46.834,21.578\H,0,33.035,49.28
 8,21.18\H,0,33.526,47.809,20.472\H,0,34.072,49.253,19.631\H,0,37.25,47
 .901,20.306\H,0,37.338,46.431,21.044\H,0,38.198,48.459,23.16\H,0,38.69
 8,49.083,21.685\H,0,39.241,47.41,22.164\H,0,36.135,42.979,26.706\H,0,3
 7.389,43.471,25.544\H,0,35.719,43.502,25.018\H,0,36.165,46.556,30.781\
 H,0,32.671,44.063,31.549\H,0,32.754,45.228,32.992\H,0,33.8,43.792,32.9
 96\H,0,32.423,49.713,35.701\H,0,31.476,49.423,34.311\H,0,32.078,52.024
 ,33.724\H,0,30.232,50.622,36.827\H,0,28.883,51.46,36.257\H,0,30.071,52
 .316,37.227\H,0,29.523,53.868,35.175\H,0,29.923,53.231,33.592\H,0,31.9
 07,54.272,33.6\H,0,32.019,54.615,35.329\H,0,29.575,55.903,34.4\H,0,30.
 865,56.28,33.259\H,0,31.187,56.685,36.216\H,0,33.13,56.596,34.104\H,0,
 33.4,57.263,35.722\H,0,32.899,58.3,34.416\H,0,29.511,57.977,34.336\H,0
 ,30.655,59.206,34.78\H,0,29.5,57.726,37.075\H,0,28.681,59.124,36.214\H
 ,0,31.46,59.69,36.629\H,0,30.727,59.418,38.208\H,0,29.799,61.423,36.13
 2\H,0,30.739,62.955,37.907\H,0,31.794,62.328,36.623\H,0,31.796,61.548,
 38.216\H,0,29.028,62.029,38.895\H,0,28.553,60.369,38.616\H,0,26.572,61
 .343,37.614\H,0,27.586,61.873,36.302\H,0,27.704,64.132,37.035\H,0,27.5
 53,63.623,38.716\H,0,25.722,65.132,37.628\H,0,24.987,64.832,39.466\H,0
 ,25.587,63.169,39.709\H,0,24.029,63.468,39.076\H,0,25.641,63.026,35.88
 7\H,0,24.325,64.226,35.969\H,0,24.299,62.679,36.939\\Version=ES64L-G16
 RevA.03\State=1-A\HF=-3007.8746642\RMSD=9.649e-09\PG=C01 [X(C55H74Mg1N
 4O6)]\\@


  THE LARGE PRINT GIVETH,
  AND THE SMALL PRINT TAKETH AWAY.

                     -- TOM WAITS
 Job cpu time:       0 days 10 hours 28 minutes 26.6 seconds.
 Elapsed time:       0 days  0 hours 26 minutes 41.4 seconds.
 File lengths (MBytes):  RWF=   8929 Int=      0 D2E=      0 Chk=    390 Scr=      1
 Normal termination of Gaussian 16 at Sat Apr 30 01:10:25 2022.
