 Entering Gaussian System, Link 0=g16
 Initial command:
 /sw/apps/gaussian-16.0/g16/l1.exe "/tmp/Gau-60661.inp" -scrdir="/tmp/"
 Entering Link 1 = /sw/apps/gaussian-16.0/g16/l1.exe PID=     60662.
  
 Copyright (c) 1988,1990,1992,1993,1995,1998,2003,2009,2016,
            Gaussian, Inc.  All Rights Reserved.
  
 This is part of the Gaussian(R) 16 program.  It is based on
 the Gaussian(R) 09 system (copyright 2009, Gaussian, Inc.),
 the Gaussian(R) 03 system (copyright 2003, Gaussian, Inc.),
 the Gaussian(R) 98 system (copyright 1998, Gaussian, Inc.),
 the Gaussian(R) 94 system (copyright 1995, Gaussian, Inc.),
 the Gaussian 92(TM) system (copyright 1992, Gaussian, Inc.),
 the Gaussian 90(TM) system (copyright 1990, Gaussian, Inc.),
 the Gaussian 88(TM) system (copyright 1988, Gaussian, Inc.),
 the Gaussian 86(TM) system (copyright 1986, Carnegie Mellon
 University), and the Gaussian 82(TM) system (copyright 1983,
 Carnegie Mellon University). Gaussian is a federally registered
 trademark of Gaussian, Inc.
  
 This software contains proprietary and confidential information,
 including trade secrets, belonging to Gaussian, Inc.
  
 This software is provided under written license and may be
 used, copied, transmitted, or stored only in accord with that
 written license.
  
 The following legend is applicable only to US Government
 contracts under FAR:
  
                    RESTRICTED RIGHTS LEGEND
  
 Use, reproduction and disclosure by the US Government is
 subject to restrictions as set forth in subparagraphs (a)
 and (c) of the Commercial Computer Software - Restricted
 Rights clause in FAR 52.227-19.
  
 Gaussian, Inc.
 340 Quinnipiac St., Bldg. 40, Wallingford CT 06492
  
  
 ---------------------------------------------------------------
 Warning -- This program may not be used in any manner that
 competes with the business of Gaussian, Inc. or will provide
 assistance to any competitor of Gaussian, Inc.  The licensee
 of this program is prohibited from giving any competitor of
 Gaussian, Inc. access to this program.  By using this program,
 the user acknowledges that Gaussian, Inc. is engaged in the
 business of creating and licensing software in the field of
 computational chemistry and represents and warrants to the
 licensee that it is not a competitor of Gaussian, Inc. and that
 it will not use this program in any manner prohibited above.
 ---------------------------------------------------------------
  

 Cite this work as:
 Gaussian 16, Revision A.03,
 M. J. Frisch, G. W. Trucks, H. B. Schlegel, G. E. Scuseria, 
 M. A. Robb, J. R. Cheeseman, G. Scalmani, V. Barone, 
 G. A. Petersson, H. Nakatsuji, X. Li, M. Caricato, A. V. Marenich, 
 J. Bloino, B. G. Janesko, R. Gomperts, B. Mennucci, H. P. Hratchian, 
 J. V. Ortiz, A. F. Izmaylov, J. L. Sonnenberg, D. Williams-Young, 
 F. Ding, F. Lipparini, F. Egidi, J. Goings, B. Peng, A. Petrone, 
 T. Henderson, D. Ranasinghe, V. G. Zakrzewski, J. Gao, N. Rega, 
 G. Zheng, W. Liang, M. Hada, M. Ehara, K. Toyota, R. Fukuda, 
 J. Hasegawa, M. Ishida, T. Nakajima, Y. Honda, O. Kitao, H. Nakai, 
 T. Vreven, K. Throssell, J. A. Montgomery, Jr., J. E. Peralta, 
 F. Ogliaro, M. J. Bearpark, J. J. Heyd, E. N. Brothers, K. N. Kudin, 
 V. N. Staroverov, T. A. Keith, R. Kobayashi, J. Normand, 
 K. Raghavachari, A. P. Rendell, J. C. Burant, S. S. Iyengar, 
 J. Tomasi, M. Cossi, J. M. Millam, M. Klene, C. Adamo, R. Cammi, 
 J. W. Ochterski, R. L. Martin, K. Morokuma, O. Farkas, 
 J. B. Foresman, and D. J. Fox, Gaussian, Inc., Wallingford CT, 2016.
 
 ******************************************
 Gaussian 16:  ES64L-G16RevA.03 25-Dec-2016
                30-Apr-2022 
 ******************************************
 %nproc=24
 Will use up to   24 processors via shared memory.
 %mem=75GB
 ------------------------------
 #p blyp/Def2SVP td=(nstates=5)
 ------------------------------
 1/38=1,172=1/1;
 2/12=2,17=6,18=5,40=1/2;
 3/5=43,7=101,11=9,25=1,30=1,74=402/1,2,3,8;
 4//1;
 5/5=2,38=5/2;
 8/6=1,10=1,108=5/1;
 9/41=5,42=1,70=2/14;
 6/7=2,8=2,9=2,10=2/1;
 99/5=1,9=1/99;
 Leave Link    1 at Sat Apr 30 04:35:16 2022, MaxMem= 10066329600 cpu:               1.6 elap:               0.1
 (Enter /sw/apps/gaussian-16.0/g16/l101.exe)
 -------------------------------------------------
 step_551_chromophore_6 TDDFT with blyp functional
 -------------------------------------------------
 Symbolic Z-matrix:
 Charge =  0 Multiplicity = 1
 Mg                    16.863   -2.81      27.557 
 C                     16.01    -0.635     30.209 
 C                     18.662   -4.66      29.682 
 C                     17.992   -4.416     24.93 
 C                     14.804   -0.774     25.414 
 N                     17.322   -2.577     29.642 
 C                     16.863   -1.67      30.522 
 C                     17.389   -1.936     31.938 
 C                     18.284   -3.147     31.71 
 C                     18.128   -3.472     30.241 
 C                     19.716   -2.941     32.114 
 C                     16.275   -2.252     33.084 
 C                     16.426   -1.37      34.356 
 C                     17.853   -1.241     34.932 
 O                     18.525   -0.241     35.071 
 O                     18.26    -2.492     35.415 
 N                     18.107   -4.324     27.355 
 C                     18.711   -4.981     28.343 
 C                     19.545   -6.041     27.762 
 C                     19.321   -6.078     26.381 
 C                     18.437   -4.955     26.175 
 C                     20.447   -6.986     28.593 
 C                     19.834   -6.917     25.216 
 O                     19.558   -6.766     24.037 
 C                     20.763   -8.08      25.495 
 N                     16.343   -2.717     25.397 
 C                     17.026   -3.444     24.556 
 C                     16.763   -2.934     23.077 
 C                     15.45    -2.041     23.331 
 C                     15.488   -1.82      24.797 
 C                     17.959   -2.204     22.483 
 C                     14.23    -2.903     22.895 
 C                     12.884   -2.207     22.955 
 N                     15.6     -1.073     27.698 
 C                     14.859   -0.389     26.782 
 C                     14.257    0.751     27.422 
 C                     14.642    0.669     28.786 
 C                     15.407   -0.449     28.901 
 C                     13.365    1.822     26.783 
 C                     14.538    1.299     30.088 
 O                     13.962    2.356     30.409 
 C                     15.339    0.415     31.063 
 C                     16.297    1.264     31.916 
 O                     17.445    1.488     31.609 
 O                     15.707    1.671     33.041 
 C                     16.519    2.571     33.821 
 C                     19.618   -2.541     36.013 
 C                     19.784   -3.71      36.957 
 C                     19.951   -3.705     38.303 
 C                     19.951   -2.47      39.218 
 C                     19.917   -5.048     39.018 
 C                     21.058   -5.331     40.016 
 C                     21.383   -6.86      40.18 
 C                     22.699   -7.236     39.603 
 C                     22.411   -8.138     38.375 
 C                     23.72    -8.06      40.557 
 C                     25.075   -7.273     40.827 
 C                     25.454   -7.336     42.258 
 C                     26.275   -8.569     42.698 
 C                     26.057   -8.875     44.219 
 C                     27.793   -8.33      42.377 
 C                     28.534   -9.715     42.08 
 C                     29.511   -9.719     40.928 
 C                     29.381   -10.895    39.899 
 C                     28.567   -10.525    38.632 
 C                     30.597   -11.669    39.429 
 H                     19.215   -5.36      30.312 
 H                     18.318   -4.833     23.975 
 H                     14.303    0.011     24.844 
 H                     17.971   -1.146     32.414 
 H                     17.998   -4.051     32.246 
 H                     20.099   -2.558     31.168 
 H                     20.203   -3.876     32.39 
 H                     19.956   -2.131     32.803 
 H                     16.314   -3.275     33.46 
 H                     15.284   -2.065     32.671 
 H                     15.781   -1.686     35.175 
 H                     16.19    -0.343     34.076 
 H                     20.443   -6.809     29.668 
 H                     21.474   -6.721     28.343 
 H                     20.141   -8.024     28.462 
 H                     21.28    -7.778     26.406 
 H                     21.447   -8.285     24.672 
 H                     20.281   -9.052     25.606 
 H                     16.648   -3.83      22.467 
 H                     15.363   -1.115     22.762 
 H                     18.344   -2.791     21.649 
 H                     18.747   -2.153     23.234 
 H                     17.618   -1.203     22.217 
 H                     14.238   -3.779     23.544 
 H                     14.323   -3.27      21.873 
 H                     12.954   -1.12      22.992 
 H                     12.305   -2.598     23.791 
 H                     12.375   -2.412     22.012 
 H                     12.364    1.547     27.117 
 H                     13.441    1.842     25.696 
 H                     13.628    2.823     27.123 
 H                     14.584   -0.035     31.707 
 H                     16.14     2.548     34.843 
 H                     16.704    3.522     33.32 
 H                     17.519    2.141     33.878 
 H                     19.869   -1.607     36.516 
 H                     20.377   -2.803     35.276 
 H                     19.758   -4.718     36.543 
 H                     19.14    -2.455     39.946 
 H                     20.106   -1.511     38.724 
 H                     20.838   -2.708     39.805 
 H                     19.888   -5.902     38.341 
 H                     19.011   -5.055     39.625 
 H                     20.618   -5.041     40.97 
 H                     21.942   -4.723     39.826 
 H                     20.544   -7.388     39.726 
 H                     21.279   -7.104     41.237 
 H                     23.275   -6.35      39.336 
 H                     21.375   -8.097     38.038 
 H                     22.564   -9.201     38.563 
 H                     22.948   -7.804     37.488 
 H                     24.05    -9.031     40.187 
 H                     23.281   -8.421     41.487 
 H                     25.019   -6.225     40.532 
 H                     25.914   -7.64      40.235 
 H                     24.477   -7.271     42.737 
 H                     25.977   -6.403     42.472 
 H                     25.924   -9.442     42.148 
 H                     25.627   -9.866     44.367 
 H                     25.355   -8.144     44.62 
 H                     26.977   -8.793     44.797 
 H                     28.342   -7.817     43.167 
 H                     27.835   -7.677     41.505 
 H                     27.809   -10.529    42.059 
 H                     29.148   -9.964     42.945 
 H                     30.525   -9.683     41.328 
 H                     29.412   -8.782     40.38 
 H                     28.741   -11.639    40.374 
 H                     27.619   -10.129    38.995 
 H                     28.312   -11.366    37.987 
 H                     29.162   -9.742     38.163 
 H                     31.454   -11.023    39.62 
 H                     30.505   -11.893    38.367 
 H                     30.523   -12.652    39.896 
 
 ITRead=  0  0  0  0  0  0  0  0  0  0  0  0  0  0  0  0  0  0  0  0
 ITRead=  0  0  0  0  0  0  0  0  0  0  0  0  0  0  0  0  0  0  0  0
 ITRead=  0  0  0  0  0  0  0  0  0  0  0  0  0  0  0  0  0  0  0  0
 ITRead=  0  0  0  0  0  0  0  0  0  0  0  0  0  0  0  0  0  0  0  0
 ITRead=  0  0  0  0  0  0  0  0  0  0  0  0  0  0  0  0  0  0  0  0
 ITRead=  0  0  0  0  0  0  0  0  0  0  0  0  0  0  0  0  0  0  0  0
 ITRead=  0  0  0  0  0  0  0  0  0  0  0  0  0  0  0  0  0  0  0  0
 MicOpt= -1 -1 -1 -1 -1 -1 -1 -1 -1 -1 -1 -1 -1 -1 -1 -1 -1 -1 -1 -1
 MicOpt= -1 -1 -1 -1 -1 -1 -1 -1 -1 -1 -1 -1 -1 -1 -1 -1 -1 -1 -1 -1
 MicOpt= -1 -1 -1 -1 -1 -1 -1 -1 -1 -1 -1 -1 -1 -1 -1 -1 -1 -1 -1 -1
 MicOpt= -1 -1 -1 -1 -1 -1 -1 -1 -1 -1 -1 -1 -1 -1 -1 -1 -1 -1 -1 -1
 MicOpt= -1 -1 -1 -1 -1 -1 -1 -1 -1 -1 -1 -1 -1 -1 -1 -1 -1 -1 -1 -1
 MicOpt= -1 -1 -1 -1 -1 -1 -1 -1 -1 -1 -1 -1 -1 -1 -1 -1 -1 -1 -1 -1
 MicOpt= -1 -1 -1 -1 -1 -1 -1 -1 -1 -1 -1 -1 -1 -1 -1 -1 -1 -1 -1 -1
 NAtoms=    140 NQM=      140 NQMF=       0 NMMI=      0 NMMIF=      0
                NMic=       0 NMicF=      0.
                    Isotopes and Nuclear Properties:
 (Nuclear quadrupole moments (NQMom) in fm**2, nuclear magnetic moments (NMagM)
  in nuclear magnetons)

  Atom         1           2           3           4           5           6           7           8           9          10
 IAtWgt=          24          12          12          12          12          14          12          12          12          12
 AtmWgt=  23.9850450  12.0000000  12.0000000  12.0000000  12.0000000  14.0030740  12.0000000  12.0000000  12.0000000  12.0000000
 NucSpn=           0           0           0           0           0           2           0           0           0           0
 AtZEff=  -0.0000000  -0.0000000  -0.0000000  -0.0000000  -0.0000000  -0.0000000  -0.0000000  -0.0000000  -0.0000000  -0.0000000
 NQMom=    0.0000000   0.0000000   0.0000000   0.0000000   0.0000000   2.0440000   0.0000000   0.0000000   0.0000000   0.0000000
 NMagM=    0.0000000   0.0000000   0.0000000   0.0000000   0.0000000   0.4037610   0.0000000   0.0000000   0.0000000   0.0000000
 AtZNuc=  12.0000000   6.0000000   6.0000000   6.0000000   6.0000000   7.0000000   6.0000000   6.0000000   6.0000000   6.0000000

  Atom        11          12          13          14          15          16          17          18          19          20
 IAtWgt=          12          12          12          12          16          16          14          12          12          12
 AtmWgt=  12.0000000  12.0000000  12.0000000  12.0000000  15.9949146  15.9949146  14.0030740  12.0000000  12.0000000  12.0000000
 NucSpn=           0           0           0           0           0           0           2           0           0           0
 AtZEff=  -0.0000000  -0.0000000  -0.0000000  -0.0000000  -0.0000000  -0.0000000  -0.0000000  -0.0000000  -0.0000000  -0.0000000
 NQMom=    0.0000000   0.0000000   0.0000000   0.0000000   0.0000000   0.0000000   2.0440000   0.0000000   0.0000000   0.0000000
 NMagM=    0.0000000   0.0000000   0.0000000   0.0000000   0.0000000   0.0000000   0.4037610   0.0000000   0.0000000   0.0000000
 AtZNuc=   6.0000000   6.0000000   6.0000000   6.0000000   8.0000000   8.0000000   7.0000000   6.0000000   6.0000000   6.0000000

  Atom        21          22          23          24          25          26          27          28          29          30
 IAtWgt=          12          12          12          16          12          14          12          12          12          12
 AtmWgt=  12.0000000  12.0000000  12.0000000  15.9949146  12.0000000  14.0030740  12.0000000  12.0000000  12.0000000  12.0000000
 NucSpn=           0           0           0           0           0           2           0           0           0           0
 AtZEff=  -0.0000000  -0.0000000  -0.0000000  -0.0000000  -0.0000000  -0.0000000  -0.0000000  -0.0000000  -0.0000000  -0.0000000
 NQMom=    0.0000000   0.0000000   0.0000000   0.0000000   0.0000000   2.0440000   0.0000000   0.0000000   0.0000000   0.0000000
 NMagM=    0.0000000   0.0000000   0.0000000   0.0000000   0.0000000   0.4037610   0.0000000   0.0000000   0.0000000   0.0000000
 AtZNuc=   6.0000000   6.0000000   6.0000000   8.0000000   6.0000000   7.0000000   6.0000000   6.0000000   6.0000000   6.0000000

  Atom        31          32          33          34          35          36          37          38          39          40
 IAtWgt=          12          12          12          14          12          12          12          12          12          12
 AtmWgt=  12.0000000  12.0000000  12.0000000  14.0030740  12.0000000  12.0000000  12.0000000  12.0000000  12.0000000  12.0000000
 NucSpn=           0           0           0           2           0           0           0           0           0           0
 AtZEff=  -0.0000000  -0.0000000  -0.0000000  -0.0000000  -0.0000000  -0.0000000  -0.0000000  -0.0000000  -0.0000000  -0.0000000
 NQMom=    0.0000000   0.0000000   0.0000000   2.0440000   0.0000000   0.0000000   0.0000000   0.0000000   0.0000000   0.0000000
 NMagM=    0.0000000   0.0000000   0.0000000   0.4037610   0.0000000   0.0000000   0.0000000   0.0000000   0.0000000   0.0000000
 AtZNuc=   6.0000000   6.0000000   6.0000000   7.0000000   6.0000000   6.0000000   6.0000000   6.0000000   6.0000000   6.0000000

  Atom        41          42          43          44          45          46          47          48          49          50
 IAtWgt=          16          12          12          16          16          12          12          12          12          12
 AtmWgt=  15.9949146  12.0000000  12.0000000  15.9949146  15.9949146  12.0000000  12.0000000  12.0000000  12.0000000  12.0000000
 NucSpn=           0           0           0           0           0           0           0           0           0           0
 AtZEff=  -0.0000000  -0.0000000  -0.0000000  -0.0000000  -0.0000000  -0.0000000  -0.0000000  -0.0000000  -0.0000000  -0.0000000
 NQMom=    0.0000000   0.0000000   0.0000000   0.0000000   0.0000000   0.0000000   0.0000000   0.0000000   0.0000000   0.0000000
 NMagM=    0.0000000   0.0000000   0.0000000   0.0000000   0.0000000   0.0000000   0.0000000   0.0000000   0.0000000   0.0000000
 AtZNuc=   8.0000000   6.0000000   6.0000000   8.0000000   8.0000000   6.0000000   6.0000000   6.0000000   6.0000000   6.0000000

  Atom        51          52          53          54          55          56          57          58          59          60
 IAtWgt=          12          12          12          12          12          12          12          12          12          12
 AtmWgt=  12.0000000  12.0000000  12.0000000  12.0000000  12.0000000  12.0000000  12.0000000  12.0000000  12.0000000  12.0000000
 NucSpn=           0           0           0           0           0           0           0           0           0           0
 AtZEff=  -0.0000000  -0.0000000  -0.0000000  -0.0000000  -0.0000000  -0.0000000  -0.0000000  -0.0000000  -0.0000000  -0.0000000
 NQMom=    0.0000000   0.0000000   0.0000000   0.0000000   0.0000000   0.0000000   0.0000000   0.0000000   0.0000000   0.0000000
 NMagM=    0.0000000   0.0000000   0.0000000   0.0000000   0.0000000   0.0000000   0.0000000   0.0000000   0.0000000   0.0000000
 AtZNuc=   6.0000000   6.0000000   6.0000000   6.0000000   6.0000000   6.0000000   6.0000000   6.0000000   6.0000000   6.0000000

  Atom        61          62          63          64          65          66          67          68          69          70
 IAtWgt=          12          12          12          12          12          12           1           1           1           1
 AtmWgt=  12.0000000  12.0000000  12.0000000  12.0000000  12.0000000  12.0000000   1.0078250   1.0078250   1.0078250   1.0078250
 NucSpn=           0           0           0           0           0           0           1           1           1           1
 AtZEff=  -0.0000000  -0.0000000  -0.0000000  -0.0000000  -0.0000000  -0.0000000  -0.0000000  -0.0000000  -0.0000000  -0.0000000
 NQMom=    0.0000000   0.0000000   0.0000000   0.0000000   0.0000000   0.0000000   0.0000000   0.0000000   0.0000000   0.0000000
 NMagM=    0.0000000   0.0000000   0.0000000   0.0000000   0.0000000   0.0000000   2.7928460   2.7928460   2.7928460   2.7928460
 AtZNuc=   6.0000000   6.0000000   6.0000000   6.0000000   6.0000000   6.0000000   1.0000000   1.0000000   1.0000000   1.0000000

  Atom        71          72          73          74          75          76          77          78          79          80
 IAtWgt=           1           1           1           1           1           1           1           1           1           1
 AtmWgt=   1.0078250   1.0078250   1.0078250   1.0078250   1.0078250   1.0078250   1.0078250   1.0078250   1.0078250   1.0078250
 NucSpn=           1           1           1           1           1           1           1           1           1           1
 AtZEff=  -0.0000000  -0.0000000  -0.0000000  -0.0000000  -0.0000000  -0.0000000  -0.0000000  -0.0000000  -0.0000000  -0.0000000
 NQMom=    0.0000000   0.0000000   0.0000000   0.0000000   0.0000000   0.0000000   0.0000000   0.0000000   0.0000000   0.0000000
 NMagM=    2.7928460   2.7928460   2.7928460   2.7928460   2.7928460   2.7928460   2.7928460   2.7928460   2.7928460   2.7928460
 AtZNuc=   1.0000000   1.0000000   1.0000000   1.0000000   1.0000000   1.0000000   1.0000000   1.0000000   1.0000000   1.0000000

  Atom        81          82          83          84          85          86          87          88          89          90
 IAtWgt=           1           1           1           1           1           1           1           1           1           1
 AtmWgt=   1.0078250   1.0078250   1.0078250   1.0078250   1.0078250   1.0078250   1.0078250   1.0078250   1.0078250   1.0078250
 NucSpn=           1           1           1           1           1           1           1           1           1           1
 AtZEff=  -0.0000000  -0.0000000  -0.0000000  -0.0000000  -0.0000000  -0.0000000  -0.0000000  -0.0000000  -0.0000000  -0.0000000
 NQMom=    0.0000000   0.0000000   0.0000000   0.0000000   0.0000000   0.0000000   0.0000000   0.0000000   0.0000000   0.0000000
 NMagM=    2.7928460   2.7928460   2.7928460   2.7928460   2.7928460   2.7928460   2.7928460   2.7928460   2.7928460   2.7928460
 AtZNuc=   1.0000000   1.0000000   1.0000000   1.0000000   1.0000000   1.0000000   1.0000000   1.0000000   1.0000000   1.0000000

  Atom        91          92          93          94          95          96          97          98          99         100
 IAtWgt=           1           1           1           1           1           1           1           1           1           1
 AtmWgt=   1.0078250   1.0078250   1.0078250   1.0078250   1.0078250   1.0078250   1.0078250   1.0078250   1.0078250   1.0078250
 NucSpn=           1           1           1           1           1           1           1           1           1           1
 AtZEff=  -0.0000000  -0.0000000  -0.0000000  -0.0000000  -0.0000000  -0.0000000  -0.0000000  -0.0000000  -0.0000000  -0.0000000
 NQMom=    0.0000000   0.0000000   0.0000000   0.0000000   0.0000000   0.0000000   0.0000000   0.0000000   0.0000000   0.0000000
 NMagM=    2.7928460   2.7928460   2.7928460   2.7928460   2.7928460   2.7928460   2.7928460   2.7928460   2.7928460   2.7928460
 AtZNuc=   1.0000000   1.0000000   1.0000000   1.0000000   1.0000000   1.0000000   1.0000000   1.0000000   1.0000000   1.0000000

  Atom       101         102         103         104         105         106         107         108         109         110
 IAtWgt=           1           1           1           1           1           1           1           1           1           1
 AtmWgt=   1.0078250   1.0078250   1.0078250   1.0078250   1.0078250   1.0078250   1.0078250   1.0078250   1.0078250   1.0078250
 NucSpn=           1           1           1           1           1           1           1           1           1           1
 AtZEff=  -0.0000000  -0.0000000  -0.0000000  -0.0000000  -0.0000000  -0.0000000  -0.0000000  -0.0000000  -0.0000000  -0.0000000
 NQMom=    0.0000000   0.0000000   0.0000000   0.0000000   0.0000000   0.0000000   0.0000000   0.0000000   0.0000000   0.0000000
 NMagM=    2.7928460   2.7928460   2.7928460   2.7928460   2.7928460   2.7928460   2.7928460   2.7928460   2.7928460   2.7928460
 AtZNuc=   1.0000000   1.0000000   1.0000000   1.0000000   1.0000000   1.0000000   1.0000000   1.0000000   1.0000000   1.0000000

  Atom       111         112         113         114         115         116         117         118         119         120
 IAtWgt=           1           1           1           1           1           1           1           1           1           1
 AtmWgt=   1.0078250   1.0078250   1.0078250   1.0078250   1.0078250   1.0078250   1.0078250   1.0078250   1.0078250   1.0078250
 NucSpn=           1           1           1           1           1           1           1           1           1           1
 AtZEff=  -0.0000000  -0.0000000  -0.0000000  -0.0000000  -0.0000000  -0.0000000  -0.0000000  -0.0000000  -0.0000000  -0.0000000
 NQMom=    0.0000000   0.0000000   0.0000000   0.0000000   0.0000000   0.0000000   0.0000000   0.0000000   0.0000000   0.0000000
 NMagM=    2.7928460   2.7928460   2.7928460   2.7928460   2.7928460   2.7928460   2.7928460   2.7928460   2.7928460   2.7928460
 AtZNuc=   1.0000000   1.0000000   1.0000000   1.0000000   1.0000000   1.0000000   1.0000000   1.0000000   1.0000000   1.0000000

  Atom       121         122         123         124         125         126         127         128         129         130
 IAtWgt=           1           1           1           1           1           1           1           1           1           1
 AtmWgt=   1.0078250   1.0078250   1.0078250   1.0078250   1.0078250   1.0078250   1.0078250   1.0078250   1.0078250   1.0078250
 NucSpn=           1           1           1           1           1           1           1           1           1           1
 AtZEff=  -0.0000000  -0.0000000  -0.0000000  -0.0000000  -0.0000000  -0.0000000  -0.0000000  -0.0000000  -0.0000000  -0.0000000
 NQMom=    0.0000000   0.0000000   0.0000000   0.0000000   0.0000000   0.0000000   0.0000000   0.0000000   0.0000000   0.0000000
 NMagM=    2.7928460   2.7928460   2.7928460   2.7928460   2.7928460   2.7928460   2.7928460   2.7928460   2.7928460   2.7928460
 AtZNuc=   1.0000000   1.0000000   1.0000000   1.0000000   1.0000000   1.0000000   1.0000000   1.0000000   1.0000000   1.0000000

  Atom       131         132         133         134         135         136         137         138         139         140
 IAtWgt=           1           1           1           1           1           1           1           1           1           1
 AtmWgt=   1.0078250   1.0078250   1.0078250   1.0078250   1.0078250   1.0078250   1.0078250   1.0078250   1.0078250   1.0078250
 NucSpn=           1           1           1           1           1           1           1           1           1           1
 AtZEff=  -0.0000000  -0.0000000  -0.0000000  -0.0000000  -0.0000000  -0.0000000  -0.0000000  -0.0000000  -0.0000000  -0.0000000
 NQMom=    0.0000000   0.0000000   0.0000000   0.0000000   0.0000000   0.0000000   0.0000000   0.0000000   0.0000000   0.0000000
 NMagM=    2.7928460   2.7928460   2.7928460   2.7928460   2.7928460   2.7928460   2.7928460   2.7928460   2.7928460   2.7928460
 AtZNuc=   1.0000000   1.0000000   1.0000000   1.0000000   1.0000000   1.0000000   1.0000000   1.0000000   1.0000000   1.0000000
 Leave Link  101 at Sat Apr 30 04:35:16 2022, MaxMem= 10066329600 cpu:               3.0 elap:               0.1
 (Enter /sw/apps/gaussian-16.0/g16/l202.exe)
 Stoichiometry    C55H74MgN4O6
 Framework group  C1[X(C55H74MgN4O6)]
 Deg. of freedom   414
 Full point group                 C1      NOp   1
 Largest Abelian subgroup         C1      NOp   1
 Largest concise Abelian subgroup C1      NOp   1
                         Standard orientation:                         
 ---------------------------------------------------------------------
 Center     Atomic      Atomic             Coordinates (Angstroms)
 Number     Number       Type             X           Y           Z
 ---------------------------------------------------------------------
      1         12           0       -5.357845    1.093168   -0.185808
      2          6           0       -4.536417   -2.332735    0.096656
      3          6           0       -2.112671    1.820918   -0.523085
      4          6           0       -6.213786    4.245907    0.101599
      5          6           0       -8.820744    0.139160    0.088831
      6          7           0       -3.590517   -0.124992   -0.116272
      7          6           0       -3.476853   -1.461803   -0.028261
      8          6           0       -2.013071   -1.913432   -0.104815
      9          6           0       -1.285658   -0.579275   -0.206929
     10          6           0       -2.385103    0.459005   -0.240326
     11          6           0       -0.285499   -0.336239    0.887097
     12          6           0       -1.611908   -2.883819   -1.350442
     13          6           0       -0.863142   -4.175369   -0.914601
     14          6           0        0.293928   -3.987530    0.090711
     15          8           0        0.405901   -4.443640    1.208893
     16          8           0        1.323280   -3.270568   -0.534058
     17          7           0       -4.317962    2.765387   -0.239318
     18          6           0       -3.004391    2.867214   -0.431077
     19          6           0       -2.634439    4.288233   -0.407463
     20          6           0       -3.803823    5.051962   -0.318213
     21          6           0       -4.828514    4.044132   -0.179259
     22          6           0       -1.181712    4.806787   -0.541159
     23          6           0       -4.132163    6.539814   -0.265278
     24          8           0       -5.239952    7.033403   -0.130398
     25          6           0       -3.013230    7.549647   -0.412506
     26          7           0       -7.330281    2.113331   -0.070006
     27          6           0       -7.358216    3.404534    0.115236
     28          6           0       -8.816617    3.846815    0.555875
     29          6           0       -9.634262    2.526010    0.140105
     30          6           0       -8.563234    1.507229    0.020005
     31          6           0       -8.895096    4.243124    2.023163
     32          6           0      -10.315048    2.831187   -1.225523
     33          6           0      -11.230170    1.744570   -1.756133
     34          7           0       -6.533408   -0.698697    0.012914
     35          6           0       -7.873936   -0.921894    0.108628
     36          6           0       -8.103254   -2.330640    0.294243
     37          6           0       -6.819371   -2.934665    0.246892
     38          6           0       -5.929805   -1.926943    0.043069
     39          6           0       -9.447251   -3.044983    0.479748
     40          6           0       -6.094318   -4.188058    0.325786
     41          8           0       -6.526157   -5.336945    0.539422
     42          6           0       -4.605948   -3.841410    0.130155
     43          6           0       -3.738885   -4.504962    1.213701
     44          8           0       -3.443560   -3.966969    2.255659
     45          8           0       -3.330019   -5.714847    0.828498
     46          6           0       -2.614799   -6.431791    1.854264
     47          6           0        2.523331   -3.007780    0.299602
     48          6           0        3.750522   -2.729878   -0.538268
     49          6           0        4.873918   -3.475986   -0.682949
     50          6           0        5.143064   -4.851874   -0.052916
     51          6           0        5.879744   -3.030856   -1.734711
     52          6           0        7.354825   -2.949515   -1.292561
     53          6           0        8.192947   -1.890124   -2.096056
     54          6           0        8.581256   -0.716140   -1.273172
     55          6           0        7.800543    0.502267   -1.830398
     56          6           0       10.149332   -0.300674   -1.265451
     57          6           0       10.800557   -0.396466    0.181969
     58          6           0       12.126137   -1.056347    0.129373
     59          6           0       13.336256   -0.144646   -0.174508
     60          6           0       14.499226   -0.957950   -0.838313
     61          6           0       13.812328    0.553307    1.148634
     62          6           0       14.466034    1.977806    0.834015
     63          6           0       14.100178    3.104884    1.770762
     64          6           0       13.653312    4.453886    1.108025
     65          6           0       12.114394    4.620380    1.014245
     66          6           0       14.211107    5.784108    1.574936
     67          1           0       -1.086706    2.146033   -0.708571
     68          1           0       -6.628667    5.244227    0.254639
     69          1           0       -9.802815   -0.256157    0.356011
     70          1           0       -1.615478   -2.473357    0.742418
     71          1           0       -0.706444   -0.427621   -1.116775
     72          1           0       -0.945134    0.149410    1.606348
     73          1           0        0.515641    0.330896    0.569803
     74          1           0        0.087119   -1.187776    1.456712
     75          1           0       -0.941058   -2.414242   -2.070778
     76          1           0       -2.522949   -3.190356   -1.863919
     77          1           0       -0.464272   -4.742947   -1.754482
     78          1           0       -1.566278   -4.791744   -0.353792
     79          1           0       -0.418557    4.035883   -0.642514
     80          1           0       -0.921317    5.230169    0.428581
     81          1           0       -1.079445    5.443030   -1.420350
     82          1           0       -2.143271    7.022330   -0.020686
     83          1           0       -3.210780    8.483190    0.113499
     84          1           0       -2.841524    7.918546   -1.424366
     85          1           0       -9.031604    4.762224    0.004561
     86          1           0      -10.445049    2.216959    0.800346
     87          1           0       -9.125507    5.306934    2.082910
     88          1           0       -7.915696    4.097961    2.478408
     89          1           0       -9.634141    3.589741    2.487857
     90          1           0       -9.502315    3.024032   -1.926177
     91          1           0      -10.923079    3.735180   -1.195258
     92          1           0      -11.547618    1.029718   -0.997153
     93          1           0      -10.756666    1.245374   -2.600890
     94          1           0      -12.154704    2.230254   -2.071892
     95          1           0       -9.625617   -3.501272   -0.494505
     96          1           0      -10.250790   -2.366417    0.765439
     97          1           0       -9.398433   -3.802032    1.261582
     98          1           0       -4.353093   -4.261815   -0.842771
     99          1           0       -2.021423   -7.201190    1.359709
    100          1           0       -3.237358   -6.679987    2.714756
    101          1           0       -1.887408   -5.743974    2.285494
    102          1           0        2.714883   -3.824278    0.996025
    103          1           0        2.451982   -2.055713    0.825314
    104          1           0        3.773263   -1.819913   -1.137920
    105          1           0        5.266892   -5.656895   -0.777166
    106          1           0        4.507117   -5.122724    0.789671
    107          1           0        6.150730   -4.662240    0.316719
    108          1           0        5.644113   -2.065254   -2.182568
    109          1           0        5.867633   -3.789374   -2.518189
    110          1           0        7.753064   -3.912505   -1.611736
    111          1           0        7.464441   -2.853024   -0.212796
    112          1           0        7.583232   -1.629934   -2.961717
    113          1           0        9.037454   -2.413744   -2.543528
    114          1           0        8.369758   -0.892288   -0.218514
    115          1           0        6.975546    0.227146   -2.487843
    116          1           0        8.401386    1.162119   -2.456742
    117          1           0        7.285524    1.051953   -1.043445
    118          1           0       10.382274    0.713362   -1.591196
    119          1           0       10.759104   -0.815696   -2.007659
    120          1           0       10.174216   -0.939173    0.890228
    121          1           0       10.920415    0.572479    0.667618
    122          1           0       11.952326   -1.816169   -0.632634
    123          1           0       12.240216   -1.578361    1.080321
    124          1           0       13.033822    0.616125   -0.893945
    125          1           0       14.733777   -0.576145   -1.832343
    126          1           0       14.176875   -1.993471   -0.946722
    127          1           0       15.404715   -0.961298   -0.232272
    128          1           0       14.531768   -0.027061    1.726776
    129          1           0       12.933105    0.665734    1.783365
    130          1           0       14.351154    2.215572   -0.223781
    131          1           0       15.546402    1.887167    0.942700
    132          1           0       14.934836    3.281015    2.450332
    133          1           0       13.295300    2.770554    2.425337
    134          1           0       13.940857    4.381617    0.058808
    135          1           0       11.750019    3.723355    0.514380
    136          1           0       11.778601    5.459327    0.404538
    137          1           0       11.793784    4.643438    2.055280
    138          1           0       14.586310    5.612663    2.583933
    139          1           0       13.423464    6.536503    1.573083
    140          1           0       14.877812    6.122628    0.780730
 ---------------------------------------------------------------------
 Rotational constants (GHZ):           0.0419999           0.0095492           0.0079909
 Leave Link  202 at Sat Apr 30 04:35:17 2022, MaxMem= 10066329600 cpu:               1.4 elap:               0.1
 (Enter /sw/apps/gaussian-16.0/g16/l301.exe)
 Standard basis: def2SVP (5D, 7F)
 Ernie: Thresh=  0.10000D-02 Tol=  0.10000D-05 Strict=F.
 There are  1364 symmetry adapted cartesian basis functions of A   symmetry.
 There are  1298 symmetry adapted basis functions of A   symmetry.
  1298 basis functions,  2180 primitive gaussians,  1364 cartesian basis functions
   246 alpha electrons      246 beta electrons
       nuclear repulsion energy      9486.0106581703 Hartrees.
 IExCor=  402 DFT=T Ex=B Corr=LYP ExCW=0 ScaHFX=  0.000000
 ScaDFX=  1.000000  1.000000  1.000000  1.000000 ScalE2=  1.000000  1.000000
 IRadAn=      5 IRanWt=     -1 IRanGd=            0 ICorTp=0 IEmpDi=  4
 NAtoms=  140 NActive=  140 NUniq=  140 SFac= 1.00D+00 NAtFMM=   60 NAOKFM=T Big=T
 Integral buffers will be    131072 words long.
 Regular integral format.
 Two-electron integral symmetry is turned on.
 Leave Link  301 at Sat Apr 30 04:35:17 2022, MaxMem= 10066329600 cpu:               1.3 elap:               0.1
 (Enter /sw/apps/gaussian-16.0/g16/l302.exe)
 NPDir=0 NMtPBC=     1 NCelOv=     1 NCel=       1 NClECP=     1 NCelD=      1
         NCelK=      1 NCelE2=     1 NClLst=     1 CellRange=     0.0.
 One-electron integrals computed using PRISM.
 One-electron integral symmetry used in STVInt
   1 Symmetry operations used in ECPInt.
 ECPInt:  NShTT=  192510 NPrTT=  683786 LenC2=   91768 LenP2D=  202646.
 LDataN:  DoStor=T MaxTD1= 4 Len=   56
 NBasis=  1298 RedAO= T EigKep=  2.68D-04  NBF=  1298
 NBsUse=  1298 1.00D-06 EigRej= -1.00D+00 NBFU=  1298
 Precomputing XC quadrature grid using
 IXCGrd= 4 IRadAn=           5 IRanWt=          -1 IRanGd=           0 AccXCQ= 0.00D+00.
 Generated NRdTot=       0 NPtTot=           0 NUsed=           0 NTot=          32
 NSgBfM=  1079  1079  1079  1079  1079 MxSgAt=   140 MxSgA2=   140.
 Leave Link  302 at Sat Apr 30 04:35:20 2022, MaxMem= 10066329600 cpu:              79.3 elap:               3.3
 (Enter /sw/apps/gaussian-16.0/g16/l303.exe)
 DipDrv:  MaxL=1.
 Leave Link  303 at Sat Apr 30 04:35:20 2022, MaxMem= 10066329600 cpu:               5.6 elap:               0.3
 (Enter /sw/apps/gaussian-16.0/g16/l308.exe)
 Leave Link  308 at Sat Apr 30 04:35:21 2022, MaxMem= 10066329600 cpu:               8.8 elap:               0.4
 (Enter /sw/apps/gaussian-16.0/g16/l401.exe)
 ExpMin= 3.36D-02 ExpMax= 4.95D+03 ExpMxC= 7.45D+02 IAcc=3 IRadAn=         5 AccDes= 0.00D+00
 Harris functional with IExCor=  402 and IRadAn=       5 diagonalized for initial guess.
 HarFok:  IExCor=  402 AccDes= 0.00D+00 IRadAn=         5 IDoV= 1 UseB2=F ITyADJ=14
 ICtDFT=  3500011 ScaDFX=  1.000000  1.000000  1.000000  1.000000
 FoFCou: FMM=F IPFlag=           0 FMFlag=      100000 FMFlg1=        2001
         NFxFlg=           0 DoJE=T BraDBF=F KetDBF=T FulRan=T
         wScrn=  0.000000 ICntrl=       500 IOpCl=  0 I1Cent=   200000004 NGrid=           0
         NMat0=    1 NMatS0=      1 NMatT0=    0 NMatD0=    1 NMtDS0=    0 NMtDT0=    0
 Petite list used in FoFCou.
 Harris En= -3008.79169909000    
 JPrj=0 DoOrth=F DoCkMO=F.
 Leave Link  401 at Sat Apr 30 04:35:26 2022, MaxMem= 10066329600 cpu:             136.8 elap:               5.7
 (Enter /sw/apps/gaussian-16.0/g16/l502.exe)
 Integral symmetry usage will be decided dynamically.
 Closed shell SCF:
 Using DIIS extrapolation, IDIIS=  1040.
 NGot= 10066329600 LenX= 10062561258 LenY= 10060699398
 Requested convergence on RMS density matrix=1.00D-08 within 128 cycles.
 Requested convergence on MAX density matrix=1.00D-06.
 Requested convergence on             energy=1.00D-06.
 No special actions if energy rises.
 Fock matrices will be formed incrementally for  20 cycles.

 Cycle   1  Pass 1  IDiag  1:
 FoFJK:  IHMeth= 1 ICntrl=     500 DoSepK=F KAlg= 0 I1Cent=           0 FoldK=F
 IRaf= 510000000 NMat=       1 IRICut=       1 DoRegI=T DoRafI=F ISym2E= 0 IDoP0=0 IntGTp=1.
 FoFCou: FMM=T IPFlag=           0 FMFlag=      100000 FMFlg1=        2001
         NFxFlg=           0 DoJE=T BraDBF=F KetDBF=F FulRan=T
         wScrn=  0.000000 ICntrl=       500 IOpCl=  0 I1Cent=           0 NGrid=           0
         NMat0=    1 NMatS0=      1 NMatT0=    0 NMatD0=    1 NMtDS0=    0 NMtDT0=    0
 Symmetry not used in FoFCou.
 FMM levels:  10  Number of levels for PrismC:   9
 E= -3005.67913534117    
 DIIS: error= 1.95D-02 at cycle   1 NSaved=   1.
 NSaved= 1 IEnMin= 1 EnMin= -3005.67913534117     IErMin= 1 ErrMin= 1.95D-02
 ErrMax= 1.95D-02  0.00D+00 EMaxC= 1.00D-01 BMatC= 1.55D+00 BMatP= 1.55D+00
 IDIUse=3 WtCom= 8.05D-01 WtEn= 1.95D-01
 Coeff-Com:  0.100D+01
 Coeff-En:   0.100D+01
 Coeff:      0.100D+01
 Gap=     0.031 Goal=   None    Shift=    0.000
 GapD=    0.031 DampG=0.250 DampE=0.500 DampFc=0.2500 IDamp=-1.
 Damping current iteration by 2.50D-01
 RMSDP=3.83D-03 MaxDP=5.26D-01              OVMax= 8.51D-01

 Cycle   2  Pass 1  IDiag  1:
 RMSU=  9.52D-04    CP:  9.90D-01
 E= -3006.18421330342     Delta-E=       -0.505077962249 Rises=F Damp=T
 DIIS: error= 8.38D-03 at cycle   2 NSaved=   2.
 NSaved= 2 IEnMin= 2 EnMin= -3006.18421330342     IErMin= 2 ErrMin= 8.38D-03
 ErrMax= 8.38D-03  0.00D+00 EMaxC= 1.00D-01 BMatC= 2.61D-01 BMatP= 1.55D+00
 IDIUse=3 WtCom= 9.16D-01 WtEn= 8.38D-02
 Coeff-Com: -0.307D+00 0.131D+01
 Coeff-En:   0.747D-01 0.925D+00
 Coeff:     -0.275D+00 0.127D+01
 Gap=    -0.132 Goal=   None    Shift=    0.000
 RMSDP=1.65D-03 MaxDP=2.89D-01 DE=-5.05D-01 OVMax= 5.35D-01

 Cycle   3  Pass 1  IDiag  1:
 RMSU=  1.62D-03    CP:  9.66D-01  1.26D+00
 E= -3004.68517941877     Delta-E=        1.499033884653 Rises=F Damp=F
 DIIS: error= 5.07D-02 at cycle   3 NSaved=   3.
 NSaved= 3 IEnMin= 2 EnMin= -3006.18421330342     IErMin= 2 ErrMin= 8.38D-03
 ErrMax= 5.07D-02  0.00D+00 EMaxC= 1.00D-01 BMatC= 1.74D+00 BMatP= 2.61D-01
 IDIUse=2 WtCom= 0.00D+00 WtEn= 1.00D+00
 Coeff-En:   0.000D+00 0.735D+00 0.265D+00
 Coeff:      0.000D+00 0.735D+00 0.265D+00
 Gap=    -0.095 Goal=   None    Shift=    0.000
 RMSDP=2.15D-03 MaxDP=4.27D-01 DE= 1.50D+00 OVMax= 7.02D-01

 Cycle   4  Pass 1  IDiag  1:
 RMSU=  1.17D-03    CP:  9.66D-01  1.93D+00 -3.86D-02
 E= -3004.38296985386     Delta-E=        0.302209564903 Rises=F Damp=F
 DIIS: error= 4.63D-02 at cycle   4 NSaved=   4.
 NSaved= 4 IEnMin= 2 EnMin= -3006.18421330342     IErMin= 2 ErrMin= 8.38D-03
 ErrMax= 4.63D-02  0.00D+00 EMaxC= 1.00D-01 BMatC= 1.68D+00 BMatP= 2.61D-01
 IDIUse=2 WtCom= 0.00D+00 WtEn= 1.00D+00
 EnCoef did     1 forward-backward iterations
 Coeff-En:   0.144D+00 0.000D+00 0.434D+00 0.422D+00
 Coeff:      0.144D+00 0.000D+00 0.434D+00 0.422D+00
 Gap=     0.053 Goal=   None    Shift=    0.000
 RMSDP=1.91D-03 MaxDP=2.92D-01 DE= 3.02D-01 OVMax= 6.76D-01

 Cycle   5  Pass 1  IDiag  1:
 RMSU=  1.31D-03    CP:  9.75D-01  1.13D+00  1.41D-01  3.95D-02
 E= -3005.47987293527     Delta-E=       -1.096903081409 Rises=F Damp=F
 DIIS: error= 6.86D-02 at cycle   5 NSaved=   5.
 NSaved= 5 IEnMin= 2 EnMin= -3006.18421330342     IErMin= 2 ErrMin= 8.38D-03
 ErrMax= 6.86D-02  0.00D+00 EMaxC= 1.00D-01 BMatC= 1.13D+00 BMatP= 2.61D-01
 IDIUse=2 WtCom= 0.00D+00 WtEn= 1.00D+00
 EnCoef did     3 forward-backward iterations
 Coeff-En:   0.816D-01 0.000D+00 0.366D+00 0.367D+00 0.185D+00
 Coeff:      0.816D-01 0.000D+00 0.366D+00 0.367D+00 0.185D+00
 Gap=    -0.202 Goal=   None    Shift=    0.000
 RMSDP=1.23D-03 MaxDP=3.59D-01 DE=-1.10D+00 OVMax= 5.54D-01

 Cycle   6  Pass 1  IDiag  1:
 RMSU=  7.18D-04    CP:  9.78D-01  9.24D-01  2.04D-01  6.42D-02  2.62D-01
 E= -3007.15466541372     Delta-E=       -1.674792478452 Rises=F Damp=F
 DIIS: error= 3.05D-02 at cycle   6 NSaved=   6.
 NSaved= 6 IEnMin= 6 EnMin= -3007.15466541372     IErMin= 2 ErrMin= 8.38D-03
 ErrMax= 3.05D-02  0.00D+00 EMaxC= 1.00D-01 BMatC= 2.30D-01 BMatP= 2.61D-01
 IDIUse=3 WtCom= 6.95D-01 WtEn= 3.05D-01
 EnCoef did     2 forward-backward iterations
 Coeff-Com: -0.159D+00 0.505D+00 0.152D+00 0.842D-01 0.987D-01 0.319D+00
 Coeff-En:   0.000D+00 0.000D+00 0.000D+00 0.238D-01 0.170D+00 0.807D+00
 Coeff:     -0.111D+00 0.351D+00 0.106D+00 0.657D-01 0.120D+00 0.468D+00
 Gap=     0.060 Goal=   None    Shift=    0.000
 RMSDP=7.72D-04 MaxDP=1.57D-01 DE=-1.67D+00 OVMax= 2.57D-01

 Cycle   7  Pass 1  IDiag  1:
 RMSU=  6.40D-04    CP:  9.75D-01  1.22D+00  1.99D-01  1.65D-01  1.43D-01
                    CP:  6.36D-01
 E= -3007.22937128506     Delta-E=       -0.074705871331 Rises=F Damp=F
 DIIS: error= 1.13D-02 at cycle   7 NSaved=   7.
 NSaved= 7 IEnMin= 7 EnMin= -3007.22937128506     IErMin= 2 ErrMin= 8.38D-03
 ErrMax= 1.13D-02  0.00D+00 EMaxC= 1.00D-01 BMatC= 1.61D-01 BMatP= 2.30D-01
 IDIUse=3 WtCom= 8.87D-01 WtEn= 1.13D-01
 EnCoef did     5 forward-backward iterations
 Coeff-Com: -0.171D+00 0.372D+00 0.347D-01-0.132D-01 0.737D-01 0.352D+00
 Coeff-Com:  0.352D+00
 Coeff-En:   0.000D+00 0.000D+00 0.000D+00 0.000D+00 0.538D-01 0.433D+00
 Coeff-En:   0.513D+00
 Coeff:     -0.152D+00 0.330D+00 0.307D-01-0.117D-01 0.715D-01 0.361D+00
 Coeff:      0.370D+00
 Gap=     0.043 Goal=   None    Shift=    0.000
 RMSDP=5.99D-04 MaxDP=8.34D-02 DE=-7.47D-02 OVMax= 3.71D-01

 Cycle   8  Pass 1  IDiag  1:
 RMSU=  3.89D-04    CP:  9.78D-01  1.16D+00  2.11D-01 -2.17D-03  2.88D-01
                    CP:  7.56D-01  4.58D-01
 E= -3007.33735155259     Delta-E=       -0.107980267534 Rises=F Damp=F
 DIIS: error= 6.87D-03 at cycle   8 NSaved=   8.
 NSaved= 8 IEnMin= 8 EnMin= -3007.33735155259     IErMin= 8 ErrMin= 6.87D-03
 ErrMax= 6.87D-03  0.00D+00 EMaxC= 1.00D-01 BMatC= 3.51D-02 BMatP= 1.61D-01
 IDIUse=3 WtCom= 9.31D-01 WtEn= 6.87D-02
 Coeff-Com: -0.976D-01 0.211D+00 0.108D-04-0.741D-02 0.355D-01 0.187D+00
 Coeff-Com:  0.302D+00 0.370D+00
 Coeff-En:   0.000D+00 0.000D+00 0.000D+00 0.000D+00 0.000D+00 0.000D+00
 Coeff-En:   0.302D+00 0.698D+00
 Coeff:     -0.909D-01 0.196D+00 0.100D-04-0.690D-02 0.331D-01 0.174D+00
 Coeff:      0.302D+00 0.392D+00
 Gap=     0.037 Goal=   None    Shift=    0.000
 RMSDP=3.84D-04 MaxDP=4.24D-02 DE=-1.08D-01 OVMax= 3.12D-01

 Cycle   9  Pass 1  IDiag  1:
 RMSU=  1.92D-04    CP:  9.78D-01  1.18D+00  1.70D-01  6.47D-02  2.49D-01
                    CP:  7.97D-01  6.19D-01  2.48D-01
 E= -3007.36450562985     Delta-E=       -0.027154077263 Rises=F Damp=F
 DIIS: error= 3.84D-03 at cycle   9 NSaved=   9.
 NSaved= 9 IEnMin= 9 EnMin= -3007.36450562985     IErMin= 9 ErrMin= 3.84D-03
 ErrMax= 3.84D-03  0.00D+00 EMaxC= 1.00D-01 BMatC= 1.85D-02 BMatP= 3.51D-02
 IDIUse=3 WtCom= 9.62D-01 WtEn= 3.84D-02
 EnCoef did     4 forward-backward iterations
 Coeff-Com: -0.436D-01 0.107D+00-0.787D-02-0.886D-03 0.927D-02 0.543D-01
 Coeff-Com:  0.191D+00 0.397D+00 0.293D+00
 Coeff-En:   0.000D+00 0.000D+00 0.000D+00 0.000D+00 0.000D+00 0.000D+00
 Coeff-En:   0.147D-01 0.375D+00 0.610D+00
 Coeff:     -0.420D-01 0.103D+00-0.756D-02-0.852D-03 0.891D-02 0.522D-01
 Coeff:      0.184D+00 0.397D+00 0.305D+00
 Gap=     0.044 Goal=   None    Shift=    0.000
 RMSDP=1.99D-04 MaxDP=2.05D-02 DE=-2.72D-02 OVMax= 1.44D-01

 Cycle  10  Pass 1  IDiag  1:
 RMSU=  6.75D-05    CP:  9.78D-01  1.17D+00  1.81D-01  4.73D-02  2.44D-01
                    CP:  7.71D-01  6.36D-01  5.99D-01  3.57D-01
 E= -3007.38845785022     Delta-E=       -0.023952220366 Rises=F Damp=F
 DIIS: error= 9.57D-04 at cycle  10 NSaved=  10.
 NSaved=10 IEnMin=10 EnMin= -3007.38845785022     IErMin=10 ErrMin= 9.57D-04
 ErrMax= 9.57D-04  0.00D+00 EMaxC= 1.00D-01 BMatC= 1.51D-03 BMatP= 1.85D-02
 IDIUse=3 WtCom= 9.90D-01 WtEn= 9.57D-03
 Coeff-Com: -0.211D-01 0.542D-01-0.738D-02 0.279D-02-0.525D-04 0.127D-01
 Coeff-Com:  0.853D-01 0.231D+00 0.218D+00 0.424D+00
 Coeff-En:   0.000D+00 0.000D+00 0.000D+00 0.000D+00 0.000D+00 0.000D+00
 Coeff-En:   0.000D+00 0.000D+00 0.757D-01 0.924D+00
 Coeff:     -0.209D-01 0.537D-01-0.731D-02 0.276D-02-0.520D-04 0.125D-01
 Coeff:      0.845D-01 0.229D+00 0.217D+00 0.429D+00
 Gap=     0.044 Goal=   None    Shift=    0.000
 RMSDP=5.66D-05 MaxDP=6.52D-03 DE=-2.40D-02 OVMax= 2.81D-02

 Cycle  11  Pass 1  IDiag  1:
 RMSU=  3.57D-05    CP:  9.78D-01  1.18D+00  1.76D-01  5.01D-02  2.48D-01
                    CP:  7.73D-01  6.46D-01  5.82D-01  5.08D-01  5.68D-01
 E= -3007.38970590164     Delta-E=       -0.001248051421 Rises=F Damp=F
 DIIS: error= 5.53D-04 at cycle  11 NSaved=  11.
 NSaved=11 IEnMin=11 EnMin= -3007.38970590164     IErMin=11 ErrMin= 5.53D-04
 ErrMax= 5.53D-04  0.00D+00 EMaxC= 1.00D-01 BMatC= 4.29D-04 BMatP= 1.51D-03
 IDIUse=3 WtCom= 9.94D-01 WtEn= 5.53D-03
 Coeff-Com: -0.129D-01 0.282D-01-0.434D-02 0.239D-02-0.139D-02 0.864D-02
 Coeff-Com:  0.202D-01 0.686D-01 0.652D-01 0.325D+00 0.500D+00
 Coeff-En:   0.000D+00 0.000D+00 0.000D+00 0.000D+00 0.000D+00 0.000D+00
 Coeff-En:   0.000D+00 0.000D+00 0.000D+00 0.233D+00 0.767D+00
 Coeff:     -0.128D-01 0.280D-01-0.432D-02 0.237D-02-0.139D-02 0.859D-02
 Coeff:      0.201D-01 0.682D-01 0.649D-01 0.325D+00 0.502D+00
 Gap=     0.044 Goal=   None    Shift=    0.000
 RMSDP=3.83D-05 MaxDP=4.53D-03 DE=-1.25D-03 OVMax= 2.59D-02

 Cycle  12  Pass 1  IDiag  1:
 RMSU=  2.59D-05    CP:  9.78D-01  1.18D+00  1.74D-01  5.45D-02  2.46D-01
                    CP:  7.84D-01  6.43D-01  5.71D-01  4.63D-01  8.23D-01
                    CP:  5.05D-01
 E= -3007.38995597773     Delta-E=       -0.000250076086 Rises=F Damp=F
 DIIS: error= 3.66D-04 at cycle  12 NSaved=  12.
 NSaved=12 IEnMin=12 EnMin= -3007.38995597773     IErMin=12 ErrMin= 3.66D-04
 ErrMax= 3.66D-04  0.00D+00 EMaxC= 1.00D-01 BMatC= 2.75D-04 BMatP= 4.29D-04
 IDIUse=3 WtCom= 9.96D-01 WtEn= 3.66D-03
 Coeff-Com: -0.981D-02 0.181D-01-0.161D-02 0.331D-03-0.820D-03 0.811D-02
 Coeff-Com: -0.851D-02-0.149D-01-0.233D-01 0.160D+00 0.487D+00 0.385D+00
 Coeff-En:   0.000D+00 0.000D+00 0.000D+00 0.000D+00 0.000D+00 0.000D+00
 Coeff-En:   0.000D+00 0.000D+00 0.000D+00 0.000D+00 0.374D+00 0.626D+00
 Coeff:     -0.978D-02 0.181D-01-0.160D-02 0.330D-03-0.817D-03 0.808D-02
 Coeff:     -0.848D-02-0.148D-01-0.232D-01 0.160D+00 0.487D+00 0.386D+00
 Gap=     0.044 Goal=   None    Shift=    0.000
 RMSDP=2.40D-05 MaxDP=2.76D-03 DE=-2.50D-04 OVMax= 1.57D-02

 Cycle  13  Pass 1  IDiag  1:
 RMSU=  1.38D-05    CP:  9.78D-01  1.18D+00  1.73D-01  5.20D-02  2.50D-01
                    CP:  7.86D-01  6.44D-01  5.79D-01  4.90D-01  7.75D-01
                    CP:  7.71D-01  4.35D-01
 E= -3007.39021963494     Delta-E=       -0.000263657219 Rises=F Damp=F
 DIIS: error= 1.80D-04 at cycle  13 NSaved=  13.
 NSaved=13 IEnMin=13 EnMin= -3007.39021963494     IErMin=13 ErrMin= 1.80D-04
 ErrMax= 1.80D-04  0.00D+00 EMaxC= 1.00D-01 BMatC= 4.62D-05 BMatP= 2.75D-04
 IDIUse=3 WtCom= 9.98D-01 WtEn= 1.80D-03
 Coeff-Com: -0.647D-02 0.110D-01-0.735D-03 0.160D-03-0.123D-03 0.603D-02
 Coeff-Com: -0.963D-02-0.199D-01-0.330D-01 0.693D-01 0.289D+00 0.296D+00
 Coeff-Com:  0.398D+00
 Coeff-En:   0.000D+00 0.000D+00 0.000D+00 0.000D+00 0.000D+00 0.000D+00
 Coeff-En:   0.000D+00 0.000D+00 0.000D+00 0.000D+00 0.000D+00 0.149D+00
 Coeff-En:   0.851D+00
 Coeff:     -0.646D-02 0.110D-01-0.733D-03 0.159D-03-0.123D-03 0.602D-02
 Coeff:     -0.961D-02-0.199D-01-0.330D-01 0.692D-01 0.289D+00 0.296D+00
 Coeff:      0.399D+00
 Gap=     0.044 Goal=   None    Shift=    0.000
 RMSDP=1.05D-05 MaxDP=1.38D-03 DE=-2.64D-04 OVMax= 7.32D-03

 Cycle  14  Pass 1  IDiag  1:
 RMSU=  5.98D-06    CP:  9.78D-01  1.18D+00  1.73D-01  5.28D-02  2.50D-01
                    CP:  7.88D-01  6.42D-01  5.79D-01  4.80D-01  8.04D-01
                    CP:  7.90D-01  6.18D-01  5.59D-01
 E= -3007.39026380022     Delta-E=       -0.000044165279 Rises=F Damp=F
 DIIS: error= 8.32D-05 at cycle  14 NSaved=  14.
 NSaved=14 IEnMin=14 EnMin= -3007.39026380022     IErMin=14 ErrMin= 8.32D-05
 ErrMax= 8.32D-05  0.00D+00 EMaxC= 1.00D-01 BMatC= 1.40D-05 BMatP= 4.62D-05
 IDIUse=1 WtCom= 1.00D+00 WtEn= 0.00D+00
 Coeff-Com: -0.298D-02 0.504D-02-0.212D-03-0.428D-04 0.148D-03 0.167D-02
 Coeff-Com: -0.558D-02-0.942D-02-0.216D-01 0.847D-02 0.790D-01 0.109D+00
 Coeff-Com:  0.349D+00 0.487D+00
 Coeff:     -0.298D-02 0.504D-02-0.212D-03-0.428D-04 0.148D-03 0.167D-02
 Coeff:     -0.558D-02-0.942D-02-0.216D-01 0.847D-02 0.790D-01 0.109D+00
 Coeff:      0.349D+00 0.487D+00
 Gap=     0.044 Goal=   None    Shift=    0.000
 RMSDP=5.30D-06 MaxDP=6.44D-04 DE=-4.42D-05 OVMax= 2.47D-03

 Cycle  15  Pass 1  IDiag  1:
 RMSU=  2.69D-06    CP:  9.78D-01  1.18D+00  1.73D-01  5.21D-02  2.51D-01
                    CP:  7.88D-01  6.43D-01  5.84D-01  4.80D-01  8.13D-01
                    CP:  7.94D-01  5.70D-01  7.40D-01  5.73D-01
 E= -3007.39027786851     Delta-E=       -0.000014068286 Rises=F Damp=F
 DIIS: error= 4.67D-05 at cycle  15 NSaved=  15.
 NSaved=15 IEnMin=15 EnMin= -3007.39027786851     IErMin=15 ErrMin= 4.67D-05
 ErrMax= 4.67D-05  0.00D+00 EMaxC= 1.00D-01 BMatC= 3.42D-06 BMatP= 1.40D-05
 IDIUse=1 WtCom= 1.00D+00 WtEn= 0.00D+00
 Coeff-Com: -0.937D-03 0.170D-02-0.397D-04-0.413D-04 0.735D-04-0.541D-03
 Coeff-Com: -0.240D-02-0.269D-02-0.105D-01-0.127D-01-0.131D-01 0.102D-01
 Coeff-Com:  0.190D+00 0.408D+00 0.433D+00
 Coeff:     -0.937D-03 0.170D-02-0.397D-04-0.413D-04 0.735D-04-0.541D-03
 Coeff:     -0.240D-02-0.269D-02-0.105D-01-0.127D-01-0.131D-01 0.102D-01
 Coeff:      0.190D+00 0.408D+00 0.433D+00
 Gap=     0.044 Goal=   None    Shift=    0.000
 RMSDP=2.14D-06 MaxDP=3.53D-04 DE=-1.41D-05 OVMax= 7.82D-04

 Cycle  16  Pass 1  IDiag  1:
 RMSU=  9.46D-07    CP:  9.78D-01  1.18D+00  1.73D-01  5.21D-02  2.51D-01
                    CP:  7.88D-01  6.43D-01  5.86D-01  4.81D-01  8.18D-01
                    CP:  8.07D-01  5.92D-01  7.39D-01  6.69D-01  5.03D-01
 E= -3007.39028118478     Delta-E=       -0.000003316269 Rises=F Damp=F
 DIIS: error= 1.41D-05 at cycle  16 NSaved=  16.
 NSaved=16 IEnMin=16 EnMin= -3007.39028118478     IErMin=16 ErrMin= 1.41D-05
 ErrMax= 1.41D-05  0.00D+00 EMaxC= 1.00D-01 BMatC= 3.36D-07 BMatP= 3.42D-06
 IDIUse=1 WtCom= 1.00D+00 WtEn= 0.00D+00
 Coeff-Com: -0.241D-03 0.482D-03-0.161D-04-0.213D-04 0.538D-04-0.598D-03
 Coeff-Com: -0.862D-03-0.796D-03-0.462D-02-0.128D-01-0.243D-01-0.103D-01
 Coeff-Com:  0.852D-01 0.220D+00 0.291D+00 0.458D+00
 Coeff:     -0.241D-03 0.482D-03-0.161D-04-0.213D-04 0.538D-04-0.598D-03
 Coeff:     -0.862D-03-0.796D-03-0.462D-02-0.128D-01-0.243D-01-0.103D-01
 Coeff:      0.852D-01 0.220D+00 0.291D+00 0.458D+00
 Gap=     0.044 Goal=   None    Shift=    0.000
 RMSDP=8.27D-07 MaxDP=1.97D-04 DE=-3.32D-06 OVMax= 2.20D-04

 Cycle  17  Pass 1  IDiag  1:
 RMSU=  4.80D-07    CP:  9.78D-01  1.18D+00  1.73D-01  5.22D-02  2.51D-01
                    CP:  7.88D-01  6.43D-01  5.86D-01  4.81D-01  8.20D-01
                    CP:  8.09D-01  6.01D-01  7.58D-01  6.84D-01  5.73D-01
                    CP:  5.73D-01
 E= -3007.39028149113     Delta-E=       -0.000000306351 Rises=F Damp=F
 DIIS: error= 4.57D-06 at cycle  17 NSaved=  17.
 NSaved=17 IEnMin=17 EnMin= -3007.39028149113     IErMin=17 ErrMin= 4.57D-06
 ErrMax= 4.57D-06  0.00D+00 EMaxC= 1.00D-01 BMatC= 7.09D-08 BMatP= 3.36D-07
 IDIUse=1 WtCom= 1.00D+00 WtEn= 0.00D+00
 Coeff-Com:  0.542D-05-0.193D-05-0.140D-04 0.584D-05 0.308D-04-0.267D-03
 Coeff-Com: -0.127D-03-0.152D-03-0.132D-02-0.718D-02-0.149D-01-0.932D-02
 Coeff-Com:  0.232D-01 0.749D-01 0.117D+00 0.351D+00 0.468D+00
 Coeff:      0.542D-05-0.193D-05-0.140D-04 0.584D-05 0.308D-04-0.267D-03
 Coeff:     -0.127D-03-0.152D-03-0.132D-02-0.718D-02-0.149D-01-0.932D-02
 Coeff:      0.232D-01 0.749D-01 0.117D+00 0.351D+00 0.468D+00
 Gap=     0.044 Goal=   None    Shift=    0.000
 RMSDP=3.56D-07 MaxDP=3.12D-05 DE=-3.06D-07 OVMax= 1.60D-04

 Cycle  18  Pass 1  IDiag  1:
 RMSU=  1.68D-07    CP:  9.78D-01  1.18D+00  1.73D-01  5.22D-02  2.51D-01
                    CP:  7.88D-01  6.43D-01  5.86D-01  4.81D-01  8.20D-01
                    CP:  8.12D-01  6.03D-01  7.64D-01  6.91D-01  5.51D-01
                    CP:  6.36D-01  5.32D-01
 E= -3007.39028156581     Delta-E=       -0.000000074684 Rises=F Damp=F
 DIIS: error= 2.06D-06 at cycle  18 NSaved=  18.
 NSaved=18 IEnMin=18 EnMin= -3007.39028156581     IErMin=18 ErrMin= 2.06D-06
 ErrMax= 2.06D-06  0.00D+00 EMaxC= 1.00D-01 BMatC= 9.24D-09 BMatP= 7.09D-08
 IDIUse=1 WtCom= 1.00D+00 WtEn= 0.00D+00
 Coeff-Com:  0.249D-04-0.390D-04-0.537D-05 0.259D-05 0.121D-04-0.115D-03
 Coeff-Com:  0.168D-04-0.639D-04-0.381D-03-0.355D-02-0.740D-02-0.513D-02
 Coeff-Com:  0.560D-02 0.243D-01 0.433D-01 0.191D+00 0.330D+00 0.422D+00
 Coeff:      0.249D-04-0.390D-04-0.537D-05 0.259D-05 0.121D-04-0.115D-03
 Coeff:      0.168D-04-0.639D-04-0.381D-03-0.355D-02-0.740D-02-0.513D-02
 Coeff:      0.560D-02 0.243D-01 0.433D-01 0.191D+00 0.330D+00 0.422D+00
 Gap=     0.044 Goal=   None    Shift=    0.000
 RMSDP=1.22D-07 MaxDP=1.15D-05 DE=-7.47D-08 OVMax= 3.98D-05

 Cycle  19  Pass 1  IDiag  1:
 RMSU=  7.29D-08    CP:  9.78D-01  1.18D+00  1.73D-01  5.22D-02  2.51D-01
                    CP:  7.88D-01  6.43D-01  5.86D-01  4.81D-01  8.20D-01
                    CP:  8.12D-01  6.03D-01  7.65D-01  6.94D-01  5.57D-01
                    CP:  6.47D-01  5.92D-01  5.09D-01
 E= -3007.39028157357     Delta-E=       -0.000000007758 Rises=F Damp=F
 DIIS: error= 1.33D-06 at cycle  19 NSaved=  19.
 NSaved=19 IEnMin=19 EnMin= -3007.39028157357     IErMin=19 ErrMin= 1.33D-06
 ErrMax= 1.33D-06  0.00D+00 EMaxC= 1.00D-01 BMatC= 1.60D-09 BMatP= 9.24D-09
 IDIUse=1 WtCom= 1.00D+00 WtEn= 0.00D+00
 Coeff-Com:  0.874D-05-0.114D-04-0.180D-05 0.676D-06 0.418D-05-0.385D-04
 Coeff-Com:  0.281D-04-0.277D-04-0.834D-04-0.128D-02-0.266D-02-0.190D-02
 Coeff-Com:  0.800D-03 0.574D-02 0.122D-01 0.808D-01 0.161D+00 0.313D+00
 Coeff-Com:  0.432D+00
 Coeff:      0.874D-05-0.114D-04-0.180D-05 0.676D-06 0.418D-05-0.385D-04
 Coeff:      0.281D-04-0.277D-04-0.834D-04-0.128D-02-0.266D-02-0.190D-02
 Coeff:      0.800D-03 0.574D-02 0.122D-01 0.808D-01 0.161D+00 0.313D+00
 Coeff:      0.432D+00
 Gap=     0.044 Goal=   None    Shift=    0.000
 RMSDP=4.58D-08 MaxDP=4.34D-06 DE=-7.76D-09 OVMax= 1.06D-05

 Cycle  20  Pass 1  IDiag  1:
 RMSU=  2.48D-08    CP:  9.78D-01  1.18D+00  1.73D-01  5.22D-02  2.51D-01
                    CP:  7.88D-01  6.43D-01  5.86D-01  4.81D-01  8.20D-01
                    CP:  8.12D-01  6.03D-01  7.65D-01  6.93D-01  5.58D-01
                    CP:  6.55D-01  5.85D-01  5.52D-01  5.23D-01
 E= -3007.39028157487     Delta-E=       -0.000000001299 Rises=F Damp=F
 DIIS: error= 4.77D-07 at cycle  20 NSaved=  20.
 NSaved=20 IEnMin=20 EnMin= -3007.39028157487     IErMin=20 ErrMin= 4.77D-07
 ErrMax= 4.77D-07  0.00D+00 EMaxC= 1.00D-01 BMatC= 2.33D-10 BMatP= 1.60D-09
 IDIUse=1 WtCom= 1.00D+00 WtEn= 0.00D+00
 Coeff-Com:  0.152D-05 0.388D-06-0.786D-06-0.157D-06 0.139D-05-0.161D-04
 Coeff-Com:  0.151D-04-0.105D-04-0.975D-05-0.372D-03-0.790D-03-0.578D-03
 Coeff-Com: -0.108D-03 0.720D-03 0.274D-02 0.312D-01 0.690D-01 0.166D+00
 Coeff-Com:  0.307D+00 0.425D+00
 Coeff:      0.152D-05 0.388D-06-0.786D-06-0.157D-06 0.139D-05-0.161D-04
 Coeff:      0.151D-04-0.105D-04-0.975D-05-0.372D-03-0.790D-03-0.578D-03
 Coeff:     -0.108D-03 0.720D-03 0.274D-02 0.312D-01 0.690D-01 0.166D+00
 Coeff:      0.307D+00 0.425D+00
 Gap=     0.044 Goal=   None    Shift=    0.000
 RMSDP=1.62D-08 MaxDP=1.75D-06 DE=-1.30D-09 OVMax= 5.08D-06

 Cycle  21  Pass 1  IDiag  1:
 Restarting incremental Fock formation.
 E= -3007.39028157512     Delta-E=       -0.000000000249 Rises=F Damp=F
 DIIS: error= 1.47D-07 at cycle  21 NSaved=  20.
 NSaved=20 IEnMin=20 EnMin= -3007.39028157512     IErMin=20 ErrMin= 1.47D-07
 ErrMax= 1.47D-07  0.00D+00 EMaxC= 1.00D-01 BMatC= 2.60D-11 BMatP= 2.33D-10
 IDIUse=1 WtCom= 1.00D+00 WtEn= 0.00D+00
 Coeff-Com:  0.607D-06 0.607D-06-0.121D-06 0.442D-06-0.708D-05 0.619D-05
 Coeff-Com: -0.427D-05 0.766D-05-0.514D-04-0.129D-03-0.119D-03-0.285D-03
 Coeff-Com: -0.641D-03-0.201D-03 0.933D-02 0.246D-01 0.698D-01 0.151D+00
 Coeff-Com:  0.282D+00 0.464D+00
 Coeff:      0.607D-06 0.607D-06-0.121D-06 0.442D-06-0.708D-05 0.619D-05
 Coeff:     -0.427D-05 0.766D-05-0.514D-04-0.129D-03-0.119D-03-0.285D-03
 Coeff:     -0.641D-03-0.201D-03 0.933D-02 0.246D-01 0.698D-01 0.151D+00
 Coeff:      0.282D+00 0.464D+00
 Gap=     0.044 Goal=   None    Shift=    0.000
 RMSDP=6.42D-09 MaxDP=6.84D-07 DE=-2.49D-10 OVMax= 2.05D-06

 SCF Done:  E(RB-LYP) =  -3007.39028158     A.U. after   21 cycles
            NFock= 21  Conv=0.64D-08     -V/T= 2.0098
 KE= 2.978350867075D+03 PE=-2.596798159255D+04 EE= 1.049622978573D+04
 Leave Link  502 at Sat Apr 30 04:38:57 2022, MaxMem= 10066329600 cpu:            5027.8 elap:             210.3
 (Enter /sw/apps/gaussian-16.0/g16/l801.exe)
 DoSCS=F DFT=T ScalE2(SS,OS)=  1.000000  1.000000
 ExpMin= 3.36D-02 ExpMax= 4.95D+03 ExpMxC= 7.45D+02 IAcc=3 IRadAn=         5 AccDes= 0.00D+00
 HarFok:  IExCor=  205 AccDes= 0.00D+00 IRadAn=         5 IDoV=-2 UseB2=F ITyADJ=14
 ICtDFT= 12500011 ScaDFX=  1.000000  1.000000  1.000000  1.000000
 GSVD:  LWork=       -5460 too small for GESVD, short by       25550 words or       25550 for optimal perf.
 Largest valence mixing into a core orbital is  2.01D-04
 Largest core mixing into a valence orbital is  4.80D-05
 Range of M.O.s used for correlation:    71  1298
 NBasis=  1298 NAE=   246 NBE=   246 NFC=    70 NFV=     0
 NROrb=   1228 NOA=   176 NOB=   176 NVA=  1052 NVB=  1052

 **** Warning!!: The smallest alpha delta epsilon is  0.44199312D-01

 Leave Link  801 at Sat Apr 30 04:38:57 2022, MaxMem= 10066329600 cpu:               7.1 elap:               0.3
 (Enter /sw/apps/gaussian-16.0/g16/l914.exe)
 RHF ground state
 Two-electron integrals replicated using symmetry.
 MDV= 10066329600 DFT=T DoStab=F Mixed=F DoRPA=T DoScal=T NonHer=F
 Making orbital integer symmetry assigments:
 Orbital symmetries:
       Occupied  (A) (A) (A) (A) (A) (A) (A) (A) (A) (A) (A) (A)
                 (A) (A) (A) (A) (A) (A) (A) (A) (A) (A) (A) (A)
                 (A) (A) (A) (A) (A) (A) (A) (A) (A) (A) (A) (A)
                 (A) (A) (A) (A) (A) (A) (A) (A) (A) (A) (A) (A)
                 (A) (A) (A) (A) (A) (A) (A) (A) (A) (A) (A) (A)
                 (A) (A) (A) (A) (A) (A) (A) (A) (A) (A) (A) (A)
                 (A) (A) (A) (A) (A) (A) (A) (A) (A) (A) (A) (A)
                 (A) (A) (A) (A) (A) (A) (A) (A) (A) (A) (A) (A)
                 (A) (A) (A) (A) (A) (A) (A) (A) (A) (A) (A) (A)
                 (A) (A) (A) (A) (A) (A) (A) (A) (A) (A) (A) (A)
                 (A) (A) (A) (A) (A) (A) (A) (A) (A) (A) (A) (A)
                 (A) (A) (A) (A) (A) (A) (A) (A) (A) (A) (A) (A)
                 (A) (A) (A) (A) (A) (A) (A) (A) (A) (A) (A) (A)
                 (A) (A) (A) (A) (A) (A) (A) (A) (A) (A) (A) (A)
                 (A) (A) (A) (A) (A) (A) (A) (A) (A) (A) (A) (A)
                 (A) (A) (A) (A) (A) (A) (A) (A) (A) (A) (A) (A)
                 (A) (A) (A) (A) (A) (A) (A) (A) (A) (A) (A) (A)
                 (A) (A) (A) (A) (A) (A) (A) (A) (A) (A) (A) (A)
                 (A) (A) (A) (A) (A) (A) (A) (A) (A) (A) (A) (A)
                 (A) (A) (A) (A) (A) (A) (A) (A) (A) (A) (A) (A)
                 (A) (A) (A) (A) (A) (A)
       Virtual   (A) (A) (A) (A) (A) (A) (A) (A) (A) (A) (A) (A)
                 (A) (A) (A) (A) (A) (A) (A) (A) (A) (A) (A) (A)
                 (A) (A) (A) (A) (A) (A) (A) (A) (A) (A) (A) (A)
                 (A) (A) (A) (A) (A) (A) (A) (A) (A) (A) (A) (A)
                 (A) (A) (A) (A) (A) (A) (A) (A) (A) (A) (A) (A)
                 (A) (A) (A) (A) (A) (A) (A) (A) (A) (A) (A) (A)
                 (A) (A) (A) (A) (A) (A) (A) (A) (A) (A) (A) (A)
                 (A) (A) (A) (A) (A) (A) (A) (A) (A) (A) (A) (A)
                 (A) (A) (A) (A) (A) (A) (A) (A) (A) (A) (A) (A)
                 (A) (A) (A) (A) (A) (A) (A) (A) (A) (A) (A) (A)
                 (A) (A) (A) (A) (A) (A) (A) (A) (A) (A) (A) (A)
                 (A) (A) (A) (A) (A) (A) (A) (A) (A) (A) (A) (A)
                 (A) (A) (A) (A) (A) (A) (A) (A) (A) (A) (A) (A)
                 (A) (A) (A) (A) (A) (A) (A) (A) (A) (A) (A) (A)
                 (A) (A) (A) (A) (A) (A) (A) (A) (A) (A) (A) (A)
                 (A) (A) (A) (A) (A) (A) (A) (A) (A) (A) (A) (A)
                 (A) (A) (A) (A) (A) (A) (A) (A) (A) (A) (A) (A)
                 (A) (A) (A) (A) (A) (A) (A) (A) (A) (A) (A) (A)
                 (A) (A) (A) (A) (A) (A) (A) (A) (A) (A) (A) (A)
                 (A) (A) (A) (A) (A) (A) (A) (A) (A) (A) (A) (A)
                 (A) (A) (A) (A) (A) (A) (A) (A) (A) (A) (A) (A)
                 (A) (A) (A) (A) (A) (A) (A) (A) (A) (A) (A) (A)
                 (A) (A) (A) (A) (A) (A) (A) (A) (A) (A) (A) (A)
                 (A) (A) (A) (A) (A) (A) (A) (A) (A) (A) (A) (A)
                 (A) (A) (A) (A) (A) (A) (A) (A) (A) (A) (A) (A)
                 (A) (A) (A) (A) (A) (A) (A) (A) (A) (A) (A) (A)
                 (A) (A) (A) (A) (A) (A) (A) (A) (A) (A) (A) (A)
                 (A) (A) (A) (A) (A) (A) (A) (A) (A) (A) (A) (A)
                 (A) (A) (A) (A) (A) (A) (A) (A) (A) (A) (A) (A)
                 (A) (A) (A) (A) (A) (A) (A) (A) (A) (A) (A) (A)
                 (A) (A) (A) (A) (A) (A) (A) (A) (A) (A) (A) (A)
                 (A) (A) (A) (A) (A) (A) (A) (A) (A) (A) (A) (A)
                 (A) (A) (A) (A) (A) (A) (A) (A) (A) (A) (A) (A)
                 (A) (A) (A) (A) (A) (A) (A) (A) (A) (A) (A) (A)
                 (A) (A) (A) (A) (A) (A) (A) (A) (A) (A) (A) (A)
                 (A) (A) (A) (A) (A) (A) (A) (A) (A) (A) (A) (A)
                 (A) (A) (A) (A) (A) (A) (A) (A) (A) (A) (A) (A)
                 (A) (A) (A) (A) (A) (A) (A) (A) (A) (A) (A) (A)
                 (A) (A) (A) (A) (A) (A) (A) (A) (A) (A) (A) (A)
                 (A) (A) (A) (A) (A) (A) (A) (A) (A) (A) (A) (A)
                 (A) (A) (A) (A) (A) (A) (A) (A) (A) (A) (A) (A)
                 (A) (A) (A) (A) (A) (A) (A) (A) (A) (A) (A) (A)
                 (A) (A) (A) (A) (A) (A) (A) (A) (A) (A) (A) (A)
                 (A) (A) (A) (A) (A) (A) (A) (A) (A) (A) (A) (A)
                 (A) (A) (A) (A) (A) (A) (A) (A) (A) (A) (A) (A)
                 (A) (A) (A) (A) (A) (A) (A) (A) (A) (A) (A) (A)
                 (A) (A) (A) (A) (A) (A) (A) (A) (A) (A) (A) (A)
                 (A) (A) (A) (A) (A) (A) (A) (A) (A) (A) (A) (A)
                 (A) (A) (A) (A) (A) (A) (A) (A) (A) (A) (A) (A)
                 (A) (A) (A) (A) (A) (A) (A) (A) (A) (A) (A) (A)
                 (A) (A) (A) (A) (A) (A) (A) (A) (A) (A) (A) (A)
                 (A) (A) (A) (A) (A) (A) (A) (A) (A) (A) (A) (A)
                 (A) (A) (A) (A) (A) (A) (A) (A) (A) (A) (A) (A)
                 (A) (A) (A) (A) (A) (A) (A) (A) (A) (A) (A) (A)
                 (A) (A) (A) (A) (A) (A) (A) (A) (A) (A) (A) (A)
                 (A) (A) (A) (A) (A) (A) (A) (A) (A) (A) (A) (A)
                 (A) (A) (A) (A) (A) (A) (A) (A) (A) (A) (A) (A)
                 (A) (A) (A) (A) (A) (A) (A) (A) (A) (A) (A) (A)
                 (A) (A) (A) (A) (A) (A) (A) (A) (A) (A) (A) (A)
                 (A) (A) (A) (A) (A) (A) (A) (A) (A) (A) (A) (A)
                 (A) (A) (A) (A) (A) (A) (A) (A) (A) (A) (A) (A)
                 (A) (A) (A) (A) (A) (A) (A) (A) (A) (A) (A) (A)
                 (A) (A) (A) (A) (A) (A) (A) (A) (A) (A) (A) (A)
                 (A) (A) (A) (A) (A) (A) (A) (A) (A) (A) (A) (A)
                 (A) (A) (A) (A) (A) (A) (A) (A) (A) (A) (A) (A)
                 (A) (A) (A) (A) (A) (A) (A) (A) (A) (A) (A) (A)
                 (A) (A) (A) (A) (A) (A) (A) (A) (A) (A) (A) (A)
                 (A) (A) (A) (A) (A) (A) (A) (A) (A) (A) (A) (A)
                 (A) (A) (A) (A) (A) (A) (A) (A) (A) (A) (A) (A)
                 (A) (A) (A) (A) (A) (A) (A) (A) (A) (A) (A) (A)
                 (A) (A) (A) (A) (A) (A) (A) (A) (A) (A) (A) (A)
                 (A) (A) (A) (A) (A) (A) (A) (A) (A) (A) (A) (A)
                 (A) (A) (A) (A) (A) (A) (A) (A) (A) (A) (A) (A)
                 (A) (A) (A) (A) (A) (A) (A) (A) (A) (A) (A) (A)
                 (A) (A) (A) (A) (A) (A) (A) (A) (A) (A) (A) (A)
                 (A) (A) (A) (A) (A) (A) (A) (A) (A) (A) (A) (A)
                 (A) (A) (A) (A) (A) (A) (A) (A) (A) (A) (A) (A)
                 (A) (A) (A) (A) (A) (A) (A) (A) (A) (A) (A) (A)
                 (A) (A) (A) (A) (A) (A) (A) (A) (A) (A) (A) (A)
                 (A) (A) (A) (A) (A) (A) (A) (A) (A) (A) (A) (A)
                 (A) (A) (A) (A) (A) (A) (A) (A) (A) (A) (A) (A)
                 (A) (A) (A) (A) (A) (A) (A) (A) (A) (A) (A) (A)
                 (A) (A) (A) (A) (A) (A) (A) (A) (A) (A) (A) (A)
                 (A) (A) (A) (A) (A) (A) (A) (A) (A) (A) (A) (A)
                 (A) (A) (A) (A) (A) (A) (A) (A) (A) (A) (A) (A)
                 (A) (A) (A) (A) (A) (A) (A) (A) (A) (A) (A) (A)
                 (A) (A) (A) (A) (A) (A) (A) (A) (A) (A) (A) (A)
                 (A) (A) (A) (A) (A) (A) (A) (A)
    20 initial guesses have been made.
 Convergence on wavefunction:    0.001000000000000
 Davidson Disk Diagonalization:  ConvIn= 1.00D-03 SkipCon=T Conv= 1.00D-03.
 Max sub-space:  2000 roots to seek:    20 dimension of matrix:       370304
 Iteration     1 Dimension    20 NMult     0 NNew     20
 CISAX will form    20 AO SS matrices at one time.
 NMat=    20 NSing=    20 JSym2X= 0.
 FoFJK:  IHMeth= 1 ICntrl=     500 DoSepK=F KAlg= 0 I1Cent=           0 FoldK=F
 IRaf= 510000000 NMat=      20 IRICut=       1 DoRegI=T DoRafI=F ISym2E= 0 IDoP0=0 IntGTp=1.
 FoFCou: FMM=T IPFlag=           0 FMFlag=      100000 FMFlg1=        2001
         NFxFlg=           0 DoJE=F BraDBF=F KetDBF=F FulRan=T
         wScrn=  0.000000 ICntrl=       500 IOpCl=  0 I1Cent=           0 NGrid=           0
         NMat0=   20 NMatS0=     20 NMatT0=    0 NMatD0=   20 NMtDS0=    0 NMtDT0=    0
 Symmetry not used in FoFCou.
 FMM levels:  10  Number of levels for PrismC:   9
 New state      1 was old state      3
 New state      2 was old state      4
 New state      3 was old state      1
 New state      4 was old state      2
 New state      5 was old state      7
 Excitation Energies [eV] at current iteration:
 Root      1 :     1.891467202538738
 Root      2 :     2.047660627643086
 Root      3 :     2.128255039454289
 Root      4 :     2.309451220632011
 Root      5 :     2.534115212709325
 Root      6 :     2.723036698167105
 Root      7 :     2.828975940342065
 Root      8 :     2.978891536805116
 Root      9 :     3.043138196122785
 Root     10 :     3.082086083309054
 Root     11 :     3.130555556895271
 Root     12 :     3.182446036896983
 Root     13 :     3.302474499534979
 Root     14 :     3.372100502049974
 Root     15 :     3.402662351949223
 Root     16 :     3.512083453869153
 Root     17 :     3.606240591059396
 Root     18 :     4.000903893287031
 Root     19 :     4.411550615554476
 Root     20 :     4.458243729023326
 Iteration     2 Dimension    40 NMult    20 NNew     20
 CISAX will form    20 AO SS matrices at one time.
 NMat=    20 NSing=    20 JSym2X= 0.
 Root      1 not converged, maximum delta is    0.367198640833221
 New state      2 was old state      3
 Root      2 not converged, maximum delta is    0.393982231234469
 New state      3 was old state      2
 Root      3 not converged, maximum delta is    0.234622752470382
 Root      4 not converged, maximum delta is    0.275661525869557
 New state      5 was old state      6
 Root      5 not converged, maximum delta is    0.189230198004411
 Excitation Energies [eV] at current iteration:
 Root      1 :     1.879859690516116   Change is   -0.011607512022623
 Root      2 :     1.891292654986609   Change is   -0.236962384467680
 Root      3 :     2.023336288537849   Change is   -0.024324339105238
 Root      4 :     2.112044830980764   Change is   -0.197406389651247
 Root      5 :     2.463073267785646   Change is   -0.259963430381459
 Root      6 :     2.534010761121420   Change is   -0.000104451587905
 Root      7 :     2.762497007422865   Change is   -0.066478932919201
 Root      8 :     2.810543579403660   Change is   -0.168347957401456
 Root      9 :     2.923334250543425   Change is   -0.158751832765629
 Root     10 :     3.002763069933209   Change is   -0.299711429601770
 Root     11 :     3.052286385142101   Change is    0.009148189019317
 Root     12 :     3.125550930191311   Change is   -0.005004626703960
 Root     13 :     3.135101840421809   Change is   -0.047344196475174
 Root     14 :     3.202854780253058   Change is   -0.309228673616096
 Root     15 :     3.293690898487060   Change is   -0.312549692572336
 Root     16 :     3.361028832552588   Change is   -0.011071669497386
 Root     17 :     3.393427206925169   Change is   -0.009235145024054
 Root     18 :     3.499993283364147   Change is   -0.500910609922884
 Root     19 :     3.666932774885022   Change is   -0.744617840669454
 Root     20 :     3.843197824728232   Change is   -0.615045904295094
 Iteration     3 Dimension    45 NMult    40 NNew      5
 CISAX will form     5 AO SS matrices at one time.
 NMat=     5 NSing=     5 JSym2X= 0.
 Root      1 not converged, maximum delta is    0.424068034201587
 Root      2 not converged, maximum delta is    0.415596655762221
 Root      3 not converged, maximum delta is    0.088304135881813
 Root      4 not converged, maximum delta is    0.089474497909578
 Root      5 not converged, maximum delta is    0.013391810360577
 Excitation Energies [eV] at current iteration:
 Root      1 :     1.850781522403707   Change is   -0.029078168112409
 Root      2 :     1.881981679229078   Change is   -0.009310975757531
 Root      3 :     2.009743086764645   Change is   -0.013593201773204
 Root      4 :     2.092503514434086   Change is   -0.019541316546679
 Root      5 :     2.435607356377765   Change is   -0.027465911407881
 Iteration     4 Dimension    50 NMult    45 NNew      5
 CISAX will form     5 AO SS matrices at one time.
 NMat=     5 NSing=     5 JSym2X= 0.
 Root      1 not converged, maximum delta is    0.037144980033633
 Root      2 not converged, maximum delta is    0.035206616805648
 Root      3 not converged, maximum delta is    0.042905880852562
 Root      4 not converged, maximum delta is    0.034979511893903
 Root      5 not converged, maximum delta is    0.007637749204392
 Excitation Energies [eV] at current iteration:
 Root      1 :     1.837028244236830   Change is   -0.013753278166877
 Root      2 :     1.880224170832307   Change is   -0.001757508396771
 Root      3 :     2.002514469259783   Change is   -0.007228617504862
 Root      4 :     2.086329720913885   Change is   -0.006173793520200
 Root      5 :     2.425541182350590   Change is   -0.010066174027175
 Iteration     5 Dimension    55 NMult    50 NNew      5
 CISAX will form     5 AO SS matrices at one time.
 NMat=     5 NSing=     5 JSym2X= 0.
 Root      1 not converged, maximum delta is    0.008078297665213
 Root      2 not converged, maximum delta is    0.007208588036575
 Root      3 not converged, maximum delta is    0.014227026373798
 Root      4 not converged, maximum delta is    0.011667968664349
 Root      5 not converged, maximum delta is    0.004579142822621
 Excitation Energies [eV] at current iteration:
 Root      1 :     1.832655099190423   Change is   -0.004373145046406
 Root      2 :     1.879583414887013   Change is   -0.000640755945294
 Root      3 :     1.999976486382291   Change is   -0.002537982877492
 Root      4 :     2.084545834206605   Change is   -0.001783886707281
 Root      5 :     2.421984605881371   Change is   -0.003556576469219
 Iteration     6 Dimension    60 NMult    55 NNew      5
 CISAX will form     5 AO SS matrices at one time.
 NMat=     5 NSing=     5 JSym2X= 0.
 Root      1 not converged, maximum delta is    0.003455664466785
 Root      2 not converged, maximum delta is    0.003082034266663
 Root      3 not converged, maximum delta is    0.005812906618518
 Root      4 not converged, maximum delta is    0.004912999504035
 Root      5 not converged, maximum delta is    0.002898858282556
 Excitation Energies [eV] at current iteration:
 Root      1 :     1.830685688162514   Change is   -0.001969411027909
 Root      2 :     1.879267459857583   Change is   -0.000315955029430
 Root      3 :     1.998899575439925   Change is   -0.001076910942365
 Root      4 :     2.083850531535298   Change is   -0.000695302671307
 Root      5 :     2.420459236028328   Change is   -0.001525369853042
 Iteration     7 Dimension    65 NMult    60 NNew      5
 CISAX will form     5 AO SS matrices at one time.
 NMat=     5 NSing=     5 JSym2X= 0.
 Root      1 not converged, maximum delta is    0.001549242973538
 Root      2 not converged, maximum delta is    0.001513993006663
 Root      3 not converged, maximum delta is    0.001952461600943
 Root      4 not converged, maximum delta is    0.001740701380099
 Root      5 not converged, maximum delta is    0.001541698721521
 Excitation Energies [eV] at current iteration:
 Root      1 :     1.829854310364410   Change is   -0.000831377798105
 Root      2 :     1.879128368171683   Change is   -0.000139091685900
 Root      3 :     1.998516260936602   Change is   -0.000383314503324
 Root      4 :     2.083613468347813   Change is   -0.000237063187485
 Root      5 :     2.419950668248170   Change is   -0.000508567780158
 Iteration     8 Dimension    70 NMult    65 NNew      5
 CISAX will form     5 AO SS matrices at one time.
 NMat=     5 NSing=     5 JSym2X= 0.
 Root      1 has converged.
 Root      2 has converged.
 Root      3 has converged.
 Root      4 has converged.
 Root      5 has converged.
 Excitation Energies [eV] at current iteration:
 Root      1 :     1.829494440586705   Change is   -0.000359869777705
 Root      2 :     1.879072007967043   Change is   -0.000056360204640
 Root      3 :     1.998356978018569   Change is   -0.000159282918032
 Root      4 :     2.083517361619140   Change is   -0.000096106728672
 Root      5 :     2.419761763020170   Change is   -0.000188905228000
 Convergence achieved on expansion vectors.
 ***********************************************************************
 Excited states from <AA,BB:AA,BB> singles matrix:
 ***********************************************************************
 
 1PDM for each excited state written to RWF  633
[...]
 Alpha virt. eigenvalues --    1.09343   1.09917   1.10363   1.10699   1.11200
 Alpha virt. eigenvalues --    1.11883   1.12091   1.12347   1.13267   1.13483
 Alpha virt. eigenvalues --    1.13677   1.14158   1.14327   1.14705   1.15222
 Alpha virt. eigenvalues --    1.15456   1.16082   1.16891   1.17383   1.18102
 Alpha virt. eigenvalues --    1.18434   1.18824   1.19326   1.19799   1.20077
 Alpha virt. eigenvalues --    1.20693   1.20797   1.21571   1.21784   1.21851
 Alpha virt. eigenvalues --    1.22728   1.23322   1.23729   1.24071   1.24095
 Alpha virt. eigenvalues --    1.24603   1.24751   1.25140   1.25467   1.25501
 Alpha virt. eigenvalues --    1.25998   1.27012   1.27382   1.27726   1.28248
 Alpha virt. eigenvalues --    1.28399   1.29693   1.30096   1.30380   1.30899
 Alpha virt. eigenvalues --    1.31347   1.31479   1.32065   1.32240   1.32921
 Alpha virt. eigenvalues --    1.32956   1.33229   1.33499   1.33939   1.34387
 Alpha virt. eigenvalues --    1.34573   1.34929   1.35249   1.35465   1.35818
 Alpha virt. eigenvalues --    1.36462   1.37072   1.37409   1.37695   1.38295
 Alpha virt. eigenvalues --    1.38773   1.38983   1.39244   1.39319   1.40384
 Alpha virt. eigenvalues --    1.40507   1.40997   1.41399   1.42148   1.42918
 Alpha virt. eigenvalues --    1.42979   1.43457   1.43968   1.44190   1.44323
 Alpha virt. eigenvalues --    1.44468   1.44803   1.44845   1.45212   1.45430
 Alpha virt. eigenvalues --    1.46133   1.46285   1.46706   1.46927   1.47062
 Alpha virt. eigenvalues --    1.47127   1.47283   1.47586   1.47619   1.47871
 Alpha virt. eigenvalues --    1.48212   1.48283   1.48324   1.49019   1.49304
 Alpha virt. eigenvalues --    1.49414   1.49763   1.50151   1.50489   1.50853
 Alpha virt. eigenvalues --    1.51304   1.51542   1.52008   1.52537   1.53131
 Alpha virt. eigenvalues --    1.53329   1.53794   1.54007   1.54458   1.54881
 Alpha virt. eigenvalues --    1.55036   1.55610   1.55941   1.56687   1.57120
 Alpha virt. eigenvalues --    1.57403   1.58238   1.58873   1.59178   1.59340
 Alpha virt. eigenvalues --    1.59954   1.60162   1.60756   1.60853   1.61075
 Alpha virt. eigenvalues --    1.61675   1.61881   1.62594   1.62883   1.63192
 Alpha virt. eigenvalues --    1.63798   1.63943   1.64556   1.64714   1.64816
 Alpha virt. eigenvalues --    1.64990   1.65606   1.65866   1.66139   1.66291
 Alpha virt. eigenvalues --    1.66616   1.67177   1.67349   1.67492   1.67818
 Alpha virt. eigenvalues --    1.68079   1.68322   1.68513   1.68655   1.68786
 Alpha virt. eigenvalues --    1.69016   1.69397   1.69616   1.69755   1.69838
 Alpha virt. eigenvalues --    1.69966   1.70137   1.70251   1.70371   1.70592
 Alpha virt. eigenvalues --    1.70754   1.70986   1.71438   1.71694   1.71752
 Alpha virt. eigenvalues --    1.71879   1.72085   1.72205   1.72339   1.72481
 Alpha virt. eigenvalues --    1.72660   1.72779   1.72910   1.73069   1.73260
 Alpha virt. eigenvalues --    1.73614   1.73664   1.73699   1.74249   1.74632
 Alpha virt. eigenvalues --    1.74802   1.74967   1.75313   1.75694   1.75763
 Alpha virt. eigenvalues --    1.75978   1.76038   1.76272   1.76469   1.76703
 Alpha virt. eigenvalues --    1.77063   1.77247   1.77306   1.77433   1.77558
 Alpha virt. eigenvalues --    1.77840   1.78020   1.78131   1.78488   1.78582
 Alpha virt. eigenvalues --    1.78676   1.79044   1.79292   1.79700   1.79937
 Alpha virt. eigenvalues --    1.80231   1.80389   1.80555   1.80867   1.81008
 Alpha virt. eigenvalues --    1.81291   1.81533   1.81710   1.82275   1.82386
 Alpha virt. eigenvalues --    1.82388   1.82588   1.82663   1.83195   1.83365
 Alpha virt. eigenvalues --    1.83749   1.83999   1.84107   1.84330   1.84626
 Alpha virt. eigenvalues --    1.84697   1.85340   1.85555   1.86053   1.86305
 Alpha virt. eigenvalues --    1.86665   1.86751   1.87024   1.87277   1.87665
 Alpha virt. eigenvalues --    1.87881   1.88262   1.88560   1.88840   1.88923
 Alpha virt. eigenvalues --    1.89261   1.89436   1.89501   1.89720   1.89913
 Alpha virt. eigenvalues --    1.90160   1.90559   1.90748   1.91077   1.91622
 Alpha virt. eigenvalues --    1.91701   1.92066   1.92420   1.92731   1.92973
 Alpha virt. eigenvalues --    1.93087   1.93253   1.93502   1.93777   1.94168
 Alpha virt. eigenvalues --    1.94378   1.94482   1.95051   1.95196   1.95464
 Alpha virt. eigenvalues --    1.95583   1.96189   1.96292   1.96526   1.97002
 Alpha virt. eigenvalues --    1.97140   1.97464   1.97709   1.98583   1.98652
 Alpha virt. eigenvalues --    1.98970   1.99219   1.99282   1.99604   1.99797
 Alpha virt. eigenvalues --    2.00106   2.00812   2.01011   2.01171   2.01480
 Alpha virt. eigenvalues --    2.01744   2.02044   2.02230   2.02524   2.02811
 Alpha virt. eigenvalues --    2.02950   2.03154   2.03525   2.03681   2.04173
 Alpha virt. eigenvalues --    2.04370   2.05031   2.05248   2.05433   2.05523
 Alpha virt. eigenvalues --    2.05660   2.06591   2.06982   2.07073   2.07417
 Alpha virt. eigenvalues --    2.07881   2.08238   2.08383   2.08671   2.08923
 Alpha virt. eigenvalues --    2.08995   2.09301   2.09816   2.10170   2.10379
 Alpha virt. eigenvalues --    2.11240   2.11547   2.12119   2.12377   2.13105
 Alpha virt. eigenvalues --    2.13698   2.14040   2.14764   2.15000   2.15584
 Alpha virt. eigenvalues --    2.16411   2.16549   2.16636   2.17111   2.18039
 Alpha virt. eigenvalues --    2.18225   2.18292   2.19259   2.19363   2.19942
 Alpha virt. eigenvalues --    2.20107   2.20379   2.20523   2.21341   2.21539
 Alpha virt. eigenvalues --    2.21614   2.21971   2.22405   2.22499   2.23498
 Alpha virt. eigenvalues --    2.23569   2.23762   2.24318   2.24637   2.24650
 Alpha virt. eigenvalues --    2.24918   2.25414   2.26074   2.26552   2.26723
 Alpha virt. eigenvalues --    2.27347   2.27557   2.27932   2.28167   2.28700
 Alpha virt. eigenvalues --    2.28980   2.29095   2.29595   2.30438   2.30475
 Alpha virt. eigenvalues --    2.30733   2.30915   2.31120   2.31496   2.31661
 Alpha virt. eigenvalues --    2.32438   2.32559   2.32654   2.33032   2.33567
 Alpha virt. eigenvalues --    2.33891   2.34593   2.35003   2.35370   2.35669
 Alpha virt. eigenvalues --    2.36114   2.36443   2.36916   2.37005   2.37205
 Alpha virt. eigenvalues --    2.37670   2.37863   2.38573   2.39008   2.39349
 Alpha virt. eigenvalues --    2.39770   2.40575   2.40702   2.41080   2.41998
 Alpha virt. eigenvalues --    2.42052   2.42144   2.42481   2.42680   2.43392
 Alpha virt. eigenvalues --    2.43659   2.44312   2.44366   2.45354   2.46086
 Alpha virt. eigenvalues --    2.46886   2.47243   2.47658   2.47824   2.47979
 Alpha virt. eigenvalues --    2.48559   2.48693   2.49008   2.49100   2.50153
 Alpha virt. eigenvalues --    2.50164   2.50437   2.51107   2.51584   2.51900
 Alpha virt. eigenvalues --    2.52212   2.52708   2.53002   2.53440   2.54068
 Alpha virt. eigenvalues --    2.54719   2.54843   2.55182   2.55248   2.55928
 Alpha virt. eigenvalues --    2.56480   2.56729   2.57051   2.57559   2.58411
 Alpha virt. eigenvalues --    2.58563   2.59066   2.59812   2.60252   2.60313
 Alpha virt. eigenvalues --    2.60663   2.61097   2.61335   2.61590   2.62236
 Alpha virt. eigenvalues --    2.62424   2.62679   2.62735   2.63076   2.63527
 Alpha virt. eigenvalues --    2.64585   2.65001   2.65292   2.65342   2.65396
 Alpha virt. eigenvalues --    2.65997   2.66325   2.66632   2.67106   2.67198
 Alpha virt. eigenvalues --    2.67577   2.67882   2.67992   2.68318   2.69140
 Alpha virt. eigenvalues --    2.69309   2.69357   2.70375   2.70779   2.70927
 Alpha virt. eigenvalues --    2.71942   2.72861   2.73261   2.73422   2.74565
 Alpha virt. eigenvalues --    2.75121   2.75460   2.75488   2.76076   2.76596
 Alpha virt. eigenvalues --    2.76978   2.78408   2.78801   2.79849   2.80101
 Alpha virt. eigenvalues --    2.80350   2.80470   2.80703   2.81426   2.81859
 Alpha virt. eigenvalues --    2.82030   2.82275   2.82323   2.82823   2.83034
 Alpha virt. eigenvalues --    2.83585   2.83982   2.84276   2.84594   2.84704
 Alpha virt. eigenvalues --    2.84899   2.85024   2.85289   2.85984   2.86275
 Alpha virt. eigenvalues --    2.86384   2.86485   2.86554   2.86618   2.86994
 Alpha virt. eigenvalues --    2.87632   2.88012   2.88232   2.88634   2.88921
 Alpha virt. eigenvalues --    2.89102   2.89285   2.89581   2.89849   2.90149
 Alpha virt. eigenvalues --    2.90385   2.90642   2.91119   2.91334   2.91468
 Alpha virt. eigenvalues --    2.91955   2.92655   2.93087   2.93440   2.93488
 Alpha virt. eigenvalues --    2.94001   2.94385   2.94447   2.94780   2.95666
 Alpha virt. eigenvalues --    2.95667   2.96482   2.97178   2.97272   2.97732
 Alpha virt. eigenvalues --    2.98348   2.99188   2.99493   2.99923   3.00016
 Alpha virt. eigenvalues --    3.00401   3.00480   3.00979   3.01522   3.01604
 Alpha virt. eigenvalues --    3.02070   3.04545   3.04889   3.05594   3.05752
 Alpha virt. eigenvalues --    3.05932   3.06875   3.07001   3.07863   3.10471
 Alpha virt. eigenvalues --    3.11141   3.12170   3.13216   3.13531   3.15105
 Alpha virt. eigenvalues --    3.15862   3.19487   3.28329   3.30523   3.32333
 Alpha virt. eigenvalues --    3.33279   3.34756   3.38450   3.40188   3.44289
 Alpha virt. eigenvalues --    3.45470   3.50141   3.54673   3.54988   3.55187
 Alpha virt. eigenvalues --    3.55729   3.60305
          Condensed to atoms (all electrons):
 Mulliken charges:
               1
     1  Mg   0.704562
     2  C    0.041772
     3  C   -0.097125
     4  C   -0.011704
     5  C   -0.067536
     6  N   -0.191883
     7  C   -0.046003
     8  C   -0.015296
     9  C    0.017918
    10  C    0.045785
    11  C    0.104930
    12  C    0.109241
    13  C    0.108334
    14  C    0.072084
    15  O   -0.173644
    16  O   -0.300037
    17  N   -0.312913
    18  C    0.161491
    19  C   -0.170523
    20  C    0.073075
    21  C    0.117203
    22  C    0.160342
    23  C   -0.062082
    24  O   -0.150236
    25  C    0.123166
    26  N   -0.164652
    27  C   -0.079046
    28  C   -0.019536
    29  C    0.029768
    30  C    0.084829
    31  C    0.161634
    32  C    0.058766
    33  C    0.102766
    34  N   -0.239004
    35  C    0.058779
    36  C   -0.192767
    37  C    0.109252
    38  C    0.032222
    39  C    0.171577
    40  C   -0.073443
    41  O   -0.154589
    42  C    0.084528
    43  C    0.082381
    44  O   -0.166975
    45  O   -0.234676
    46  C    0.228469
    47  C    0.346509
    48  C   -0.129995
    49  C   -0.128482
    50  C    0.154396
    51  C    0.109469
    52  C    0.022535
    53  C    0.137591
    54  C   -0.031418
    55  C    0.095260
    56  C    0.087979
    57  C    0.055697
    58  C    0.092618
    59  C   -0.070714
    60  C    0.118015
    61  C    0.086517
    62  C    0.069600
    63  C    0.130002
    64  C   -0.128382
    65  C    0.079510
    66  C    0.144132
    67  H   -0.076189
    68  H   -0.048948
    69  H   -0.062605
    70  H    0.011500
    71  H   -0.026524
    72  H   -0.020094
    73  H   -0.008061
    74  H    0.008741
    75  H   -0.007569
    76  H   -0.015050
    77  H    0.005286
    78  H   -0.006404
    79  H   -0.029610
    80  H    0.022390
    81  H    0.022228
    82  H   -0.026104
    83  H   -0.006977
    84  H    0.014538
    85  H   -0.024582
    86  H   -0.038463
    87  H   -0.002459
    88  H   -0.008622
    89  H   -0.007357
    90  H   -0.027534
    91  H   -0.022768
    92  H   -0.018421
    93  H   -0.001240
    94  H   -0.019366
    95  H    0.013160
    96  H   -0.019091
    97  H    0.011762
    98  H    0.005007
    99  H    0.013806
   100  H    0.018325
   101  H    0.010696
   102  H   -0.007428
   103  H   -0.004402
   104  H   -0.047114
   105  H    0.003686
   106  H   -0.001854
   107  H   -0.018927
   108  H   -0.025463
   109  H   -0.016813
   110  H   -0.035548
   111  H   -0.006365
   112  H   -0.039815
   113  H   -0.044154
   114  H   -0.021657
   115  H   -0.032469
   116  H   -0.011125
   117  H   -0.020123
   118  H   -0.033650
   119  H   -0.036776
   120  H   -0.037283
   121  H   -0.033316
   122  H   -0.040630
   123  H   -0.043805
   124  H   -0.036757
   125  H   -0.016087
   126  H   -0.022814
   127  H   -0.017863
   128  H   -0.025390
   129  H   -0.029352
   130  H   -0.025153
   131  H   -0.036393
   132  H   -0.041439
   133  H   -0.041591
   134  H   -0.045598
   135  H   -0.022833
   136  H   -0.008914
   137  H   -0.011175
   138  H   -0.010692
   139  H   -0.031957
   140  H   -0.016406
 Sum of Mulliken charges =  -0.00000
 Mulliken charges with hydrogens summed into heavy atoms:
               1
     1  Mg   0.704562
     2  C    0.041772
     3  C   -0.173314
     4  C   -0.060652
     5  C   -0.130141
     6  N   -0.191883
     7  C   -0.046003
     8  C   -0.003796
     9  C   -0.008606
    10  C    0.045785
    11  C    0.085517
    12  C    0.086622
    13  C    0.107215
    14  C    0.072084
    15  O   -0.173644
    16  O   -0.300037
    17  N   -0.312913
    18  C    0.161491
    19  C   -0.170523
    20  C    0.073075
    21  C    0.117203
    22  C    0.175351
    23  C   -0.062082
    24  O   -0.150236
    25  C    0.104623
    26  N   -0.164652
    27  C   -0.079046
    28  C   -0.044118
    29  C   -0.008695
    30  C    0.084829
    31  C    0.143196
    32  C    0.008464
    33  C    0.063739
    34  N   -0.239004
    35  C    0.058779
    36  C   -0.192767
    37  C    0.109252
    38  C    0.032222
    39  C    0.177409
    40  C   -0.073443
    41  O   -0.154589
    42  C    0.089535
    43  C    0.082381
    44  O   -0.166975
    45  O   -0.234676
    46  C    0.271296
    47  C    0.334679
    48  C   -0.177109
    49  C   -0.128482
    50  C    0.137301
    51  C    0.067193
    52  C   -0.019377
    53  C    0.053623
    54  C   -0.053075
    55  C    0.031542
    56  C    0.017553
    57  C   -0.014902
    58  C    0.008183
    59  C   -0.107471
    60  C    0.061251
    61  C    0.031775
    62  C    0.008054
    63  C    0.046971
    64  C   -0.173981
    65  C    0.036589
    66  C    0.085078
 Electronic spatial extent (au):  <R**2>=         128656.7068
 Charge=             -0.0000 electrons
 Dipole moment (field-independent basis, Debye):
    X=              4.5834    Y=              2.4934    Z=             -3.0019  Tot=              6.0197
 Quadrupole moment (field-independent basis, Debye-Ang):
   XX=           -385.1578   YY=           -428.0666   ZZ=           -406.7578
   XY=            -23.6745   XZ=              1.6124   YZ=              5.8328
 Traceless Quadrupole moment (field-independent basis, Debye-Ang):
   XX=             21.5029   YY=            -21.4059   ZZ=             -0.0971
   XY=            -23.6745   XZ=              1.6124   YZ=              5.8328
 Octapole moment (field-independent basis, Debye-Ang**2):
  XXX=           -253.6161  YYY=           -110.3777  ZZZ=             -0.3955  XYY=            241.7271
  XXY=             92.0335  XXZ=            -22.1031  XZZ=             -5.4040  YZZ=            -15.8442
  YYZ=            -40.8863  XYZ=            -39.5451
 Hexadecapole moment (field-independent basis, Debye-Ang**3):
 XXXX=        -141523.2266 YYYY=         -30745.7889 ZZZZ=          -2926.8099 XXXY=          -1872.6922
 XXXZ=           -473.2368 YYYX=           -228.8695 YYYZ=           -294.9138 ZZZX=            -14.5996
 ZZZY=            -85.3623 XXYY=         -31382.1733 XXZZ=         -24799.7923 YYZZ=          -5379.0520
 XXYZ=           -139.9188 YYXZ=           -162.4248 ZZXY=            -14.5181
 N-N= 9.486010658170D+03 E-N=-2.596798158560D+04  KE= 2.978350867075D+03
 Leave Link  601 at Sat Apr 30 04:46:23 2022, MaxMem= 10066329600 cpu:               9.7 elap:               0.5
 (Enter /sw/apps/gaussian-16.0/g16/l9999.exe)
 1\1\GINC-BP1-COMPUTE139\SP\RBLYP TD-FC\def2SVP\C55H74Mg1N4O6\OF15641\3
 0-Apr-2022\0\\#p blyp/Def2SVP td=(nstates=5)\\step_551_chromophore_6 T
 DDFT with blyp functional\\0,1\Mg,0,16.863,-2.81,27.557\C,0,16.01,-0.6
 35,30.209\C,0,18.662,-4.66,29.682\C,0,17.992,-4.416,24.93\C,0,14.804,-
 0.774,25.414\N,0,17.322,-2.577,29.642\C,0,16.863,-1.67,30.522\C,0,17.3
 89,-1.936,31.938\C,0,18.284,-3.147,31.71\C,0,18.128,-3.472,30.241\C,0,
 19.716,-2.941,32.114\C,0,16.275,-2.252,33.084\C,0,16.426,-1.37,34.356\
 C,0,17.853,-1.241,34.932\O,0,18.525,-0.241,35.071\O,0,18.26,-2.492,35.
 415\N,0,18.107,-4.324,27.355\C,0,18.711,-4.981,28.343\C,0,19.545,-6.04
 1,27.762\C,0,19.321,-6.078,26.381\C,0,18.437,-4.955,26.175\C,0,20.447,
 -6.986,28.593\C,0,19.834,-6.917,25.216\O,0,19.558,-6.766,24.037\C,0,20
 .763,-8.08,25.495\N,0,16.343,-2.717,25.397\C,0,17.026,-3.444,24.556\C,
 0,16.763,-2.934,23.077\C,0,15.45,-2.041,23.331\C,0,15.488,-1.82,24.797
 \C,0,17.959,-2.204,22.483\C,0,14.23,-2.903,22.895\C,0,12.884,-2.207,22
 .955\N,0,15.6,-1.073,27.698\C,0,14.859,-0.389,26.782\C,0,14.257,0.751,
 27.422\C,0,14.642,0.669,28.786\C,0,15.407,-0.449,28.901\C,0,13.365,1.8
 22,26.783\C,0,14.538,1.299,30.088\O,0,13.962,2.356,30.409\C,0,15.339,0
 .415,31.063\C,0,16.297,1.264,31.916\O,0,17.445,1.488,31.609\O,0,15.707
 ,1.671,33.041\C,0,16.519,2.571,33.821\C,0,19.618,-2.541,36.013\C,0,19.
 784,-3.71,36.957\C,0,19.951,-3.705,38.303\C,0,19.951,-2.47,39.218\C,0,
 19.917,-5.048,39.018\C,0,21.058,-5.331,40.016\C,0,21.383,-6.86,40.18\C
 ,0,22.699,-7.236,39.603\C,0,22.411,-8.138,38.375\C,0,23.72,-8.06,40.55
 7\C,0,25.075,-7.273,40.827\C,0,25.454,-7.336,42.258\C,0,26.275,-8.569,
 42.698\C,0,26.057,-8.875,44.219\C,0,27.793,-8.33,42.377\C,0,28.534,-9.
 715,42.08\C,0,29.511,-9.719,40.928\C,0,29.381,-10.895,39.899\C,0,28.56
 7,-10.525,38.632\C,0,30.597,-11.669,39.429\H,0,19.215,-5.36,30.312\H,0
 ,18.318,-4.833,23.975\H,0,14.303,0.011,24.844\H,0,17.971,-1.146,32.414
 \H,0,17.998,-4.051,32.246\H,0,20.099,-2.558,31.168\H,0,20.203,-3.876,3
 2.39\H,0,19.956,-2.131,32.803\H,0,16.314,-3.275,33.46\H,0,15.284,-2.06
 5,32.671\H,0,15.781,-1.686,35.175\H,0,16.19,-0.343,34.076\H,0,20.443,-
 6.809,29.668\H,0,21.474,-6.721,28.343\H,0,20.141,-8.024,28.462\H,0,21.
 28,-7.778,26.406\H,0,21.447,-8.285,24.672\H,0,20.281,-9.052,25.606\H,0
 ,16.648,-3.83,22.467\H,0,15.363,-1.115,22.762\H,0,18.344,-2.791,21.649
 \H,0,18.747,-2.153,23.234\H,0,17.618,-1.203,22.217\H,0,14.238,-3.779,2
 3.544\H,0,14.323,-3.27,21.873\H,0,12.954,-1.12,22.992\H,0,12.305,-2.59
 8,23.791\H,0,12.375,-2.412,22.012\H,0,12.364,1.547,27.117\H,0,13.441,1
 .842,25.696\H,0,13.628,2.823,27.123\H,0,14.584,-0.035,31.707\H,0,16.14
 ,2.548,34.843\H,0,16.704,3.522,33.32\H,0,17.519,2.141,33.878\H,0,19.86
 9,-1.607,36.516\H,0,20.377,-2.803,35.276\H,0,19.758,-4.718,36.543\H,0,
 19.14,-2.455,39.946\H,0,20.106,-1.511,38.724\H,0,20.838,-2.708,39.805\
 H,0,19.888,-5.902,38.341\H,0,19.011,-5.055,39.625\H,0,20.618,-5.041,40
 .97\H,0,21.942,-4.723,39.826\H,0,20.544,-7.388,39.726\H,0,21.279,-7.10
 4,41.237\H,0,23.275,-6.35,39.336\H,0,21.375,-8.097,38.038\H,0,22.564,-
 9.201,38.563\H,0,22.948,-7.804,37.488\H,0,24.05,-9.031,40.187\H,0,23.2
 81,-8.421,41.487\H,0,25.019,-6.225,40.532\H,0,25.914,-7.64,40.235\H,0,
 24.477,-7.271,42.737\H,0,25.977,-6.403,42.472\H,0,25.924,-9.442,42.148
 \H,0,25.627,-9.866,44.367\H,0,25.355,-8.144,44.62\H,0,26.977,-8.793,44
 .797\H,0,28.342,-7.817,43.167\H,0,27.835,-7.677,41.505\H,0,27.809,-10.
 529,42.059\H,0,29.148,-9.964,42.945\H,0,30.525,-9.683,41.328\H,0,29.41
 2,-8.782,40.38\H,0,28.741,-11.639,40.374\H,0,27.619,-10.129,38.995\H,0
 ,28.312,-11.366,37.987\H,0,29.162,-9.742,38.163\H,0,31.454,-11.023,39.
 62\H,0,30.505,-11.893,38.367\H,0,30.523,-12.652,39.896\\Version=ES64L-
 G16RevA.03\State=1-A\HF=-3007.3902816\RMSD=6.417e-09\PG=C01 [X(C55H74M
 g1N4O6)]\\@


 BOOKS ARE LIGHTHOUSES ERECTED IN THE GREAT SEA OF TIME.
     -- E.P.WHIPPLE
 Job cpu time:       0 days  4 hours 25 minutes 42.1 seconds.
 Elapsed time:       0 days  0 hours 11 minutes  7.2 seconds.
 File lengths (MBytes):  RWF=   8008 Int=      0 D2E=      0 Chk=    390 Scr=      1
 Normal termination of Gaussian 16 at Sat Apr 30 04:46:24 2022.
