 Entering Gaussian System, Link 0=g16
 Initial command:
 /sw/apps/gaussian-16.0/g16/l1.exe "/tmp/Gau-56694.inp" -scrdir="/tmp/"
 Entering Link 1 = /sw/apps/gaussian-16.0/g16/l1.exe PID=     56695.
  
 Copyright (c) 1988,1990,1992,1993,1995,1998,2003,2009,2016,
            Gaussian, Inc.  All Rights Reserved.
  
 This is part of the Gaussian(R) 16 program.  It is based on
 the Gaussian(R) 09 system (copyright 2009, Gaussian, Inc.),
 the Gaussian(R) 03 system (copyright 2003, Gaussian, Inc.),
 the Gaussian(R) 98 system (copyright 1998, Gaussian, Inc.),
 the Gaussian(R) 94 system (copyright 1995, Gaussian, Inc.),
 the Gaussian 92(TM) system (copyright 1992, Gaussian, Inc.),
 the Gaussian 90(TM) system (copyright 1990, Gaussian, Inc.),
 the Gaussian 88(TM) system (copyright 1988, Gaussian, Inc.),
 the Gaussian 86(TM) system (copyright 1986, Carnegie Mellon
 University), and the Gaussian 82(TM) system (copyright 1983,
 Carnegie Mellon University). Gaussian is a federally registered
 trademark of Gaussian, Inc.
  
 This software contains proprietary and confidential information,
 including trade secrets, belonging to Gaussian, Inc.
  
 This software is provided under written license and may be
 used, copied, transmitted, or stored only in accord with that
 written license.
  
 The following legend is applicable only to US Government
 contracts under FAR:
  
                    RESTRICTED RIGHTS LEGEND
  
 Use, reproduction and disclosure by the US Government is
 subject to restrictions as set forth in subparagraphs (a)
 and (c) of the Commercial Computer Software - Restricted
 Rights clause in FAR 52.227-19.
  
 Gaussian, Inc.
 340 Quinnipiac St., Bldg. 40, Wallingford CT 06492
  
  
 ---------------------------------------------------------------
 Warning -- This program may not be used in any manner that
 competes with the business of Gaussian, Inc. or will provide
 assistance to any competitor of Gaussian, Inc.  The licensee
 of this program is prohibited from giving any competitor of
 Gaussian, Inc. access to this program.  By using this program,
 the user acknowledges that Gaussian, Inc. is engaged in the
 business of creating and licensing software in the field of
 computational chemistry and represents and warrants to the
 licensee that it is not a competitor of Gaussian, Inc. and that
 it will not use this program in any manner prohibited above.
 ---------------------------------------------------------------
  

 Cite this work as:
 Gaussian 16, Revision A.03,
 M. J. Frisch, G. W. Trucks, H. B. Schlegel, G. E. Scuseria, 
 M. A. Robb, J. R. Cheeseman, G. Scalmani, V. Barone, 
 G. A. Petersson, H. Nakatsuji, X. Li, M. Caricato, A. V. Marenich, 
 J. Bloino, B. G. Janesko, R. Gomperts, B. Mennucci, H. P. Hratchian, 
 J. V. Ortiz, A. F. Izmaylov, J. L. Sonnenberg, D. Williams-Young, 
 F. Ding, F. Lipparini, F. Egidi, J. Goings, B. Peng, A. Petrone, 
 T. Henderson, D. Ranasinghe, V. G. Zakrzewski, J. Gao, N. Rega, 
 G. Zheng, W. Liang, M. Hada, M. Ehara, K. Toyota, R. Fukuda, 
 J. Hasegawa, M. Ishida, T. Nakajima, Y. Honda, O. Kitao, H. Nakai, 
 T. Vreven, K. Throssell, J. A. Montgomery, Jr., J. E. Peralta, 
 F. Ogliaro, M. J. Bearpark, J. J. Heyd, E. N. Brothers, K. N. Kudin, 
 V. N. Staroverov, T. A. Keith, R. Kobayashi, J. Normand, 
 K. Raghavachari, A. P. Rendell, J. C. Burant, S. S. Iyengar, 
 J. Tomasi, M. Cossi, J. M. Millam, M. Klene, C. Adamo, R. Cammi, 
 J. W. Ochterski, R. L. Martin, K. Morokuma, O. Farkas, 
 J. B. Foresman, and D. J. Fox, Gaussian, Inc., Wallingford CT, 2016.
 
 ******************************************
 Gaussian 16:  ES64L-G16RevA.03 25-Dec-2016
                30-Apr-2022 
 ******************************************
 %nproc=24
 Will use up to   24 processors via shared memory.
 %mem=75GB
 ---------------------------------
 #p PBE1PBE/Def2SVP td=(nstates=5)
 ---------------------------------
 1/38=1,172=1/1;
 2/12=2,17=6,18=5,40=1/2;
 3/5=43,7=101,11=9,25=1,30=1,74=-13/1,2,3,8;
 4//1;
 5/5=2,38=5/2;
 8/6=1,10=1,108=5/1;
 9/41=5,42=1,70=2/14;
 6/7=2,8=2,9=2,10=2/1;
 99/5=1,9=1/99;
 Leave Link    1 at Sat Apr 30 03:54:20 2022, MaxMem= 10066329600 cpu:               1.4 elap:               0.1
 (Enter /sw/apps/gaussian-16.0/g16/l101.exe)
 ----------------------------------------------------
 step_551_chromophore_6 TDDFT with PBE1PBE functional
 ----------------------------------------------------
 Symbolic Z-matrix:
 Charge =  0 Multiplicity = 1
 Mg                    16.863   -2.81      27.557 
 C                     16.01    -0.635     30.209 
 C                     18.662   -4.66      29.682 
 C                     17.992   -4.416     24.93 
 C                     14.804   -0.774     25.414 
 N                     17.322   -2.577     29.642 
 C                     16.863   -1.67      30.522 
 C                     17.389   -1.936     31.938 
 C                     18.284   -3.147     31.71 
 C                     18.128   -3.472     30.241 
 C                     19.716   -2.941     32.114 
 C                     16.275   -2.252     33.084 
 C                     16.426   -1.37      34.356 
 C                     17.853   -1.241     34.932 
 O                     18.525   -0.241     35.071 
 O                     18.26    -2.492     35.415 
 N                     18.107   -4.324     27.355 
 C                     18.711   -4.981     28.343 
 C                     19.545   -6.041     27.762 
 C                     19.321   -6.078     26.381 
 C                     18.437   -4.955     26.175 
 C                     20.447   -6.986     28.593 
 C                     19.834   -6.917     25.216 
 O                     19.558   -6.766     24.037 
 C                     20.763   -8.08      25.495 
 N                     16.343   -2.717     25.397 
 C                     17.026   -3.444     24.556 
 C                     16.763   -2.934     23.077 
 C                     15.45    -2.041     23.331 
 C                     15.488   -1.82      24.797 
 C                     17.959   -2.204     22.483 
 C                     14.23    -2.903     22.895 
 C                     12.884   -2.207     22.955 
 N                     15.6     -1.073     27.698 
 C                     14.859   -0.389     26.782 
 C                     14.257    0.751     27.422 
 C                     14.642    0.669     28.786 
 C                     15.407   -0.449     28.901 
 C                     13.365    1.822     26.783 
 C                     14.538    1.299     30.088 
 O                     13.962    2.356     30.409 
 C                     15.339    0.415     31.063 
 C                     16.297    1.264     31.916 
 O                     17.445    1.488     31.609 
 O                     15.707    1.671     33.041 
 C                     16.519    2.571     33.821 
 C                     19.618   -2.541     36.013 
 C                     19.784   -3.71      36.957 
 C                     19.951   -3.705     38.303 
 C                     19.951   -2.47      39.218 
 C                     19.917   -5.048     39.018 
 C                     21.058   -5.331     40.016 
 C                     21.383   -6.86      40.18 
 C                     22.699   -7.236     39.603 
 C                     22.411   -8.138     38.375 
 C                     23.72    -8.06      40.557 
 C                     25.075   -7.273     40.827 
 C                     25.454   -7.336     42.258 
 C                     26.275   -8.569     42.698 
 C                     26.057   -8.875     44.219 
 C                     27.793   -8.33      42.377 
 C                     28.534   -9.715     42.08 
 C                     29.511   -9.719     40.928 
 C                     29.381   -10.895    39.899 
 C                     28.567   -10.525    38.632 
 C                     30.597   -11.669    39.429 
 H                     19.215   -5.36      30.312 
 H                     18.318   -4.833     23.975 
 H                     14.303    0.011     24.844 
 H                     17.971   -1.146     32.414 
 H                     17.998   -4.051     32.246 
 H                     20.099   -2.558     31.168 
 H                     20.203   -3.876     32.39 
 H                     19.956   -2.131     32.803 
 H                     16.314   -3.275     33.46 
 H                     15.284   -2.065     32.671 
 H                     15.781   -1.686     35.175 
 H                     16.19    -0.343     34.076 
 H                     20.443   -6.809     29.668 
 H                     21.474   -6.721     28.343 
 H                     20.141   -8.024     28.462 
 H                     21.28    -7.778     26.406 
 H                     21.447   -8.285     24.672 
 H                     20.281   -9.052     25.606 
 H                     16.648   -3.83      22.467 
 H                     15.363   -1.115     22.762 
 H                     18.344   -2.791     21.649 
 H                     18.747   -2.153     23.234 
 H                     17.618   -1.203     22.217 
 H                     14.238   -3.779     23.544 
 H                     14.323   -3.27      21.873 
 H                     12.954   -1.12      22.992 
 H                     12.305   -2.598     23.791 
 H                     12.375   -2.412     22.012 
 H                     12.364    1.547     27.117 
 H                     13.441    1.842     25.696 
 H                     13.628    2.823     27.123 
 H                     14.584   -0.035     31.707 
 H                     16.14     2.548     34.843 
 H                     16.704    3.522     33.32 
 H                     17.519    2.141     33.878 
 H                     19.869   -1.607     36.516 
 H                     20.377   -2.803     35.276 
 H                     19.758   -4.718     36.543 
 H                     19.14    -2.455     39.946 
 H                     20.106   -1.511     38.724 
 H                     20.838   -2.708     39.805 
 H                     19.888   -5.902     38.341 
 H                     19.011   -5.055     39.625 
 H                     20.618   -5.041     40.97 
 H                     21.942   -4.723     39.826 
 H                     20.544   -7.388     39.726 
 H                     21.279   -7.104     41.237 
 H                     23.275   -6.35      39.336 
 H                     21.375   -8.097     38.038 
 H                     22.564   -9.201     38.563 
 H                     22.948   -7.804     37.488 
 H                     24.05    -9.031     40.187 
 H                     23.281   -8.421     41.487 
 H                     25.019   -6.225     40.532 
 H                     25.914   -7.64      40.235 
 H                     24.477   -7.271     42.737 
 H                     25.977   -6.403     42.472 
 H                     25.924   -9.442     42.148 
 H                     25.627   -9.866     44.367 
 H                     25.355   -8.144     44.62 
 H                     26.977   -8.793     44.797 
 H                     28.342   -7.817     43.167 
 H                     27.835   -7.677     41.505 
 H                     27.809   -10.529    42.059 
 H                     29.148   -9.964     42.945 
 H                     30.525   -9.683     41.328 
 H                     29.412   -8.782     40.38 
 H                     28.741   -11.639    40.374 
 H                     27.619   -10.129    38.995 
 H                     28.312   -11.366    37.987 
 H                     29.162   -9.742     38.163 
 H                     31.454   -11.023    39.62 
 H                     30.505   -11.893    38.367 
 H                     30.523   -12.652    39.896 
 
 ITRead=  0  0  0  0  0  0  0  0  0  0  0  0  0  0  0  0  0  0  0  0
 ITRead=  0  0  0  0  0  0  0  0  0  0  0  0  0  0  0  0  0  0  0  0
 ITRead=  0  0  0  0  0  0  0  0  0  0  0  0  0  0  0  0  0  0  0  0
 ITRead=  0  0  0  0  0  0  0  0  0  0  0  0  0  0  0  0  0  0  0  0
 ITRead=  0  0  0  0  0  0  0  0  0  0  0  0  0  0  0  0  0  0  0  0
 ITRead=  0  0  0  0  0  0  0  0  0  0  0  0  0  0  0  0  0  0  0  0
 ITRead=  0  0  0  0  0  0  0  0  0  0  0  0  0  0  0  0  0  0  0  0
 MicOpt= -1 -1 -1 -1 -1 -1 -1 -1 -1 -1 -1 -1 -1 -1 -1 -1 -1 -1 -1 -1
 MicOpt= -1 -1 -1 -1 -1 -1 -1 -1 -1 -1 -1 -1 -1 -1 -1 -1 -1 -1 -1 -1
 MicOpt= -1 -1 -1 -1 -1 -1 -1 -1 -1 -1 -1 -1 -1 -1 -1 -1 -1 -1 -1 -1
 MicOpt= -1 -1 -1 -1 -1 -1 -1 -1 -1 -1 -1 -1 -1 -1 -1 -1 -1 -1 -1 -1
 MicOpt= -1 -1 -1 -1 -1 -1 -1 -1 -1 -1 -1 -1 -1 -1 -1 -1 -1 -1 -1 -1
 MicOpt= -1 -1 -1 -1 -1 -1 -1 -1 -1 -1 -1 -1 -1 -1 -1 -1 -1 -1 -1 -1
 MicOpt= -1 -1 -1 -1 -1 -1 -1 -1 -1 -1 -1 -1 -1 -1 -1 -1 -1 -1 -1 -1
 NAtoms=    140 NQM=      140 NQMF=       0 NMMI=      0 NMMIF=      0
                NMic=       0 NMicF=      0.
                    Isotopes and Nuclear Properties:
 (Nuclear quadrupole moments (NQMom) in fm**2, nuclear magnetic moments (NMagM)
  in nuclear magnetons)

  Atom         1           2           3           4           5           6           7           8           9          10
 IAtWgt=          24          12          12          12          12          14          12          12          12          12
 AtmWgt=  23.9850450  12.0000000  12.0000000  12.0000000  12.0000000  14.0030740  12.0000000  12.0000000  12.0000000  12.0000000
 NucSpn=           0           0           0           0           0           2           0           0           0           0
 AtZEff=  -0.0000000  -0.0000000  -0.0000000  -0.0000000  -0.0000000  -0.0000000  -0.0000000  -0.0000000  -0.0000000  -0.0000000
 NQMom=    0.0000000   0.0000000   0.0000000   0.0000000   0.0000000   2.0440000   0.0000000   0.0000000   0.0000000   0.0000000
 NMagM=    0.0000000   0.0000000   0.0000000   0.0000000   0.0000000   0.4037610   0.0000000   0.0000000   0.0000000   0.0000000
 AtZNuc=  12.0000000   6.0000000   6.0000000   6.0000000   6.0000000   7.0000000   6.0000000   6.0000000   6.0000000   6.0000000

  Atom        11          12          13          14          15          16          17          18          19          20
 IAtWgt=          12          12          12          12          16          16          14          12          12          12
 AtmWgt=  12.0000000  12.0000000  12.0000000  12.0000000  15.9949146  15.9949146  14.0030740  12.0000000  12.0000000  12.0000000
 NucSpn=           0           0           0           0           0           0           2           0           0           0
 AtZEff=  -0.0000000  -0.0000000  -0.0000000  -0.0000000  -0.0000000  -0.0000000  -0.0000000  -0.0000000  -0.0000000  -0.0000000
 NQMom=    0.0000000   0.0000000   0.0000000   0.0000000   0.0000000   0.0000000   2.0440000   0.0000000   0.0000000   0.0000000
 NMagM=    0.0000000   0.0000000   0.0000000   0.0000000   0.0000000   0.0000000   0.4037610   0.0000000   0.0000000   0.0000000
 AtZNuc=   6.0000000   6.0000000   6.0000000   6.0000000   8.0000000   8.0000000   7.0000000   6.0000000   6.0000000   6.0000000

  Atom        21          22          23          24          25          26          27          28          29          30
 IAtWgt=          12          12          12          16          12          14          12          12          12          12
 AtmWgt=  12.0000000  12.0000000  12.0000000  15.9949146  12.0000000  14.0030740  12.0000000  12.0000000  12.0000000  12.0000000
 NucSpn=           0           0           0           0           0           2           0           0           0           0
 AtZEff=  -0.0000000  -0.0000000  -0.0000000  -0.0000000  -0.0000000  -0.0000000  -0.0000000  -0.0000000  -0.0000000  -0.0000000
 NQMom=    0.0000000   0.0000000   0.0000000   0.0000000   0.0000000   2.0440000   0.0000000   0.0000000   0.0000000   0.0000000
 NMagM=    0.0000000   0.0000000   0.0000000   0.0000000   0.0000000   0.4037610   0.0000000   0.0000000   0.0000000   0.0000000
 AtZNuc=   6.0000000   6.0000000   6.0000000   8.0000000   6.0000000   7.0000000   6.0000000   6.0000000   6.0000000   6.0000000

  Atom        31          32          33          34          35          36          37          38          39          40
 IAtWgt=          12          12          12          14          12          12          12          12          12          12
 AtmWgt=  12.0000000  12.0000000  12.0000000  14.0030740  12.0000000  12.0000000  12.0000000  12.0000000  12.0000000  12.0000000
 NucSpn=           0           0           0           2           0           0           0           0           0           0
 AtZEff=  -0.0000000  -0.0000000  -0.0000000  -0.0000000  -0.0000000  -0.0000000  -0.0000000  -0.0000000  -0.0000000  -0.0000000
 NQMom=    0.0000000   0.0000000   0.0000000   2.0440000   0.0000000   0.0000000   0.0000000   0.0000000   0.0000000   0.0000000
 NMagM=    0.0000000   0.0000000   0.0000000   0.4037610   0.0000000   0.0000000   0.0000000   0.0000000   0.0000000   0.0000000
 AtZNuc=   6.0000000   6.0000000   6.0000000   7.0000000   6.0000000   6.0000000   6.0000000   6.0000000   6.0000000   6.0000000

  Atom        41          42          43          44          45          46          47          48          49          50
 IAtWgt=          16          12          12          16          16          12          12          12          12          12
 AtmWgt=  15.9949146  12.0000000  12.0000000  15.9949146  15.9949146  12.0000000  12.0000000  12.0000000  12.0000000  12.0000000
 NucSpn=           0           0           0           0           0           0           0           0           0           0
 AtZEff=  -0.0000000  -0.0000000  -0.0000000  -0.0000000  -0.0000000  -0.0000000  -0.0000000  -0.0000000  -0.0000000  -0.0000000
 NQMom=    0.0000000   0.0000000   0.0000000   0.0000000   0.0000000   0.0000000   0.0000000   0.0000000   0.0000000   0.0000000
 NMagM=    0.0000000   0.0000000   0.0000000   0.0000000   0.0000000   0.0000000   0.0000000   0.0000000   0.0000000   0.0000000
 AtZNuc=   8.0000000   6.0000000   6.0000000   8.0000000   8.0000000   6.0000000   6.0000000   6.0000000   6.0000000   6.0000000

  Atom        51          52          53          54          55          56          57          58          59          60
 IAtWgt=          12          12          12          12          12          12          12          12          12          12
 AtmWgt=  12.0000000  12.0000000  12.0000000  12.0000000  12.0000000  12.0000000  12.0000000  12.0000000  12.0000000  12.0000000
 NucSpn=           0           0           0           0           0           0           0           0           0           0
 AtZEff=  -0.0000000  -0.0000000  -0.0000000  -0.0000000  -0.0000000  -0.0000000  -0.0000000  -0.0000000  -0.0000000  -0.0000000
 NQMom=    0.0000000   0.0000000   0.0000000   0.0000000   0.0000000   0.0000000   0.0000000   0.0000000   0.0000000   0.0000000
 NMagM=    0.0000000   0.0000000   0.0000000   0.0000000   0.0000000   0.0000000   0.0000000   0.0000000   0.0000000   0.0000000
 AtZNuc=   6.0000000   6.0000000   6.0000000   6.0000000   6.0000000   6.0000000   6.0000000   6.0000000   6.0000000   6.0000000

  Atom        61          62          63          64          65          66          67          68          69          70
 IAtWgt=          12          12          12          12          12          12           1           1           1           1
 AtmWgt=  12.0000000  12.0000000  12.0000000  12.0000000  12.0000000  12.0000000   1.0078250   1.0078250   1.0078250   1.0078250
 NucSpn=           0           0           0           0           0           0           1           1           1           1
 AtZEff=  -0.0000000  -0.0000000  -0.0000000  -0.0000000  -0.0000000  -0.0000000  -0.0000000  -0.0000000  -0.0000000  -0.0000000
 NQMom=    0.0000000   0.0000000   0.0000000   0.0000000   0.0000000   0.0000000   0.0000000   0.0000000   0.0000000   0.0000000
 NMagM=    0.0000000   0.0000000   0.0000000   0.0000000   0.0000000   0.0000000   2.7928460   2.7928460   2.7928460   2.7928460
 AtZNuc=   6.0000000   6.0000000   6.0000000   6.0000000   6.0000000   6.0000000   1.0000000   1.0000000   1.0000000   1.0000000

  Atom        71          72          73          74          75          76          77          78          79          80
 IAtWgt=           1           1           1           1           1           1           1           1           1           1
 AtmWgt=   1.0078250   1.0078250   1.0078250   1.0078250   1.0078250   1.0078250   1.0078250   1.0078250   1.0078250   1.0078250
 NucSpn=           1           1           1           1           1           1           1           1           1           1
 AtZEff=  -0.0000000  -0.0000000  -0.0000000  -0.0000000  -0.0000000  -0.0000000  -0.0000000  -0.0000000  -0.0000000  -0.0000000
 NQMom=    0.0000000   0.0000000   0.0000000   0.0000000   0.0000000   0.0000000   0.0000000   0.0000000   0.0000000   0.0000000
 NMagM=    2.7928460   2.7928460   2.7928460   2.7928460   2.7928460   2.7928460   2.7928460   2.7928460   2.7928460   2.7928460
 AtZNuc=   1.0000000   1.0000000   1.0000000   1.0000000   1.0000000   1.0000000   1.0000000   1.0000000   1.0000000   1.0000000

  Atom        81          82          83          84          85          86          87          88          89          90
 IAtWgt=           1           1           1           1           1           1           1           1           1           1
 AtmWgt=   1.0078250   1.0078250   1.0078250   1.0078250   1.0078250   1.0078250   1.0078250   1.0078250   1.0078250   1.0078250
 NucSpn=           1           1           1           1           1           1           1           1           1           1
 AtZEff=  -0.0000000  -0.0000000  -0.0000000  -0.0000000  -0.0000000  -0.0000000  -0.0000000  -0.0000000  -0.0000000  -0.0000000
 NQMom=    0.0000000   0.0000000   0.0000000   0.0000000   0.0000000   0.0000000   0.0000000   0.0000000   0.0000000   0.0000000
 NMagM=    2.7928460   2.7928460   2.7928460   2.7928460   2.7928460   2.7928460   2.7928460   2.7928460   2.7928460   2.7928460
 AtZNuc=   1.0000000   1.0000000   1.0000000   1.0000000   1.0000000   1.0000000   1.0000000   1.0000000   1.0000000   1.0000000

  Atom        91          92          93          94          95          96          97          98          99         100
 IAtWgt=           1           1           1           1           1           1           1           1           1           1
 AtmWgt=   1.0078250   1.0078250   1.0078250   1.0078250   1.0078250   1.0078250   1.0078250   1.0078250   1.0078250   1.0078250
 NucSpn=           1           1           1           1           1           1           1           1           1           1
 AtZEff=  -0.0000000  -0.0000000  -0.0000000  -0.0000000  -0.0000000  -0.0000000  -0.0000000  -0.0000000  -0.0000000  -0.0000000
 NQMom=    0.0000000   0.0000000   0.0000000   0.0000000   0.0000000   0.0000000   0.0000000   0.0000000   0.0000000   0.0000000
 NMagM=    2.7928460   2.7928460   2.7928460   2.7928460   2.7928460   2.7928460   2.7928460   2.7928460   2.7928460   2.7928460
 AtZNuc=   1.0000000   1.0000000   1.0000000   1.0000000   1.0000000   1.0000000   1.0000000   1.0000000   1.0000000   1.0000000

  Atom       101         102         103         104         105         106         107         108         109         110
 IAtWgt=           1           1           1           1           1           1           1           1           1           1
 AtmWgt=   1.0078250   1.0078250   1.0078250   1.0078250   1.0078250   1.0078250   1.0078250   1.0078250   1.0078250   1.0078250
 NucSpn=           1           1           1           1           1           1           1           1           1           1
 AtZEff=  -0.0000000  -0.0000000  -0.0000000  -0.0000000  -0.0000000  -0.0000000  -0.0000000  -0.0000000  -0.0000000  -0.0000000
 NQMom=    0.0000000   0.0000000   0.0000000   0.0000000   0.0000000   0.0000000   0.0000000   0.0000000   0.0000000   0.0000000
 NMagM=    2.7928460   2.7928460   2.7928460   2.7928460   2.7928460   2.7928460   2.7928460   2.7928460   2.7928460   2.7928460
 AtZNuc=   1.0000000   1.0000000   1.0000000   1.0000000   1.0000000   1.0000000   1.0000000   1.0000000   1.0000000   1.0000000

  Atom       111         112         113         114         115         116         117         118         119         120
 IAtWgt=           1           1           1           1           1           1           1           1           1           1
 AtmWgt=   1.0078250   1.0078250   1.0078250   1.0078250   1.0078250   1.0078250   1.0078250   1.0078250   1.0078250   1.0078250
 NucSpn=           1           1           1           1           1           1           1           1           1           1
 AtZEff=  -0.0000000  -0.0000000  -0.0000000  -0.0000000  -0.0000000  -0.0000000  -0.0000000  -0.0000000  -0.0000000  -0.0000000
 NQMom=    0.0000000   0.0000000   0.0000000   0.0000000   0.0000000   0.0000000   0.0000000   0.0000000   0.0000000   0.0000000
 NMagM=    2.7928460   2.7928460   2.7928460   2.7928460   2.7928460   2.7928460   2.7928460   2.7928460   2.7928460   2.7928460
 AtZNuc=   1.0000000   1.0000000   1.0000000   1.0000000   1.0000000   1.0000000   1.0000000   1.0000000   1.0000000   1.0000000

  Atom       121         122         123         124         125         126         127         128         129         130
 IAtWgt=           1           1           1           1           1           1           1           1           1           1
 AtmWgt=   1.0078250   1.0078250   1.0078250   1.0078250   1.0078250   1.0078250   1.0078250   1.0078250   1.0078250   1.0078250
 NucSpn=           1           1           1           1           1           1           1           1           1           1
 AtZEff=  -0.0000000  -0.0000000  -0.0000000  -0.0000000  -0.0000000  -0.0000000  -0.0000000  -0.0000000  -0.0000000  -0.0000000
 NQMom=    0.0000000   0.0000000   0.0000000   0.0000000   0.0000000   0.0000000   0.0000000   0.0000000   0.0000000   0.0000000
 NMagM=    2.7928460   2.7928460   2.7928460   2.7928460   2.7928460   2.7928460   2.7928460   2.7928460   2.7928460   2.7928460
 AtZNuc=   1.0000000   1.0000000   1.0000000   1.0000000   1.0000000   1.0000000   1.0000000   1.0000000   1.0000000   1.0000000

  Atom       131         132         133         134         135         136         137         138         139         140
 IAtWgt=           1           1           1           1           1           1           1           1           1           1
 AtmWgt=   1.0078250   1.0078250   1.0078250   1.0078250   1.0078250   1.0078250   1.0078250   1.0078250   1.0078250   1.0078250
 NucSpn=           1           1           1           1           1           1           1           1           1           1
 AtZEff=  -0.0000000  -0.0000000  -0.0000000  -0.0000000  -0.0000000  -0.0000000  -0.0000000  -0.0000000  -0.0000000  -0.0000000
 NQMom=    0.0000000   0.0000000   0.0000000   0.0000000   0.0000000   0.0000000   0.0000000   0.0000000   0.0000000   0.0000000
 NMagM=    2.7928460   2.7928460   2.7928460   2.7928460   2.7928460   2.7928460   2.7928460   2.7928460   2.7928460   2.7928460
 AtZNuc=   1.0000000   1.0000000   1.0000000   1.0000000   1.0000000   1.0000000   1.0000000   1.0000000   1.0000000   1.0000000
 Leave Link  101 at Sat Apr 30 03:54:20 2022, MaxMem= 10066329600 cpu:               2.8 elap:               0.1
 (Enter /sw/apps/gaussian-16.0/g16/l202.exe)
 Stoichiometry    C55H74MgN4O6
 Framework group  C1[X(C55H74MgN4O6)]
 Deg. of freedom   414
 Full point group                 C1      NOp   1
 Largest Abelian subgroup         C1      NOp   1
 Largest concise Abelian subgroup C1      NOp   1
                         Standard orientation:                         
 ---------------------------------------------------------------------
 Center     Atomic      Atomic             Coordinates (Angstroms)
 Number     Number       Type             X           Y           Z
 ---------------------------------------------------------------------
      1         12           0       -5.357845    1.093168   -0.185808
      2          6           0       -4.536417   -2.332735    0.096656
      3          6           0       -2.112671    1.820918   -0.523085
      4          6           0       -6.213786    4.245907    0.101599
      5          6           0       -8.820744    0.139160    0.088831
      6          7           0       -3.590517   -0.124992   -0.116272
      7          6           0       -3.476853   -1.461803   -0.028261
      8          6           0       -2.013071   -1.913432   -0.104815
      9          6           0       -1.285658   -0.579275   -0.206929
     10          6           0       -2.385103    0.459005   -0.240326
     11          6           0       -0.285499   -0.336239    0.887097
     12          6           0       -1.611908   -2.883819   -1.350442
     13          6           0       -0.863142   -4.175369   -0.914601
     14          6           0        0.293928   -3.987530    0.090711
     15          8           0        0.405901   -4.443640    1.208893
     16          8           0        1.323280   -3.270568   -0.534058
     17          7           0       -4.317962    2.765387   -0.239318
     18          6           0       -3.004391    2.867214   -0.431077
     19          6           0       -2.634439    4.288233   -0.407463
     20          6           0       -3.803823    5.051962   -0.318213
     21          6           0       -4.828514    4.044132   -0.179259
     22          6           0       -1.181712    4.806787   -0.541159
     23          6           0       -4.132163    6.539814   -0.265278
     24          8           0       -5.239952    7.033403   -0.130398
     25          6           0       -3.013230    7.549647   -0.412506
     26          7           0       -7.330281    2.113331   -0.070006
     27          6           0       -7.358216    3.404534    0.115236
     28          6           0       -8.816617    3.846815    0.555875
     29          6           0       -9.634262    2.526010    0.140105
     30          6           0       -8.563234    1.507229    0.020005
     31          6           0       -8.895096    4.243124    2.023163
     32          6           0      -10.315048    2.831187   -1.225523
     33          6           0      -11.230170    1.744570   -1.756133
     34          7           0       -6.533408   -0.698697    0.012914
     35          6           0       -7.873936   -0.921894    0.108628
     36          6           0       -8.103254   -2.330640    0.294243
     37          6           0       -6.819371   -2.934665    0.246892
     38          6           0       -5.929805   -1.926943    0.043069
     39          6           0       -9.447251   -3.044983    0.479748
     40          6           0       -6.094318   -4.188058    0.325786
     41          8           0       -6.526157   -5.336945    0.539422
     42          6           0       -4.605948   -3.841410    0.130155
     43          6           0       -3.738885   -4.504962    1.213701
     44          8           0       -3.443560   -3.966969    2.255659
     45          8           0       -3.330019   -5.714847    0.828498
     46          6           0       -2.614799   -6.431791    1.854264
     47          6           0        2.523331   -3.007780    0.299602
     48          6           0        3.750522   -2.729878   -0.538268
     49          6           0        4.873918   -3.475986   -0.682949
     50          6           0        5.143064   -4.851874   -0.052916
     51          6           0        5.879744   -3.030856   -1.734711
     52          6           0        7.354825   -2.949515   -1.292561
     53          6           0        8.192947   -1.890124   -2.096056
     54          6           0        8.581256   -0.716140   -1.273172
     55          6           0        7.800543    0.502267   -1.830398
     56          6           0       10.149332   -0.300674   -1.265451
     57          6           0       10.800557   -0.396466    0.181969
     58          6           0       12.126137   -1.056347    0.129373
     59          6           0       13.336256   -0.144646   -0.174508
     60          6           0       14.499226   -0.957950   -0.838313
     61          6           0       13.812328    0.553307    1.148634
     62          6           0       14.466034    1.977806    0.834015
     63          6           0       14.100178    3.104884    1.770762
     64          6           0       13.653312    4.453886    1.108025
     65          6           0       12.114394    4.620380    1.014245
     66          6           0       14.211107    5.784108    1.574936
     67          1           0       -1.086706    2.146033   -0.708571
     68          1           0       -6.628667    5.244227    0.254639
     69          1           0       -9.802815   -0.256157    0.356011
     70          1           0       -1.615478   -2.473357    0.742418
     71          1           0       -0.706444   -0.427621   -1.116775
     72          1           0       -0.945134    0.149410    1.606348
     73          1           0        0.515641    0.330896    0.569803
     74          1           0        0.087119   -1.187776    1.456712
     75          1           0       -0.941058   -2.414242   -2.070778
     76          1           0       -2.522949   -3.190356   -1.863919
     77          1           0       -0.464272   -4.742947   -1.754482
     78          1           0       -1.566278   -4.791744   -0.353792
     79          1           0       -0.418557    4.035883   -0.642514
     80          1           0       -0.921317    5.230169    0.428581
     81          1           0       -1.079445    5.443030   -1.420350
     82          1           0       -2.143271    7.022330   -0.020686
     83          1           0       -3.210780    8.483190    0.113499
     84          1           0       -2.841524    7.918546   -1.424366
     85          1           0       -9.031604    4.762224    0.004561
     86          1           0      -10.445049    2.216959    0.800346
     87          1           0       -9.125507    5.306934    2.082910
     88          1           0       -7.915696    4.097961    2.478408
     89          1           0       -9.634141    3.589741    2.487857
     90          1           0       -9.502315    3.024032   -1.926177
     91          1           0      -10.923079    3.735180   -1.195258
     92          1           0      -11.547618    1.029718   -0.997153
     93          1           0      -10.756666    1.245374   -2.600890
     94          1           0      -12.154704    2.230254   -2.071892
     95          1           0       -9.625617   -3.501272   -0.494505
     96          1           0      -10.250790   -2.366417    0.765439
     97          1           0       -9.398433   -3.802032    1.261582
     98          1           0       -4.353093   -4.261815   -0.842771
     99          1           0       -2.021423   -7.201190    1.359709
    100          1           0       -3.237358   -6.679987    2.714756
    101          1           0       -1.887408   -5.743974    2.285494
    102          1           0        2.714883   -3.824278    0.996025
    103          1           0        2.451982   -2.055713    0.825314
    104          1           0        3.773263   -1.819913   -1.137920
    105          1           0        5.266892   -5.656895   -0.777166
    106          1           0        4.507117   -5.122724    0.789671
    107          1           0        6.150730   -4.662240    0.316719
    108          1           0        5.644113   -2.065254   -2.182568
    109          1           0        5.867633   -3.789374   -2.518189
    110          1           0        7.753064   -3.912505   -1.611736
    111          1           0        7.464441   -2.853024   -0.212796
    112          1           0        7.583232   -1.629934   -2.961717
    113          1           0        9.037454   -2.413744   -2.543528
    114          1           0        8.369758   -0.892288   -0.218514
    115          1           0        6.975546    0.227146   -2.487843
    116          1           0        8.401386    1.162119   -2.456742
    117          1           0        7.285524    1.051953   -1.043445
    118          1           0       10.382274    0.713362   -1.591196
    119          1           0       10.759104   -0.815696   -2.007659
    120          1           0       10.174216   -0.939173    0.890228
    121          1           0       10.920415    0.572479    0.667618
    122          1           0       11.952326   -1.816169   -0.632634
    123          1           0       12.240216   -1.578361    1.080321
    124          1           0       13.033822    0.616125   -0.893945
    125          1           0       14.733777   -0.576145   -1.832343
    126          1           0       14.176875   -1.993471   -0.946722
    127          1           0       15.404715   -0.961298   -0.232272
    128          1           0       14.531768   -0.027061    1.726776
    129          1           0       12.933105    0.665734    1.783365
    130          1           0       14.351154    2.215572   -0.223781
    131          1           0       15.546402    1.887167    0.942700
    132          1           0       14.934836    3.281015    2.450332
    133          1           0       13.295300    2.770554    2.425337
    134          1           0       13.940857    4.381617    0.058808
    135          1           0       11.750019    3.723355    0.514380
    136          1           0       11.778601    5.459327    0.404538
    137          1           0       11.793784    4.643438    2.055280
    138          1           0       14.586310    5.612663    2.583933
    139          1           0       13.423464    6.536503    1.573083
    140          1           0       14.877812    6.122628    0.780730
 ---------------------------------------------------------------------
 Rotational constants (GHZ):           0.0419999           0.0095492           0.0079909
 Leave Link  202 at Sat Apr 30 03:54:20 2022, MaxMem= 10066329600 cpu:               0.3 elap:               0.0
 (Enter /sw/apps/gaussian-16.0/g16/l301.exe)
 Standard basis: def2SVP (5D, 7F)
 Ernie: Thresh=  0.10000D-02 Tol=  0.10000D-05 Strict=F.
 There are  1364 symmetry adapted cartesian basis functions of A   symmetry.
 There are  1298 symmetry adapted basis functions of A   symmetry.
  1298 basis functions,  2180 primitive gaussians,  1364 cartesian basis functions
   246 alpha electrons      246 beta electrons
       nuclear repulsion energy      9486.0106581703 Hartrees.
 IExCor= 1009 DFT=T Ex+Corr=PBE1PBE ExCW=0 ScaHFX=  0.250000
 ScaDFX=  0.750000  0.750000  1.000000  1.000000 ScalE2=  1.000000  1.000000
 IRadAn=      5 IRanWt=     -1 IRanGd=            0 ICorTp=0 IEmpDi=  4
 NAtoms=  140 NActive=  140 NUniq=  140 SFac= 1.00D+00 NAtFMM=   60 NAOKFM=T Big=T
 Integral buffers will be    131072 words long.
 Regular integral format.
 Two-electron integral symmetry is turned on.
 Leave Link  301 at Sat Apr 30 03:54:20 2022, MaxMem= 10066329600 cpu:               1.3 elap:               0.1
 (Enter /sw/apps/gaussian-16.0/g16/l302.exe)
 NPDir=0 NMtPBC=     1 NCelOv=     1 NCel=       1 NClECP=     1 NCelD=      1
         NCelK=      1 NCelE2=     1 NClLst=     1 CellRange=     0.0.
 One-electron integrals computed using PRISM.
 One-electron integral symmetry used in STVInt
   1 Symmetry operations used in ECPInt.
 ECPInt:  NShTT=  192510 NPrTT=  683786 LenC2=   91768 LenP2D=  202646.
 LDataN:  DoStor=T MaxTD1= 4 Len=   56
 NBasis=  1298 RedAO= T EigKep=  2.68D-04  NBF=  1298
 NBsUse=  1298 1.00D-06 EigRej= -1.00D+00 NBFU=  1298
 Precomputing XC quadrature grid using
 IXCGrd= 4 IRadAn=           5 IRanWt=          -1 IRanGd=           0 AccXCQ= 0.00D+00.
 Generated NRdTot=       0 NPtTot=           0 NUsed=           0 NTot=          32
 NSgBfM=  1079  1079  1079  1079  1079 MxSgAt=   140 MxSgA2=   140.
 Leave Link  302 at Sat Apr 30 03:54:23 2022, MaxMem= 10066329600 cpu:              76.2 elap:               3.2
 (Enter /sw/apps/gaussian-16.0/g16/l303.exe)
 DipDrv:  MaxL=1.
 Leave Link  303 at Sat Apr 30 03:54:24 2022, MaxMem= 10066329600 cpu:               7.9 elap:               0.4
 (Enter /sw/apps/gaussian-16.0/g16/l308.exe)
 Leave Link  308 at Sat Apr 30 03:54:24 2022, MaxMem= 10066329600 cpu:               8.5 elap:               0.4
 (Enter /sw/apps/gaussian-16.0/g16/l401.exe)
 ExpMin= 3.36D-02 ExpMax= 4.95D+03 ExpMxC= 7.45D+02 IAcc=3 IRadAn=         5 AccDes= 0.00D+00
 Harris functional with IExCor= 1009 and IRadAn=       5 diagonalized for initial guess.
 HarFok:  IExCor= 1009 AccDes= 0.00D+00 IRadAn=         5 IDoV= 1 UseB2=F ITyADJ=14
 ICtDFT=  3500011 ScaDFX=  1.000000  1.000000  1.000000  1.000000
 FoFCou: FMM=F IPFlag=           0 FMFlag=      100000 FMFlg1=        2001
         NFxFlg=           0 DoJE=T BraDBF=F KetDBF=T FulRan=T
         wScrn=  0.000000 ICntrl=       500 IOpCl=  0 I1Cent=   200000004 NGrid=           0
         NMat0=    1 NMatS0=      1 NMatT0=    0 NMatD0=    1 NMtDS0=    0 NMtDT0=    0
 Petite list used in FoFCou.
 Harris En= -3006.18240952968    
 JPrj=0 DoOrth=F DoCkMO=F.
 Leave Link  401 at Sat Apr 30 03:54:30 2022, MaxMem= 10066329600 cpu:             140.9 elap:               5.9
 (Enter /sw/apps/gaussian-16.0/g16/l502.exe)
 Integral symmetry usage will be decided dynamically.
 Closed shell SCF:
 Using DIIS extrapolation, IDIIS=  1040.
 NGot= 10066329600 LenX= 10062561258 LenY= 10060699398
 Requested convergence on RMS density matrix=1.00D-08 within 128 cycles.
 Requested convergence on MAX density matrix=1.00D-06.
 Requested convergence on             energy=1.00D-06.
 No special actions if energy rises.
 Fock matrices will be formed incrementally for  20 cycles.

 Cycle   1  Pass 1  IDiag  1:
 FoFJK:  IHMeth= 1 ICntrl=       0 DoSepK=F KAlg= 0 I1Cent=           0 FoldK=F
 IRaf= 510000000 NMat=       1 IRICut=       1 DoRegI=T DoRafI=F ISym2E= 0 IDoP0=0 IntGTp=1.
 FoFCou: FMM=T IPFlag=           0 FMFlag=      100000 FMFlg1=        2001
         NFxFlg=           0 DoJE=F BraDBF=F KetDBF=F FulRan=T
         wScrn=  0.000000 ICntrl=         0 IOpCl=  0 I1Cent=           0 NGrid=           0
         NMat0=    1 NMatS0=      1 NMatT0=    0 NMatD0=    1 NMtDS0=    0 NMtDT0=    0
 Symmetry not used in FoFCou.
 FMM levels:  10  Number of levels for PrismC:   9
 E= -3003.84420971412    
 DIIS: error= 1.91D-02 at cycle   1 NSaved=   1.
 NSaved= 1 IEnMin= 1 EnMin= -3003.84420971412     IErMin= 1 ErrMin= 1.91D-02
 ErrMax= 1.91D-02  0.00D+00 EMaxC= 1.00D-01 BMatC= 1.46D+00 BMatP= 1.46D+00
 IDIUse=3 WtCom= 8.09D-01 WtEn= 1.91D-01
 Coeff-Com:  0.100D+01
 Coeff-En:   0.100D+01
 Coeff:      0.100D+01
 Gap=     0.067 Goal=   None    Shift=    0.000
 GapD=    0.067 DampG=0.500 DampE=0.500 DampFc=0.2500 IDamp=-1.
 Damping current iteration by 2.50D-01
 RMSDP=2.78D-03 MaxDP=7.21D-01              OVMax= 2.96D-01

 Cycle   2  Pass 1  IDiag  1:
 RMSU=  6.90D-04    CP:  9.90D-01
 E= -3004.39419361120     Delta-E=       -0.549983897077 Rises=F Damp=T
 DIIS: error= 9.82D-03 at cycle   2 NSaved=   2.
 NSaved= 2 IEnMin= 2 EnMin= -3004.39419361120     IErMin= 2 ErrMin= 9.82D-03
 ErrMax= 9.82D-03  0.00D+00 EMaxC= 1.00D-01 BMatC= 3.69D-01 BMatP= 1.46D+00
 IDIUse=3 WtCom= 9.02D-01 WtEn= 9.82D-02
 Coeff-Com: -0.790D+00 0.179D+01
 Coeff-En:   0.000D+00 0.100D+01
 Coeff:     -0.713D+00 0.171D+01
 Gap=     0.170 Goal=   None    Shift=    0.000
 RMSDP=1.00D-03 MaxDP=6.78D-02 DE=-5.50D-01 OVMax= 4.07D-01

 Cycle   3  Pass 1  IDiag  1:
 RMSU=  8.57D-04    CP:  9.64D-01  1.67D+00
 E= -3005.21216125746     Delta-E=       -0.817967646257 Rises=F Damp=F
 DIIS: error= 1.25D-02 at cycle   3 NSaved=   3.
 NSaved= 3 IEnMin= 3 EnMin= -3005.21216125746     IErMin= 2 ErrMin= 9.82D-03
 ErrMax= 1.25D-02  0.00D+00 EMaxC= 1.00D-01 BMatC= 1.68D-01 BMatP= 3.69D-01
 IDIUse=3 WtCom= 8.75D-01 WtEn= 1.25D-01
 Coeff-Com: -0.505D+00 0.107D+01 0.438D+00
 Coeff-En:   0.000D+00 0.000D+00 0.100D+01
 Coeff:     -0.441D+00 0.933D+00 0.508D+00
 Gap=     0.070 Goal=   None    Shift=    0.000
 RMSDP=6.74D-04 MaxDP=9.52D-02 DE=-8.18D-01 OVMax= 3.75D-01

 Cycle   4  Pass 1  IDiag  1:
 RMSU=  4.49D-04    CP:  9.70D-01  1.96D+00  4.65D-01
 E= -3005.31000043475     Delta-E=       -0.097839177288 Rises=F Damp=F
 DIIS: error= 6.37D-03 at cycle   4 NSaved=   4.
 NSaved= 4 IEnMin= 4 EnMin= -3005.31000043475     IErMin= 4 ErrMin= 6.37D-03
 ErrMax= 6.37D-03  0.00D+00 EMaxC= 1.00D-01 BMatC= 5.83D-02 BMatP= 1.68D-01
 IDIUse=3 WtCom= 9.36D-01 WtEn= 6.37D-02
 Coeff-Com: -0.141D+00 0.304D+00 0.359D+00 0.478D+00
 Coeff-En:   0.000D+00 0.000D+00 0.341D+00 0.659D+00
 Coeff:     -0.132D+00 0.285D+00 0.358D+00 0.489D+00
 Gap=     0.076 Goal=   None    Shift=    0.000
 RMSDP=4.01D-04 MaxDP=3.82D-02 DE=-9.78D-02 OVMax= 2.94D-01

 Cycle   5  Pass 1  IDiag  1:
 RMSU=  1.97D-04    CP:  9.69D-01  1.83D+00  6.96D-01  3.93D-01
 E= -3005.36316330556     Delta-E=       -0.053162870810 Rises=F Damp=F
 DIIS: error= 3.79D-03 at cycle   5 NSaved=   5.
 NSaved= 5 IEnMin= 5 EnMin= -3005.36316330556     IErMin= 5 ErrMin= 3.79D-03
 ErrMax= 3.79D-03  0.00D+00 EMaxC= 1.00D-01 BMatC= 1.35D-02 BMatP= 5.83D-02
 IDIUse=3 WtCom= 9.62D-01 WtEn= 3.79D-02
 Coeff-Com: -0.317D-01 0.729D-01 0.216D+00 0.387D+00 0.356D+00
 Coeff-En:   0.000D+00 0.000D+00 0.000D+00 0.247D+00 0.753D+00
 Coeff:     -0.305D-01 0.702D-01 0.208D+00 0.381D+00 0.371D+00
 Gap=     0.075 Goal=   None    Shift=    0.000
 RMSDP=1.77D-04 MaxDP=2.36D-02 DE=-5.32D-02 OVMax= 1.24D-01

 Cycle   6  Pass 1  IDiag  1:
 RMSU=  6.50D-05    CP:  9.69D-01  1.82D+00  6.58D-01  5.86D-01  3.09D-01
 E= -3005.38130541496     Delta-E=       -0.018142109402 Rises=F Damp=F
 DIIS: error= 7.71D-04 at cycle   6 NSaved=   6.
 NSaved= 6 IEnMin= 6 EnMin= -3005.38130541496     IErMin= 6 ErrMin= 7.71D-04
 ErrMax= 7.71D-04  0.00D+00 EMaxC= 1.00D-01 BMatC= 7.19D-04 BMatP= 1.35D-02
 IDIUse=3 WtCom= 9.92D-01 WtEn= 7.71D-03
 Coeff-Com:  0.209D-02-0.253D-02 0.577D-01 0.136D+00 0.217D+00 0.589D+00
 Coeff-En:   0.000D+00 0.000D+00 0.000D+00 0.000D+00 0.210D-01 0.979D+00
 Coeff:      0.207D-02-0.251D-02 0.573D-01 0.135D+00 0.216D+00 0.592D+00
 Gap=     0.078 Goal=   None    Shift=    0.000
 RMSDP=4.21D-05 MaxDP=6.25D-03 DE=-1.81D-02 OVMax= 2.36D-02

 Cycle   7  Pass 1  IDiag  1:
 RMSU=  2.72D-05    CP:  9.69D-01  1.83D+00  6.63D-01  5.67D-01  4.29D-01
                    CP:  7.11D-01
 E= -3005.38194363529     Delta-E=       -0.000638220332 Rises=F Damp=F
 DIIS: error= 2.99D-04 at cycle   7 NSaved=   7.
 NSaved= 7 IEnMin= 7 EnMin= -3005.38194363529     IErMin= 7 ErrMin= 2.99D-04
 ErrMax= 2.99D-04  0.00D+00 EMaxC= 1.00D-01 BMatC= 1.50D-04 BMatP= 7.19D-04
 IDIUse=3 WtCom= 9.97D-01 WtEn= 2.99D-03
 Coeff-Com:  0.398D-02-0.806D-02 0.915D-02 0.347D-01 0.868D-01 0.383D+00
 Coeff-Com:  0.490D+00
 Coeff-En:   0.000D+00 0.000D+00 0.000D+00 0.000D+00 0.000D+00 0.182D+00
 Coeff-En:   0.818D+00
 Coeff:      0.397D-02-0.804D-02 0.912D-02 0.346D-01 0.866D-01 0.383D+00
 Coeff:      0.491D+00
 Gap=     0.078 Goal=   None    Shift=    0.000
 RMSDP=1.97D-05 MaxDP=2.49D-03 DE=-6.38D-04 OVMax= 8.54D-03

 Cycle   8  Pass 1  IDiag  1:
 RMSU=  1.13D-05    CP:  9.69D-01  1.83D+00  6.64D-01  5.70D-01  4.10D-01
                    CP:  7.99D-01  4.68D-01
 E= -3005.38207626132     Delta-E=       -0.000132626035 Rises=F Damp=F
 DIIS: error= 1.25D-04 at cycle   8 NSaved=   8.
 NSaved= 8 IEnMin= 8 EnMin= -3005.38207626132     IErMin= 8 ErrMin= 1.25D-04
 ErrMax= 1.25D-04  0.00D+00 EMaxC= 1.00D-01 BMatC= 2.84D-05 BMatP= 1.50D-04
 IDIUse=3 WtCom= 9.99D-01 WtEn= 1.25D-03
 Coeff-Com:  0.190D-02-0.408D-02-0.139D-02 0.476D-02 0.284D-01 0.180D+00
 Coeff-Com:  0.344D+00 0.446D+00
 Coeff-En:   0.000D+00 0.000D+00 0.000D+00 0.000D+00 0.000D+00 0.000D+00
 Coeff-En:   0.196D+00 0.804D+00
 Coeff:      0.190D-02-0.407D-02-0.139D-02 0.475D-02 0.284D-01 0.180D+00
 Coeff:      0.344D+00 0.446D+00
 Gap=     0.078 Goal=   None    Shift=    0.000
 RMSDP=8.33D-06 MaxDP=8.10D-04 DE=-1.33D-04 OVMax= 4.71D-03

 Cycle   9  Pass 1  IDiag  1:
 RMSU=  3.95D-06    CP:  9.69D-01  1.83D+00  6.63D-01  5.71D-01  4.17D-01
                    CP:  7.90D-01  6.19D-01  4.81D-01
 E= -3005.38210899720     Delta-E=       -0.000032735876 Rises=F Damp=F
 DIIS: error= 4.02D-05 at cycle   9 NSaved=   9.
 NSaved= 9 IEnMin= 9 EnMin= -3005.38210899720     IErMin= 9 ErrMin= 4.02D-05
 ErrMax= 4.02D-05  0.00D+00 EMaxC= 1.00D-01 BMatC= 3.04D-06 BMatP= 2.84D-05
 IDIUse=1 WtCom= 1.00D+00 WtEn= 0.00D+00
 Coeff-Com:  0.526D-03-0.117D-02-0.218D-02-0.214D-02 0.541D-02 0.627D-01
 Coeff-Com:  0.157D+00 0.295D+00 0.485D+00
 Coeff:      0.526D-03-0.117D-02-0.218D-02-0.214D-02 0.541D-02 0.627D-01
 Coeff:      0.157D+00 0.295D+00 0.485D+00
 Gap=     0.078 Goal=   None    Shift=    0.000
 RMSDP=2.53D-06 MaxDP=3.32D-04 DE=-3.27D-05 OVMax= 1.35D-03

 Cycle  10  Pass 1  IDiag  1:
 RMSU=  1.75D-06    CP:  9.69D-01  1.83D+00  6.63D-01  5.70D-01  4.17D-01
                    CP:  8.00D-01  6.07D-01  5.74D-01  7.01D-01
 E= -3005.38211215057     Delta-E=       -0.000003153365 Rises=F Damp=F
 DIIS: error= 1.28D-05 at cycle  10 NSaved=  10.
 NSaved=10 IEnMin=10 EnMin= -3005.38211215057     IErMin=10 ErrMin= 1.28D-05
 ErrMax= 1.28D-05  0.00D+00 EMaxC= 1.00D-01 BMatC= 3.74D-07 BMatP= 3.04D-06
 IDIUse=1 WtCom= 1.00D+00 WtEn= 0.00D+00
 Coeff-Com:  0.878D-05-0.299D-04-0.110D-02-0.206D-02-0.164D-02 0.987D-02
 Coeff-Com:  0.431D-01 0.119D+00 0.296D+00 0.536D+00
 Coeff:      0.878D-05-0.299D-04-0.110D-02-0.206D-02-0.164D-02 0.987D-02
 Coeff:      0.431D-01 0.119D+00 0.296D+00 0.536D+00
 Gap=     0.078 Goal=   None    Shift=    0.000
 RMSDP=9.98D-07 MaxDP=1.10D-04 DE=-3.15D-06 OVMax= 4.64D-04

 Cycle  11  Pass 1  IDiag  1:
 RMSU=  6.49D-07    CP:  9.69D-01  1.83D+00  6.63D-01  5.70D-01  4.17D-01
                    CP:  8.01D-01  6.14D-01  5.76D-01  8.11D-01  6.63D-01
 E= -3005.38211254876     Delta-E=       -0.000000398191 Rises=F Damp=F
 DIIS: error= 5.36D-06 at cycle  11 NSaved=  11.
 NSaved=11 IEnMin=11 EnMin= -3005.38211254876     IErMin=11 ErrMin= 5.36D-06
 ErrMax= 5.36D-06  0.00D+00 EMaxC= 1.00D-01 BMatC= 8.59D-08 BMatP= 3.74D-07
 IDIUse=1 WtCom= 1.00D+00 WtEn= 0.00D+00
 Coeff-Com: -0.657D-04 0.143D-03-0.442D-03-0.106D-02-0.231D-02-0.354D-02
 Coeff-Com:  0.339D-02 0.350D-01 0.110D+00 0.356D+00 0.503D+00
 Coeff:     -0.657D-04 0.143D-03-0.442D-03-0.106D-02-0.231D-02-0.354D-02
 Coeff:      0.339D-02 0.350D-01 0.110D+00 0.356D+00 0.503D+00
 Gap=     0.078 Goal=   None    Shift=    0.000
 RMSDP=3.80D-07 MaxDP=3.07D-05 DE=-3.98D-07 OVMax= 1.55D-04

 Cycle  12  Pass 1  IDiag  1:
 RMSU=  2.34D-07    CP:  9.69D-01  1.83D+00  6.63D-01  5.70D-01  4.17D-01
                    CP:  8.02D-01  6.17D-01  5.89D-01  8.12D-01  7.82D-01
                    CP:  8.10D-01
 E= -3005.38211265207     Delta-E=       -0.000000103310 Rises=F Damp=F
 DIIS: error= 2.64D-06 at cycle  12 NSaved=  12.
 NSaved=12 IEnMin=12 EnMin= -3005.38211265207     IErMin=12 ErrMin= 2.64D-06
 ErrMax= 2.64D-06  0.00D+00 EMaxC= 1.00D-01 BMatC= 9.21D-09 BMatP= 8.59D-08
 IDIUse=1 WtCom= 1.00D+00 WtEn= 0.00D+00
 Coeff-Com: -0.233D-04 0.567D-04-0.426D-04-0.110D-03-0.105D-02-0.338D-02
 Coeff-Com: -0.600D-02-0.149D-02-0.250D-02 0.960D-01 0.247D+00 0.672D+00
 Coeff:     -0.233D-04 0.567D-04-0.426D-04-0.110D-03-0.105D-02-0.338D-02
 Coeff:     -0.600D-02-0.149D-02-0.250D-02 0.960D-01 0.247D+00 0.672D+00
 Gap=     0.078 Goal=   None    Shift=    0.000
 RMSDP=1.64D-07 MaxDP=2.04D-05 DE=-1.03D-07 OVMax= 7.21D-05

 Cycle  13  Pass 1  IDiag  1:
 RMSU=  1.11D-07    CP:  9.69D-01  1.83D+00  6.63D-01  5.70D-01  4.17D-01
                    CP:  8.02D-01  6.17D-01  5.92D-01  8.27D-01  8.03D-01
                    CP:  9.34D-01  8.73D-01
 E= -3005.38211266186     Delta-E=       -0.000000009797 Rises=F Damp=F
 DIIS: error= 1.20D-06 at cycle  13 NSaved=  13.
 NSaved=13 IEnMin=13 EnMin= -3005.38211266186     IErMin=13 ErrMin= 1.20D-06
 ErrMax= 1.20D-06  0.00D+00 EMaxC= 1.00D-01 BMatC= 3.09D-09 BMatP= 9.21D-09
 IDIUse=1 WtCom= 1.00D+00 WtEn= 0.00D+00
 Coeff-Com: -0.604D-05 0.159D-04 0.492D-04 0.134D-03-0.375D-03-0.179D-02
 Coeff-Com: -0.537D-02-0.811D-02-0.259D-01-0.447D-02 0.554D-01 0.435D+00
 Coeff-Com:  0.555D+00
 Coeff:     -0.604D-05 0.159D-04 0.492D-04 0.134D-03-0.375D-03-0.179D-02
 Coeff:     -0.537D-02-0.811D-02-0.259D-01-0.447D-02 0.554D-01 0.435D+00
 Coeff:      0.555D+00
 Gap=     0.078 Goal=   None    Shift=    0.000
 RMSDP=8.07D-08 MaxDP=7.00D-06 DE=-9.80D-09 OVMax= 4.02D-05

 Cycle  14  Pass 1  IDiag  1:
 RMSU=  4.89D-08    CP:  9.69D-01  1.83D+00  6.63D-01  5.70D-01  4.17D-01
                    CP:  8.02D-01  6.17D-01  5.93D-01  8.32D-01  8.20D-01
                    CP:  9.56D-01  1.03D+00  8.53D-01
 E= -3005.38211266616     Delta-E=       -0.000000004295 Rises=F Damp=F
 DIIS: error= 6.39D-07 at cycle  14 NSaved=  14.
 NSaved=14 IEnMin=14 EnMin= -3005.38211266616     IErMin=14 ErrMin= 6.39D-07
 ErrMax= 6.39D-07  0.00D+00 EMaxC= 1.00D-01 BMatC= 4.01D-10 BMatP= 3.09D-09
 IDIUse=1 WtCom= 1.00D+00 WtEn= 0.00D+00
 Coeff-Com: -0.707D-07 0.438D-08 0.330D-04 0.105D-03-0.811D-04-0.438D-03
 Coeff-Com: -0.220D-02-0.402D-02-0.145D-01-0.155D-01-0.780D-02 0.149D+00
 Coeff-Com:  0.319D+00 0.577D+00
 Coeff:     -0.707D-07 0.438D-08 0.330D-04 0.105D-03-0.811D-04-0.438D-03
 Coeff:     -0.220D-02-0.402D-02-0.145D-01-0.155D-01-0.780D-02 0.149D+00
 Coeff:      0.319D+00 0.577D+00
 Gap=     0.078 Goal=   None    Shift=    0.000
 RMSDP=2.94D-08 MaxDP=2.43D-06 DE=-4.29D-09 OVMax= 1.31D-05

 Cycle  15  Pass 1  IDiag  1:
 RMSU=  1.94D-08    CP:  9.69D-01  1.83D+00  6.63D-01  5.70D-01  4.17D-01
                    CP:  8.02D-01  6.17D-01  5.94D-01  8.32D-01  8.23D-01
                    CP:  9.77D-01  1.07D+00  9.56D-01  9.64D-01
 E= -3005.38211266661     Delta-E=       -0.000000000449 Rises=F Damp=F
 DIIS: error= 1.68D-07 at cycle  15 NSaved=  15.
 NSaved=15 IEnMin=15 EnMin= -3005.38211266661     IErMin=15 ErrMin= 1.68D-07
 ErrMax= 1.68D-07  0.00D+00 EMaxC= 1.00D-01 BMatC= 7.42D-11 BMatP= 4.01D-10
 IDIUse=1 WtCom= 1.00D+00 WtEn= 0.00D+00
 Coeff-Com:  0.146D-06-0.160D-05 0.646D-05 0.335D-04 0.185D-04 0.184D-03
 Coeff-Com: -0.830D-04-0.219D-03-0.220D-02-0.640D-02-0.156D-01-0.998D-02
 Coeff-Com:  0.590D-01 0.322D+00 0.654D+00
 Coeff:      0.146D-06-0.160D-05 0.646D-05 0.335D-04 0.185D-04 0.184D-03
 Coeff:     -0.830D-04-0.219D-03-0.220D-02-0.640D-02-0.156D-01-0.998D-02
 Coeff:      0.590D-01 0.322D+00 0.654D+00
 Gap=     0.078 Goal=   None    Shift=    0.000
 RMSDP=1.35D-08 MaxDP=1.05D-06 DE=-4.49D-10 OVMax= 6.38D-06

 Cycle  16  Pass 1  IDiag  1:
 RMSU=  7.24D-09    CP:  9.69D-01  1.83D+00  6.63D-01  5.70D-01  4.17D-01
                    CP:  8.02D-01  6.17D-01  5.94D-01  8.33D-01  8.25D-01
                    CP:  9.82D-01  1.10D+00  1.00D+00  1.09D+00  9.11D-01
 E= -3005.38211266682     Delta-E=       -0.000000000213 Rises=F Damp=F
 DIIS: error= 7.72D-08 at cycle  16 NSaved=  16.
 NSaved=16 IEnMin=16 EnMin= -3005.38211266682     IErMin=16 ErrMin= 7.72D-08
 ErrMax= 7.72D-08  0.00D+00 EMaxC= 1.00D-01 BMatC= 1.18D-11 BMatP= 7.42D-11
 IDIUse=1 WtCom= 1.00D+00 WtEn= 0.00D+00
 Coeff-Com: -0.386D-06-0.206D-06-0.270D-05 0.115D-05 0.200D-04 0.191D-03
 Coeff-Com:  0.326D-03 0.627D-03 0.142D-02-0.713D-03-0.739D-02-0.331D-01
 Coeff-Com: -0.250D-01 0.702D-01 0.343D+00 0.650D+00
 Coeff:     -0.386D-06-0.206D-06-0.270D-05 0.115D-05 0.200D-04 0.191D-03
 Coeff:      0.326D-03 0.627D-03 0.142D-02-0.713D-03-0.739D-02-0.331D-01
 Coeff:     -0.250D-01 0.702D-01 0.343D+00 0.650D+00
 Gap=     0.078 Goal=   None    Shift=    0.000
 RMSDP=6.14D-09 MaxDP=4.06D-07 DE=-2.13D-10 OVMax= 3.15D-06

 SCF Done:  E(RPBE1PBE) =  -3005.38211267     A.U. after   16 cycles
            NFock= 16  Conv=0.61D-08     -V/T= 2.0101
 KE= 2.975451943326D+03 PE=-2.596342268545D+04 EE= 1.049657797129D+04
 Leave Link  502 at Sat Apr 30 03:58:49 2022, MaxMem= 10066329600 cpu:            6168.2 elap:             258.7
 (Enter /sw/apps/gaussian-16.0/g16/l801.exe)
 DoSCS=F DFT=T ScalE2(SS,OS)=  1.000000  1.000000
 ExpMin= 3.36D-02 ExpMax= 4.95D+03 ExpMxC= 7.45D+02 IAcc=3 IRadAn=         5 AccDes= 0.00D+00
 HarFok:  IExCor=  205 AccDes= 0.00D+00 IRadAn=         5 IDoV=-2 UseB2=F ITyADJ=14
 ICtDFT= 12500011 ScaDFX=  1.000000  1.000000  1.000000  1.000000
 GSVD:  LWork=       -5460 too small for GESVD, short by       25550 words or       25550 for optimal perf.
 Largest valence mixing into a core orbital is  1.90D-04
 Largest core mixing into a valence orbital is  5.69D-05
 Range of M.O.s used for correlation:    71  1298
 NBasis=  1298 NAE=   246 NBE=   246 NFC=    70 NFV=     0
 NROrb=   1228 NOA=   176 NOB=   176 NVA=  1052 NVB=  1052

 **** Warning!!: The smallest alpha delta epsilon is  0.78461830D-01

 Leave Link  801 at Sat Apr 30 03:58:49 2022, MaxMem= 10066329600 cpu:               7.6 elap:               0.3
 (Enter /sw/apps/gaussian-16.0/g16/l914.exe)
 RHF ground state
 Two-electron integrals replicated using symmetry.
 MDV= 10066329600 DFT=T DoStab=F Mixed=T DoRPA=T DoScal=F NonHer=T
 Making orbital integer symmetry assigments:
 Orbital symmetries:
       Occupied  (A) (A) (A) (A) (A) (A) (A) (A) (A) (A) (A) (A)
                 (A) (A) (A) (A) (A) (A) (A) (A) (A) (A) (A) (A)
                 (A) (A) (A) (A) (A) (A) (A) (A) (A) (A) (A) (A)
                 (A) (A) (A) (A) (A) (A) (A) (A) (A) (A) (A) (A)
                 (A) (A) (A) (A) (A) (A) (A) (A) (A) (A) (A) (A)
                 (A) (A) (A) (A) (A) (A) (A) (A) (A) (A) (A) (A)
                 (A) (A) (A) (A) (A) (A) (A) (A) (A) (A) (A) (A)
                 (A) (A) (A) (A) (A) (A) (A) (A) (A) (A) (A) (A)
                 (A) (A) (A) (A) (A) (A) (A) (A) (A) (A) (A) (A)
                 (A) (A) (A) (A) (A) (A) (A) (A) (A) (A) (A) (A)
                 (A) (A) (A) (A) (A) (A) (A) (A) (A) (A) (A) (A)
                 (A) (A) (A) (A) (A) (A) (A) (A) (A) (A) (A) (A)
                 (A) (A) (A) (A) (A) (A) (A) (A) (A) (A) (A) (A)
                 (A) (A) (A) (A) (A) (A) (A) (A) (A) (A) (A) (A)
                 (A) (A) (A) (A) (A) (A) (A) (A) (A) (A) (A) (A)
                 (A) (A) (A) (A) (A) (A) (A) (A) (A) (A) (A) (A)
                 (A) (A) (A) (A) (A) (A) (A) (A) (A) (A) (A) (A)
                 (A) (A) (A) (A) (A) (A) (A) (A) (A) (A) (A) (A)
                 (A) (A) (A) (A) (A) (A) (A) (A) (A) (A) (A) (A)
                 (A) (A) (A) (A) (A) (A) (A) (A) (A) (A) (A) (A)
                 (A) (A) (A) (A) (A) (A)
       Virtual   (A) (A) (A) (A) (A) (A) (A) (A) (A) (A) (A) (A)
                 (A) (A) (A) (A) (A) (A) (A) (A) (A) (A) (A) (A)
                 (A) (A) (A) (A) (A) (A) (A) (A) (A) (A) (A) (A)
                 (A) (A) (A) (A) (A) (A) (A) (A) (A) (A) (A) (A)
                 (A) (A) (A) (A) (A) (A) (A) (A) (A) (A) (A) (A)
                 (A) (A) (A) (A) (A) (A) (A) (A) (A) (A) (A) (A)
                 (A) (A) (A) (A) (A) (A) (A) (A) (A) (A) (A) (A)
                 (A) (A) (A) (A) (A) (A) (A) (A) (A) (A) (A) (A)
                 (A) (A) (A) (A) (A) (A) (A) (A) (A) (A) (A) (A)
                 (A) (A) (A) (A) (A) (A) (A) (A) (A) (A) (A) (A)
                 (A) (A) (A) (A) (A) (A) (A) (A) (A) (A) (A) (A)
                 (A) (A) (A) (A) (A) (A) (A) (A) (A) (A) (A) (A)
                 (A) (A) (A) (A) (A) (A) (A) (A) (A) (A) (A) (A)
                 (A) (A) (A) (A) (A) (A) (A) (A) (A) (A) (A) (A)
                 (A) (A) (A) (A) (A) (A) (A) (A) (A) (A) (A) (A)
                 (A) (A) (A) (A) (A) (A) (A) (A) (A) (A) (A) (A)
                 (A) (A) (A) (A) (A) (A) (A) (A) (A) (A) (A) (A)
                 (A) (A) (A) (A) (A) (A) (A) (A) (A) (A) (A) (A)
                 (A) (A) (A) (A) (A) (A) (A) (A) (A) (A) (A) (A)
                 (A) (A) (A) (A) (A) (A) (A) (A) (A) (A) (A) (A)
                 (A) (A) (A) (A) (A) (A) (A) (A) (A) (A) (A) (A)
                 (A) (A) (A) (A) (A) (A) (A) (A) (A) (A) (A) (A)
                 (A) (A) (A) (A) (A) (A) (A) (A) (A) (A) (A) (A)
                 (A) (A) (A) (A) (A) (A) (A) (A) (A) (A) (A) (A)
                 (A) (A) (A) (A) (A) (A) (A) (A) (A) (A) (A) (A)
                 (A) (A) (A) (A) (A) (A) (A) (A) (A) (A) (A) (A)
                 (A) (A) (A) (A) (A) (A) (A) (A) (A) (A) (A) (A)
                 (A) (A) (A) (A) (A) (A) (A) (A) (A) (A) (A) (A)
                 (A) (A) (A) (A) (A) (A) (A) (A) (A) (A) (A) (A)
                 (A) (A) (A) (A) (A) (A) (A) (A) (A) (A) (A) (A)
                 (A) (A) (A) (A) (A) (A) (A) (A) (A) (A) (A) (A)
                 (A) (A) (A) (A) (A) (A) (A) (A) (A) (A) (A) (A)
                 (A) (A) (A) (A) (A) (A) (A) (A) (A) (A) (A) (A)
                 (A) (A) (A) (A) (A) (A) (A) (A) (A) (A) (A) (A)
                 (A) (A) (A) (A) (A) (A) (A) (A) (A) (A) (A) (A)
                 (A) (A) (A) (A) (A) (A) (A) (A) (A) (A) (A) (A)
                 (A) (A) (A) (A) (A) (A) (A) (A) (A) (A) (A) (A)
                 (A) (A) (A) (A) (A) (A) (A) (A) (A) (A) (A) (A)
                 (A) (A) (A) (A) (A) (A) (A) (A) (A) (A) (A) (A)
                 (A) (A) (A) (A) (A) (A) (A) (A) (A) (A) (A) (A)
                 (A) (A) (A) (A) (A) (A) (A) (A) (A) (A) (A) (A)
                 (A) (A) (A) (A) (A) (A) (A) (A) (A) (A) (A) (A)
                 (A) (A) (A) (A) (A) (A) (A) (A) (A) (A) (A) (A)
                 (A) (A) (A) (A) (A) (A) (A) (A) (A) (A) (A) (A)
                 (A) (A) (A) (A) (A) (A) (A) (A) (A) (A) (A) (A)
                 (A) (A) (A) (A) (A) (A) (A) (A) (A) (A) (A) (A)
                 (A) (A) (A) (A) (A) (A) (A) (A) (A) (A) (A) (A)
                 (A) (A) (A) (A) (A) (A) (A) (A) (A) (A) (A) (A)
                 (A) (A) (A) (A) (A) (A) (A) (A) (A) (A) (A) (A)
                 (A) (A) (A) (A) (A) (A) (A) (A) (A) (A) (A) (A)
                 (A) (A) (A) (A) (A) (A) (A) (A) (A) (A) (A) (A)
                 (A) (A) (A) (A) (A) (A) (A) (A) (A) (A) (A) (A)
                 (A) (A) (A) (A) (A) (A) (A) (A) (A) (A) (A) (A)
                 (A) (A) (A) (A) (A) (A) (A) (A) (A) (A) (A) (A)
                 (A) (A) (A) (A) (A) (A) (A) (A) (A) (A) (A) (A)
                 (A) (A) (A) (A) (A) (A) (A) (A) (A) (A) (A) (A)
                 (A) (A) (A) (A) (A) (A) (A) (A) (A) (A) (A) (A)
                 (A) (A) (A) (A) (A) (A) (A) (A) (A) (A) (A) (A)
                 (A) (A) (A) (A) (A) (A) (A) (A) (A) (A) (A) (A)
                 (A) (A) (A) (A) (A) (A) (A) (A) (A) (A) (A) (A)
                 (A) (A) (A) (A) (A) (A) (A) (A) (A) (A) (A) (A)
                 (A) (A) (A) (A) (A) (A) (A) (A) (A) (A) (A) (A)
                 (A) (A) (A) (A) (A) (A) (A) (A) (A) (A) (A) (A)
                 (A) (A) (A) (A) (A) (A) (A) (A) (A) (A) (A) (A)
                 (A) (A) (A) (A) (A) (A) (A) (A) (A) (A) (A) (A)
                 (A) (A) (A) (A) (A) (A) (A) (A) (A) (A) (A) (A)
                 (A) (A) (A) (A) (A) (A) (A) (A) (A) (A) (A) (A)
                 (A) (A) (A) (A) (A) (A) (A) (A) (A) (A) (A) (A)
                 (A) (A) (A) (A) (A) (A) (A) (A) (A) (A) (A) (A)
                 (A) (A) (A) (A) (A) (A) (A) (A) (A) (A) (A) (A)
                 (A) (A) (A) (A) (A) (A) (A) (A) (A) (A) (A) (A)
                 (A) (A) (A) (A) (A) (A) (A) (A) (A) (A) (A) (A)
                 (A) (A) (A) (A) (A) (A) (A) (A) (A) (A) (A) (A)
                 (A) (A) (A) (A) (A) (A) (A) (A) (A) (A) (A) (A)
                 (A) (A) (A) (A) (A) (A) (A) (A) (A) (A) (A) (A)
                 (A) (A) (A) (A) (A) (A) (A) (A) (A) (A) (A) (A)
                 (A) (A) (A) (A) (A) (A) (A) (A) (A) (A) (A) (A)
                 (A) (A) (A) (A) (A) (A) (A) (A) (A) (A) (A) (A)
                 (A) (A) (A) (A) (A) (A) (A) (A) (A) (A) (A) (A)
                 (A) (A) (A) (A) (A) (A) (A) (A) (A) (A) (A) (A)
                 (A) (A) (A) (A) (A) (A) (A) (A) (A) (A) (A) (A)
                 (A) (A) (A) (A) (A) (A) (A) (A) (A) (A) (A) (A)
                 (A) (A) (A) (A) (A) (A) (A) (A) (A) (A) (A) (A)
                 (A) (A) (A) (A) (A) (A) (A) (A) (A) (A) (A) (A)
                 (A) (A) (A) (A) (A) (A) (A) (A) (A) (A) (A) (A)
                 (A) (A) (A) (A) (A) (A) (A) (A) (A) (A) (A) (A)
                 (A) (A) (A) (A) (A) (A) (A) (A) (A) (A) (A) (A)
                 (A) (A) (A) (A) (A) (A) (A) (A)
    20 initial guesses have been made.
 Convergence on wavefunction:    0.001000000000000
 Davidson Disk Diagonalization:  ConvIn= 1.00D-03 SkipCon=T Conv= 1.00D-03.
 Max sub-space:  2000 roots to seek:    20 dimension of matrix:       370304
 Iteration     1 Dimension    20 NMult     0 NNew     20
 CISAX will form    20 AO SS matrices at one time.
 NMat=    20 NSing=    20 JSym2X= 0.
 FoFJK:  IHMeth= 1 ICntrl=       0 DoSepK=F KAlg= 0 I1Cent=           0 FoldK=F
 IRaf= 510000000 NMat=      40 IRICut=       1 DoRegI=T DoRafI=F ISym2E= 0 IDoP0=3 IntGTp=3.
 FoFCou: FMM=T IPFlag=           0 FMFlag=      100000 FMFlg1=        2001
         NFxFlg=           0 DoJE=F BraDBF=F KetDBF=F FulRan=T
         wScrn=  0.000000 ICntrl=         0 IOpCl=  0 I1Cent=           0 NGrid=           0
         NMat0=   40 NMatS0=     20 NMatT0=    0 NMatD0=   40 NMtDS0=    0 NMtDT0=    0
 Symmetry not used in FoFCou.
 FMM levels:  10  Number of levels for PrismC:   9
 New state      3 was old state      5
 New state      4 was old state      3
 New state      5 was old state      8
 Excitation Energies [eV] at current iteration:
 Root      1 :     2.252816974741040
 Root      2 :     2.561293267001987
 Root      3 :     3.154821138251275
 Root      4 :     3.193166350814955
 Root      5 :     3.273503846667234
 Root      6 :     3.629494686969787
 Root      7 :     3.656519914885540
 Root      8 :     3.766648013836990
 Root      9 :     3.829664090901337
 Root     10 :     3.981519427680560
 Root     11 :     4.066703877424069
 Root     12 :     4.174649424166654
 Root     13 :     4.199980337227521
 Root     14 :     4.477829586935566
 Root     15 :     4.557472258797457
 Root     16 :     4.600412837406185
 Root     17 :     4.708833626905482
 Root     18 :     4.873444613876224
 Root     19 :     4.895191680367694
 Root     20 :     4.939637714572823
 Iteration     2 Dimension    30 NMult    20 NNew     10
 CISAX will form    10 AO SS matrices at one time.
 NMat=    10 NSing=    10 JSym2X= 0.
 Root      1 not converged, maximum delta is    0.054838817671968
 Root      2 not converged, maximum delta is    0.060323371138371
 New state      3 was old state      4
 Root      3 not converged, maximum delta is    0.107485849433461
 New state      4 was old state      3
 Root      4 not converged, maximum delta is    0.123167017137883
 Root      5 not converged, maximum delta is    0.142703894809528
 Excitation Energies [eV] at current iteration:
 Root      1 :     1.933595874885923   Change is   -0.319221099855117
 Root      2 :     2.267563859266365   Change is   -0.293729407735622
 Root      3 :     2.964985510881061   Change is   -0.228180839933894
 Root      4 :     3.044810073485515   Change is   -0.110011064765759
 Root      5 :     3.130869883695690   Change is   -0.142633962971544
 Iteration     3 Dimension    40 NMult    30 NNew     10
 CISAX will form    10 AO SS matrices at one time.
 NMat=    10 NSing=    10 JSym2X= 0.
 Root      1 not converged, maximum delta is    0.022191004998922
 Root      2 not converged, maximum delta is    0.015960394505248
 Root      3 not converged, maximum delta is    0.008788488253644
 Root      4 not converged, maximum delta is    0.029753873132945
 Root      5 not converged, maximum delta is    0.029723038443908
 Excitation Energies [eV] at current iteration:
 Root      1 :     1.906813976436772   Change is   -0.026781898449151
 Root      2 :     2.248079434345441   Change is   -0.019484424920924
 Root      3 :     2.953289083894041   Change is   -0.011696426987019
 Root      4 :     3.031614063421372   Change is   -0.013196010064144
 Root      5 :     3.111439273927275   Change is   -0.019430609768414
 Iteration     4 Dimension    50 NMult    40 NNew     10
 CISAX will form    10 AO SS matrices at one time.
 NMat=    10 NSing=    10 JSym2X= 0.
 Root      1 not converged, maximum delta is    0.002894527236530
 Root      2 not converged, maximum delta is    0.007104578362437
 Root      3 not converged, maximum delta is    0.005684496137770
 Root      4 not converged, maximum delta is    0.007484769066386
 Root      5 not converged, maximum delta is    0.005337296900028
 Excitation Energies [eV] at current iteration:
 Root      1 :     1.904084640360667   Change is   -0.002729336076106
 Root      2 :     2.244829293124043   Change is   -0.003250141221398
 Root      3 :     2.951594672456353   Change is   -0.001694411437688
 Root      4 :     3.030302946697008   Change is   -0.001311116724364
 Root      5 :     3.109701866722287   Change is   -0.001737407204989
 Iteration     5 Dimension    60 NMult    50 NNew     10
 CISAX will form    10 AO SS matrices at one time.
 NMat=    10 NSing=    10 JSym2X= 0.
 Root      1 has converged.
 Root      2 has converged.
 Root      3 has converged.
 Root      4 has converged.
 Root      5 not converged, maximum delta is    0.001340062614128
 Excitation Energies [eV] at current iteration:
 Root      1 :     1.903767200089816   Change is   -0.000317440270851
 Root      2 :     2.244564807714292   Change is   -0.000264485409751
 Root      3 :     2.951385272783164   Change is   -0.000209399673189
 Root      4 :     3.030124646485786   Change is   -0.000178300211223
 Root      5 :     3.109523823481380   Change is   -0.000178043240907
 Iteration     6 Dimension    62 NMult    60 NNew      2
 CISAX will form     2 AO SS matrices at one time.
 NMat=     2 NSing=     2 JSym2X= 0.
 Root      1 has converged.
 Root      2 has converged.
 Root      3 has converged.
 Root      4 has converged.
 Root      5 has converged.
 Excitation Energies [eV] at current iteration:
 Root      1 :     1.903765127476367   Change is   -0.000002072613449
 Root      2 :     2.244564408704597   Change is   -0.000000399009695
 Root      3 :     2.951384871214743   Change is   -0.000000401568421
 Root      4 :     3.030124427872375   Change is   -0.000000218613411
 Root      5 :     3.109504420389603   Change is   -0.000019403091777
 Convergence achieved on expansion vectors.
 ***********************************************************************
 Excited states from <AA,BB:AA,BB> singles matrix:
 ***********************************************************************
 
 1PDM for each excited state written to RWF  633
 Ground to excited state transition densities written to RWF  633
 Ground to excited state transition electric dipole moments (Au):
       state          X           Y           Z        Dip. S.      Osc.
         1         1.4308      2.3873     -0.1532      7.7698      0.3624
         2         1.2269     -0.8977     -0.0440      2.3131      0.1272
         3        -0.2064      0.2729      0.0075      0.1171      0.0085
         4         0.0353     -0.1036      0.0305      0.0129      0.0010
         5        -0.0621      0.0946     -0.0078      0.0129      0.0010
 Ground to excited state transition velocity dipole moments (Au):
       state          X           Y           Z        Dip. S.      Osc.
         1        -0.0972     -0.1625      0.0094      0.0359      0.3425
         2        -0.0963      0.0699      0.0037      0.0142      0.1146
         3         0.0233     -0.0289     -0.0006      0.0014      0.0085
         4        -0.0045      0.0115     -0.0015      0.0002      0.0009
         5         0.0054     -0.0102     -0.0008      0.0001      0.0008
 Ground to excited state transition magnetic dipole moments (Au):
       state          X           Y           Z
         1        -0.0234      0.0996      2.0558
         2         0.1264      0.0806      0.1364
         3         0.0352      0.0235      0.8753
         4         0.1602      0.4302     -0.1814
         5         0.4542     -0.2861      0.2324
 Ground to excited state transition velocity quadrupole moments (Au):
       state          XX          YY          ZZ          XY          XZ          YZ
         1         2.0172     -0.6626      0.0066      1.4162     -0.0526     -0.0008
         2         1.8059      0.1553     -0.0045     -0.7975     -0.0106      0.0490
         3        -0.5691      0.1267     -0.0023      0.0818      0.0442     -0.0359
         4         0.1566     -0.0812      0.0009     -0.0627     -0.0044      0.0042
         5        -0.0703     -0.0279     -0.0040      0.1607      0.0084      0.0140
 <0|del|b> * <b|rxdel|0> + <0|del|b> * <b|delr+rdel|0>
 Rotatory Strengths (R) in cgs (10**-40 erg-esu-cm/Gauss)
       state          XX          YY          ZZ    R(velocity)    E-M Angle
         1        40.0331     42.2772    -27.4616     18.2829       89.20
         2        16.8648    -57.6140    -11.0002    -17.2498      104.49
         3         0.1943     -1.4999     -0.9766     -0.7607       90.62
         4        17.0041     -1.8011     13.2744      9.4925       43.05
         5         8.3119      7.7031     16.2204     10.7451       40.05
 1/2[<0|r|b>*<b|rxdel|0> + (<0|rxdel|b>*<b|r|0>)*]
 Rotatory Strengths (R) in cgs (10**-40 erg-esu-cm/Gauss)
       state          XX          YY          ZZ     R(length)
         1        23.7019   -168.1211    222.7489     26.1099
         2      -109.6380     51.1437      4.2414    -18.0843
         3         5.1416     -4.5354     -4.6478     -1.3472
         4        -3.9993     31.5271      3.9065     10.4781
         5        19.9426     19.1450      1.2811     13.4563
  1/2[<0|del|b>*<b|r|0> + (<0|r|b>*<b|del|0>)*] (Au)
       state          X           Y           Z        Dip. S.   Osc.(frdel)
         1        -0.1391     -0.3879     -0.0014      0.5285      0.3523
         2        -0.1182     -0.0628     -0.0002      0.1811      0.1207
         3        -0.0048     -0.0079     -0.0000      0.0127      0.0085
         4        -0.0002     -0.0012     -0.0000      0.0014      0.0009
         5        -0.0003     -0.0010      0.0000      0.0013      0.0009

 Excitation energies and oscillator strengths:
 
 Excited State   1:      Singlet-A      1.9038 eV  651.26 nm  f=0.3624  <S**2>=0.000
     245 -> 248       -0.16596
     246 -> 247        0.69106
 This state for optimization and/or second-order correction.
 Total Energy, E(TD-HF/TD-DFT) =  -3005.31215059    
 Copying the excited state density for this state as the 1-particle RhoCI density.
 
 Excited State   2:      Singlet-A      2.2446 eV  552.38 nm  f=0.1272  <S**2>=0.000
     245 -> 247        0.66063
     246 -> 248        0.22834
 
 Excited State   3:      Singlet-A      2.9514 eV  420.09 nm  f=0.0085  <S**2>=0.000
     244 -> 247        0.69537
 
 Excited State   4:      Singlet-A      3.0301 eV  409.17 nm  f=0.0010  <S**2>=0.000
     243 -> 247        0.67182
     243 -> 249       -0.13797
     243 -> 250        0.12948
 
 Excited State   5:      Singlet-A      3.1095 eV  398.73 nm  f=0.0010  <S**2>=0.000
     240 -> 247        0.19113
     241 -> 247        0.62785
     241 -> 248       -0.13160
     241 -> 249        0.16234
 SavETr:  write IOETrn=   770 NScale= 10 NData=  16 NLR=1 NState=    5 LETran=     100.
 Leave Link  914 at Sat Apr 30 04:09:25 2022, MaxMem= 10066329600 cpu:           15209.8 elap:             635.4
 (Enter /sw/apps/gaussian-16.0/g16/l601.exe)
 Copying SCF densities to generalized density rwf, IOpCl= 0 IROHF=0.
 Hyperfine terms turned off by default for NAtoms > 100.

 **********************************************************************

            Population analysis using the SCF density.

 **********************************************************************

 Orbital symmetries:
       Occupied  (A) (A) (A) (A) (A) (A) (A) (A) (A) (A) (A) (A)
                 (A) (A) (A) (A) (A) (A) (A) (A) (A) (A) (A) (A)
                 (A) (A) (A) (A) (A) (A) (A) (A) (A) (A) (A) (A)
                 (A) (A) (A) (A) (A) (A) (A) (A) (A) (A) (A) (A)
                 (A) (A) (A) (A) (A) (A) (A) (A) (A) (A) (A) (A)
                 (A) (A) (A) (A) (A) (A) (A) (A) (A) (A) (A) (A)
                 (A) (A) (A) (A) (A) (A) (A) (A) (A) (A) (A) (A)
                 (A) (A) (A) (A) (A) (A) (A) (A) (A) (A) (A) (A)
                 (A) (A) (A) (A) (A) (A) (A) (A) (A) (A) (A) (A)
                 (A) (A) (A) (A) (A) (A) (A) (A) (A) (A) (A) (A)
                 (A) (A) (A) (A) (A) (A) (A) (A) (A) (A) (A) (A)
                 (A) (A) (A) (A) (A) (A) (A) (A) (A) (A) (A) (A)
                 (A) (A) (A) (A) (A) (A) (A) (A) (A) (A) (A) (A)
                 (A) (A) (A) (A) (A) (A) (A) (A) (A) (A) (A) (A)
                 (A) (A) (A) (A) (A) (A) (A) (A) (A) (A) (A) (A)
                 (A) (A) (A) (A) (A) (A) (A) (A) (A) (A) (A) (A)
                 (A) (A) (A) (A) (A) (A) (A) (A) (A) (A) (A) (A)
                 (A) (A) (A) (A) (A) (A) (A) (A) (A) (A) (A) (A)
                 (A) (A) (A) (A) (A) (A) (A) (A) (A) (A) (A) (A)
                 (A) (A) (A) (A) (A) (A) (A) (A) (A) (A) (A) (A)
                 (A) (A) (A) (A) (A) (A)
       Virtual   (A) (A) (A) (A) (A) (A) (A) (A) (A) (A) (A) (A)
                 (A) (A) (A) (A) (A) (A) (A) (A) (A) (A) (A) (A)
                 (A) (A) (A) (A) (A) (A) (A) (A) (A) (A) (A) (A)
                 (A) (A) (A) (A) (A) (A) (A) (A) (A) (A) (A) (A)
                 (A) (A) (A) (A) (A) (A) (A) (A) (A) (A) (A) (A)
                 (A) (A) (A) (A) (A) (A) (A) (A) (A) (A) (A) (A)
                 (A) (A) (A) (A) (A) (A) (A) (A) (A) (A) (A) (A)
                 (A) (A) (A) (A) (A) (A) (A) (A) (A) (A) (A) (A)
                 (A) (A) (A) (A) (A) (A) (A) (A) (A) (A) (A) (A)
                 (A) (A) (A) (A) (A) (A) (A) (A) (A) (A) (A) (A)
                 (A) (A) (A) (A) (A) (A) (A) (A) (A) (A) (A) (A)
                 (A) (A) (A) (A) (A) (A) (A) (A) (A) (A) (A) (A)
                 (A) (A) (A) (A) (A) (A) (A) (A) (A) (A) (A) (A)
                 (A) (A) (A) (A) (A) (A) (A) (A) (A) (A) (A) (A)
                 (A) (A) (A) (A) (A) (A) (A) (A) (A) (A) (A) (A)
                 (A) (A) (A) (A) (A) (A) (A) (A) (A) (A) (A) (A)
                 (A) (A) (A) (A) (A) (A) (A) (A) (A) (A) (A) (A)
                 (A) (A) (A) (A) (A) (A) (A) (A) (A) (A) (A) (A)
                 (A) (A) (A) (A) (A) (A) (A) (A) (A) (A) (A) (A)
                 (A) (A) (A) (A) (A) (A) (A) (A) (A) (A) (A) (A)
                 (A) (A) (A) (A) (A) (A) (A) (A) (A) (A) (A) (A)
                 (A) (A) (A) (A) (A) (A) (A) (A) (A) (A) (A) (A)
                 (A) (A) (A) (A) (A) (A) (A) (A) (A) (A) (A) (A)
                 (A) (A) (A) (A) (A) (A) (A) (A) (A) (A) (A) (A)
                 (A) (A) (A) (A) (A) (A) (A) (A) (A) (A) (A) (A)
                 (A) (A) (A) (A) (A) (A) (A) (A) (A) (A) (A) (A)
                 (A) (A) (A) (A) (A) (A) (A) (A) (A) (A) (A) (A)
                 (A) (A) (A) (A) (A) (A) (A) (A) (A) (A) (A) (A)
                 (A) (A) (A) (A) (A) (A) (A) (A) (A) (A) (A) (A)
                 (A) (A) (A) (A) (A) (A) (A) (A) (A) (A) (A) (A)
                 (A) (A) (A) (A) (A) (A) (A) (A) (A) (A) (A) (A)
                 (A) (A) (A) (A) (A) (A) (A) (A) (A) (A) (A) (A)
                 (A) (A) (A) (A) (A) (A) (A) (A) (A) (A) (A) (A)
                 (A) (A) (A) (A) (A) (A) (A) (A) (A) (A) (A) (A)
                 (A) (A) (A) (A) (A) (A) (A) (A) (A) (A) (A) (A)
                 (A) (A) (A) (A) (A) (A) (A) (A) (A) (A) (A) (A)
                 (A) (A) (A) (A) (A) (A) (A) (A) (A) (A) (A) (A)
                 (A) (A) (A) (A) (A) (A) (A) (A) (A) (A) (A) (A)
                 (A) (A) (A) (A) (A) (A) (A) (A) (A) (A) (A) (A)
                 (A) (A) (A) (A) (A) (A) (A) (A) (A) (A) (A) (A)
                 (A) (A) (A) (A) (A) (A) (A) (A) (A) (A) (A) (A)
                 (A) (A) (A) (A) (A) (A) (A) (A) (A) (A) (A) (A)
                 (A) (A) (A) (A) (A) (A) (A) (A) (A) (A) (A) (A)
                 (A) (A) (A) (A) (A) (A) (A) (A) (A) (A) (A) (A)
                 (A) (A) (A) (A) (A) (A) (A) (A) (A) (A) (A) (A)
                 (A) (A) (A) (A) (A) (A) (A) (A) (A) (A) (A) (A)
[...]
 Alpha virt. eigenvalues --    1.15682   1.16114   1.16568   1.16999   1.17746
 Alpha virt. eigenvalues --    1.18266   1.18462   1.18651   1.19646   1.19922
 Alpha virt. eigenvalues --    1.20075   1.20292   1.20490   1.21066   1.21615
 Alpha virt. eigenvalues --    1.22128   1.22328   1.23249   1.23727   1.24684
 Alpha virt. eigenvalues --    1.25095   1.25370   1.25864   1.26459   1.26588
 Alpha virt. eigenvalues --    1.26867   1.27088   1.27696   1.27887   1.28287
 Alpha virt. eigenvalues --    1.28954   1.29708   1.30001   1.30252   1.30427
 Alpha virt. eigenvalues --    1.30808   1.30889   1.31190   1.31681   1.31832
 Alpha virt. eigenvalues --    1.32163   1.33066   1.33444   1.33990   1.34356
 Alpha virt. eigenvalues --    1.34701   1.35801   1.36239   1.36347   1.37327
 Alpha virt. eigenvalues --    1.37370   1.37604   1.38257   1.38371   1.38822
 Alpha virt. eigenvalues --    1.39175   1.39421   1.39772   1.40160   1.40465
 Alpha virt. eigenvalues --    1.40757   1.40791   1.41400   1.41565   1.41715
 Alpha virt. eigenvalues --    1.42761   1.43349   1.43473   1.43741   1.44626
 Alpha virt. eigenvalues --    1.45076   1.45304   1.45553   1.45753   1.46750
 Alpha virt. eigenvalues --    1.46910   1.47340   1.47846   1.48363   1.49219
 Alpha virt. eigenvalues --    1.49468   1.50014   1.50199   1.50403   1.50579
 Alpha virt. eigenvalues --    1.50879   1.51130   1.51172   1.51427   1.51915
 Alpha virt. eigenvalues --    1.52459   1.52675   1.52879   1.53377   1.53453
 Alpha virt. eigenvalues --    1.53569   1.53703   1.54015   1.54117   1.54189
 Alpha virt. eigenvalues --    1.54564   1.54703   1.54916   1.55259   1.55727
 Alpha virt. eigenvalues --    1.55799   1.56104   1.56507   1.56861   1.57233
 Alpha virt. eigenvalues --    1.57826   1.57889   1.58551   1.59148   1.59422
 Alpha virt. eigenvalues --    1.59782   1.60311   1.60698   1.60746   1.61148
 Alpha virt. eigenvalues --    1.61509   1.61854   1.62397   1.63257   1.63570
 Alpha virt. eigenvalues --    1.63800   1.64640   1.65363   1.65875   1.66146
 Alpha virt. eigenvalues --    1.66588   1.66873   1.67331   1.67667   1.67759
 Alpha virt. eigenvalues --    1.68394   1.68640   1.69075   1.69518   1.69824
 Alpha virt. eigenvalues --    1.70560   1.70708   1.71155   1.71460   1.71734
 Alpha virt. eigenvalues --    1.71786   1.72348   1.72642   1.72849   1.73046
 Alpha virt. eigenvalues --    1.73273   1.74079   1.74336   1.74345   1.74693
 Alpha virt. eigenvalues --    1.74814   1.75143   1.75288   1.75341   1.75641
 Alpha virt. eigenvalues --    1.75883   1.76285   1.76624   1.76649   1.76713
 Alpha virt. eigenvalues --    1.76821   1.77021   1.77145   1.77296   1.77474
 Alpha virt. eigenvalues --    1.77740   1.77906   1.78363   1.78425   1.78617
 Alpha virt. eigenvalues --    1.78875   1.79146   1.79186   1.79322   1.79419
 Alpha virt. eigenvalues --    1.79556   1.79610   1.79832   1.80057   1.80236
 Alpha virt. eigenvalues --    1.80658   1.80717   1.80756   1.81282   1.81476
 Alpha virt. eigenvalues --    1.81808   1.81853   1.82280   1.82714   1.82913
 Alpha virt. eigenvalues --    1.82965   1.83153   1.83286   1.83464   1.83690
 Alpha virt. eigenvalues --    1.84012   1.84310   1.84340   1.84499   1.84679
 Alpha virt. eigenvalues --    1.84783   1.84958   1.85319   1.85547   1.85768
 Alpha virt. eigenvalues --    1.85890   1.85925   1.86526   1.86849   1.86978
 Alpha virt. eigenvalues --    1.87386   1.87447   1.87714   1.88063   1.88220
 Alpha virt. eigenvalues --    1.88474   1.88692   1.88801   1.89360   1.89586
 Alpha virt. eigenvalues --    1.89668   1.89729   1.89838   1.90404   1.90602
 Alpha virt. eigenvalues --    1.90948   1.91223   1.91473   1.91654   1.91738
 Alpha virt. eigenvalues --    1.91883   1.92379   1.92715   1.93285   1.93561
 Alpha virt. eigenvalues --    1.93938   1.94024   1.94326   1.94632   1.95013
 Alpha virt. eigenvalues --    1.95166   1.95688   1.95768   1.96133   1.96248
 Alpha virt. eigenvalues --    1.96564   1.96749   1.96910   1.96935   1.97164
 Alpha virt. eigenvalues --    1.97496   1.97708   1.98133   1.98250   1.98991
 Alpha virt. eigenvalues --    1.99274   1.99635   1.99678   2.00044   2.00267
 Alpha virt. eigenvalues --    2.00457   2.00666   2.00943   2.01245   2.01599
 Alpha virt. eigenvalues --    2.01824   2.02108   2.02402   2.02531   2.02690
 Alpha virt. eigenvalues --    2.02927   2.03199   2.03771   2.03908   2.04449
 Alpha virt. eigenvalues --    2.04588   2.04851   2.04965   2.06044   2.06192
 Alpha virt. eigenvalues --    2.06325   2.06608   2.06751   2.06926   2.07495
 Alpha virt. eigenvalues --    2.07673   2.08234   2.08345   2.08736   2.08874
 Alpha virt. eigenvalues --    2.09292   2.09618   2.09677   2.10095   2.10526
 Alpha virt. eigenvalues --    2.10614   2.10736   2.11056   2.11198   2.11467
 Alpha virt. eigenvalues --    2.12150   2.12618   2.12927   2.13023   2.13125
 Alpha virt. eigenvalues --    2.13411   2.14162   2.14241   2.14730   2.14931
 Alpha virt. eigenvalues --    2.15563   2.15888   2.15967   2.16321   2.16577
 Alpha virt. eigenvalues --    2.16885   2.17361   2.17432   2.18031   2.18434
 Alpha virt. eigenvalues --    2.18896   2.19438   2.19860   2.19892   2.20857
 Alpha virt. eigenvalues --    2.21396   2.21726   2.22354   2.22810   2.23376
 Alpha virt. eigenvalues --    2.24062   2.24278   2.24341   2.24714   2.25758
 Alpha virt. eigenvalues --    2.25980   2.26140   2.27058   2.27160   2.27634
 Alpha virt. eigenvalues --    2.27922   2.28131   2.28385   2.29106   2.29387
 Alpha virt. eigenvalues --    2.29642   2.29838   2.30271   2.30426   2.31284
 Alpha virt. eigenvalues --    2.31386   2.31600   2.32006   2.32320   2.32688
 Alpha virt. eigenvalues --    2.32727   2.33064   2.34018   2.34490   2.34627
 Alpha virt. eigenvalues --    2.35083   2.35306   2.35642   2.36176   2.36632
 Alpha virt. eigenvalues --    2.36912   2.37192   2.37377   2.38361   2.38616
 Alpha virt. eigenvalues --    2.38722   2.39142   2.39307   2.39559   2.39809
 Alpha virt. eigenvalues --    2.40335   2.40615   2.40710   2.41178   2.41603
 Alpha virt. eigenvalues --    2.41882   2.42477   2.43098   2.43348   2.43640
 Alpha virt. eigenvalues --    2.44091   2.44480   2.45040   2.45112   2.45317
 Alpha virt. eigenvalues --    2.45749   2.46090   2.46606   2.47307   2.47341
 Alpha virt. eigenvalues --    2.47944   2.48628   2.48967   2.49199   2.50218
 Alpha virt. eigenvalues --    2.50316   2.50656   2.50758   2.50883   2.51552
 Alpha virt. eigenvalues --    2.52058   2.52300   2.52706   2.53582   2.54556
 Alpha virt. eigenvalues --    2.55520   2.55636   2.55881   2.56363   2.56377
 Alpha virt. eigenvalues --    2.56702   2.57254   2.57316   2.57807   2.58588
 Alpha virt. eigenvalues --    2.58859   2.59044   2.59624   2.60055   2.60435
 Alpha virt. eigenvalues --    2.60675   2.61158   2.61666   2.61766   2.62484
 Alpha virt. eigenvalues --    2.63095   2.63380   2.63446   2.63914   2.64290
 Alpha virt. eigenvalues --    2.65288   2.65325   2.65636   2.66007   2.66848
 Alpha virt. eigenvalues --    2.67143   2.67751   2.68492   2.68815   2.69317
 Alpha virt. eigenvalues --    2.69583   2.70029   2.70374   2.70643   2.71021
 Alpha virt. eigenvalues --    2.71416   2.71543   2.71710   2.71896   2.72601
 Alpha virt. eigenvalues --    2.73412   2.73605   2.74012   2.74128   2.74209
 Alpha virt. eigenvalues --    2.74973   2.75107   2.75311   2.76068   2.76136
 Alpha virt. eigenvalues --    2.76495   2.76798   2.77094   2.77304   2.77933
 Alpha virt. eigenvalues --    2.78036   2.78713   2.79363   2.79736   2.79836
 Alpha virt. eigenvalues --    2.80852   2.82078   2.82676   2.82895   2.83809
 Alpha virt. eigenvalues --    2.84462   2.84978   2.85064   2.85122   2.85992
 Alpha virt. eigenvalues --    2.86334   2.88123   2.88156   2.89573   2.89709
 Alpha virt. eigenvalues --    2.89904   2.90010   2.90662   2.90802   2.91258
 Alpha virt. eigenvalues --    2.91617   2.91885   2.92128   2.92413   2.92677
 Alpha virt. eigenvalues --    2.92929   2.93533   2.94135   2.94178   2.94410
 Alpha virt. eigenvalues --    2.94552   2.94844   2.94963   2.95439   2.95866
 Alpha virt. eigenvalues --    2.96185   2.96373   2.96418   2.96433   2.96695
 Alpha virt. eigenvalues --    2.97432   2.97875   2.98109   2.98244   2.98698
 Alpha virt. eigenvalues --    2.98914   2.99273   2.99404   2.99654   2.99808
 Alpha virt. eigenvalues --    3.00123   3.00556   3.00754   3.01267   3.01357
 Alpha virt. eigenvalues --    3.01783   3.02491   3.02933   3.03049   3.03149
 Alpha virt. eigenvalues --    3.03842   3.04085   3.04452   3.04466   3.05446
 Alpha virt. eigenvalues --    3.05697   3.05952   3.06848   3.07361   3.07390
 Alpha virt. eigenvalues --    3.07863   3.09009   3.09249   3.09854   3.09958
 Alpha virt. eigenvalues --    3.10015   3.10125   3.10987   3.11189   3.11566
 Alpha virt. eigenvalues --    3.11830   3.14084   3.15026   3.15377   3.15747
 Alpha virt. eigenvalues --    3.15946   3.16248   3.16379   3.16982   3.19941
 Alpha virt. eigenvalues --    3.20695   3.21779   3.22873   3.23249   3.24787
 Alpha virt. eigenvalues --    3.25350   3.29075   3.38435   3.40232   3.42294
 Alpha virt. eigenvalues --    3.43154   3.44602   3.48381   3.50168   3.54273
 Alpha virt. eigenvalues --    3.55679   3.60297   3.65514   3.65651   3.65820
 Alpha virt. eigenvalues --    3.66394   3.70890
          Condensed to atoms (all electrons):
 Mulliken charges:
               1
     1  Mg   0.992597
     2  C    0.008330
     3  C   -0.090247
     4  C   -0.039822
     5  C   -0.053940
     6  N   -0.386457
     7  C    0.067611
     8  C   -0.124714
     9  C   -0.120383
    10  C    0.106061
    11  C   -0.006601
    12  C    0.016227
    13  C   -0.041852
    14  C    0.211137
    15  O   -0.249182
    16  O   -0.389524
    17  N   -0.531589
    18  C    0.192948
    19  C   -0.197362
    20  C   -0.049662
    21  C    0.169424
    22  C    0.039618
    23  C    0.072395
    24  O   -0.226565
    25  C   -0.023718
    26  N   -0.338902
    27  C   -0.006164
    28  C   -0.143205
    29  C   -0.120897
    30  C    0.136086
    31  C    0.043616
    32  C   -0.045787
    33  C   -0.032542
    34  N   -0.449904
    35  C    0.089295
    36  C   -0.213984
    37  C   -0.017513
    38  C    0.115773
    39  C    0.072579
    40  C    0.123496
    41  O   -0.240426
    42  C   -0.101293
    43  C    0.250674
    44  O   -0.238055
    45  O   -0.330111
    46  C    0.121849
    47  C    0.269729
    48  C   -0.163237
    49  C   -0.191465
    50  C    0.033812
    51  C   -0.005924
    52  C   -0.101963
    53  C    0.032654
    54  C   -0.185951
    55  C   -0.016486
    56  C   -0.005396
    57  C   -0.053476
    58  C   -0.029615
    59  C   -0.214971
    60  C    0.004539
    61  C   -0.014736
    62  C   -0.044864
    63  C    0.017351
    64  C   -0.273200
    65  C   -0.043957
    66  C    0.017570
    67  H   -0.006601
    68  H    0.024138
    69  H    0.003684
    70  H    0.081851
    71  H    0.045657
    72  H    0.037540
    73  H    0.041519
    74  H    0.058990
    75  H    0.053842
    76  H    0.048223
    77  H    0.071200
    78  H    0.066167
    79  H    0.028471
    80  H    0.075226
    81  H    0.075721
    82  H    0.029425
    83  H    0.054659
    84  H    0.070043
    85  H    0.045337
    86  H    0.032416
    87  H    0.048295
    88  H    0.046340
    89  H    0.045554
    90  H    0.034470
    91  H    0.038822
    92  H    0.030878
    93  H    0.050745
    94  H    0.033940
    95  H    0.065972
    96  H    0.030118
    97  H    0.064176
    98  H    0.083095
    99  H    0.059835
   100  H    0.066623
   101  H    0.060405
   102  H    0.050303
   103  H    0.046942
   104  H    0.016106
   105  H    0.055864
   106  H    0.049883
   107  H    0.034670
   108  H    0.033107
   109  H    0.046356
   110  H    0.029049
   111  H    0.049185
   112  H    0.022055
   113  H    0.019623
   114  H    0.046347
   115  H    0.016834
   116  H    0.039437
   117  H    0.032704
   118  H    0.025507
   119  H    0.020397
   120  H    0.023784
   121  H    0.026192
   122  H    0.022534
   123  H    0.020773
   124  H    0.031446
   125  H    0.034763
   126  H    0.029493
   127  H    0.032622
   128  H    0.034784
   129  H    0.028477
   130  H    0.031337
   131  H    0.026676
   132  H    0.021729
   133  H    0.018809
   134  H    0.026000
   135  H    0.028677
   136  H    0.042700
   137  H    0.039986
   138  H    0.039421
   139  H    0.023057
   140  H    0.035869
 Sum of Mulliken charges =  -0.00000
 Mulliken charges with hydrogens summed into heavy atoms:
               1
     1  Mg   0.992597
     2  C    0.008330
     3  C   -0.096847
     4  C   -0.015684
     5  C   -0.050256
     6  N   -0.386457
     7  C    0.067611
     8  C   -0.042863
     9  C   -0.074726
    10  C    0.106061
    11  C    0.131448
    12  C    0.118292
    13  C    0.095514
    14  C    0.211137
    15  O   -0.249182
    16  O   -0.389524
    17  N   -0.531589
    18  C    0.192948
    19  C   -0.197362
    20  C   -0.049662
    21  C    0.169424
    22  C    0.219035
    23  C    0.072395
    24  O   -0.226565
    25  C    0.130408
    26  N   -0.338902
    27  C   -0.006164
    28  C   -0.097868
    29  C   -0.088482
    30  C    0.136086
    31  C    0.183805
    32  C    0.027505
    33  C    0.083020
    34  N   -0.449904
    35  C    0.089295
    36  C   -0.213984
    37  C   -0.017513
    38  C    0.115773
    39  C    0.232846
    40  C    0.123496
    41  O   -0.240426
    42  C   -0.018198
    43  C    0.250674
    44  O   -0.238055
    45  O   -0.330111
    46  C    0.308713
    47  C    0.366974
    48  C   -0.147131
    49  C   -0.191465
    50  C    0.174228
    51  C    0.073539
    52  C   -0.023728
    53  C    0.074333
    54  C   -0.139604
    55  C    0.072489
    56  C    0.040508
    57  C   -0.003501
    58  C    0.013692
    59  C   -0.183524
    60  C    0.101418
    61  C    0.048526
    62  C    0.013149
    63  C    0.057889
    64  C   -0.247200
    65  C    0.067406
    66  C    0.115918
 Electronic spatial extent (au):  <R**2>=         128646.9671
 Charge=              0.0000 electrons
 Dipole moment (field-independent basis, Debye):
    X=              5.0750    Y=              3.2836    Z=             -3.1938  Tot=              6.8365
 Quadrupole moment (field-independent basis, Debye-Ang):
   XX=           -381.9335   YY=           -420.4453   ZZ=           -404.5032
   XY=            -27.3880   XZ=              1.1641   YZ=              5.8161
 Traceless Quadrupole moment (field-independent basis, Debye-Ang):
   XX=             20.3605   YY=            -18.1513   ZZ=             -2.2092
   XY=            -27.3880   XZ=              1.1641   YZ=              5.8161
 Octapole moment (field-independent basis, Debye-Ang**2):
  XXX=           -254.7817  YYY=            -70.0250  ZZZ=             -2.3152  XYY=            252.1414
  XXY=            106.7732  XXZ=            -22.8369  XZZ=             15.6034  YZZ=            -16.3019
  YYZ=            -43.7400  XYZ=            -42.6013
 Hexadecapole moment (field-independent basis, Debye-Ang**3):
 XXXX=        -139345.0806 YYYY=         -30223.9212 ZZZZ=          -2882.3703 XXXY=          -2170.0784
 XXXZ=           -555.3940 YYYX=           -372.4747 YYYZ=           -309.4868 ZZZX=             -7.1998
 ZZZY=            -73.4257 XXYY=         -31055.5919 XXZZ=         -24517.0967 YYZZ=          -5325.6677
 XXYZ=           -138.3922 YYXZ=           -183.2209 ZZXY=             -8.8632
 N-N= 9.486010658170D+03 E-N=-2.596342264391D+04  KE= 2.975451943326D+03
 Leave Link  601 at Sat Apr 30 04:09:25 2022, MaxMem= 10066329600 cpu:               9.7 elap:               0.5
 (Enter /sw/apps/gaussian-16.0/g16/l9999.exe)
 1\1\GINC-BP1-COMPUTE139\SP\RPBE1PBE TD-FC\def2SVP\C55H74Mg1N4O6\OF1564
 1\30-Apr-2022\0\\#p PBE1PBE/Def2SVP td=(nstates=5)\\step_551_chromopho
 re_6 TDDFT with PBE1PBE functional\\0,1\Mg,0,16.863,-2.81,27.557\C,0,1
 6.01,-0.635,30.209\C,0,18.662,-4.66,29.682\C,0,17.992,-4.416,24.93\C,0
 ,14.804,-0.774,25.414\N,0,17.322,-2.577,29.642\C,0,16.863,-1.67,30.522
 \C,0,17.389,-1.936,31.938\C,0,18.284,-3.147,31.71\C,0,18.128,-3.472,30
 .241\C,0,19.716,-2.941,32.114\C,0,16.275,-2.252,33.084\C,0,16.426,-1.3
 7,34.356\C,0,17.853,-1.241,34.932\O,0,18.525,-0.241,35.071\O,0,18.26,-
 2.492,35.415\N,0,18.107,-4.324,27.355\C,0,18.711,-4.981,28.343\C,0,19.
 545,-6.041,27.762\C,0,19.321,-6.078,26.381\C,0,18.437,-4.955,26.175\C,
 0,20.447,-6.986,28.593\C,0,19.834,-6.917,25.216\O,0,19.558,-6.766,24.0
 37\C,0,20.763,-8.08,25.495\N,0,16.343,-2.717,25.397\C,0,17.026,-3.444,
 24.556\C,0,16.763,-2.934,23.077\C,0,15.45,-2.041,23.331\C,0,15.488,-1.
 82,24.797\C,0,17.959,-2.204,22.483\C,0,14.23,-2.903,22.895\C,0,12.884,
 -2.207,22.955\N,0,15.6,-1.073,27.698\C,0,14.859,-0.389,26.782\C,0,14.2
 57,0.751,27.422\C,0,14.642,0.669,28.786\C,0,15.407,-0.449,28.901\C,0,1
 3.365,1.822,26.783\C,0,14.538,1.299,30.088\O,0,13.962,2.356,30.409\C,0
 ,15.339,0.415,31.063\C,0,16.297,1.264,31.916\O,0,17.445,1.488,31.609\O
 ,0,15.707,1.671,33.041\C,0,16.519,2.571,33.821\C,0,19.618,-2.541,36.01
 3\C,0,19.784,-3.71,36.957\C,0,19.951,-3.705,38.303\C,0,19.951,-2.47,39
 .218\C,0,19.917,-5.048,39.018\C,0,21.058,-5.331,40.016\C,0,21.383,-6.8
 6,40.18\C,0,22.699,-7.236,39.603\C,0,22.411,-8.138,38.375\C,0,23.72,-8
 .06,40.557\C,0,25.075,-7.273,40.827\C,0,25.454,-7.336,42.258\C,0,26.27
 5,-8.569,42.698\C,0,26.057,-8.875,44.219\C,0,27.793,-8.33,42.377\C,0,2
 8.534,-9.715,42.08\C,0,29.511,-9.719,40.928\C,0,29.381,-10.895,39.899\
 C,0,28.567,-10.525,38.632\C,0,30.597,-11.669,39.429\H,0,19.215,-5.36,3
 0.312\H,0,18.318,-4.833,23.975\H,0,14.303,0.011,24.844\H,0,17.971,-1.1
 46,32.414\H,0,17.998,-4.051,32.246\H,0,20.099,-2.558,31.168\H,0,20.203
 ,-3.876,32.39\H,0,19.956,-2.131,32.803\H,0,16.314,-3.275,33.46\H,0,15.
 284,-2.065,32.671\H,0,15.781,-1.686,35.175\H,0,16.19,-0.343,34.076\H,0
 ,20.443,-6.809,29.668\H,0,21.474,-6.721,28.343\H,0,20.141,-8.024,28.46
 2\H,0,21.28,-7.778,26.406\H,0,21.447,-8.285,24.672\H,0,20.281,-9.052,2
 5.606\H,0,16.648,-3.83,22.467\H,0,15.363,-1.115,22.762\H,0,18.344,-2.7
 91,21.649\H,0,18.747,-2.153,23.234\H,0,17.618,-1.203,22.217\H,0,14.238
 ,-3.779,23.544\H,0,14.323,-3.27,21.873\H,0,12.954,-1.12,22.992\H,0,12.
 305,-2.598,23.791\H,0,12.375,-2.412,22.012\H,0,12.364,1.547,27.117\H,0
 ,13.441,1.842,25.696\H,0,13.628,2.823,27.123\H,0,14.584,-0.035,31.707\
 H,0,16.14,2.548,34.843\H,0,16.704,3.522,33.32\H,0,17.519,2.141,33.878\
 H,0,19.869,-1.607,36.516\H,0,20.377,-2.803,35.276\H,0,19.758,-4.718,36
 .543\H,0,19.14,-2.455,39.946\H,0,20.106,-1.511,38.724\H,0,20.838,-2.70
 8,39.805\H,0,19.888,-5.902,38.341\H,0,19.011,-5.055,39.625\H,0,20.618,
 -5.041,40.97\H,0,21.942,-4.723,39.826\H,0,20.544,-7.388,39.726\H,0,21.
 279,-7.104,41.237\H,0,23.275,-6.35,39.336\H,0,21.375,-8.097,38.038\H,0
 ,22.564,-9.201,38.563\H,0,22.948,-7.804,37.488\H,0,24.05,-9.031,40.187
 \H,0,23.281,-8.421,41.487\H,0,25.019,-6.225,40.532\H,0,25.914,-7.64,40
 .235\H,0,24.477,-7.271,42.737\H,0,25.977,-6.403,42.472\H,0,25.924,-9.4
 42,42.148\H,0,25.627,-9.866,44.367\H,0,25.355,-8.144,44.62\H,0,26.977,
 -8.793,44.797\H,0,28.342,-7.817,43.167\H,0,27.835,-7.677,41.505\H,0,27
 .809,-10.529,42.059\H,0,29.148,-9.964,42.945\H,0,30.525,-9.683,41.328\
 H,0,29.412,-8.782,40.38\H,0,28.741,-11.639,40.374\H,0,27.619,-10.129,3
 8.995\H,0,28.312,-11.366,37.987\H,0,29.162,-9.742,38.163\H,0,31.454,-1
 1.023,39.62\H,0,30.505,-11.893,38.367\H,0,30.523,-12.652,39.896\\Versi
 on=ES64L-G16RevA.03\State=1-A\HF=-3005.3821127\RMSD=6.145e-09\PG=C01 [
 X(C55H74Mg1N4O6)]\\@


 SACRED COWS MAKE GREAT HAMBURGERS -- ROBERT REISNER
 Job cpu time:       0 days  6 hours  0 minutes 41.4 seconds.
 Elapsed time:       0 days  0 hours 15 minutes  5.5 seconds.
 File lengths (MBytes):  RWF=   8929 Int=      0 D2E=      0 Chk=    390 Scr=      1
 Normal termination of Gaussian 16 at Sat Apr 30 04:09:26 2022.
