 Entering Gaussian System, Link 0=g16
 Initial command:
 /sw/apps/gaussian-16.0/g16/l1.exe "/tmp/Gau-174575.inp" -scrdir="/tmp/"
 Entering Link 1 = /sw/apps/gaussian-16.0/g16/l1.exe PID=    174576.
  
 Copyright (c) 1988,1990,1992,1993,1995,1998,2003,2009,2016,
            Gaussian, Inc.  All Rights Reserved.
  
 This is part of the Gaussian(R) 16 program.  It is based on
 the Gaussian(R) 09 system (copyright 2009, Gaussian, Inc.),
 the Gaussian(R) 03 system (copyright 2003, Gaussian, Inc.),
 the Gaussian(R) 98 system (copyright 1998, Gaussian, Inc.),
 the Gaussian(R) 94 system (copyright 1995, Gaussian, Inc.),
 the Gaussian 92(TM) system (copyright 1992, Gaussian, Inc.),
 the Gaussian 90(TM) system (copyright 1990, Gaussian, Inc.),
 the Gaussian 88(TM) system (copyright 1988, Gaussian, Inc.),
 the Gaussian 86(TM) system (copyright 1986, Carnegie Mellon
 University), and the Gaussian 82(TM) system (copyright 1983,
 Carnegie Mellon University). Gaussian is a federally registered
 trademark of Gaussian, Inc.
  
 This software contains proprietary and confidential information,
 including trade secrets, belonging to Gaussian, Inc.
  
 This software is provided under written license and may be
 used, copied, transmitted, or stored only in accord with that
 written license.
  
 The following legend is applicable only to US Government
 contracts under FAR:
  
                    RESTRICTED RIGHTS LEGEND
  
 Use, reproduction and disclosure by the US Government is
 subject to restrictions as set forth in subparagraphs (a)
 and (c) of the Commercial Computer Software - Restricted
 Rights clause in FAR 52.227-19.
  
 Gaussian, Inc.
 340 Quinnipiac St., Bldg. 40, Wallingford CT 06492
  
  
 ---------------------------------------------------------------
 Warning -- This program may not be used in any manner that
 competes with the business of Gaussian, Inc. or will provide
 assistance to any competitor of Gaussian, Inc.  The licensee
 of this program is prohibited from giving any competitor of
 Gaussian, Inc. access to this program.  By using this program,
 the user acknowledges that Gaussian, Inc. is engaged in the
 business of creating and licensing software in the field of
 computational chemistry and represents and warrants to the
 licensee that it is not a competitor of Gaussian, Inc. and that
 it will not use this program in any manner prohibited above.
 ---------------------------------------------------------------
  

 Cite this work as:
 Gaussian 16, Revision A.03,
 M. J. Frisch, G. W. Trucks, H. B. Schlegel, G. E. Scuseria, 
 M. A. Robb, J. R. Cheeseman, G. Scalmani, V. Barone, 
 G. A. Petersson, H. Nakatsuji, X. Li, M. Caricato, A. V. Marenich, 
 J. Bloino, B. G. Janesko, R. Gomperts, B. Mennucci, H. P. Hratchian, 
 J. V. Ortiz, A. F. Izmaylov, J. L. Sonnenberg, D. Williams-Young, 
 F. Ding, F. Lipparini, F. Egidi, J. Goings, B. Peng, A. Petrone, 
 T. Henderson, D. Ranasinghe, V. G. Zakrzewski, J. Gao, N. Rega, 
 G. Zheng, W. Liang, M. Hada, M. Ehara, K. Toyota, R. Fukuda, 
 J. Hasegawa, M. Ishida, T. Nakajima, Y. Honda, O. Kitao, H. Nakai, 
 T. Vreven, K. Throssell, J. A. Montgomery, Jr., J. E. Peralta, 
 F. Ogliaro, M. J. Bearpark, J. J. Heyd, E. N. Brothers, K. N. Kudin, 
 V. N. Staroverov, T. A. Keith, R. Kobayashi, J. Normand, 
 K. Raghavachari, A. P. Rendell, J. C. Burant, S. S. Iyengar, 
 J. Tomasi, M. Cossi, J. M. Millam, M. Klene, C. Adamo, R. Cammi, 
 J. W. Ochterski, R. L. Martin, K. Morokuma, O. Farkas, 
 J. B. Foresman, and D. J. Fox, Gaussian, Inc., Wallingford CT, 2016.
 
 ******************************************
 Gaussian 16:  ES64L-G16RevA.03 25-Dec-2016
                29-Apr-2022 
 ******************************************
 %nproc=24
 Will use up to   24 processors via shared memory.
 %mem=75GB
 ---------------------------------
 #p PBE1PBE/Def2SVP td=(nstates=5)
 ---------------------------------
 1/38=1,172=1/1;
 2/12=2,17=6,18=5,40=1/2;
 3/5=43,7=101,11=9,25=1,30=1,74=-13/1,2,3,8;
 4//1;
 5/5=2,38=5/2;
 8/6=1,10=1,108=5/1;
 9/41=5,42=1,70=2/14;
 6/7=2,8=2,9=2,10=2/1;
 99/5=1,9=1/99;
 Leave Link    1 at Fri Apr 29 02:30:55 2022, MaxMem= 10066329600 cpu:               0.9 elap:               0.0
 (Enter /sw/apps/gaussian-16.0/g16/l101.exe)
 ------------------------------------------------------
 step_1851_chromophore_16 TDDFT with PBE1PBE functional
 ------------------------------------------------------
 Symbolic Z-matrix:
 Charge =  0 Multiplicity = 1
 Mg                    41.083    41.087    26.95 
 C                     40.284    43.436    29.506 
 C                     42.006    38.802    29.46 
 C                     42.03     39.018    24.591 
 C                     40.72     43.648    24.587 
 N                     41.119    41.12     29.12 
 C                     40.714    42.125    29.937 
 C                     40.76     41.734    31.432 
 C                     41.294    40.311    31.414 
 C                     41.521    40.002    29.88 
 C                     42.569    40.026    32.273 
 C                     39.533    41.972    32.256 
 C                     39.815    42.422    33.667 
 C                     38.715    43.057    34.554 
 O                     37.749    43.665    34.128 
 O                     38.956    42.875    35.857 
 N                     41.95     39.201    26.963 
 C                     42.179    38.409    28.064 
 C                     42.613    37.132    27.557 
 C                     42.561    37.137    26.139 
 C                     42.268    38.565    25.894 
 C                     42.84     35.944    28.478 
 C                     42.809    35.96     25.229 
 O                     42.769    36.158    24.03 
 C                     43.066    34.52     25.764 
 N                     41.492    41.364    25.02 
 C                     41.684    40.255    24.151 
 C                     41.592    40.61     22.604 
 C                     41.327    42.147    22.714 
 C                     41.195    42.412    24.171 
 C                     42.806    40.331    21.778 
 C                     40.166    42.6      21.802 
 C                     38.745    42.387    22.362 
 N                     40.442    43.102    26.978 
 C                     40.415    44.017    25.935 
 C                     39.988    45.272    26.484 
 C                     39.863    45.071    27.848 
 C                     40.262    43.773    28.125 
 C                     39.851    46.484    25.732 
 C                     39.459    45.767    29.078 
 O                     39.027    46.907    29.176 
 C                     39.68     44.645    30.19 
 C                     40.559    45.355    31.196 
 O                     41.786    45.303    31.215 
 O                     39.683    45.998    32.078 
 C                     40.364    46.628    33.18 
 C                     37.948    43.298    36.819 
 C                     38.417    42.683    38.09 
 C                     38.193    43.027    39.325 
 C                     37.253    44.16     39.823 
 C                     38.69     42.28     40.533 
 C                     38.24     40.677    40.73 
 C                     38.156    40.254    42.261 
 C                     39.001    39.002    42.527 
 C                     38.147    37.729    42.203 
 C                     39.52     38.916    43.944 
 C                     38.44     38.686    44.982 
 C                     38.997    38.078    46.202 
 C                     38.202    38.33     47.493 
 C                     38.913    39.281    48.517 
 C                     37.571    37.083    48.166 
 C                     36.057    37.043    48.136 
 C                     35.434    36.542    46.829 
 C                     33.919    36.813    46.793 
 C                     33.375    36.971    45.365 
 C                     33.083    35.693    47.638 
 H                     42.225    38.01     30.179 
 H                     42.215    38.363    23.738 
 H                     40.652    44.435    23.834 
 H                     41.626    42.327    31.727 
 H                     40.573    39.588    31.796 
 H                     43.274    39.414    31.71 
 H                     42.147    39.54     33.153 
 H                     43.03     40.974    32.549 
 H                     39.021    41.016    32.371 
 H                     38.808    42.676    31.849 
 H                     40.678    43.087    33.683 
 H                     40.164    41.501    34.133 
 H                     42.121    35.144    28.304 
 H                     42.823    36.135    29.551 
 H                     43.855    35.548    28.424 
 H                     43.89     34.396    26.466 
 H                     43.188    33.794    24.959 
 H                     42.152    34.317    26.322 
 H                     40.764    40.044    22.176 
 H                     42.174    42.808    22.53 
 H                     42.536    39.545    21.072 
 H                     43.52     39.921    22.493 
 H                     43.192    41.218    21.275 
 H                     40.237    41.849    21.016 
 H                     40.419    43.624    21.527 
 H                     38.259    43.326    22.098 
 H                     38.68     42.247    23.441 
 H                     38.359    41.565    21.759 
 H                     39.316    46.251    24.812 
 H                     40.809    46.966    25.537 
 H                     39.199    47.225    26.196 
 H                     38.695    44.443    30.609 
 H                     41.39     46.914    32.947 
 H                     40.504    45.938    34.012 
 H                     39.741    47.471    33.479 
 H                     36.933    43.009    36.547 
 H                     37.938    44.37     37.019 
 H                     39.03     41.791    37.962 
 H                     36.447    43.642    40.343 
 H                     36.843    44.789    39.033 
 H                     37.764    44.78     40.56 
 H                     38.606    42.837    41.467 
 H                     39.771    42.166    40.446 
 H                     38.955    40.071    40.175 
 H                     37.259    40.588    40.264 
 H                     37.144    39.944    42.522 
 H                     38.357    41.035    42.995 
 H                     39.796    39.021    41.782 
 H                     38.43     36.875    42.818 
 H                     38.238    37.401    41.168 
 H                     37.108    37.97     42.426 
 H                     39.892    39.894    44.248 
 H                     40.287    38.148    44.041 
 H                     37.742    37.956    44.571 
 H                     37.841    39.579    45.161 
 H                     40.023    38.432    46.297 
 H                     39.05     36.994    46.103 
 H                     37.382    39.002    47.242 
 H                     39.373    38.704    49.319 
 H                     38.2      39.89     49.074 
 H                     39.603    39.956    48.012 
 H                     37.85     37.094    49.219 
 H                     37.911    36.143    47.729 
 H                     35.648    38.05     48.224 
 H                     35.617    36.523    48.988 
 H                     35.687    35.492    46.682 
 H                     35.924    37.096    46.028 
 H                     33.709    37.765    47.279 
 H                     33.935    36.281    44.733 
 H                     33.619    37.986    45.049 
 H                     32.316    36.798    45.176 
 H                     32.381    35.202    46.963 
 H                     32.594    36.118    48.514 
 H                     33.806    35.       48.068 
 
 ITRead=  0  0  0  0  0  0  0  0  0  0  0  0  0  0  0  0  0  0  0  0
 ITRead=  0  0  0  0  0  0  0  0  0  0  0  0  0  0  0  0  0  0  0  0
 ITRead=  0  0  0  0  0  0  0  0  0  0  0  0  0  0  0  0  0  0  0  0
 ITRead=  0  0  0  0  0  0  0  0  0  0  0  0  0  0  0  0  0  0  0  0
 ITRead=  0  0  0  0  0  0  0  0  0  0  0  0  0  0  0  0  0  0  0  0
 ITRead=  0  0  0  0  0  0  0  0  0  0  0  0  0  0  0  0  0  0  0  0
 ITRead=  0  0  0  0  0  0  0  0  0  0  0  0  0  0  0  0  0  0  0  0
 MicOpt= -1 -1 -1 -1 -1 -1 -1 -1 -1 -1 -1 -1 -1 -1 -1 -1 -1 -1 -1 -1
 MicOpt= -1 -1 -1 -1 -1 -1 -1 -1 -1 -1 -1 -1 -1 -1 -1 -1 -1 -1 -1 -1
 MicOpt= -1 -1 -1 -1 -1 -1 -1 -1 -1 -1 -1 -1 -1 -1 -1 -1 -1 -1 -1 -1
 MicOpt= -1 -1 -1 -1 -1 -1 -1 -1 -1 -1 -1 -1 -1 -1 -1 -1 -1 -1 -1 -1
 MicOpt= -1 -1 -1 -1 -1 -1 -1 -1 -1 -1 -1 -1 -1 -1 -1 -1 -1 -1 -1 -1
 MicOpt= -1 -1 -1 -1 -1 -1 -1 -1 -1 -1 -1 -1 -1 -1 -1 -1 -1 -1 -1 -1
 MicOpt= -1 -1 -1 -1 -1 -1 -1 -1 -1 -1 -1 -1 -1 -1 -1 -1 -1 -1 -1 -1
 NAtoms=    140 NQM=      140 NQMF=       0 NMMI=      0 NMMIF=      0
                NMic=       0 NMicF=      0.
                    Isotopes and Nuclear Properties:
 (Nuclear quadrupole moments (NQMom) in fm**2, nuclear magnetic moments (NMagM)
  in nuclear magnetons)

  Atom         1           2           3           4           5           6           7           8           9          10
 IAtWgt=          24          12          12          12          12          14          12          12          12          12
 AtmWgt=  23.9850450  12.0000000  12.0000000  12.0000000  12.0000000  14.0030740  12.0000000  12.0000000  12.0000000  12.0000000
 NucSpn=           0           0           0           0           0           2           0           0           0           0
 AtZEff=  -0.0000000  -0.0000000  -0.0000000  -0.0000000  -0.0000000  -0.0000000  -0.0000000  -0.0000000  -0.0000000  -0.0000000
 NQMom=    0.0000000   0.0000000   0.0000000   0.0000000   0.0000000   2.0440000   0.0000000   0.0000000   0.0000000   0.0000000
 NMagM=    0.0000000   0.0000000   0.0000000   0.0000000   0.0000000   0.4037610   0.0000000   0.0000000   0.0000000   0.0000000
 AtZNuc=  12.0000000   6.0000000   6.0000000   6.0000000   6.0000000   7.0000000   6.0000000   6.0000000   6.0000000   6.0000000

  Atom        11          12          13          14          15          16          17          18          19          20
 IAtWgt=          12          12          12          12          16          16          14          12          12          12
 AtmWgt=  12.0000000  12.0000000  12.0000000  12.0000000  15.9949146  15.9949146  14.0030740  12.0000000  12.0000000  12.0000000
 NucSpn=           0           0           0           0           0           0           2           0           0           0
 AtZEff=  -0.0000000  -0.0000000  -0.0000000  -0.0000000  -0.0000000  -0.0000000  -0.0000000  -0.0000000  -0.0000000  -0.0000000
 NQMom=    0.0000000   0.0000000   0.0000000   0.0000000   0.0000000   0.0000000   2.0440000   0.0000000   0.0000000   0.0000000
 NMagM=    0.0000000   0.0000000   0.0000000   0.0000000   0.0000000   0.0000000   0.4037610   0.0000000   0.0000000   0.0000000
 AtZNuc=   6.0000000   6.0000000   6.0000000   6.0000000   8.0000000   8.0000000   7.0000000   6.0000000   6.0000000   6.0000000

  Atom        21          22          23          24          25          26          27          28          29          30
 IAtWgt=          12          12          12          16          12          14          12          12          12          12
 AtmWgt=  12.0000000  12.0000000  12.0000000  15.9949146  12.0000000  14.0030740  12.0000000  12.0000000  12.0000000  12.0000000
 NucSpn=           0           0           0           0           0           2           0           0           0           0
 AtZEff=  -0.0000000  -0.0000000  -0.0000000  -0.0000000  -0.0000000  -0.0000000  -0.0000000  -0.0000000  -0.0000000  -0.0000000
 NQMom=    0.0000000   0.0000000   0.0000000   0.0000000   0.0000000   2.0440000   0.0000000   0.0000000   0.0000000   0.0000000
 NMagM=    0.0000000   0.0000000   0.0000000   0.0000000   0.0000000   0.4037610   0.0000000   0.0000000   0.0000000   0.0000000
 AtZNuc=   6.0000000   6.0000000   6.0000000   8.0000000   6.0000000   7.0000000   6.0000000   6.0000000   6.0000000   6.0000000

  Atom        31          32          33          34          35          36          37          38          39          40
 IAtWgt=          12          12          12          14          12          12          12          12          12          12
 AtmWgt=  12.0000000  12.0000000  12.0000000  14.0030740  12.0000000  12.0000000  12.0000000  12.0000000  12.0000000  12.0000000
 NucSpn=           0           0           0           2           0           0           0           0           0           0
 AtZEff=  -0.0000000  -0.0000000  -0.0000000  -0.0000000  -0.0000000  -0.0000000  -0.0000000  -0.0000000  -0.0000000  -0.0000000
 NQMom=    0.0000000   0.0000000   0.0000000   2.0440000   0.0000000   0.0000000   0.0000000   0.0000000   0.0000000   0.0000000
 NMagM=    0.0000000   0.0000000   0.0000000   0.4037610   0.0000000   0.0000000   0.0000000   0.0000000   0.0000000   0.0000000
 AtZNuc=   6.0000000   6.0000000   6.0000000   7.0000000   6.0000000   6.0000000   6.0000000   6.0000000   6.0000000   6.0000000

  Atom        41          42          43          44          45          46          47          48          49          50
 IAtWgt=          16          12          12          16          16          12          12          12          12          12
 AtmWgt=  15.9949146  12.0000000  12.0000000  15.9949146  15.9949146  12.0000000  12.0000000  12.0000000  12.0000000  12.0000000
 NucSpn=           0           0           0           0           0           0           0           0           0           0
 AtZEff=  -0.0000000  -0.0000000  -0.0000000  -0.0000000  -0.0000000  -0.0000000  -0.0000000  -0.0000000  -0.0000000  -0.0000000
 NQMom=    0.0000000   0.0000000   0.0000000   0.0000000   0.0000000   0.0000000   0.0000000   0.0000000   0.0000000   0.0000000
 NMagM=    0.0000000   0.0000000   0.0000000   0.0000000   0.0000000   0.0000000   0.0000000   0.0000000   0.0000000   0.0000000
 AtZNuc=   8.0000000   6.0000000   6.0000000   8.0000000   8.0000000   6.0000000   6.0000000   6.0000000   6.0000000   6.0000000

  Atom        51          52          53          54          55          56          57          58          59          60
 IAtWgt=          12          12          12          12          12          12          12          12          12          12
 AtmWgt=  12.0000000  12.0000000  12.0000000  12.0000000  12.0000000  12.0000000  12.0000000  12.0000000  12.0000000  12.0000000
 NucSpn=           0           0           0           0           0           0           0           0           0           0
 AtZEff=  -0.0000000  -0.0000000  -0.0000000  -0.0000000  -0.0000000  -0.0000000  -0.0000000  -0.0000000  -0.0000000  -0.0000000
 NQMom=    0.0000000   0.0000000   0.0000000   0.0000000   0.0000000   0.0000000   0.0000000   0.0000000   0.0000000   0.0000000
 NMagM=    0.0000000   0.0000000   0.0000000   0.0000000   0.0000000   0.0000000   0.0000000   0.0000000   0.0000000   0.0000000
 AtZNuc=   6.0000000   6.0000000   6.0000000   6.0000000   6.0000000   6.0000000   6.0000000   6.0000000   6.0000000   6.0000000

  Atom        61          62          63          64          65          66          67          68          69          70
 IAtWgt=          12          12          12          12          12          12           1           1           1           1
 AtmWgt=  12.0000000  12.0000000  12.0000000  12.0000000  12.0000000  12.0000000   1.0078250   1.0078250   1.0078250   1.0078250
 NucSpn=           0           0           0           0           0           0           1           1           1           1
 AtZEff=  -0.0000000  -0.0000000  -0.0000000  -0.0000000  -0.0000000  -0.0000000  -0.0000000  -0.0000000  -0.0000000  -0.0000000
 NQMom=    0.0000000   0.0000000   0.0000000   0.0000000   0.0000000   0.0000000   0.0000000   0.0000000   0.0000000   0.0000000
 NMagM=    0.0000000   0.0000000   0.0000000   0.0000000   0.0000000   0.0000000   2.7928460   2.7928460   2.7928460   2.7928460
 AtZNuc=   6.0000000   6.0000000   6.0000000   6.0000000   6.0000000   6.0000000   1.0000000   1.0000000   1.0000000   1.0000000

  Atom        71          72          73          74          75          76          77          78          79          80
 IAtWgt=           1           1           1           1           1           1           1           1           1           1
 AtmWgt=   1.0078250   1.0078250   1.0078250   1.0078250   1.0078250   1.0078250   1.0078250   1.0078250   1.0078250   1.0078250
 NucSpn=           1           1           1           1           1           1           1           1           1           1
 AtZEff=  -0.0000000  -0.0000000  -0.0000000  -0.0000000  -0.0000000  -0.0000000  -0.0000000  -0.0000000  -0.0000000  -0.0000000
 NQMom=    0.0000000   0.0000000   0.0000000   0.0000000   0.0000000   0.0000000   0.0000000   0.0000000   0.0000000   0.0000000
 NMagM=    2.7928460   2.7928460   2.7928460   2.7928460   2.7928460   2.7928460   2.7928460   2.7928460   2.7928460   2.7928460
 AtZNuc=   1.0000000   1.0000000   1.0000000   1.0000000   1.0000000   1.0000000   1.0000000   1.0000000   1.0000000   1.0000000

  Atom        81          82          83          84          85          86          87          88          89          90
 IAtWgt=           1           1           1           1           1           1           1           1           1           1
 AtmWgt=   1.0078250   1.0078250   1.0078250   1.0078250   1.0078250   1.0078250   1.0078250   1.0078250   1.0078250   1.0078250
 NucSpn=           1           1           1           1           1           1           1           1           1           1
 AtZEff=  -0.0000000  -0.0000000  -0.0000000  -0.0000000  -0.0000000  -0.0000000  -0.0000000  -0.0000000  -0.0000000  -0.0000000
 NQMom=    0.0000000   0.0000000   0.0000000   0.0000000   0.0000000   0.0000000   0.0000000   0.0000000   0.0000000   0.0000000
 NMagM=    2.7928460   2.7928460   2.7928460   2.7928460   2.7928460   2.7928460   2.7928460   2.7928460   2.7928460   2.7928460
 AtZNuc=   1.0000000   1.0000000   1.0000000   1.0000000   1.0000000   1.0000000   1.0000000   1.0000000   1.0000000   1.0000000

  Atom        91          92          93          94          95          96          97          98          99         100
 IAtWgt=           1           1           1           1           1           1           1           1           1           1
 AtmWgt=   1.0078250   1.0078250   1.0078250   1.0078250   1.0078250   1.0078250   1.0078250   1.0078250   1.0078250   1.0078250
 NucSpn=           1           1           1           1           1           1           1           1           1           1
 AtZEff=  -0.0000000  -0.0000000  -0.0000000  -0.0000000  -0.0000000  -0.0000000  -0.0000000  -0.0000000  -0.0000000  -0.0000000
 NQMom=    0.0000000   0.0000000   0.0000000   0.0000000   0.0000000   0.0000000   0.0000000   0.0000000   0.0000000   0.0000000
 NMagM=    2.7928460   2.7928460   2.7928460   2.7928460   2.7928460   2.7928460   2.7928460   2.7928460   2.7928460   2.7928460
 AtZNuc=   1.0000000   1.0000000   1.0000000   1.0000000   1.0000000   1.0000000   1.0000000   1.0000000   1.0000000   1.0000000

  Atom       101         102         103         104         105         106         107         108         109         110
 IAtWgt=           1           1           1           1           1           1           1           1           1           1
 AtmWgt=   1.0078250   1.0078250   1.0078250   1.0078250   1.0078250   1.0078250   1.0078250   1.0078250   1.0078250   1.0078250
 NucSpn=           1           1           1           1           1           1           1           1           1           1
 AtZEff=  -0.0000000  -0.0000000  -0.0000000  -0.0000000  -0.0000000  -0.0000000  -0.0000000  -0.0000000  -0.0000000  -0.0000000
 NQMom=    0.0000000   0.0000000   0.0000000   0.0000000   0.0000000   0.0000000   0.0000000   0.0000000   0.0000000   0.0000000
 NMagM=    2.7928460   2.7928460   2.7928460   2.7928460   2.7928460   2.7928460   2.7928460   2.7928460   2.7928460   2.7928460
 AtZNuc=   1.0000000   1.0000000   1.0000000   1.0000000   1.0000000   1.0000000   1.0000000   1.0000000   1.0000000   1.0000000

  Atom       111         112         113         114         115         116         117         118         119         120
 IAtWgt=           1           1           1           1           1           1           1           1           1           1
 AtmWgt=   1.0078250   1.0078250   1.0078250   1.0078250   1.0078250   1.0078250   1.0078250   1.0078250   1.0078250   1.0078250
 NucSpn=           1           1           1           1           1           1           1           1           1           1
 AtZEff=  -0.0000000  -0.0000000  -0.0000000  -0.0000000  -0.0000000  -0.0000000  -0.0000000  -0.0000000  -0.0000000  -0.0000000
 NQMom=    0.0000000   0.0000000   0.0000000   0.0000000   0.0000000   0.0000000   0.0000000   0.0000000   0.0000000   0.0000000
 NMagM=    2.7928460   2.7928460   2.7928460   2.7928460   2.7928460   2.7928460   2.7928460   2.7928460   2.7928460   2.7928460
 AtZNuc=   1.0000000   1.0000000   1.0000000   1.0000000   1.0000000   1.0000000   1.0000000   1.0000000   1.0000000   1.0000000

  Atom       121         122         123         124         125         126         127         128         129         130
 IAtWgt=           1           1           1           1           1           1           1           1           1           1
 AtmWgt=   1.0078250   1.0078250   1.0078250   1.0078250   1.0078250   1.0078250   1.0078250   1.0078250   1.0078250   1.0078250
 NucSpn=           1           1           1           1           1           1           1           1           1           1
 AtZEff=  -0.0000000  -0.0000000  -0.0000000  -0.0000000  -0.0000000  -0.0000000  -0.0000000  -0.0000000  -0.0000000  -0.0000000
 NQMom=    0.0000000   0.0000000   0.0000000   0.0000000   0.0000000   0.0000000   0.0000000   0.0000000   0.0000000   0.0000000
 NMagM=    2.7928460   2.7928460   2.7928460   2.7928460   2.7928460   2.7928460   2.7928460   2.7928460   2.7928460   2.7928460
 AtZNuc=   1.0000000   1.0000000   1.0000000   1.0000000   1.0000000   1.0000000   1.0000000   1.0000000   1.0000000   1.0000000

  Atom       131         132         133         134         135         136         137         138         139         140
 IAtWgt=           1           1           1           1           1           1           1           1           1           1
 AtmWgt=   1.0078250   1.0078250   1.0078250   1.0078250   1.0078250   1.0078250   1.0078250   1.0078250   1.0078250   1.0078250
 NucSpn=           1           1           1           1           1           1           1           1           1           1
 AtZEff=  -0.0000000  -0.0000000  -0.0000000  -0.0000000  -0.0000000  -0.0000000  -0.0000000  -0.0000000  -0.0000000  -0.0000000
 NQMom=    0.0000000   0.0000000   0.0000000   0.0000000   0.0000000   0.0000000   0.0000000   0.0000000   0.0000000   0.0000000
 NMagM=    2.7928460   2.7928460   2.7928460   2.7928460   2.7928460   2.7928460   2.7928460   2.7928460   2.7928460   2.7928460
 AtZNuc=   1.0000000   1.0000000   1.0000000   1.0000000   1.0000000   1.0000000   1.0000000   1.0000000   1.0000000   1.0000000
 Leave Link  101 at Fri Apr 29 02:30:55 2022, MaxMem= 10066329600 cpu:               2.8 elap:               0.1
 (Enter /sw/apps/gaussian-16.0/g16/l202.exe)
 Stoichiometry    C55H74MgN4O6
 Framework group  C1[X(C55H74MgN4O6)]
 Deg. of freedom   414
 Full point group                 C1      NOp   1
 Largest Abelian subgroup         C1      NOp   1
 Largest concise Abelian subgroup C1      NOp   1
                         Standard orientation:                         
 ---------------------------------------------------------------------
 Center     Atomic      Atomic             Coordinates (Angstroms)
 Number     Number       Type             X           Y           Z
 ---------------------------------------------------------------------
      1         12           0        6.335320    0.661272    0.148906
      2          6           0        4.003634   -2.020231   -0.100335
      3          6           0        3.795323    2.852458   -0.909572
      4          6           0        8.544601    3.082301    0.160905
      5          6           0        8.887614   -1.698125    0.588564
      6          7           0        4.245691    0.442315   -0.395882
      7          6           0        3.502637   -0.693063   -0.377840
      8          6           0        2.012504   -0.436222   -0.699643
      9          6           0        1.953387    1.061482   -0.952225
     10          6           0        3.445808    1.546186   -0.757525
     11          6           0        1.352245    1.522119   -2.320133
     12          6           0        0.987565   -0.991811    0.239489
     13          6           0       -0.259751   -1.499338   -0.438422
     14          6           0       -1.266197   -2.421760    0.293833
     15          8           0       -0.976383   -3.173122    1.208032
     16          8           0       -2.501526   -2.311804   -0.207052
     17          7           0        6.254828    2.675412   -0.346689
     18          6           0        5.131556    3.395717   -0.680343
     19          6           0        5.544352    4.774458   -0.749670
     20          6           0        6.907363    4.885840   -0.371187
     21          6           0        7.272634    3.455859   -0.288777
     22          6           0        4.542370    5.896540   -0.968938
     23          6           0        7.684552    6.165261   -0.186823
     24          8           0        8.863636    6.071330    0.094852
     25          6           0        7.029242    7.573670   -0.300092
     26          7           0        8.327465    0.647133    0.157142
     27          6           0        9.062181    1.845188    0.373388
     28          6           0       10.588200    1.618730    0.757682
     29          6           0       10.630043    0.056425    0.711350
     30          6           0        9.226366   -0.359149    0.451568
     31          6           0       11.606889    2.211824   -0.161244
     32          6           0       11.328856   -0.540050    1.952620
     33          6           0       10.458797   -0.671822    3.219050
     34          7           0        6.440862   -1.436287    0.395881
     35          6           0        7.566867   -2.240570    0.500981
     36          6           0        7.111947   -3.600193    0.557774
     37          6           0        5.737898   -3.551694    0.396033
     38          6           0        5.381242   -2.229736    0.181651
     39          6           0        7.972407   -4.742466    0.647423
     40          6           0        4.554018   -4.422552    0.372216
     41          8           0        4.519548   -5.630730    0.559150
     42          6           0        3.374562   -3.383124    0.102510
     43          6           0        2.679815   -3.986350   -1.098416
     44          8           0        2.913039   -3.687512   -2.266703
     45          8           0        1.726472   -4.870514   -0.580593
     46          6           0        0.886402   -5.444649   -1.600259
     47          6           0       -3.589391   -3.015512    0.457616
     48          6           0       -4.803218   -2.434111   -0.176595
     49          6           0       -6.000782   -2.925581   -0.310893
     50          6           0       -6.530611   -4.266155    0.269999
     51          6           0       -7.165234   -2.204150   -0.933686
     52          6           0       -7.663822   -0.750548   -0.263337
     53          6           0       -9.220464   -0.492198   -0.463508
     54          6           0       -9.466380    0.876709   -1.109962
     55          6           0       -9.501671    1.972919    0.008921
     56          6           0      -10.740785    0.939479   -1.920269
     57          6           0      -12.004185    0.850957   -1.087966
     58          6           0      -13.149149    1.448013   -1.795706
     59          6           0      -14.533482    0.924964   -1.380678
     60          6           0      -15.249040    0.050955   -2.468144
     61          6           0      -15.483905    1.952047   -0.711427
     62          6           0      -15.779171    1.685449    0.750230
     63          6           0      -14.711203    2.163962    1.739092
     64          6           0      -14.959548    1.594487    3.147632
     65          6           0      -13.670191    1.457414    3.971557
     66          6           0      -16.102869    2.440623    3.950247
     67          1           0        3.039903    3.604898   -1.144858
     68          1           0        9.322668    3.834869    0.299152
     69          1           0        9.707115   -2.411902    0.688274
     70          1           0        1.988061   -0.864424   -1.701978
     71          1           0        1.335449    1.585394   -0.222729
     72          1           0        1.964732    2.312705   -2.754151
     73          1           0        0.346495    1.831301   -2.034559
     74          1           0        1.308035    0.667041   -2.994142
     75          1           0        0.641292   -0.174294    0.872787
     76          1           0        1.322512   -1.789396    0.901727
     77          1           0       -0.005054   -1.973391   -1.385868
     78          1           0       -0.759894   -0.572026   -0.716177
     79          1           0        4.453098    6.545667   -0.098363
     80          1           0        3.524988    5.610879   -1.236202
     81          1           0        4.755919    6.494126   -1.856207
     82          1           0        6.506515    7.799550   -1.229011
     83          1           0        7.738114    8.378338   -0.100106
     84          1           0        6.269276    7.535563    0.480272
     85          1           0       10.753045    2.040244    1.749789
     86          1           0       11.074533   -0.399095   -0.173589
     87          1           0       12.129313    2.986315    0.401222
     88          1           0       11.010395    2.692981   -0.937004
     89          1           0       12.293216    1.470631   -0.571563
     90          1           0       12.005259    0.276908    2.201409
     91          1           0       11.784548   -1.462289    1.592024
     92          1           0       10.736833   -1.662648    3.577620
     93          1           0        9.381512   -0.645083    3.055320
     94          1           0       10.852244    0.104935    3.874900
     95          1           0        8.719724   -4.541941    1.414380
     96          1           0        8.427156   -4.999884   -0.309161
     97          1           0        7.484107   -5.639174    1.030775
     98          1           0        2.734387   -3.424229    0.982894
     99          1           0        1.366239   -5.493730   -2.578067
    100          1           0        0.018450   -4.817848   -1.804475
    101          1           0        0.577563   -6.420137   -1.224467
    102          1           0       -3.578227   -2.916092    1.542845
    103          1           0       -3.642763   -4.080590    0.229487
    104          1           0       -4.668606   -1.428183   -0.573841
    105          1           0       -7.272871   -3.971761    1.012119
    106          1           0       -5.768330   -4.892218    0.733480
    107          1           0       -7.054334   -4.832504   -0.500489
    108          1           0       -8.013487   -2.847853   -1.169853
    109          1           0       -6.868352   -1.865110   -1.926681
    110          1           0       -7.056179    0.035509   -0.709846
    111          1           0       -7.431037   -0.821842    0.798815
    112          1           0       -9.727657   -0.419372    0.498685
    113          1           0       -9.785209   -1.278369   -0.965621
    114          1           0       -8.574829    1.086705   -1.700259
    115          1           0      -10.151122    2.808141   -0.252320
    116          1           0       -8.523701    2.403817    0.221032
    117          1           0       -9.904542    1.506446    0.907491
    118          1           0      -10.826880    0.034525   -2.521045
    119          1           0      -10.775158    1.835743   -2.539180
    120          1           0      -11.850203    1.457314   -0.194855
    121          1           0      -12.185107   -0.157657   -0.716140
    122          1           0      -12.977938    1.303295   -2.861896
    123          1           0      -13.186127    2.524512   -1.630030
    124          1           0      -14.373887    0.125279   -0.658169
    125          1           0      -16.005499    0.635427   -2.991494
    126          1           0      -15.857800   -0.737799   -2.024548
    127          1           0      -14.524889   -0.421469   -3.130844
    128          1           0      -16.443465    1.903938   -1.224945
    129          1           0      -15.113932    2.976826   -0.767258
    130          1           0      -15.816780    0.612518    0.941218
    131          1           0      -16.766114    2.026620    1.065587
    132          1           0      -14.655036    3.252330    1.718642
    133          1           0      -13.758599    1.795262    1.358009
    134          1           0      -15.347990    0.580095    3.065637
    135          1           0      -13.031794    2.300694    3.706128
    136          1           0      -13.177882    0.545785    3.630703
    137          1           0      -13.733269    1.427355    5.058870
    138          1           0      -15.662296    2.836766    4.865931
    139          1           0      -16.997823    1.848336    4.138331
    140          1           0      -16.459050    3.225019    3.282613
 ---------------------------------------------------------------------
 Rotational constants (GHZ):           0.0504698           0.0076819           0.0069549
 Leave Link  202 at Fri Apr 29 02:30:55 2022, MaxMem= 10066329600 cpu:               0.2 elap:               0.0
 (Enter /sw/apps/gaussian-16.0/g16/l301.exe)
 Standard basis: def2SVP (5D, 7F)
 Ernie: Thresh=  0.10000D-02 Tol=  0.10000D-05 Strict=F.
 There are  1364 symmetry adapted cartesian basis functions of A   symmetry.
 There are  1298 symmetry adapted basis functions of A   symmetry.
  1298 basis functions,  2180 primitive gaussians,  1364 cartesian basis functions
   246 alpha electrons      246 beta electrons
       nuclear repulsion energy      9301.8427146892 Hartrees.
 IExCor= 1009 DFT=T Ex+Corr=PBE1PBE ExCW=0 ScaHFX=  0.250000
 ScaDFX=  0.750000  0.750000  1.000000  1.000000 ScalE2=  1.000000  1.000000
 IRadAn=      5 IRanWt=     -1 IRanGd=            0 ICorTp=0 IEmpDi=  4
 NAtoms=  140 NActive=  140 NUniq=  140 SFac= 1.00D+00 NAtFMM=   60 NAOKFM=T Big=T
 Integral buffers will be    131072 words long.
 Regular integral format.
 Two-electron integral symmetry is turned on.
 Leave Link  301 at Fri Apr 29 02:30:55 2022, MaxMem= 10066329600 cpu:               1.3 elap:               0.1
 (Enter /sw/apps/gaussian-16.0/g16/l302.exe)
 NPDir=0 NMtPBC=     1 NCelOv=     1 NCel=       1 NClECP=     1 NCelD=      1
         NCelK=      1 NCelE2=     1 NClLst=     1 CellRange=     0.0.
 One-electron integrals computed using PRISM.
 One-electron integral symmetry used in STVInt
   1 Symmetry operations used in ECPInt.
 ECPInt:  NShTT=  192510 NPrTT=  683786 LenC2=   88264 LenP2D=  196833.
 LDataN:  DoStor=T MaxTD1= 4 Len=   56
 NBasis=  1298 RedAO= T EigKep=  2.60D-04  NBF=  1298
 NBsUse=  1298 1.00D-06 EigRej= -1.00D+00 NBFU=  1298
 Precomputing XC quadrature grid using
 IXCGrd= 4 IRadAn=           5 IRanWt=          -1 IRanGd=           0 AccXCQ= 0.00D+00.
 Generated NRdTot=       0 NPtTot=           0 NUsed=           0 NTot=          32
 NSgBfM=   975   973   973   973   975 MxSgAt=   140 MxSgA2=   140.
 Leave Link  302 at Fri Apr 29 02:30:59 2022, MaxMem= 10066329600 cpu:              89.2 elap:               3.7
 (Enter /sw/apps/gaussian-16.0/g16/l303.exe)
 DipDrv:  MaxL=1.
 Leave Link  303 at Fri Apr 29 02:31:00 2022, MaxMem= 10066329600 cpu:               6.1 elap:               0.3
 (Enter /sw/apps/gaussian-16.0/g16/l308.exe)
 Leave Link  308 at Fri Apr 29 02:31:00 2022, MaxMem= 10066329600 cpu:              11.4 elap:               0.5
 (Enter /sw/apps/gaussian-16.0/g16/l401.exe)
 ExpMin= 3.36D-02 ExpMax= 4.95D+03 ExpMxC= 7.45D+02 IAcc=3 IRadAn=         5 AccDes= 0.00D+00
 Harris functional with IExCor= 1009 and IRadAn=       5 diagonalized for initial guess.
 HarFok:  IExCor= 1009 AccDes= 0.00D+00 IRadAn=         5 IDoV= 1 UseB2=F ITyADJ=14
 ICtDFT=  3500011 ScaDFX=  1.000000  1.000000  1.000000  1.000000
 FoFCou: FMM=F IPFlag=           0 FMFlag=      100000 FMFlg1=        2001
         NFxFlg=           0 DoJE=T BraDBF=F KetDBF=T FulRan=T
         wScrn=  0.000000 ICntrl=       500 IOpCl=  0 I1Cent=   200000004 NGrid=           0
         NMat0=    1 NMatS0=      1 NMatT0=    0 NMatD0=    1 NMtDS0=    0 NMtDT0=    0
 Petite list used in FoFCou.
 Harris En= -3006.19412306629    
 JPrj=0 DoOrth=F DoCkMO=F.
 Leave Link  401 at Fri Apr 29 02:31:07 2022, MaxMem= 10066329600 cpu:             156.8 elap:               6.6
 (Enter /sw/apps/gaussian-16.0/g16/l502.exe)
 Integral symmetry usage will be decided dynamically.
 Closed shell SCF:
 Using DIIS extrapolation, IDIIS=  1040.
 NGot= 10066329600 LenX= 10062561258 LenY= 10060699398
 Requested convergence on RMS density matrix=1.00D-08 within 128 cycles.
 Requested convergence on MAX density matrix=1.00D-06.
 Requested convergence on             energy=1.00D-06.
 No special actions if energy rises.
 Fock matrices will be formed incrementally for  20 cycles.

 Cycle   1  Pass 1  IDiag  1:
 FoFJK:  IHMeth= 1 ICntrl=       0 DoSepK=F KAlg= 0 I1Cent=           0 FoldK=F
 IRaf= 490000000 NMat=       1 IRICut=       1 DoRegI=T DoRafI=F ISym2E= 0 IDoP0=0 IntGTp=1.
 FoFCou: FMM=T IPFlag=           0 FMFlag=      100000 FMFlg1=        2001
         NFxFlg=           0 DoJE=F BraDBF=F KetDBF=F FulRan=T
         wScrn=  0.000000 ICntrl=         0 IOpCl=  0 I1Cent=           0 NGrid=           0
         NMat0=    1 NMatS0=      1 NMatT0=    0 NMatD0=    1 NMtDS0=    0 NMtDT0=    0
 Symmetry not used in FoFCou.
 FMM levels:  10  Number of levels for PrismC:   9
 E= -3003.80595100827    
 DIIS: error= 1.87D-02 at cycle   1 NSaved=   1.
 NSaved= 1 IEnMin= 1 EnMin= -3003.80595100827     IErMin= 1 ErrMin= 1.87D-02
 ErrMax= 1.87D-02  0.00D+00 EMaxC= 1.00D-01 BMatC= 1.49D+00 BMatP= 1.49D+00
 IDIUse=3 WtCom= 8.13D-01 WtEn= 1.87D-01
 Coeff-Com:  0.100D+01
 Coeff-En:   0.100D+01
 Coeff:      0.100D+01
 Gap=     0.079 Goal=   None    Shift=    0.000
 GapD=    0.079 DampG=0.500 DampE=0.500 DampFc=0.2500 IDamp=-1.
 Damping current iteration by 2.50D-01
 RMSDP=2.74D-03 MaxDP=6.08D-01              OVMax= 2.65D-01

 Cycle   2  Pass 1  IDiag  1:
 RMSU=  6.78D-04    CP:  9.89D-01
 E= -3004.36882466943     Delta-E=       -0.562873661160 Rises=F Damp=T
 DIIS: error= 1.04D-02 at cycle   2 NSaved=   2.
 NSaved= 2 IEnMin= 2 EnMin= -3004.36882466943     IErMin= 2 ErrMin= 1.04D-02
 ErrMax= 1.04D-02  0.00D+00 EMaxC= 1.00D-01 BMatC= 3.72D-01 BMatP= 1.49D+00
 IDIUse=3 WtCom= 8.96D-01 WtEn= 1.04D-01
 Coeff-Com: -0.777D+00 0.178D+01
 Coeff-En:   0.000D+00 0.100D+01
 Coeff:     -0.696D+00 0.170D+01
 Gap=     0.178 Goal=   None    Shift=    0.000
 RMSDP=1.01D-03 MaxDP=6.06D-02 DE=-5.63D-01 OVMax= 3.44D-01

 Cycle   3  Pass 1  IDiag  1:
 RMSU=  8.49D-04    CP:  9.63D-01  1.73D+00
 E= -3005.21860437666     Delta-E=       -0.849779707230 Rises=F Damp=F
 DIIS: error= 1.11D-02 at cycle   3 NSaved=   3.
 NSaved= 3 IEnMin= 3 EnMin= -3005.21860437666     IErMin= 2 ErrMin= 1.04D-02
 ErrMax= 1.11D-02  0.00D+00 EMaxC= 1.00D-01 BMatC= 1.63D-01 BMatP= 3.72D-01
 IDIUse=3 WtCom= 8.89D-01 WtEn= 1.11D-01
 Coeff-Com: -0.489D+00 0.104D+01 0.445D+00
 Coeff-En:   0.000D+00 0.000D+00 0.100D+01
 Coeff:     -0.434D+00 0.928D+00 0.507D+00
 Gap=     0.072 Goal=   None    Shift=    0.000
 RMSDP=6.06D-04 MaxDP=1.02D-01 DE=-8.50D-01 OVMax= 2.37D-01

 Cycle   4  Pass 1  IDiag  1:
 RMSU=  4.18D-04    CP:  9.68D-01  1.97D+00  5.24D-01
 E= -3005.32783738755     Delta-E=       -0.109233010886 Rises=F Damp=F
 DIIS: error= 7.35D-03 at cycle   4 NSaved=   4.
 NSaved= 4 IEnMin= 4 EnMin= -3005.32783738755     IErMin= 4 ErrMin= 7.35D-03
 ErrMax= 7.35D-03  0.00D+00 EMaxC= 1.00D-01 BMatC= 4.50D-02 BMatP= 1.63D-01
 IDIUse=3 WtCom= 9.27D-01 WtEn= 7.35D-02
 Coeff-Com: -0.122D+00 0.266D+00 0.340D+00 0.516D+00
 Coeff-En:   0.000D+00 0.000D+00 0.282D+00 0.718D+00
 Coeff:     -0.113D+00 0.246D+00 0.336D+00 0.531D+00
 Gap=     0.070 Goal=   None    Shift=    0.000
 RMSDP=3.23D-04 MaxDP=4.04D-02 DE=-1.09D-01 OVMax= 1.88D-01

 Cycle   5  Pass 1  IDiag  1:
 RMSU=  1.63D-04    CP:  9.67D-01  1.85D+00  7.06D-01  4.79D-01
 E= -3005.36492040892     Delta-E=       -0.037083021369 Rises=F Damp=F
 DIIS: error= 4.56D-03 at cycle   5 NSaved=   5.
 NSaved= 5 IEnMin= 5 EnMin= -3005.36492040892     IErMin= 5 ErrMin= 4.56D-03
 ErrMax= 4.56D-03  0.00D+00 EMaxC= 1.00D-01 BMatC= 9.46D-03 BMatP= 4.50D-02
 IDIUse=3 WtCom= 9.54D-01 WtEn= 4.56D-02
 Coeff-Com: -0.278D-01 0.639D-01 0.197D+00 0.396D+00 0.372D+00
 Coeff-En:   0.000D+00 0.000D+00 0.000D+00 0.230D+00 0.770D+00
 Coeff:     -0.266D-01 0.610D-01 0.188D+00 0.388D+00 0.390D+00
 Gap=     0.072 Goal=   None    Shift=    0.000
 RMSDP=1.46D-04 MaxDP=1.44D-02 DE=-3.71D-02 OVMax= 8.71D-02

 Cycle   6  Pass 1  IDiag  1:
 RMSU=  5.65D-05    CP:  9.67D-01  1.86D+00  6.76D-01  6.30D-01  2.90D-01
 E= -3005.37658901573     Delta-E=       -0.011668606812 Rises=F Damp=F
 DIIS: error= 1.09D-03 at cycle   6 NSaved=   6.
 NSaved= 6 IEnMin= 6 EnMin= -3005.37658901573     IErMin= 6 ErrMin= 1.09D-03
 ErrMax= 1.09D-03  0.00D+00 EMaxC= 1.00D-01 BMatC= 8.22D-04 BMatP= 9.46D-03
 IDIUse=3 WtCom= 9.89D-01 WtEn= 1.09D-02
 Coeff-Com:  0.265D-03 0.116D-02 0.645D-01 0.157D+00 0.259D+00 0.518D+00
 Coeff-En:   0.000D+00 0.000D+00 0.000D+00 0.000D+00 0.971D-01 0.903D+00
 Coeff:      0.262D-03 0.115D-02 0.638D-01 0.155D+00 0.257D+00 0.522D+00
 Gap=     0.071 Goal=   None    Shift=    0.000
 RMSDP=4.48D-05 MaxDP=4.61D-03 DE=-1.17D-02 OVMax= 3.22D-02

 Cycle   7  Pass 1  IDiag  1:
 RMSU=  2.49D-05    CP:  9.67D-01  1.86D+00  6.84D-01  6.11D-01  4.37D-01
                    CP:  5.29D-01
 E= -3005.37742120428     Delta-E=       -0.000832188551 Rises=F Damp=F
 DIIS: error= 5.02D-04 at cycle   7 NSaved=   7.
 NSaved= 7 IEnMin= 7 EnMin= -3005.37742120428     IErMin= 7 ErrMin= 5.02D-04
 ErrMax= 5.02D-04  0.00D+00 EMaxC= 1.00D-01 BMatC= 1.57D-04 BMatP= 8.22D-04
 IDIUse=3 WtCom= 9.95D-01 WtEn= 5.02D-03
 Coeff-Com:  0.293D-02-0.563D-02 0.218D-01 0.606D-01 0.137D+00 0.374D+00
 Coeff-Com:  0.409D+00
 Coeff-En:   0.000D+00 0.000D+00 0.000D+00 0.000D+00 0.000D+00 0.180D+00
 Coeff-En:   0.820D+00
 Coeff:      0.291D-02-0.560D-02 0.217D-01 0.603D-01 0.137D+00 0.373D+00
 Coeff:      0.411D+00
 Gap=     0.072 Goal=   None    Shift=    0.000
 RMSDP=2.28D-05 MaxDP=1.88D-03 DE=-8.32D-04 OVMax= 1.86D-02

 Cycle   8  Pass 1  IDiag  1:
 RMSU=  1.18D-05    CP:  9.67D-01  1.86D+00  6.84D-01  6.11D-01  4.20D-01
                    CP:  6.74D-01  2.98D-01
 E= -3005.37758717825     Delta-E=       -0.000165973966 Rises=F Damp=F
 DIIS: error= 2.35D-04 at cycle   8 NSaved=   8.
 NSaved= 8 IEnMin= 8 EnMin= -3005.37758717825     IErMin= 8 ErrMin= 2.35D-04
 ErrMax= 2.35D-04  0.00D+00 EMaxC= 1.00D-01 BMatC= 3.67D-05 BMatP= 1.57D-04
 IDIUse=3 WtCom= 9.98D-01 WtEn= 2.35D-03
 Coeff-Com:  0.193D-02-0.403D-02 0.414D-02 0.145D-01 0.541D-01 0.185D+00
 Coeff-Com:  0.330D+00 0.414D+00
 Coeff-En:   0.000D+00 0.000D+00 0.000D+00 0.000D+00 0.000D+00 0.000D+00
 Coeff-En:   0.248D+00 0.752D+00
 Coeff:      0.192D-02-0.403D-02 0.413D-02 0.145D-01 0.540D-01 0.184D+00
 Coeff:      0.330D+00 0.415D+00
 Gap=     0.072 Goal=   None    Shift=    0.000
 RMSDP=8.46D-06 MaxDP=7.19D-04 DE=-1.66D-04 OVMax= 6.06D-03

 Cycle   9  Pass 1  IDiag  1:
 RMSU=  2.98D-06    CP:  9.67D-01  1.86D+00  6.84D-01  6.13D-01  4.25D-01
                    CP:  6.48D-01  4.94D-01  4.93D-01
 E= -3005.37763720954     Delta-E=       -0.000050031294 Rises=F Damp=F
 DIIS: error= 4.39D-05 at cycle   9 NSaved=   9.
 NSaved= 9 IEnMin= 9 EnMin= -3005.37763720954     IErMin= 9 ErrMin= 4.39D-05
 ErrMax= 4.39D-05  0.00D+00 EMaxC= 1.00D-01 BMatC= 1.63D-06 BMatP= 3.67D-05
 IDIUse=1 WtCom= 1.00D+00 WtEn= 0.00D+00
 Coeff-Com:  0.608D-03-0.131D-02-0.272D-03 0.855D-04 0.140D-01 0.573D-01
 Coeff-Com:  0.142D+00 0.230D+00 0.558D+00
 Coeff:      0.608D-03-0.131D-02-0.272D-03 0.855D-04 0.140D-01 0.573D-01
 Coeff:      0.142D+00 0.230D+00 0.558D+00
 Gap=     0.072 Goal=   None    Shift=    0.000
 RMSDP=1.74D-06 MaxDP=2.19D-04 DE=-5.00D-05 OVMax= 8.46D-04

 Cycle  10  Pass 1  IDiag  1:
 RMSU=  1.34D-06    CP:  9.67D-01  1.86D+00  6.85D-01  6.13D-01  4.26D-01
                    CP:  6.58D-01  4.87D-01  5.36D-01  7.75D-01
 E= -3005.37763864188     Delta-E=       -0.000001432341 Rises=F Damp=F
 DIIS: error= 1.45D-05 at cycle  10 NSaved=  10.
 NSaved=10 IEnMin=10 EnMin= -3005.37763864188     IErMin=10 ErrMin= 1.45D-05
 ErrMax= 1.45D-05  0.00D+00 EMaxC= 1.00D-01 BMatC= 2.74D-07 BMatP= 1.63D-06
 IDIUse=1 WtCom= 1.00D+00 WtEn= 0.00D+00
 Coeff-Com:  0.791D-04-0.172D-03-0.600D-03-0.203D-02 0.126D-02 0.715D-02
 Coeff-Com:  0.382D-01 0.713D-01 0.325D+00 0.560D+00
 Coeff:      0.791D-04-0.172D-03-0.600D-03-0.203D-02 0.126D-02 0.715D-02
 Coeff:      0.382D-01 0.713D-01 0.325D+00 0.560D+00
 Gap=     0.072 Goal=   None    Shift=    0.000
 RMSDP=6.80D-07 MaxDP=6.30D-05 DE=-1.43D-06 OVMax= 2.26D-04

 Cycle  11  Pass 1  IDiag  1:
 RMSU=  4.93D-07    CP:  9.67D-01  1.86D+00  6.85D-01  6.13D-01  4.26D-01
                    CP:  6.58D-01  4.92D-01  5.43D-01  8.61D-01  7.37D-01
 E= -3005.37763890291     Delta-E=       -0.000000261023 Rises=F Damp=F
 DIIS: error= 5.12D-06 at cycle  11 NSaved=  11.
 NSaved=11 IEnMin=11 EnMin= -3005.37763890291     IErMin=11 ErrMin= 5.12D-06
 ErrMax= 5.12D-06  0.00D+00 EMaxC= 1.00D-01 BMatC= 5.19D-08 BMatP= 2.74D-07
 IDIUse=1 WtCom= 1.00D+00 WtEn= 0.00D+00
 Coeff-Com: -0.197D-04 0.482D-04-0.357D-03-0.145D-02-0.951D-03-0.381D-02
 Coeff-Com:  0.599D-02 0.130D-01 0.134D+00 0.349D+00 0.504D+00
 Coeff:     -0.197D-04 0.482D-04-0.357D-03-0.145D-02-0.951D-03-0.381D-02
 Coeff:      0.599D-02 0.130D-01 0.134D+00 0.349D+00 0.504D+00
 Gap=     0.072 Goal=   None    Shift=    0.000
 RMSDP=2.89D-07 MaxDP=2.36D-05 DE=-2.61D-07 OVMax= 1.27D-04

 Cycle  12  Pass 1  IDiag  1:
 RMSU=  1.96D-07    CP:  9.67D-01  1.86D+00  6.85D-01  6.13D-01  4.26D-01
                    CP:  6.59D-01  4.94D-01  5.50D-01  8.76D-01  8.38D-01
                    CP:  7.95D-01
 E= -3005.37763895452     Delta-E=       -0.000000051610 Rises=F Damp=F
 DIIS: error= 1.79D-06 at cycle  12 NSaved=  12.
 NSaved=12 IEnMin=12 EnMin= -3005.37763895452     IErMin=12 ErrMin= 1.79D-06
 ErrMax= 1.79D-06  0.00D+00 EMaxC= 1.00D-01 BMatC= 8.31D-09 BMatP= 5.19D-08
 IDIUse=1 WtCom= 1.00D+00 WtEn= 0.00D+00
 Coeff-Com: -0.153D-04 0.426D-04-0.697D-04-0.440D-03-0.583D-03-0.386D-02
 Coeff-Com: -0.342D-02-0.858D-02 0.109D-01 0.751D-01 0.265D+00 0.666D+00
 Coeff:     -0.153D-04 0.426D-04-0.697D-04-0.440D-03-0.583D-03-0.386D-02
 Coeff:     -0.342D-02-0.858D-02 0.109D-01 0.751D-01 0.265D+00 0.666D+00
 Gap=     0.072 Goal=   None    Shift=    0.000
 RMSDP=1.41D-07 MaxDP=2.30D-05 DE=-5.16D-08 OVMax= 6.26D-05

 Cycle  13  Pass 1  IDiag  1:
 RMSU=  8.72D-08    CP:  9.67D-01  1.86D+00  6.85D-01  6.12D-01  4.26D-01
                    CP:  6.59D-01  4.95D-01  5.50D-01  8.97D-01  8.62D-01
                    CP:  9.29D-01  8.90D-01
 E= -3005.37763896461     Delta-E=       -0.000000010095 Rises=F Damp=F
 DIIS: error= 1.02D-06 at cycle  13 NSaved=  13.
 NSaved=13 IEnMin=13 EnMin= -3005.37763896461     IErMin=13 ErrMin= 1.02D-06
 ErrMax= 1.02D-06  0.00D+00 EMaxC= 1.00D-01 BMatC= 1.86D-09 BMatP= 8.31D-09
 IDIUse=1 WtCom= 1.00D+00 WtEn= 0.00D+00
 Coeff-Com: -0.191D-05 0.105D-04 0.335D-04 0.154D-04-0.899D-04-0.175D-02
 Coeff-Com: -0.302D-02-0.859D-02-0.207D-01-0.285D-01 0.562D-01 0.399D+00
 Coeff-Com:  0.607D+00
 Coeff:     -0.191D-05 0.105D-04 0.335D-04 0.154D-04-0.899D-04-0.175D-02
 Coeff:     -0.302D-02-0.859D-02-0.207D-01-0.285D-01 0.562D-01 0.399D+00
 Coeff:      0.607D+00
 Gap=     0.072 Goal=   None    Shift=    0.000
 RMSDP=6.71D-08 MaxDP=5.26D-06 DE=-1.01D-08 OVMax= 3.08D-05

 Cycle  14  Pass 1  IDiag  1:
 RMSU=  3.59D-08    CP:  9.67D-01  1.86D+00  6.85D-01  6.12D-01  4.26D-01
                    CP:  6.59D-01  4.95D-01  5.51D-01  9.04D-01  8.80D-01
                    CP:  9.69D-01  1.05D+00  7.98D-01
 E= -3005.37763896720     Delta-E=       -0.000000002585 Rises=F Damp=F
 DIIS: error= 3.63D-07 at cycle  14 NSaved=  14.
 NSaved=14 IEnMin=14 EnMin= -3005.37763896720     IErMin=14 ErrMin= 3.63D-07
 ErrMax= 3.63D-07  0.00D+00 EMaxC= 1.00D-01 BMatC= 2.85D-10 BMatP= 1.86D-09
 IDIUse=1 WtCom= 1.00D+00 WtEn= 0.00D+00
 Coeff-Com:  0.240D-05-0.231D-05 0.299D-04 0.697D-04 0.569D-04-0.485D-03
 Coeff-Com: -0.105D-02-0.389D-02-0.130D-01-0.278D-01-0.566D-02 0.119D+00
 Coeff-Com:  0.344D+00 0.588D+00
 Coeff:      0.240D-05-0.231D-05 0.299D-04 0.697D-04 0.569D-04-0.485D-03
 Coeff:     -0.105D-02-0.389D-02-0.130D-01-0.278D-01-0.566D-02 0.119D+00
 Coeff:      0.344D+00 0.588D+00
 Gap=     0.072 Goal=   None    Shift=    0.000
 RMSDP=2.43D-08 MaxDP=1.85D-06 DE=-2.58D-09 OVMax= 1.17D-05

 Cycle  15  Pass 1  IDiag  1:
 RMSU=  1.38D-08    CP:  9.67D-01  1.86D+00  6.85D-01  6.12D-01  4.26D-01
                    CP:  6.59D-01  4.95D-01  5.51D-01  9.06D-01  8.84D-01
                    CP:  9.90D-01  1.07D+00  9.15D-01  8.42D-01
 E= -3005.37763896729     Delta-E=       -0.000000000098 Rises=F Damp=F
 DIIS: error= 1.36D-07 at cycle  15 NSaved=  15.
 NSaved=15 IEnMin=15 EnMin= -3005.37763896729     IErMin=15 ErrMin= 1.36D-07
 ErrMax= 1.36D-07  0.00D+00 EMaxC= 1.00D-01 BMatC= 4.91D-11 BMatP= 2.85D-10
 IDIUse=1 WtCom= 1.00D+00 WtEn= 0.00D+00
 Coeff-Com:  0.174D-05-0.303D-05 0.124D-04 0.377D-04 0.584D-04 0.178D-05
 Coeff-Com: -0.939D-05-0.872D-03-0.386D-02-0.118D-01-0.124D-01-0.430D-02
 Coeff-Com:  0.968D-01 0.355D+00 0.581D+00
 Coeff:      0.174D-05-0.303D-05 0.124D-04 0.377D-04 0.584D-04 0.178D-05
 Coeff:     -0.939D-05-0.872D-03-0.386D-02-0.118D-01-0.124D-01-0.430D-02
 Coeff:      0.968D-01 0.355D+00 0.581D+00
 Gap=     0.072 Goal=   None    Shift=    0.000
 RMSDP=9.49D-09 MaxDP=7.26D-07 DE=-9.82D-11 OVMax= 3.68D-06

 SCF Done:  E(RPBE1PBE) =  -3005.37763897     A.U. after   15 cycles
            NFock= 15  Conv=0.95D-08     -V/T= 2.0100
 KE= 2.975757343634D+03 PE=-2.559538901210D+04 EE= 1.031241131481D+04
 Leave Link  502 at Fri Apr 29 02:36:58 2022, MaxMem= 10066329600 cpu:            8392.1 elap:             351.3
 (Enter /sw/apps/gaussian-16.0/g16/l801.exe)
 DoSCS=F DFT=T ScalE2(SS,OS)=  1.000000  1.000000
 ExpMin= 3.36D-02 ExpMax= 4.95D+03 ExpMxC= 7.45D+02 IAcc=3 IRadAn=         5 AccDes= 0.00D+00
 HarFok:  IExCor=  205 AccDes= 0.00D+00 IRadAn=         5 IDoV=-2 UseB2=F ITyADJ=14
 ICtDFT= 12500011 ScaDFX=  1.000000  1.000000  1.000000  1.000000
 GSVD:  LWork=       -5460 too small for GESVD, short by       25550 words or       25550 for optimal perf.
 Largest valence mixing into a core orbital is  1.71D-04
 Largest core mixing into a valence orbital is  5.77D-05
 Range of M.O.s used for correlation:    71  1298
 NBasis=  1298 NAE=   246 NBE=   246 NFC=    70 NFV=     0
 NROrb=   1228 NOA=   176 NOB=   176 NVA=  1052 NVB=  1052

 **** Warning!!: The smallest alpha delta epsilon is  0.71870352D-01

 Leave Link  801 at Fri Apr 29 02:36:58 2022, MaxMem= 10066329600 cpu:               7.5 elap:               0.3
 (Enter /sw/apps/gaussian-16.0/g16/l914.exe)
 RHF ground state
 Two-electron integrals replicated using symmetry.
 MDV= 10066329600 DFT=T DoStab=F Mixed=T DoRPA=T DoScal=F NonHer=T
 Making orbital integer symmetry assigments:
 Orbital symmetries:
       Occupied  (A) (A) (A) (A) (A) (A) (A) (A) (A) (A) (A) (A)
                 (A) (A) (A) (A) (A) (A) (A) (A) (A) (A) (A) (A)
                 (A) (A) (A) (A) (A) (A) (A) (A) (A) (A) (A) (A)
                 (A) (A) (A) (A) (A) (A) (A) (A) (A) (A) (A) (A)
                 (A) (A) (A) (A) (A) (A) (A) (A) (A) (A) (A) (A)
                 (A) (A) (A) (A) (A) (A) (A) (A) (A) (A) (A) (A)
                 (A) (A) (A) (A) (A) (A) (A) (A) (A) (A) (A) (A)
                 (A) (A) (A) (A) (A) (A) (A) (A) (A) (A) (A) (A)
                 (A) (A) (A) (A) (A) (A) (A) (A) (A) (A) (A) (A)
                 (A) (A) (A) (A) (A) (A) (A) (A) (A) (A) (A) (A)
                 (A) (A) (A) (A) (A) (A) (A) (A) (A) (A) (A) (A)
                 (A) (A) (A) (A) (A) (A) (A) (A) (A) (A) (A) (A)
                 (A) (A) (A) (A) (A) (A) (A) (A) (A) (A) (A) (A)
                 (A) (A) (A) (A) (A) (A) (A) (A) (A) (A) (A) (A)
                 (A) (A) (A) (A) (A) (A) (A) (A) (A) (A) (A) (A)
                 (A) (A) (A) (A) (A) (A) (A) (A) (A) (A) (A) (A)
                 (A) (A) (A) (A) (A) (A) (A) (A) (A) (A) (A) (A)
                 (A) (A) (A) (A) (A) (A) (A) (A) (A) (A) (A) (A)
                 (A) (A) (A) (A) (A) (A) (A) (A) (A) (A) (A) (A)
                 (A) (A) (A) (A) (A) (A) (A) (A) (A) (A) (A) (A)
                 (A) (A) (A) (A) (A) (A)
       Virtual   (A) (A) (A) (A) (A) (A) (A) (A) (A) (A) (A) (A)
                 (A) (A) (A) (A) (A) (A) (A) (A) (A) (A) (A) (A)
                 (A) (A) (A) (A) (A) (A) (A) (A) (A) (A) (A) (A)
                 (A) (A) (A) (A) (A) (A) (A) (A) (A) (A) (A) (A)
                 (A) (A) (A) (A) (A) (A) (A) (A) (A) (A) (A) (A)
                 (A) (A) (A) (A) (A) (A) (A) (A) (A) (A) (A) (A)
                 (A) (A) (A) (A) (A) (A) (A) (A) (A) (A) (A) (A)
                 (A) (A) (A) (A) (A) (A) (A) (A) (A) (A) (A) (A)
                 (A) (A) (A) (A) (A) (A) (A) (A) (A) (A) (A) (A)
                 (A) (A) (A) (A) (A) (A) (A) (A) (A) (A) (A) (A)
                 (A) (A) (A) (A) (A) (A) (A) (A) (A) (A) (A) (A)
                 (A) (A) (A) (A) (A) (A) (A) (A) (A) (A) (A) (A)
                 (A) (A) (A) (A) (A) (A) (A) (A) (A) (A) (A) (A)
                 (A) (A) (A) (A) (A) (A) (A) (A) (A) (A) (A) (A)
                 (A) (A) (A) (A) (A) (A) (A) (A) (A) (A) (A) (A)
                 (A) (A) (A) (A) (A) (A) (A) (A) (A) (A) (A) (A)
                 (A) (A) (A) (A) (A) (A) (A) (A) (A) (A) (A) (A)
                 (A) (A) (A) (A) (A) (A) (A) (A) (A) (A) (A) (A)
                 (A) (A) (A) (A) (A) (A) (A) (A) (A) (A) (A) (A)
                 (A) (A) (A) (A) (A) (A) (A) (A) (A) (A) (A) (A)
                 (A) (A) (A) (A) (A) (A) (A) (A) (A) (A) (A) (A)
                 (A) (A) (A) (A) (A) (A) (A) (A) (A) (A) (A) (A)
                 (A) (A) (A) (A) (A) (A) (A) (A) (A) (A) (A) (A)
                 (A) (A) (A) (A) (A) (A) (A) (A) (A) (A) (A) (A)
                 (A) (A) (A) (A) (A) (A) (A) (A) (A) (A) (A) (A)
                 (A) (A) (A) (A) (A) (A) (A) (A) (A) (A) (A) (A)
                 (A) (A) (A) (A) (A) (A) (A) (A) (A) (A) (A) (A)
                 (A) (A) (A) (A) (A) (A) (A) (A) (A) (A) (A) (A)
                 (A) (A) (A) (A) (A) (A) (A) (A) (A) (A) (A) (A)
                 (A) (A) (A) (A) (A) (A) (A) (A) (A) (A) (A) (A)
                 (A) (A) (A) (A) (A) (A) (A) (A) (A) (A) (A) (A)
                 (A) (A) (A) (A) (A) (A) (A) (A) (A) (A) (A) (A)
                 (A) (A) (A) (A) (A) (A) (A) (A) (A) (A) (A) (A)
                 (A) (A) (A) (A) (A) (A) (A) (A) (A) (A) (A) (A)
                 (A) (A) (A) (A) (A) (A) (A) (A) (A) (A) (A) (A)
                 (A) (A) (A) (A) (A) (A) (A) (A) (A) (A) (A) (A)
                 (A) (A) (A) (A) (A) (A) (A) (A) (A) (A) (A) (A)
                 (A) (A) (A) (A) (A) (A) (A) (A) (A) (A) (A) (A)
                 (A) (A) (A) (A) (A) (A) (A) (A) (A) (A) (A) (A)
                 (A) (A) (A) (A) (A) (A) (A) (A) (A) (A) (A) (A)
                 (A) (A) (A) (A) (A) (A) (A) (A) (A) (A) (A) (A)
                 (A) (A) (A) (A) (A) (A) (A) (A) (A) (A) (A) (A)
                 (A) (A) (A) (A) (A) (A) (A) (A) (A) (A) (A) (A)
                 (A) (A) (A) (A) (A) (A) (A) (A) (A) (A) (A) (A)
                 (A) (A) (A) (A) (A) (A) (A) (A) (A) (A) (A) (A)
                 (A) (A) (A) (A) (A) (A) (A) (A) (A) (A) (A) (A)
                 (A) (A) (A) (A) (A) (A) (A) (A) (A) (A) (A) (A)
                 (A) (A) (A) (A) (A) (A) (A) (A) (A) (A) (A) (A)
                 (A) (A) (A) (A) (A) (A) (A) (A) (A) (A) (A) (A)
                 (A) (A) (A) (A) (A) (A) (A) (A) (A) (A) (A) (A)
                 (A) (A) (A) (A) (A) (A) (A) (A) (A) (A) (A) (A)
                 (A) (A) (A) (A) (A) (A) (A) (A) (A) (A) (A) (A)
                 (A) (A) (A) (A) (A) (A) (A) (A) (A) (A) (A) (A)
                 (A) (A) (A) (A) (A) (A) (A) (A) (A) (A) (A) (A)
                 (A) (A) (A) (A) (A) (A) (A) (A) (A) (A) (A) (A)
                 (A) (A) (A) (A) (A) (A) (A) (A) (A) (A) (A) (A)
                 (A) (A) (A) (A) (A) (A) (A) (A) (A) (A) (A) (A)
                 (A) (A) (A) (A) (A) (A) (A) (A) (A) (A) (A) (A)
                 (A) (A) (A) (A) (A) (A) (A) (A) (A) (A) (A) (A)
                 (A) (A) (A) (A) (A) (A) (A) (A) (A) (A) (A) (A)
                 (A) (A) (A) (A) (A) (A) (A) (A) (A) (A) (A) (A)
                 (A) (A) (A) (A) (A) (A) (A) (A) (A) (A) (A) (A)
                 (A) (A) (A) (A) (A) (A) (A) (A) (A) (A) (A) (A)
                 (A) (A) (A) (A) (A) (A) (A) (A) (A) (A) (A) (A)
                 (A) (A) (A) (A) (A) (A) (A) (A) (A) (A) (A) (A)
                 (A) (A) (A) (A) (A) (A) (A) (A) (A) (A) (A) (A)
                 (A) (A) (A) (A) (A) (A) (A) (A) (A) (A) (A) (A)
                 (A) (A) (A) (A) (A) (A) (A) (A) (A) (A) (A) (A)
                 (A) (A) (A) (A) (A) (A) (A) (A) (A) (A) (A) (A)
                 (A) (A) (A) (A) (A) (A) (A) (A) (A) (A) (A) (A)
                 (A) (A) (A) (A) (A) (A) (A) (A) (A) (A) (A) (A)
                 (A) (A) (A) (A) (A) (A) (A) (A) (A) (A) (A) (A)
                 (A) (A) (A) (A) (A) (A) (A) (A) (A) (A) (A) (A)
                 (A) (A) (A) (A) (A) (A) (A) (A) (A) (A) (A) (A)
                 (A) (A) (A) (A) (A) (A) (A) (A) (A) (A) (A) (A)
                 (A) (A) (A) (A) (A) (A) (A) (A) (A) (A) (A) (A)
                 (A) (A) (A) (A) (A) (A) (A) (A) (A) (A) (A) (A)
                 (A) (A) (A) (A) (A) (A) (A) (A) (A) (A) (A) (A)
                 (A) (A) (A) (A) (A) (A) (A) (A) (A) (A) (A) (A)
                 (A) (A) (A) (A) (A) (A) (A) (A) (A) (A) (A) (A)
                 (A) (A) (A) (A) (A) (A) (A) (A) (A) (A) (A) (A)
                 (A) (A) (A) (A) (A) (A) (A) (A) (A) (A) (A) (A)
                 (A) (A) (A) (A) (A) (A) (A) (A) (A) (A) (A) (A)
                 (A) (A) (A) (A) (A) (A) (A) (A) (A) (A) (A) (A)
                 (A) (A) (A) (A) (A) (A) (A) (A) (A) (A) (A) (A)
                 (A) (A) (A) (A) (A) (A) (A) (A) (A) (A) (A) (A)
                 (A) (A) (A) (A) (A) (A) (A) (A) (A) (A) (A) (A)
                 (A) (A) (A) (A) (A) (A) (A) (A)
    20 initial guesses have been made.
 Convergence on wavefunction:    0.001000000000000
 Davidson Disk Diagonalization:  ConvIn= 1.00D-03 SkipCon=T Conv= 1.00D-03.
 Max sub-space:  2000 roots to seek:    20 dimension of matrix:       370304
 Iteration     1 Dimension    20 NMult     0 NNew     20
 CISAX will form    20 AO SS matrices at one time.
 NMat=    20 NSing=    20 JSym2X= 0.
 FoFJK:  IHMeth= 1 ICntrl=       0 DoSepK=F KAlg= 0 I1Cent=           0 FoldK=F
 IRaf= 490000000 NMat=      40 IRICut=       1 DoRegI=T DoRafI=F ISym2E= 0 IDoP0=3 IntGTp=3.
 FoFCou: FMM=T IPFlag=           0 FMFlag=      100000 FMFlg1=        2001
         NFxFlg=           0 DoJE=F BraDBF=F KetDBF=F FulRan=T
         wScrn=  0.000000 ICntrl=         0 IOpCl=  0 I1Cent=           0 NGrid=           0
         NMat0=   40 NMatS0=     20 NMatT0=    0 NMatD0=   40 NMtDS0=    0 NMtDT0=    0
 Symmetry not used in FoFCou.
 FMM levels:  10  Number of levels for PrismC:   9
 New state      3 was old state      8
 New state      5 was old state      3
 Excitation Energies [eV] at current iteration:
 Root      1 :     2.194619586598380
 Root      2 :     2.568528793716287
 Root      3 :     3.048689362658591
 Root      4 :     3.107652021869283
 Root      5 :     3.245314252543163
 Root      6 :     3.379600573620130
 Root      7 :     3.600887555322088
 Root      8 :     3.820114633083977
 Root      9 :     3.920840285827947
 Root     10 :     3.950531426246990
 Root     11 :     4.027796499565821
 Root     12 :     4.245634002649878
 Root     13 :     4.300640603013368
 Root     14 :     4.362603333933440
 Root     15 :     4.414473152589290
 Root     16 :     4.513359868451304
 Root     17 :     4.634920471206456
 Root     18 :     4.799050935522194
 Root     19 :     4.842393323442820
 Root     20 :     4.950847853459189
 Iteration     2 Dimension    30 NMult    20 NNew     10
 CISAX will form    10 AO SS matrices at one time.
 NMat=    10 NSing=    10 JSym2X= 0.
 Root      1 not converged, maximum delta is    0.057784248340503
 Root      2 not converged, maximum delta is    0.060737080559757
 Root      3 not converged, maximum delta is    0.250547887389988
 Root      4 not converged, maximum delta is    0.317451764654474
 Root      5 not converged, maximum delta is    0.326379053396212
 Excitation Energies [eV] at current iteration:
 Root      1 :     1.818153874032356   Change is   -0.376465712566024
 Root      2 :     2.273564295852676   Change is   -0.294964497863611
 Root      3 :     2.892687375411066   Change is   -0.156001987247525
 Root      4 :     3.006544994165114   Change is   -0.101107027704169
 Root      5 :     3.041191990289011   Change is   -0.204122262254152
 Iteration     3 Dimension    40 NMult    30 NNew     10
 CISAX will form    10 AO SS matrices at one time.
 NMat=    10 NSing=    10 JSym2X= 0.
 Root      1 not converged, maximum delta is    0.021663082599786
 Root      2 not converged, maximum delta is    0.028337367935947
 Root      3 not converged, maximum delta is    0.012771495633756
 Root      4 not converged, maximum delta is    0.013108311923524
 Root      5 not converged, maximum delta is    0.041866496188717
 Excitation Energies [eV] at current iteration:
 Root      1 :     1.788100293078998   Change is   -0.030053580953358
 Root      2 :     2.250396120740127   Change is   -0.023168175112549
 Root      3 :     2.881789824882116   Change is   -0.010897550528950
 Root      4 :     2.997148046500160   Change is   -0.009396947664954
 Root      5 :     3.026518614867462   Change is   -0.014673375421549
 Iteration     4 Dimension    50 NMult    40 NNew     10
 CISAX will form    10 AO SS matrices at one time.
 NMat=    10 NSing=    10 JSym2X= 0.
 Root      1 not converged, maximum delta is    0.002217591123534
 Root      2 not converged, maximum delta is    0.008713995965275
 Root      3 not converged, maximum delta is    0.003725329282266
 Root      4 not converged, maximum delta is    0.009784009453211
 Root      5 not converged, maximum delta is    0.017077802022915
 Excitation Energies [eV] at current iteration:
 Root      1 :     1.784973489353852   Change is   -0.003126803725146
 Root      2 :     2.246830131927438   Change is   -0.003565988812688
 Root      3 :     2.880065604531769   Change is   -0.001724220350347
 Root      4 :     2.995211800747511   Change is   -0.001936245752649
 Root      5 :     3.024536885342783   Change is   -0.001981729524679
 Iteration     5 Dimension    60 NMult    50 NNew     10
 CISAX will form    10 AO SS matrices at one time.
 NMat=    10 NSing=    10 JSym2X= 0.
 Root      1 has converged.
 Root      2 has converged.
 Root      3 has converged.
 Root      4 not converged, maximum delta is    0.002163843386036
 Root      5 not converged, maximum delta is    0.003430275144145
 Excitation Energies [eV] at current iteration:
 Root      1 :     1.784609424148258   Change is   -0.000364065205594
 Root      2 :     2.246529078945440   Change is   -0.000301052981998
 Root      3 :     2.879874627634758   Change is   -0.000190976897012
 Root      4 :     2.995010000930500   Change is   -0.000201799817011
 Root      5 :     3.024288095980780   Change is   -0.000248789362003
 Iteration     6 Dimension    64 NMult    60 NNew      4
 CISAX will form     4 AO SS matrices at one time.
 NMat=     4 NSing=     4 JSym2X= 0.
 Root      1 has converged.
 Root      2 has converged.
 Root      3 has converged.
 Root      4 has converged.
 Root      5 has converged.
 Excitation Energies [eV] at current iteration:
 Root      1 :     1.784604175196721   Change is   -0.000005248951537
 Root      2 :     2.246527709014079   Change is   -0.000001369931361
 Root      3 :     2.879874164199361   Change is   -0.000000463435396
 Root      4 :     2.994988190963149   Change is   -0.000021809967351
 Root      5 :     3.024258158363827   Change is   -0.000029937616953
 Convergence achieved on expansion vectors.
 ***********************************************************************
 Excited states from <AA,BB:AA,BB> singles matrix:
 ***********************************************************************
 
 1PDM for each excited state written to RWF  633
 Ground to excited state transition densities written to RWF  633
 Ground to excited state transition electric dipole moments (Au):
       state          X           Y           Z        Dip. S.      Osc.
         1        -0.0053      2.9722     -0.3504      8.9570      0.3916
         2         1.5457      0.2828      0.2669      2.5405      0.1398
         3        -0.2984     -0.1416     -0.0104      0.1092      0.0077
         4         0.0838      0.0521      0.0215      0.0102      0.0007
         5         0.2305      0.0788      0.0545      0.0623      0.0046
 Ground to excited state transition velocity dipole moments (Au):
       state          X           Y           Z        Dip. S.      Osc.
         1        -0.0002     -0.1897      0.0227      0.0365      0.3710
         2        -0.1209     -0.0231     -0.0209      0.0156      0.1258
         3         0.0337      0.0136      0.0033      0.0013      0.0084
         4        -0.0083     -0.0054     -0.0023      0.0001      0.0006
         5        -0.0257     -0.0079     -0.0022      0.0007      0.0044
 Ground to excited state transition magnetic dipole moments (Au):
       state          X           Y           Z
         1        -0.0356     -0.2964     -2.2122
         2        -0.0052      0.2052     -0.3864
         3        -0.1635     -0.2742      0.8502
         4        -0.2641      0.2848      0.3892
         5        -0.1965     -0.3179     -0.4478
 Ground to excited state transition velocity quadrupole moments (Au):
       state          XX          YY          ZZ          XY          XZ          YZ
         1         0.1834     -0.4953      0.0129     -2.2616      0.2940      0.0648
         2        -2.6844      0.0482     -0.0052     -0.2452     -0.2685     -0.0181
         3         0.6930      0.0421     -0.0017     -0.0371      0.0321     -0.0129
         4        -0.1801     -0.2015     -0.0033     -0.2665     -0.0290     -0.0227
         5        -0.4911     -0.0527      0.0176      0.0436      0.0082      0.0109
 <0|del|b> * <b|rxdel|0> + <0|del|b> * <b|delr+rdel|0>
 Rotatory Strengths (R) in cgs (10**-40 erg-esu-cm/Gauss)
       state          XX          YY          ZZ    R(velocity)    E-M Angle
         1        55.9622      6.0218      2.5502     21.5114       89.20
         2         9.7098     24.7438     -0.4100     11.3478       85.83
         3        -4.8320     -9.9535    -27.9566    -14.2474      101.13
         4        -6.3437      2.8383      1.9972     -0.5027       92.41
         5        10.9696     18.5813     24.7310     18.0940       57.17
 1/2[<0|r|b>*<b|rxdel|0> + (<0|rxdel|b>*<b|r|0>)*]
 Rotatory Strengths (R) in cgs (10**-40 erg-esu-cm/Gauss)
       state          XX          YY          ZZ     R(length)
         1        -0.1335    622.9296   -548.1481     24.8827
         2         5.7362    -41.0218     72.9413     12.5519
         3       -34.4998    -27.4528      6.2467    -18.5686
         4        15.6593    -10.4916     -5.9156     -0.2493
         5        32.0291     17.7071     17.2688     22.3350
  1/2[<0|del|b>*<b|r|0> + (<0|r|b>*<b|del|0>)*] (Au)
       state          X           Y           Z        Dip. S.   Osc.(frdel)
         1         0.0000     -0.5638     -0.0080      0.5717      0.3812
         2        -0.1869     -0.0065     -0.0056      0.1990      0.1326
         3        -0.0101     -0.0019     -0.0000      0.0120      0.0080
         4        -0.0007     -0.0003     -0.0000      0.0010      0.0007
         5        -0.0059     -0.0006     -0.0001      0.0067      0.0044

 Excitation energies and oscillator strengths:
 
 Excited State   1:      Singlet-A      1.7846 eV  694.74 nm  f=0.3916  <S**2>=0.000
     245 -> 248       -0.14533
     246 -> 247        0.70305
     246 <- 247       -0.12656
 This state for optimization and/or second-order correction.
 Total Energy, E(TD-HF/TD-DFT) =  -3005.31205597    
 Copying the excited state density for this state as the 1-particle RhoCI density.
 
 Excited State   2:      Singlet-A      2.2465 eV  551.89 nm  f=0.1398  <S**2>=0.000
     245 -> 247        0.65822
     246 -> 248        0.23538
 
 Excited State   3:      Singlet-A      2.8799 eV  430.52 nm  f=0.0077  <S**2>=0.000
     240 -> 247        0.24414
     243 -> 247       -0.23736
     244 -> 247        0.59503
 
 Excited State   4:      Singlet-A      2.9950 eV  413.97 nm  f=0.0007  <S**2>=0.000
     240 -> 247       -0.31240
     243 -> 247        0.50453
     244 -> 247        0.34698
 
 Excited State   5:      Singlet-A      3.0243 eV  409.97 nm  f=0.0046  <S**2>=0.000
     240 -> 247        0.49097
     242 -> 247        0.25854
     243 -> 247        0.39732
 SavETr:  write IOETrn=   770 NScale= 10 NData=  16 NLR=1 NState=    5 LETran=     100.
 Leave Link  914 at Fri Apr 29 02:54:33 2022, MaxMem= 10066329600 cpu:           25258.6 elap:            1054.0
 (Enter /sw/apps/gaussian-16.0/g16/l601.exe)
 Copying SCF densities to generalized density rwf, IOpCl= 0 IROHF=0.
 Hyperfine terms turned off by default for NAtoms > 100.

 **********************************************************************

            Population analysis using the SCF density.

 **********************************************************************

 Orbital symmetries:
       Occupied  (A) (A) (A) (A) (A) (A) (A) (A) (A) (A) (A) (A)
                 (A) (A) (A) (A) (A) (A) (A) (A) (A) (A) (A) (A)
                 (A) (A) (A) (A) (A) (A) (A) (A) (A) (A) (A) (A)
                 (A) (A) (A) (A) (A) (A) (A) (A) (A) (A) (A) (A)
                 (A) (A) (A) (A) (A) (A) (A) (A) (A) (A) (A) (A)
                 (A) (A) (A) (A) (A) (A) (A) (A) (A) (A) (A) (A)
                 (A) (A) (A) (A) (A) (A) (A) (A) (A) (A) (A) (A)
                 (A) (A) (A) (A) (A) (A) (A) (A) (A) (A) (A) (A)
                 (A) (A) (A) (A) (A) (A) (A) (A) (A) (A) (A) (A)
                 (A) (A) (A) (A) (A) (A) (A) (A) (A) (A) (A) (A)
                 (A) (A) (A) (A) (A) (A) (A) (A) (A) (A) (A) (A)
                 (A) (A) (A) (A) (A) (A) (A) (A) (A) (A) (A) (A)
                 (A) (A) (A) (A) (A) (A) (A) (A) (A) (A) (A) (A)
                 (A) (A) (A) (A) (A) (A) (A) (A) (A) (A) (A) (A)
                 (A) (A) (A) (A) (A) (A) (A) (A) (A) (A) (A) (A)
                 (A) (A) (A) (A) (A) (A) (A) (A) (A) (A) (A) (A)
                 (A) (A) (A) (A) (A) (A) (A) (A) (A) (A) (A) (A)
                 (A) (A) (A) (A) (A) (A) (A) (A) (A) (A) (A) (A)
                 (A) (A) (A) (A) (A) (A) (A) (A) (A) (A) (A) (A)
                 (A) (A) (A) (A) (A) (A) (A) (A) (A) (A) (A) (A)
                 (A) (A) (A) (A) (A) (A)
       Virtual   (A) (A) (A) (A) (A) (A) (A) (A) (A) (A) (A) (A)
                 (A) (A) (A) (A) (A) (A) (A) (A) (A) (A) (A) (A)
                 (A) (A) (A) (A) (A) (A) (A) (A) (A) (A) (A) (A)
                 (A) (A) (A) (A) (A) (A) (A) (A) (A) (A) (A) (A)
                 (A) (A) (A) (A) (A) (A) (A) (A) (A) (A) (A) (A)
                 (A) (A) (A) (A) (A) (A) (A) (A) (A) (A) (A) (A)
                 (A) (A) (A) (A) (A) (A) (A) (A) (A) (A) (A) (A)
                 (A) (A) (A) (A) (A) (A) (A) (A) (A) (A) (A) (A)
                 (A) (A) (A) (A) (A) (A) (A) (A) (A) (A) (A) (A)
                 (A) (A) (A) (A) (A) (A) (A) (A) (A) (A) (A) (A)
                 (A) (A) (A) (A) (A) (A) (A) (A) (A) (A) (A) (A)
                 (A) (A) (A) (A) (A) (A) (A) (A) (A) (A) (A) (A)
                 (A) (A) (A) (A) (A) (A) (A) (A) (A) (A) (A) (A)
                 (A) (A) (A) (A) (A) (A) (A) (A) (A) (A) (A) (A)
                 (A) (A) (A) (A) (A) (A) (A) (A) (A) (A) (A) (A)
                 (A) (A) (A) (A) (A) (A) (A) (A) (A) (A) (A) (A)
                 (A) (A) (A) (A) (A) (A) (A) (A) (A) (A) (A) (A)
                 (A) (A) (A) (A) (A) (A) (A) (A) (A) (A) (A) (A)
                 (A) (A) (A) (A) (A) (A) (A) (A) (A) (A) (A) (A)
                 (A) (A) (A) (A) (A) (A) (A) (A) (A) (A) (A) (A)
                 (A) (A) (A) (A) (A) (A) (A) (A) (A) (A) (A) (A)
                 (A) (A) (A) (A) (A) (A) (A) (A) (A) (A) (A) (A)
                 (A) (A) (A) (A) (A) (A) (A) (A) (A) (A) (A) (A)
                 (A) (A) (A) (A) (A) (A) (A) (A) (A) (A) (A) (A)
                 (A) (A) (A) (A) (A) (A) (A) (A) (A) (A) (A) (A)
                 (A) (A) (A) (A) (A) (A) (A) (A) (A) (A) (A) (A)
                 (A) (A) (A) (A) (A) (A) (A) (A) (A) (A) (A) (A)
                 (A) (A) (A) (A) (A) (A) (A) (A) (A) (A) (A) (A)
                 (A) (A) (A) (A) (A) (A) (A) (A) (A) (A) (A) (A)
                 (A) (A) (A) (A) (A) (A) (A) (A) (A) (A) (A) (A)
                 (A) (A) (A) (A) (A) (A) (A) (A) (A) (A) (A) (A)
                 (A) (A) (A) (A) (A) (A) (A) (A) (A) (A) (A) (A)
                 (A) (A) (A) (A) (A) (A) (A) (A) (A) (A) (A) (A)
                 (A) (A) (A) (A) (A) (A) (A) (A) (A) (A) (A) (A)
                 (A) (A) (A) (A) (A) (A) (A) (A) (A) (A) (A) (A)
                 (A) (A) (A) (A) (A) (A) (A) (A) (A) (A) (A) (A)
                 (A) (A) (A) (A) (A) (A) (A) (A) (A) (A) (A) (A)
                 (A) (A) (A) (A) (A) (A) (A) (A) (A) (A) (A) (A)
                 (A) (A) (A) (A) (A) (A) (A) (A) (A) (A) (A) (A)
                 (A) (A) (A) (A) (A) (A) (A) (A) (A) (A) (A) (A)
                 (A) (A) (A) (A) (A) (A) (A) (A) (A) (A) (A) (A)
                 (A) (A) (A) (A) (A) (A) (A) (A) (A) (A) (A) (A)
                 (A) (A) (A) (A) (A) (A) (A) (A) (A) (A) (A) (A)
                 (A) (A) (A) (A) (A) (A) (A) (A) (A) (A) (A) (A)
                 (A) (A) (A) (A) (A) (A) (A) (A) (A) (A) (A) (A)
                 (A) (A) (A) (A) (A) (A) (A) (A) (A) (A) (A) (A)
                 (A) (A) (A) (A) (A) (A) (A) (A) (A) (A) (A) (A)
                 (A) (A) (A) (A) (A) (A) (A) (A) (A) (A) (A) (A)
                 (A) (A) (A) (A) (A) (A) (A) (A) (A) (A) (A) (A)
                 (A) (A) (A) (A) (A) (A) (A) (A) (A) (A) (A) (A)
                 (A) (A) (A) (A) (A) (A) (A) (A) (A) (A) (A) (A)
                 (A) (A) (A) (A) (A) (A) (A) (A) (A) (A) (A) (A)
                 (A) (A) (A) (A) (A) (A) (A) (A) (A) (A) (A) (A)
                 (A) (A) (A) (A) (A) (A) (A) (A) (A) (A) (A) (A)
                 (A) (A) (A) (A) (A) (A) (A) (A) (A) (A) (A) (A)
                 (A) (A) (A) (A) (A) (A) (A) (A) (A) (A) (A) (A)
                 (A) (A) (A) (A) (A) (A) (A) (A) (A) (A) (A) (A)
                 (A) (A) (A) (A) (A) (A) (A) (A) (A) (A) (A) (A)
                 (A) (A) (A) (A) (A) (A) (A) (A) (A) (A) (A) (A)
                 (A) (A) (A) (A) (A) (A) (A) (A) (A) (A) (A) (A)
                 (A) (A) (A) (A) (A) (A) (A) (A) (A) (A) (A) (A)
                 (A) (A) (A) (A) (A) (A) (A) (A) (A) (A) (A) (A)
[...]
 Alpha virt. eigenvalues --    1.24667   1.24827   1.25767   1.26256   1.26605
 Alpha virt. eigenvalues --    1.27194   1.27348   1.27728   1.28616   1.28719
 Alpha virt. eigenvalues --    1.29090   1.29149   1.29512   1.29988   1.30383
 Alpha virt. eigenvalues --    1.30564   1.30831   1.31805   1.32352   1.32955
 Alpha virt. eigenvalues --    1.33321   1.33611   1.33829   1.34127   1.34203
 Alpha virt. eigenvalues --    1.34281   1.34436   1.35443   1.35730   1.36126
 Alpha virt. eigenvalues --    1.36539   1.36907   1.37308   1.37896   1.38227
 Alpha virt. eigenvalues --    1.38463   1.38645   1.38878   1.39720   1.40353
 Alpha virt. eigenvalues --    1.40498   1.41055   1.41142   1.41531   1.41996
 Alpha virt. eigenvalues --    1.42586   1.43345   1.43450   1.43752   1.44545
 Alpha virt. eigenvalues --    1.44967   1.45178   1.45392   1.45958   1.46254
 Alpha virt. eigenvalues --    1.46754   1.47238   1.47426   1.47901   1.48188
 Alpha virt. eigenvalues --    1.48733   1.49399   1.49535   1.50135   1.51324
 Alpha virt. eigenvalues --    1.51450   1.51942   1.52182   1.52306   1.52439
 Alpha virt. eigenvalues --    1.52776   1.53137   1.53679   1.53755   1.53767
 Alpha virt. eigenvalues --    1.54184   1.54412   1.54760   1.54969   1.55105
 Alpha virt. eigenvalues --    1.55277   1.55589   1.55610   1.55860   1.56075
 Alpha virt. eigenvalues --    1.56504   1.56567   1.56925   1.57148   1.57542
 Alpha virt. eigenvalues --    1.57780   1.58229   1.58331   1.58635   1.58857
 Alpha virt. eigenvalues --    1.59287   1.59754   1.59764   1.60041   1.60774
 Alpha virt. eigenvalues --    1.61383   1.62056   1.62312   1.62737   1.63208
 Alpha virt. eigenvalues --    1.63761   1.64158   1.65046   1.65845   1.66103
 Alpha virt. eigenvalues --    1.66166   1.67038   1.67275   1.67627   1.67959
 Alpha virt. eigenvalues --    1.68198   1.68617   1.68939   1.69280   1.69747
 Alpha virt. eigenvalues --    1.70443   1.70749   1.71662   1.72135   1.72315
 Alpha virt. eigenvalues --    1.72431   1.72636   1.73076   1.73253   1.73602
 Alpha virt. eigenvalues --    1.73769   1.73842   1.74268   1.74305   1.74582
 Alpha virt. eigenvalues --    1.75080   1.75213   1.75350   1.75804   1.75870
 Alpha virt. eigenvalues --    1.76015   1.76094   1.76326   1.76534   1.76709
 Alpha virt. eigenvalues --    1.76759   1.77382   1.77536   1.77752   1.77929
 Alpha virt. eigenvalues --    1.78163   1.78271   1.78495   1.78686   1.78688
 Alpha virt. eigenvalues --    1.78930   1.79191   1.79567   1.79663   1.79741
 Alpha virt. eigenvalues --    1.79911   1.80088   1.80360   1.80842   1.81003
 Alpha virt. eigenvalues --    1.81166   1.81210   1.81552   1.81654   1.81976
 Alpha virt. eigenvalues --    1.82026   1.82554   1.82774   1.82791   1.83040
 Alpha virt. eigenvalues --    1.83140   1.83252   1.83663   1.83690   1.83904
 Alpha virt. eigenvalues --    1.84015   1.84219   1.84331   1.84637   1.84783
 Alpha virt. eigenvalues --    1.85194   1.85303   1.85468   1.85948   1.85980
 Alpha virt. eigenvalues --    1.86272   1.86830   1.87118   1.87219   1.87406
 Alpha virt. eigenvalues --    1.87503   1.87804   1.88244   1.88282   1.88390
 Alpha virt. eigenvalues --    1.88478   1.88549   1.89181   1.89261   1.89586
 Alpha virt. eigenvalues --    1.89647   1.90018   1.90243   1.90297   1.90464
 Alpha virt. eigenvalues --    1.91078   1.91208   1.91452   1.91746   1.91953
 Alpha virt. eigenvalues --    1.92105   1.92361   1.92525   1.92802   1.93187
 Alpha virt. eigenvalues --    1.93255   1.93820   1.94078   1.94104   1.94497
 Alpha virt. eigenvalues --    1.94540   1.94746   1.95135   1.95245   1.95356
 Alpha virt. eigenvalues --    1.95588   1.95926   1.96290   1.96654   1.96898
 Alpha virt. eigenvalues --    1.97128   1.97241   1.97811   1.97960   1.98157
 Alpha virt. eigenvalues --    1.98346   1.98412   1.99120   1.99322   1.99841
 Alpha virt. eigenvalues --    2.00523   2.00708   2.01091   2.01209   2.01623
 Alpha virt. eigenvalues --    2.02213   2.02427   2.02866   2.03050   2.03388
 Alpha virt. eigenvalues --    2.03708   2.03933   2.04325   2.04403   2.04681
 Alpha virt. eigenvalues --    2.04786   2.05121   2.06032   2.06252   2.06379
 Alpha virt. eigenvalues --    2.06662   2.06807   2.07108   2.07571   2.07931
 Alpha virt. eigenvalues --    2.08406   2.08437   2.08574   2.08849   2.09085
 Alpha virt. eigenvalues --    2.09165   2.09610   2.10323   2.10579   2.10892
 Alpha virt. eigenvalues --    2.11216   2.11452   2.11670   2.11892   2.12422
 Alpha virt. eigenvalues --    2.12574   2.12795   2.13105   2.13318   2.13793
 Alpha virt. eigenvalues --    2.14228   2.14732   2.14836   2.16062   2.16113
 Alpha virt. eigenvalues --    2.16260   2.16401   2.16859   2.16961   2.17349
 Alpha virt. eigenvalues --    2.17682   2.17820   2.17999   2.18103   2.19053
 Alpha virt. eigenvalues --    2.19903   2.20244   2.20399   2.20585   2.21085
 Alpha virt. eigenvalues --    2.21546   2.21597   2.22416   2.22946   2.23154
 Alpha virt. eigenvalues --    2.23878   2.24236   2.24691   2.25152   2.26321
 Alpha virt. eigenvalues --    2.26548   2.26830   2.27176   2.27742   2.27964
 Alpha virt. eigenvalues --    2.28318   2.28866   2.28988   2.29239   2.29390
 Alpha virt. eigenvalues --    2.29599   2.29988   2.30430   2.31550   2.31752
 Alpha virt. eigenvalues --    2.31923   2.32659   2.32796   2.33838   2.33942
 Alpha virt. eigenvalues --    2.34358   2.34520   2.34899   2.35154   2.35473
 Alpha virt. eigenvalues --    2.35550   2.35682   2.36032   2.36392   2.37147
 Alpha virt. eigenvalues --    2.37288   2.37722   2.38428   2.38533   2.38830
 Alpha virt. eigenvalues --    2.39083   2.39512   2.39964   2.40237   2.40327
 Alpha virt. eigenvalues --    2.41255   2.41478   2.41842   2.42511   2.42761
 Alpha virt. eigenvalues --    2.42915   2.43024   2.43356   2.43856   2.44129
 Alpha virt. eigenvalues --    2.44520   2.44949   2.45250   2.45374   2.45915
 Alpha virt. eigenvalues --    2.46485   2.46939   2.47320   2.47678   2.47765
 Alpha virt. eigenvalues --    2.48290   2.48436   2.48898   2.49018   2.49146
 Alpha virt. eigenvalues --    2.49380   2.49903   2.50872   2.51348   2.51714
 Alpha virt. eigenvalues --    2.53082   2.54015   2.54371   2.54454   2.54686
 Alpha virt. eigenvalues --    2.55883   2.56079   2.56596   2.57176   2.57385
 Alpha virt. eigenvalues --    2.57741   2.58102   2.58312   2.58679   2.58817
 Alpha virt. eigenvalues --    2.59212   2.59956   2.60295   2.60636   2.60739
 Alpha virt. eigenvalues --    2.60950   2.61198   2.61737   2.62099   2.62779
 Alpha virt. eigenvalues --    2.63130   2.63299   2.63757   2.63880   2.64050
 Alpha virt. eigenvalues --    2.64405   2.64876   2.65141   2.65641   2.65907
 Alpha virt. eigenvalues --    2.66714   2.67366   2.67399   2.67935   2.69018
 Alpha virt. eigenvalues --    2.69102   2.69511   2.69584   2.70246   2.70482
 Alpha virt. eigenvalues --    2.70862   2.71161   2.71267   2.71486   2.71795
 Alpha virt. eigenvalues --    2.71868   2.72366   2.72797   2.73155   2.73429
 Alpha virt. eigenvalues --    2.73763   2.74421   2.75270   2.75615   2.76172
 Alpha virt. eigenvalues --    2.76405   2.77438   2.77898   2.78153   2.79262
 Alpha virt. eigenvalues --    2.79712   2.80374   2.80714   2.81721   2.82108
 Alpha virt. eigenvalues --    2.82400   2.83012   2.83842   2.84415   2.84997
 Alpha virt. eigenvalues --    2.85526   2.85699   2.86286   2.86524   2.86561
 Alpha virt. eigenvalues --    2.87526   2.87716   2.88485   2.88536   2.89115
 Alpha virt. eigenvalues --    2.89153   2.89446   2.90576   2.90925   2.91197
 Alpha virt. eigenvalues --    2.91307   2.91759   2.91854   2.92112   2.92615
 Alpha virt. eigenvalues --    2.93145   2.93555   2.93708   2.94413   2.94517
 Alpha virt. eigenvalues --    2.94770   2.95117   2.95634   2.95654   2.96046
 Alpha virt. eigenvalues --    2.96282   2.96471   2.96697   2.96931   2.97160
 Alpha virt. eigenvalues --    2.97531   2.97572   2.98044   2.98229   2.98363
 Alpha virt. eigenvalues --    2.98528   2.98688   2.99069   2.99196   2.99675
 Alpha virt. eigenvalues --    2.99912   3.00107   3.00338   3.00809   3.01093
 Alpha virt. eigenvalues --    3.01653   3.01750   3.02764   3.03235   3.03460
 Alpha virt. eigenvalues --    3.03505   3.03809   3.04596   3.04796   3.05675
 Alpha virt. eigenvalues --    3.05954   3.06497   3.06638   3.07018   3.07678
 Alpha virt. eigenvalues --    3.07813   3.08779   3.08905   3.09596   3.10555
 Alpha virt. eigenvalues --    3.10712   3.10756   3.12358   3.12758   3.13431
 Alpha virt. eigenvalues --    3.15322   3.15732   3.16033   3.16218   3.16928
 Alpha virt. eigenvalues --    3.17032   3.17622   3.18247   3.19391   3.19780
 Alpha virt. eigenvalues --    3.20202   3.21207   3.22877   3.24231   3.25047
 Alpha virt. eigenvalues --    3.26392   3.28534   3.35444   3.38544   3.41163
 Alpha virt. eigenvalues --    3.43108   3.44007   3.45449   3.50013   3.54778
 Alpha virt. eigenvalues --    3.57699   3.62350   3.62742   3.66258   3.66412
 Alpha virt. eigenvalues --    3.66830   3.68175
          Condensed to atoms (all electrons):
 Mulliken charges:
               1
     1  Mg   1.001983
     2  C    0.028603
     3  C   -0.064042
     4  C   -0.086122
     5  C   -0.101781
     6  N   -0.409984
     7  C    0.049342
     8  C   -0.042441
     9  C   -0.184861
    10  C    0.125743
    11  C    0.015394
    12  C    0.049661
    13  C   -0.081358
    14  C    0.239816
    15  O   -0.263532
    16  O   -0.344441
    17  N   -0.434024
    18  C    0.112877
    19  C   -0.167372
    20  C   -0.094212
    21  C    0.177824
    22  C    0.032733
    23  C    0.049701
    24  O   -0.238599
    25  C   -0.014413
    26  N   -0.478121
    27  C    0.065782
    28  C   -0.120133
    29  C   -0.092363
    30  C    0.106352
    31  C    0.030330
    32  C   -0.055306
    33  C   -0.057624
    34  N   -0.468257
    35  C    0.155699
    36  C   -0.195564
    37  C   -0.021504
    38  C    0.137242
    39  C    0.057956
    40  C    0.151426
    41  O   -0.196553
    42  C   -0.200239
    43  C    0.304031
    44  O   -0.252302
    45  O   -0.355569
    46  C    0.120878
    47  C    0.272996
    48  C   -0.163780
    49  C   -0.177297
    50  C   -0.000904
    51  C   -0.024008
    52  C   -0.035023
    53  C   -0.011897
    54  C   -0.213256
    55  C   -0.025815
    56  C    0.008666
    57  C   -0.111015
    58  C    0.047958
    59  C   -0.218160
    60  C   -0.024914
    61  C    0.058481
    62  C   -0.078282
    63  C   -0.029795
    64  C   -0.233418
    65  C   -0.018706
    66  C   -0.029435
    67  H    0.008139
    68  H    0.025047
    69  H    0.000279
    70  H    0.059717
    71  H    0.044679
    72  H    0.052714
    73  H    0.040634
    74  H    0.041158
    75  H    0.034884
    76  H    0.057835
    77  H    0.065019
    78  H    0.048580
    79  H    0.054792
    80  H    0.023481
    81  H    0.044628
    82  H    0.058251
    83  H    0.056106
    84  H    0.052775
    85  H    0.054857
    86  H    0.053300
    87  H    0.042459
    88  H    0.054709
    89  H    0.048319
    90  H    0.043706
    91  H    0.044156
    92  H    0.043723
    93  H    0.074546
    94  H    0.045395
    95  H    0.036942
    96  H    0.067096
    97  H    0.052782
    98  H    0.111822
    99  H    0.059611
   100  H    0.040353
   101  H    0.066677
   102  H    0.068730
   103  H    0.055315
   104  H    0.021764
   105  H    0.056623
   106  H    0.033684
   107  H    0.051633
   108  H    0.025573
   109  H    0.041890
   110  H    0.044690
   111  H    0.041149
   112  H    0.026353
   113  H    0.028887
   114  H    0.028875
   115  H    0.040458
   116  H    0.034984
   117  H    0.036691
   118  H    0.026043
   119  H    0.034009
   120  H    0.034135
   121  H    0.029914
   122  H    0.019181
   123  H    0.018540
   124  H    0.032117
   125  H    0.030753
   126  H    0.028428
   127  H    0.037122
   128  H    0.017429
   129  H    0.021997
   130  H    0.014646
   131  H    0.020585
   132  H    0.028434
   133  H    0.027577
   134  H    0.033289
   135  H    0.032161
   136  H    0.034452
   137  H    0.037964
   138  H    0.040271
   139  H    0.037999
   140  H    0.031433
 Sum of Mulliken charges =  -0.00000
 Mulliken charges with hydrogens summed into heavy atoms:
               1
     1  Mg   1.001983
     2  C    0.028603
     3  C   -0.055903
     4  C   -0.061075
     5  C   -0.101503
     6  N   -0.409984
     7  C    0.049342
     8  C    0.017276
     9  C   -0.140182
    10  C    0.125743
    11  C    0.149900
    12  C    0.142380
    13  C    0.032241
    14  C    0.239816
    15  O   -0.263532
    16  O   -0.344441
    17  N   -0.434024
    18  C    0.112877
    19  C   -0.167372
    20  C   -0.094212
    21  C    0.177824
    22  C    0.155634
    23  C    0.049701
    24  O   -0.238599
    25  C    0.152719
    26  N   -0.478121
    27  C    0.065782
    28  C   -0.065276
    29  C   -0.039062
    30  C    0.106352
    31  C    0.175817
    32  C    0.032555
    33  C    0.106040
    34  N   -0.468257
    35  C    0.155699
    36  C   -0.195564
    37  C   -0.021504
    38  C    0.137242
    39  C    0.214777
    40  C    0.151426
    41  O   -0.196553
    42  C   -0.088417
    43  C    0.304031
    44  O   -0.252302
    45  O   -0.355569
    46  C    0.287518
    47  C    0.397041
    48  C   -0.142016
    49  C   -0.177297
    50  C    0.141036
    51  C    0.043456
    52  C    0.050816
    53  C    0.043343
    54  C   -0.184381
    55  C    0.086318
    56  C    0.068717
    57  C   -0.046965
    58  C    0.085680
    59  C   -0.186043
    60  C    0.071389
    61  C    0.097907
    62  C   -0.043051
    63  C    0.026216
    64  C   -0.200129
    65  C    0.085870
    66  C    0.080268
 Electronic spatial extent (au):  <R**2>=         148900.4823
 Charge=             -0.0000 electrons
 Dipole moment (field-independent basis, Debye):
    X=             -3.6545    Y=              2.5966    Z=              0.2366  Tot=              4.4893
 Quadrupole moment (field-independent basis, Debye-Ang):
   XX=           -370.0477   YY=           -417.1402   ZZ=           -409.5697
   XY=             -0.4395   XZ=             13.5152   YZ=              2.4596
 Traceless Quadrupole moment (field-independent basis, Debye-Ang):
   XX=             28.8716   YY=            -18.2210   ZZ=            -10.6505
   XY=             -0.4395   XZ=             13.5152   YZ=              2.4596
 Octapole moment (field-independent basis, Debye-Ang**2):
  XXX=            244.3669  YYY=             85.3108  ZZZ=             14.0248  XYY=           -204.0225
  XXY=           -399.8273  XXZ=            136.6661  XZZ=             33.9483  YZZ=             -1.3589
  YYZ=            -71.7197  XYZ=             -3.8007
 Hexadecapole moment (field-independent basis, Debye-Ang**3):
 XXXX=        -172258.9069 YYYY=         -22274.4877 ZZZZ=          -5023.8101 XXXY=          -2461.2718
 XXXZ=           1260.2169 YYYX=            449.6519 YYYZ=            116.5870 ZZZX=            -21.5648
 ZZZY=             14.3182 XXYY=         -34969.2742 XXZZ=         -31074.9566 YYZZ=          -4583.7542
 XXYZ=           -149.5765 YYXZ=            -66.5983 ZZXY=            196.2849
 N-N= 9.301842714689D+03 E-N=-2.559538900143D+04  KE= 2.975757343634D+03
 Leave Link  601 at Fri Apr 29 02:54:34 2022, MaxMem= 10066329600 cpu:              13.7 elap:               0.7
 (Enter /sw/apps/gaussian-16.0/g16/l9999.exe)
 1\1\GINC-BP1-COMPUTE138\SP\RPBE1PBE TD-FC\def2SVP\C55H74Mg1N4O6\OF1564
 1\29-Apr-2022\0\\#p PBE1PBE/Def2SVP td=(nstates=5)\\step_1851_chromoph
 ore_16 TDDFT with PBE1PBE functional\\0,1\Mg,0,41.083,41.087,26.95\C,0
 ,40.284,43.436,29.506\C,0,42.006,38.802,29.46\C,0,42.03,39.018,24.591\
 C,0,40.72,43.648,24.587\N,0,41.119,41.12,29.12\C,0,40.714,42.125,29.93
 7\C,0,40.76,41.734,31.432\C,0,41.294,40.311,31.414\C,0,41.521,40.002,2
 9.88\C,0,42.569,40.026,32.273\C,0,39.533,41.972,32.256\C,0,39.815,42.4
 22,33.667\C,0,38.715,43.057,34.554\O,0,37.749,43.665,34.128\O,0,38.956
 ,42.875,35.857\N,0,41.95,39.201,26.963\C,0,42.179,38.409,28.064\C,0,42
 .613,37.132,27.557\C,0,42.561,37.137,26.139\C,0,42.268,38.565,25.894\C
 ,0,42.84,35.944,28.478\C,0,42.809,35.96,25.229\O,0,42.769,36.158,24.03
 \C,0,43.066,34.52,25.764\N,0,41.492,41.364,25.02\C,0,41.684,40.255,24.
 151\C,0,41.592,40.61,22.604\C,0,41.327,42.147,22.714\C,0,41.195,42.412
 ,24.171\C,0,42.806,40.331,21.778\C,0,40.166,42.6,21.802\C,0,38.745,42.
 387,22.362\N,0,40.442,43.102,26.978\C,0,40.415,44.017,25.935\C,0,39.98
 8,45.272,26.484\C,0,39.863,45.071,27.848\C,0,40.262,43.773,28.125\C,0,
 39.851,46.484,25.732\C,0,39.459,45.767,29.078\O,0,39.027,46.907,29.176
 \C,0,39.68,44.645,30.19\C,0,40.559,45.355,31.196\O,0,41.786,45.303,31.
 215\O,0,39.683,45.998,32.078\C,0,40.364,46.628,33.18\C,0,37.948,43.298
 ,36.819\C,0,38.417,42.683,38.09\C,0,38.193,43.027,39.325\C,0,37.253,44
 .16,39.823\C,0,38.69,42.28,40.533\C,0,38.24,40.677,40.73\C,0,38.156,40
 .254,42.261\C,0,39.001,39.002,42.527\C,0,38.147,37.729,42.203\C,0,39.5
 2,38.916,43.944\C,0,38.44,38.686,44.982\C,0,38.997,38.078,46.202\C,0,3
 8.202,38.33,47.493\C,0,38.913,39.281,48.517\C,0,37.571,37.083,48.166\C
 ,0,36.057,37.043,48.136\C,0,35.434,36.542,46.829\C,0,33.919,36.813,46.
 793\C,0,33.375,36.971,45.365\C,0,33.083,35.693,47.638\H,0,42.225,38.01
 ,30.179\H,0,42.215,38.363,23.738\H,0,40.652,44.435,23.834\H,0,41.626,4
 2.327,31.727\H,0,40.573,39.588,31.796\H,0,43.274,39.414,31.71\H,0,42.1
 47,39.54,33.153\H,0,43.03,40.974,32.549\H,0,39.021,41.016,32.371\H,0,3
 8.808,42.676,31.849\H,0,40.678,43.087,33.683\H,0,40.164,41.501,34.133\
 H,0,42.121,35.144,28.304\H,0,42.823,36.135,29.551\H,0,43.855,35.548,28
 .424\H,0,43.89,34.396,26.466\H,0,43.188,33.794,24.959\H,0,42.152,34.31
 7,26.322\H,0,40.764,40.044,22.176\H,0,42.174,42.808,22.53\H,0,42.536,3
 9.545,21.072\H,0,43.52,39.921,22.493\H,0,43.192,41.218,21.275\H,0,40.2
 37,41.849,21.016\H,0,40.419,43.624,21.527\H,0,38.259,43.326,22.098\H,0
 ,38.68,42.247,23.441\H,0,38.359,41.565,21.759\H,0,39.316,46.251,24.812
 \H,0,40.809,46.966,25.537\H,0,39.199,47.225,26.196\H,0,38.695,44.443,3
 0.609\H,0,41.39,46.914,32.947\H,0,40.504,45.938,34.012\H,0,39.741,47.4
 71,33.479\H,0,36.933,43.009,36.547\H,0,37.938,44.37,37.019\H,0,39.03,4
 1.791,37.962\H,0,36.447,43.642,40.343\H,0,36.843,44.789,39.033\H,0,37.
 764,44.78,40.56\H,0,38.606,42.837,41.467\H,0,39.771,42.166,40.446\H,0,
 38.955,40.071,40.175\H,0,37.259,40.588,40.264\H,0,37.144,39.944,42.522
 \H,0,38.357,41.035,42.995\H,0,39.796,39.021,41.782\H,0,38.43,36.875,42
 .818\H,0,38.238,37.401,41.168\H,0,37.108,37.97,42.426\H,0,39.892,39.89
 4,44.248\H,0,40.287,38.148,44.041\H,0,37.742,37.956,44.571\H,0,37.841,
 39.579,45.161\H,0,40.023,38.432,46.297\H,0,39.05,36.994,46.103\H,0,37.
 382,39.002,47.242\H,0,39.373,38.704,49.319\H,0,38.2,39.89,49.074\H,0,3
 9.603,39.956,48.012\H,0,37.85,37.094,49.219\H,0,37.911,36.143,47.729\H
 ,0,35.648,38.05,48.224\H,0,35.617,36.523,48.988\H,0,35.687,35.492,46.6
 82\H,0,35.924,37.096,46.028\H,0,33.709,37.765,47.279\H,0,33.935,36.281
 ,44.733\H,0,33.619,37.986,45.049\H,0,32.316,36.798,45.176\H,0,32.381,3
 5.202,46.963\H,0,32.594,36.118,48.514\H,0,33.806,35.,48.068\\Version=E
 S64L-G16RevA.03\State=1-A\HF=-3005.377639\RMSD=9.493e-09\PG=C01 [X(C55
 H74Mg1N4O6)]\\@


 I DO NOT KNOW WHAT I MAY APPEAR TO THE WORLD; BUT TO MYSELF
 I SEEM TO HAVE BEEN ONLY LIKE A BOY PLAYING ON THE SEASHORE,
 AND DIVERTING MYSELF IN NOW AND THEN FINDING A SMOOTHER PEBBLE
 OR A PRETTIER SHELL THAN ORDINARY, WHILST THE GREAT OCEAN OF
 TRUTH LAY ALL UNDISCOVERED BEFORE ME.
                                          -- NEWTON (1642-1726)
 Job cpu time:       0 days  9 hours 25 minutes 47.8 seconds.
 Elapsed time:       0 days  0 hours 23 minutes 38.0 seconds.
 File lengths (MBytes):  RWF=   8929 Int=      0 D2E=      0 Chk=    390 Scr=      1
 Normal termination of Gaussian 16 at Fri Apr 29 02:54:35 2022.
