 Entering Gaussian System, Link 0=g16
 Initial command:
 /sw/apps/gaussian-16.0/g16/l1.exe "/tmp/Gau-106922.inp" -scrdir="/tmp/"
 Entering Link 1 = /sw/apps/gaussian-16.0/g16/l1.exe PID=    106923.
  
 Copyright (c) 1988,1990,1992,1993,1995,1998,2003,2009,2016,
            Gaussian, Inc.  All Rights Reserved.
  
 This is part of the Gaussian(R) 16 program.  It is based on
 the Gaussian(R) 09 system (copyright 2009, Gaussian, Inc.),
 the Gaussian(R) 03 system (copyright 2003, Gaussian, Inc.),
 the Gaussian(R) 98 system (copyright 1998, Gaussian, Inc.),
 the Gaussian(R) 94 system (copyright 1995, Gaussian, Inc.),
 the Gaussian 92(TM) system (copyright 1992, Gaussian, Inc.),
 the Gaussian 90(TM) system (copyright 1990, Gaussian, Inc.),
 the Gaussian 88(TM) system (copyright 1988, Gaussian, Inc.),
 the Gaussian 86(TM) system (copyright 1986, Carnegie Mellon
 University), and the Gaussian 82(TM) system (copyright 1983,
 Carnegie Mellon University). Gaussian is a federally registered
 trademark of Gaussian, Inc.
  
 This software contains proprietary and confidential information,
 including trade secrets, belonging to Gaussian, Inc.
  
 This software is provided under written license and may be
 used, copied, transmitted, or stored only in accord with that
 written license.
  
 The following legend is applicable only to US Government
 contracts under FAR:
  
                    RESTRICTED RIGHTS LEGEND
  
 Use, reproduction and disclosure by the US Government is
 subject to restrictions as set forth in subparagraphs (a)
 and (c) of the Commercial Computer Software - Restricted
 Rights clause in FAR 52.227-19.
  
 Gaussian, Inc.
 340 Quinnipiac St., Bldg. 40, Wallingford CT 06492
  
  
 ---------------------------------------------------------------
 Warning -- This program may not be used in any manner that
 competes with the business of Gaussian, Inc. or will provide
 assistance to any competitor of Gaussian, Inc.  The licensee
 of this program is prohibited from giving any competitor of
 Gaussian, Inc. access to this program.  By using this program,
 the user acknowledges that Gaussian, Inc. is engaged in the
 business of creating and licensing software in the field of
 computational chemistry and represents and warrants to the
 licensee that it is not a competitor of Gaussian, Inc. and that
 it will not use this program in any manner prohibited above.
 ---------------------------------------------------------------
  

 Cite this work as:
 Gaussian 16, Revision A.03,
 M. J. Frisch, G. W. Trucks, H. B. Schlegel, G. E. Scuseria, 
 M. A. Robb, J. R. Cheeseman, G. Scalmani, V. Barone, 
 G. A. Petersson, H. Nakatsuji, X. Li, M. Caricato, A. V. Marenich, 
 J. Bloino, B. G. Janesko, R. Gomperts, B. Mennucci, H. P. Hratchian, 
 J. V. Ortiz, A. F. Izmaylov, J. L. Sonnenberg, D. Williams-Young, 
 F. Ding, F. Lipparini, F. Egidi, J. Goings, B. Peng, A. Petrone, 
 T. Henderson, D. Ranasinghe, V. G. Zakrzewski, J. Gao, N. Rega, 
 G. Zheng, W. Liang, M. Hada, M. Ehara, K. Toyota, R. Fukuda, 
 J. Hasegawa, M. Ishida, T. Nakajima, Y. Honda, O. Kitao, H. Nakai, 
 T. Vreven, K. Throssell, J. A. Montgomery, Jr., J. E. Peralta, 
 F. Ogliaro, M. J. Bearpark, J. J. Heyd, E. N. Brothers, K. N. Kudin, 
 V. N. Staroverov, T. A. Keith, R. Kobayashi, J. Normand, 
 K. Raghavachari, A. P. Rendell, J. C. Burant, S. S. Iyengar, 
 J. Tomasi, M. Cossi, J. M. Millam, M. Klene, C. Adamo, R. Cammi, 
 J. W. Ochterski, R. L. Martin, K. Morokuma, O. Farkas, 
 J. B. Foresman, and D. J. Fox, Gaussian, Inc., Wallingford CT, 2016.
 
 ******************************************
 Gaussian 16:  ES64L-G16RevA.03 25-Dec-2016
                 5-May-2022 
 ******************************************
 %nproc=24
 Will use up to   24 processors via shared memory.
 %mem=75GB
 -----------------------------------
 #p cam-b3lyp/Def2SVP td=(nstates=5)
 -----------------------------------
 1/38=1,172=1/1;
 2/12=2,17=6,18=5,40=1/2;
 3/5=43,7=101,11=9,25=1,30=1,74=-40/1,2,3,8;
 4//1;
 5/5=2,38=5/2;
 8/6=1,10=1,108=5/1;
 9/41=5,42=1,70=2/14;
 6/7=2,8=2,9=2,10=2/1;
 99/5=1,9=1/99;
 Leave Link    1 at Thu May  5 05:33:26 2022, MaxMem= 10066329600 cpu:               0.6 elap:               0.0
 (Enter /sw/apps/gaussian-16.0/g16/l101.exe)
 -------------------------------------------------------
 step_701_chromophore_24 TDDFT with cam-b3lyp functional
 -------------------------------------------------------
 Symbolic Z-matrix:
 Charge =  0 Multiplicity = 1
 Mg                   -0.395     44.078    24.995 
 C                     1.72      43.232    27.767 
 C                    -3.009     42.868    26.912 
 C                    -2.355     44.064    22.191 
 C                     2.456     44.674    23.106 
 N                    -0.549     43.038    27.147 
 C                     0.367     43.026    28.139 
 C                    -0.15      42.418    29.452 
 C                    -1.698     42.142    29.052 
 C                    -1.791     42.776    27.554 
 C                    -2.17      40.678    29.08 
 C                    -0.067     43.44     30.652 
 C                     0.094     42.981    32.064 
 C                    -0.544     41.651    32.477 
 O                     0.032     40.527    32.58 
 O                    -1.921     41.736    32.479 
 N                    -2.468     43.858    24.599 
 C                    -3.326     43.37     25.573 
 C                    -4.69      43.454    25.037 
 C                    -4.534     43.696    23.577 
 C                    -3.081     43.824    23.407 
 C                    -5.883     43.121    25.824 
 C                    -5.622     43.817    22.462 
 O                    -5.304     44.018    21.309 
 C                    -7.045     43.844    22.948 
 N                    -0.002     44.498    23.006 
 C                    -0.966     44.393    22.013 
 C                    -0.325     44.473    20.614 
 C                     1.082     45.026    20.93 
 C                     1.199     44.735    22.398 
 C                    -0.338     43.185    19.872 
 C                     1.336     46.514    20.682 
 C                     0.638     47.529    21.654 
 N                     1.661     44.045    25.349 
 C                     2.673     44.366    24.457 
 C                     3.874     44.247    25.147 
 C                     3.558     43.85     26.416 
 C                     2.205     43.653    26.543 
 C                     5.178     44.51     24.742 
 C                     4.12      43.552    27.727 
 O                     5.291     43.466    28.053 
 C                     2.946     43.179    28.631 
 C                     3.194     41.886    29.241 
 O                     3.297     40.876    28.577 
 O                     3.521     41.904    30.597 
 C                     3.946     40.689    31.221 
 C                    -2.722     40.598    32.764 
 C                    -3.647     40.898    33.954 
 C                    -3.537     40.548    35.274 
 C                    -2.268     39.921    35.856 
 C                    -4.504     40.904    36.342 
 C                    -4.441     42.346    36.859 
 C                    -5.514     43.302    36.27 
 C                    -6.609     43.739    37.316 
 C                    -6.054     44.652    38.41 
 C                    -7.833     44.351    36.581 
 C                    -9.125     43.523    36.812 
 C                    -9.265     42.295    35.74 
 C                    -9.541     40.864    36.353 
 C                    -9.071     39.707    35.405 
 C                    -11.027    40.716    36.654 
 C                    -11.495    41.143    38.048 
 C                    -11.756    40.02     38.994 
 C                    -12.984    39.217    38.643 
 C                    -14.271    39.896    39.117 
 C                    -12.932    37.811    39.257 
 H                    -3.859     42.488    27.483 
 H                    -2.876     44.109    21.232 
 H                     3.309     44.882    22.457 
 H                     0.332     41.464    29.668 
 H                    -2.27      42.673    29.813 
 H                    -1.294     40.044    29.212 
 H                    -2.746     40.409    28.195 
 H                    -2.752     40.751    29.998 
 H                    -0.928     44.109    30.66 
 H                     0.892     43.942    30.521 
 H                    -0.081     43.816    32.743 
 H                     1.168     42.833    32.175 
 H                    -5.648     43.178    26.887 
 H                    -6.471     42.241    25.561 
 H                    -6.609     43.934    25.801 
 H                    -7.719     44.012    22.108 
 H                    -7.17      44.617    23.706 
 H                    -7.299     42.905    23.439 
 H                    -0.888     45.229    20.066 
 H                     1.963     44.588    20.461 
 H                     0.638     42.738    19.683 
 H                    -0.635     43.269    18.826 
 H                    -0.996     42.421    20.285 
 H                     1.182     46.882    19.668 
 H                     2.374     46.748    20.919 
 H                     0.085     48.227    21.026 
 H                     1.352     47.994    22.334 
 H                    -0.058     47.042    22.338 
 H                     5.548     45.414    25.225 
 H                     5.215     44.807    23.693 
 H                     5.936     43.731    24.83 
 H                     3.053     43.887    29.453 
 H                     4.173     39.834    30.584 
 H                     3.227     40.397    31.987 
 H                     4.876     40.889    31.752 
 H                    -2.169     39.666    32.88 
 H                    -3.444     40.461    31.959 
 H                    -4.636     41.292    33.718 
 H                    -2.517     39.009    36.398 
 H                    -1.909     40.689    36.541 
 H                    -1.59      39.668    35.041 
 H                    -4.484     40.227    37.195 
 H                    -5.515     40.702    35.988 
 H                    -3.492     42.832    36.632 
 H                    -4.444     42.277    37.947 
 H                    -5.946     42.796    35.406 
 H                    -4.879     44.122    35.936 
 H                    -6.697     42.808    37.876 
 H                    -5.113     45.071    38.054 
 H                    -5.933     44.184    39.387 
 H                    -6.735     45.478    38.615 
 H                    -7.763     44.514    35.505 
 H                    -8.14      45.328    36.954 
 H                    -9.996     44.178    36.835 
 H                    -9.006     43.11     37.813 
 H                    -8.251     42.098    35.391 
 H                    -9.887     42.527    34.875 
 H                    -9.027     40.86     37.315 
 H                    -9.497     38.734    35.648 
 H                    -8.045     39.423    35.64 
 H                    -9.266     40.114    34.412 
 H                    -11.42     39.727    36.416 
 H                    -11.44     41.306    35.836 
 H                    -12.341    41.83     38.028 
 H                    -10.647    41.63     38.529 
 H                    -11.832    40.394    40.016 
 H                    -10.865    39.394    38.944 
 H                    -13.061    39.099    37.562 
 H                    -15.086    39.45     39.687 
 H                    -14.859    40.195    38.249 
 H                    -13.89     40.815    39.562 
 H                    -12.974    37.191    38.361 
 H                    -13.838    37.605    39.826 
 H                    -12.026    37.52     39.788 
 
 ITRead=  0  0  0  0  0  0  0  0  0  0  0  0  0  0  0  0  0  0  0  0
 ITRead=  0  0  0  0  0  0  0  0  0  0  0  0  0  0  0  0  0  0  0  0
 ITRead=  0  0  0  0  0  0  0  0  0  0  0  0  0  0  0  0  0  0  0  0
 ITRead=  0  0  0  0  0  0  0  0  0  0  0  0  0  0  0  0  0  0  0  0
 ITRead=  0  0  0  0  0  0  0  0  0  0  0  0  0  0  0  0  0  0  0  0
 ITRead=  0  0  0  0  0  0  0  0  0  0  0  0  0  0  0  0  0  0  0  0
 ITRead=  0  0  0  0  0  0  0  0  0  0  0  0  0  0  0  0  0  0  0  0
 MicOpt= -1 -1 -1 -1 -1 -1 -1 -1 -1 -1 -1 -1 -1 -1 -1 -1 -1 -1 -1 -1
 MicOpt= -1 -1 -1 -1 -1 -1 -1 -1 -1 -1 -1 -1 -1 -1 -1 -1 -1 -1 -1 -1
 MicOpt= -1 -1 -1 -1 -1 -1 -1 -1 -1 -1 -1 -1 -1 -1 -1 -1 -1 -1 -1 -1
 MicOpt= -1 -1 -1 -1 -1 -1 -1 -1 -1 -1 -1 -1 -1 -1 -1 -1 -1 -1 -1 -1
 MicOpt= -1 -1 -1 -1 -1 -1 -1 -1 -1 -1 -1 -1 -1 -1 -1 -1 -1 -1 -1 -1
 MicOpt= -1 -1 -1 -1 -1 -1 -1 -1 -1 -1 -1 -1 -1 -1 -1 -1 -1 -1 -1 -1
 MicOpt= -1 -1 -1 -1 -1 -1 -1 -1 -1 -1 -1 -1 -1 -1 -1 -1 -1 -1 -1 -1
 NAtoms=    140 NQM=      140 NQMF=       0 NMMI=      0 NMMIF=      0
                NMic=       0 NMicF=      0.
                    Isotopes and Nuclear Properties:
 (Nuclear quadrupole moments (NQMom) in fm**2, nuclear magnetic moments (NMagM)
  in nuclear magnetons)

  Atom         1           2           3           4           5           6           7           8           9          10
 IAtWgt=          24          12          12          12          12          14          12          12          12          12
 AtmWgt=  23.9850450  12.0000000  12.0000000  12.0000000  12.0000000  14.0030740  12.0000000  12.0000000  12.0000000  12.0000000
 NucSpn=           0           0           0           0           0           2           0           0           0           0
 AtZEff=  -0.0000000  -0.0000000  -0.0000000  -0.0000000  -0.0000000  -0.0000000  -0.0000000  -0.0000000  -0.0000000  -0.0000000
 NQMom=    0.0000000   0.0000000   0.0000000   0.0000000   0.0000000   2.0440000   0.0000000   0.0000000   0.0000000   0.0000000
 NMagM=    0.0000000   0.0000000   0.0000000   0.0000000   0.0000000   0.4037610   0.0000000   0.0000000   0.0000000   0.0000000
 AtZNuc=  12.0000000   6.0000000   6.0000000   6.0000000   6.0000000   7.0000000   6.0000000   6.0000000   6.0000000   6.0000000

  Atom        11          12          13          14          15          16          17          18          19          20
 IAtWgt=          12          12          12          12          16          16          14          12          12          12
 AtmWgt=  12.0000000  12.0000000  12.0000000  12.0000000  15.9949146  15.9949146  14.0030740  12.0000000  12.0000000  12.0000000
 NucSpn=           0           0           0           0           0           0           2           0           0           0
 AtZEff=  -0.0000000  -0.0000000  -0.0000000  -0.0000000  -0.0000000  -0.0000000  -0.0000000  -0.0000000  -0.0000000  -0.0000000
 NQMom=    0.0000000   0.0000000   0.0000000   0.0000000   0.0000000   0.0000000   2.0440000   0.0000000   0.0000000   0.0000000
 NMagM=    0.0000000   0.0000000   0.0000000   0.0000000   0.0000000   0.0000000   0.4037610   0.0000000   0.0000000   0.0000000
 AtZNuc=   6.0000000   6.0000000   6.0000000   6.0000000   8.0000000   8.0000000   7.0000000   6.0000000   6.0000000   6.0000000

  Atom        21          22          23          24          25          26          27          28          29          30
 IAtWgt=          12          12          12          16          12          14          12          12          12          12
 AtmWgt=  12.0000000  12.0000000  12.0000000  15.9949146  12.0000000  14.0030740  12.0000000  12.0000000  12.0000000  12.0000000
 NucSpn=           0           0           0           0           0           2           0           0           0           0
 AtZEff=  -0.0000000  -0.0000000  -0.0000000  -0.0000000  -0.0000000  -0.0000000  -0.0000000  -0.0000000  -0.0000000  -0.0000000
 NQMom=    0.0000000   0.0000000   0.0000000   0.0000000   0.0000000   2.0440000   0.0000000   0.0000000   0.0000000   0.0000000
 NMagM=    0.0000000   0.0000000   0.0000000   0.0000000   0.0000000   0.4037610   0.0000000   0.0000000   0.0000000   0.0000000
 AtZNuc=   6.0000000   6.0000000   6.0000000   8.0000000   6.0000000   7.0000000   6.0000000   6.0000000   6.0000000   6.0000000

  Atom        31          32          33          34          35          36          37          38          39          40
 IAtWgt=          12          12          12          14          12          12          12          12          12          12
 AtmWgt=  12.0000000  12.0000000  12.0000000  14.0030740  12.0000000  12.0000000  12.0000000  12.0000000  12.0000000  12.0000000
 NucSpn=           0           0           0           2           0           0           0           0           0           0
 AtZEff=  -0.0000000  -0.0000000  -0.0000000  -0.0000000  -0.0000000  -0.0000000  -0.0000000  -0.0000000  -0.0000000  -0.0000000
 NQMom=    0.0000000   0.0000000   0.0000000   2.0440000   0.0000000   0.0000000   0.0000000   0.0000000   0.0000000   0.0000000
 NMagM=    0.0000000   0.0000000   0.0000000   0.4037610   0.0000000   0.0000000   0.0000000   0.0000000   0.0000000   0.0000000
 AtZNuc=   6.0000000   6.0000000   6.0000000   7.0000000   6.0000000   6.0000000   6.0000000   6.0000000   6.0000000   6.0000000

  Atom        41          42          43          44          45          46          47          48          49          50
 IAtWgt=          16          12          12          16          16          12          12          12          12          12
 AtmWgt=  15.9949146  12.0000000  12.0000000  15.9949146  15.9949146  12.0000000  12.0000000  12.0000000  12.0000000  12.0000000
 NucSpn=           0           0           0           0           0           0           0           0           0           0
 AtZEff=  -0.0000000  -0.0000000  -0.0000000  -0.0000000  -0.0000000  -0.0000000  -0.0000000  -0.0000000  -0.0000000  -0.0000000
 NQMom=    0.0000000   0.0000000   0.0000000   0.0000000   0.0000000   0.0000000   0.0000000   0.0000000   0.0000000   0.0000000
 NMagM=    0.0000000   0.0000000   0.0000000   0.0000000   0.0000000   0.0000000   0.0000000   0.0000000   0.0000000   0.0000000
 AtZNuc=   8.0000000   6.0000000   6.0000000   8.0000000   8.0000000   6.0000000   6.0000000   6.0000000   6.0000000   6.0000000

  Atom        51          52          53          54          55          56          57          58          59          60
 IAtWgt=          12          12          12          12          12          12          12          12          12          12
 AtmWgt=  12.0000000  12.0000000  12.0000000  12.0000000  12.0000000  12.0000000  12.0000000  12.0000000  12.0000000  12.0000000
 NucSpn=           0           0           0           0           0           0           0           0           0           0
 AtZEff=  -0.0000000  -0.0000000  -0.0000000  -0.0000000  -0.0000000  -0.0000000  -0.0000000  -0.0000000  -0.0000000  -0.0000000
 NQMom=    0.0000000   0.0000000   0.0000000   0.0000000   0.0000000   0.0000000   0.0000000   0.0000000   0.0000000   0.0000000
 NMagM=    0.0000000   0.0000000   0.0000000   0.0000000   0.0000000   0.0000000   0.0000000   0.0000000   0.0000000   0.0000000
 AtZNuc=   6.0000000   6.0000000   6.0000000   6.0000000   6.0000000   6.0000000   6.0000000   6.0000000   6.0000000   6.0000000

  Atom        61          62          63          64          65          66          67          68          69          70
 IAtWgt=          12          12          12          12          12          12           1           1           1           1
 AtmWgt=  12.0000000  12.0000000  12.0000000  12.0000000  12.0000000  12.0000000   1.0078250   1.0078250   1.0078250   1.0078250
 NucSpn=           0           0           0           0           0           0           1           1           1           1
 AtZEff=  -0.0000000  -0.0000000  -0.0000000  -0.0000000  -0.0000000  -0.0000000  -0.0000000  -0.0000000  -0.0000000  -0.0000000
 NQMom=    0.0000000   0.0000000   0.0000000   0.0000000   0.0000000   0.0000000   0.0000000   0.0000000   0.0000000   0.0000000
 NMagM=    0.0000000   0.0000000   0.0000000   0.0000000   0.0000000   0.0000000   2.7928460   2.7928460   2.7928460   2.7928460
 AtZNuc=   6.0000000   6.0000000   6.0000000   6.0000000   6.0000000   6.0000000   1.0000000   1.0000000   1.0000000   1.0000000

  Atom        71          72          73          74          75          76          77          78          79          80
 IAtWgt=           1           1           1           1           1           1           1           1           1           1
 AtmWgt=   1.0078250   1.0078250   1.0078250   1.0078250   1.0078250   1.0078250   1.0078250   1.0078250   1.0078250   1.0078250
 NucSpn=           1           1           1           1           1           1           1           1           1           1
 AtZEff=  -0.0000000  -0.0000000  -0.0000000  -0.0000000  -0.0000000  -0.0000000  -0.0000000  -0.0000000  -0.0000000  -0.0000000
 NQMom=    0.0000000   0.0000000   0.0000000   0.0000000   0.0000000   0.0000000   0.0000000   0.0000000   0.0000000   0.0000000
 NMagM=    2.7928460   2.7928460   2.7928460   2.7928460   2.7928460   2.7928460   2.7928460   2.7928460   2.7928460   2.7928460
 AtZNuc=   1.0000000   1.0000000   1.0000000   1.0000000   1.0000000   1.0000000   1.0000000   1.0000000   1.0000000   1.0000000

  Atom        81          82          83          84          85          86          87          88          89          90
 IAtWgt=           1           1           1           1           1           1           1           1           1           1
 AtmWgt=   1.0078250   1.0078250   1.0078250   1.0078250   1.0078250   1.0078250   1.0078250   1.0078250   1.0078250   1.0078250
 NucSpn=           1           1           1           1           1           1           1           1           1           1
 AtZEff=  -0.0000000  -0.0000000  -0.0000000  -0.0000000  -0.0000000  -0.0000000  -0.0000000  -0.0000000  -0.0000000  -0.0000000
 NQMom=    0.0000000   0.0000000   0.0000000   0.0000000   0.0000000   0.0000000   0.0000000   0.0000000   0.0000000   0.0000000
 NMagM=    2.7928460   2.7928460   2.7928460   2.7928460   2.7928460   2.7928460   2.7928460   2.7928460   2.7928460   2.7928460
 AtZNuc=   1.0000000   1.0000000   1.0000000   1.0000000   1.0000000   1.0000000   1.0000000   1.0000000   1.0000000   1.0000000

  Atom        91          92          93          94          95          96          97          98          99         100
 IAtWgt=           1           1           1           1           1           1           1           1           1           1
 AtmWgt=   1.0078250   1.0078250   1.0078250   1.0078250   1.0078250   1.0078250   1.0078250   1.0078250   1.0078250   1.0078250
 NucSpn=           1           1           1           1           1           1           1           1           1           1
 AtZEff=  -0.0000000  -0.0000000  -0.0000000  -0.0000000  -0.0000000  -0.0000000  -0.0000000  -0.0000000  -0.0000000  -0.0000000
 NQMom=    0.0000000   0.0000000   0.0000000   0.0000000   0.0000000   0.0000000   0.0000000   0.0000000   0.0000000   0.0000000
 NMagM=    2.7928460   2.7928460   2.7928460   2.7928460   2.7928460   2.7928460   2.7928460   2.7928460   2.7928460   2.7928460
 AtZNuc=   1.0000000   1.0000000   1.0000000   1.0000000   1.0000000   1.0000000   1.0000000   1.0000000   1.0000000   1.0000000

  Atom       101         102         103         104         105         106         107         108         109         110
 IAtWgt=           1           1           1           1           1           1           1           1           1           1
 AtmWgt=   1.0078250   1.0078250   1.0078250   1.0078250   1.0078250   1.0078250   1.0078250   1.0078250   1.0078250   1.0078250
 NucSpn=           1           1           1           1           1           1           1           1           1           1
 AtZEff=  -0.0000000  -0.0000000  -0.0000000  -0.0000000  -0.0000000  -0.0000000  -0.0000000  -0.0000000  -0.0000000  -0.0000000
 NQMom=    0.0000000   0.0000000   0.0000000   0.0000000   0.0000000   0.0000000   0.0000000   0.0000000   0.0000000   0.0000000
 NMagM=    2.7928460   2.7928460   2.7928460   2.7928460   2.7928460   2.7928460   2.7928460   2.7928460   2.7928460   2.7928460
 AtZNuc=   1.0000000   1.0000000   1.0000000   1.0000000   1.0000000   1.0000000   1.0000000   1.0000000   1.0000000   1.0000000

  Atom       111         112         113         114         115         116         117         118         119         120
 IAtWgt=           1           1           1           1           1           1           1           1           1           1
 AtmWgt=   1.0078250   1.0078250   1.0078250   1.0078250   1.0078250   1.0078250   1.0078250   1.0078250   1.0078250   1.0078250
 NucSpn=           1           1           1           1           1           1           1           1           1           1
 AtZEff=  -0.0000000  -0.0000000  -0.0000000  -0.0000000  -0.0000000  -0.0000000  -0.0000000  -0.0000000  -0.0000000  -0.0000000
 NQMom=    0.0000000   0.0000000   0.0000000   0.0000000   0.0000000   0.0000000   0.0000000   0.0000000   0.0000000   0.0000000
 NMagM=    2.7928460   2.7928460   2.7928460   2.7928460   2.7928460   2.7928460   2.7928460   2.7928460   2.7928460   2.7928460
 AtZNuc=   1.0000000   1.0000000   1.0000000   1.0000000   1.0000000   1.0000000   1.0000000   1.0000000   1.0000000   1.0000000

  Atom       121         122         123         124         125         126         127         128         129         130
 IAtWgt=           1           1           1           1           1           1           1           1           1           1
 AtmWgt=   1.0078250   1.0078250   1.0078250   1.0078250   1.0078250   1.0078250   1.0078250   1.0078250   1.0078250   1.0078250
 NucSpn=           1           1           1           1           1           1           1           1           1           1
 AtZEff=  -0.0000000  -0.0000000  -0.0000000  -0.0000000  -0.0000000  -0.0000000  -0.0000000  -0.0000000  -0.0000000  -0.0000000
 NQMom=    0.0000000   0.0000000   0.0000000   0.0000000   0.0000000   0.0000000   0.0000000   0.0000000   0.0000000   0.0000000
 NMagM=    2.7928460   2.7928460   2.7928460   2.7928460   2.7928460   2.7928460   2.7928460   2.7928460   2.7928460   2.7928460
 AtZNuc=   1.0000000   1.0000000   1.0000000   1.0000000   1.0000000   1.0000000   1.0000000   1.0000000   1.0000000   1.0000000

  Atom       131         132         133         134         135         136         137         138         139         140
 IAtWgt=           1           1           1           1           1           1           1           1           1           1
 AtmWgt=   1.0078250   1.0078250   1.0078250   1.0078250   1.0078250   1.0078250   1.0078250   1.0078250   1.0078250   1.0078250
 NucSpn=           1           1           1           1           1           1           1           1           1           1
 AtZEff=  -0.0000000  -0.0000000  -0.0000000  -0.0000000  -0.0000000  -0.0000000  -0.0000000  -0.0000000  -0.0000000  -0.0000000
 NQMom=    0.0000000   0.0000000   0.0000000   0.0000000   0.0000000   0.0000000   0.0000000   0.0000000   0.0000000   0.0000000
 NMagM=    2.7928460   2.7928460   2.7928460   2.7928460   2.7928460   2.7928460   2.7928460   2.7928460   2.7928460   2.7928460
 AtZNuc=   1.0000000   1.0000000   1.0000000   1.0000000   1.0000000   1.0000000   1.0000000   1.0000000   1.0000000   1.0000000
 Leave Link  101 at Thu May  5 05:33:26 2022, MaxMem= 10066329600 cpu:               3.4 elap:               0.2
 (Enter /sw/apps/gaussian-16.0/g16/l202.exe)
 Stoichiometry    C55H74MgN4O6
 Framework group  C1[X(C55H74MgN4O6)]
 Deg. of freedom   414
 Full point group                 C1      NOp   1
 Largest Abelian subgroup         C1      NOp   1
 Largest concise Abelian subgroup C1      NOp   1
                         Standard orientation:                         
 ---------------------------------------------------------------------
 Center     Atomic      Atomic             Coordinates (Angstroms)
 Number     Number       Type             X           Y           Z
 ---------------------------------------------------------------------
      1         12           0        5.152381    0.948826    0.296027
      2          6           0        4.057597   -2.459520    0.056125
      3          6           0        1.882009    1.813162   -0.431692
      4          6           0        6.204673    4.146866   -0.311784
      5          6           0        8.426692   -0.197102    0.428229
      6          7           0        3.175323   -0.290988   -0.242974
      7          6           0        2.930836   -1.604426   -0.047086
      8          6           0        1.480648   -2.015596   -0.345107
      9          6           0        0.834093   -0.566648   -0.684218
     10          6           0        2.075949    0.447458   -0.394406
     11          6           0        0.263999   -0.377106   -2.100527
     12          6           0        0.773431   -2.650907    0.914891
     13          6           0       -0.328391   -3.649435    0.776051
     14          6           0       -1.274502   -3.531265   -0.422875
     15          8           0       -1.224424   -4.191493   -1.503316
     16          8           0       -2.070308   -2.408699   -0.323392
     17          7           0        4.204223    2.826739    0.018570
     18          6           0        2.842540    2.900968   -0.233016
     19          6           0        2.477789    4.322728   -0.253066
     20          6           0        3.763775    5.066471   -0.340168
     21          6           0        4.775903    4.004806   -0.269753
     22          6           0        1.094929    4.794178   -0.390694
     23          6           0        4.024071    6.602933   -0.454791
     24          8           0        5.156055    7.033949   -0.516217
     25          6           0        2.809418    7.476994   -0.304822
     26          7           0        7.027154    1.826965    0.263346
     27          6           0        7.222583    3.165727   -0.046322
     28          6           0        8.715888    3.462673   -0.283697
     29          6           0        9.396812    2.209421    0.308767
     30          6           0        8.256051    1.234421    0.346636
     31          6           0        9.054539    3.745642   -1.703177
     32          6           0       10.016332    2.325743    1.702621
     33          6           0        9.027963    2.452441    2.914763
     34          7           0        6.076876   -0.921570    0.317660
     35          6           0        7.433728   -1.187630    0.422595
     36          6           0        7.574889   -2.570477    0.444309
     37          6           0        6.316545   -3.093477    0.340061
     38          6           0        5.384347   -2.096209    0.191707
     39          6           0        8.709341   -3.360090    0.596430
     40          6           0        5.559848   -4.338749    0.331335
     41          8           0        5.976053   -5.483746    0.305478
     42          6           0        4.088655   -3.954852    0.180218
     43          6           0        3.515405   -4.662138   -0.949641
     44          8           0        3.912224   -4.484468   -2.082149
     45          8           0        2.643423   -5.705303   -0.637480
     46          6           0        2.177667   -6.554404   -1.690250
     47          6           0       -2.976047   -2.061924   -1.361301
     48          6           0       -4.401648   -1.963169   -0.795940
     49          6           0       -5.440898   -2.854370   -0.848110
     50          6           0       -5.268543   -4.291083   -1.346470
     51          6           0       -6.784802   -2.644662   -0.254484
     52          6           0       -6.888444   -2.819973    1.265103
     53          6           0       -6.879232   -1.498168    2.080537
     54          6           0       -8.266141   -1.162546    2.749829
     55          6           0       -8.632410   -2.131595    3.874649
     56          6           0       -8.294334    0.324086    3.199358
     57          6           0       -9.389093    1.136272    2.457694
     58          6           0       -8.854234    1.719195    1.025600
     59          6           0       -9.763547    1.417316   -0.232067
     60          6           0       -8.954411    1.444095   -1.574764
     61          6           0      -10.901922    2.427821   -0.292773
     62          6           0      -12.195882    2.054814    0.436009
     63          6           0      -13.301666    1.586066   -0.448119
     64          6           0      -13.895927    2.684671   -1.294236
     65          6           0      -14.900704    3.534054   -0.512534
     66          6           0      -14.608485    2.119988   -2.531141
     67          1           0        0.862283    2.125989   -0.666721
     68          1           0        6.661606    5.125854   -0.472847
     69          1           0        9.477824   -0.488114    0.478286
     70          1           0        1.417868   -2.644449   -1.233758
     71          1           0       -0.003437   -0.478516    0.007910
     72          1           0        0.558210   -1.237716   -2.700149
     73          1           0        0.572317    0.565990   -2.550939
     74          1           0       -0.787627   -0.426366   -1.820466
     75          1           0        0.384279   -1.878843    1.579289
     76          1           0        1.533372   -3.290598    1.364481
     77          1           0       -0.811695   -3.798561    1.742007
     78          1           0        0.188587   -4.599632    0.643537
     79          1           0        0.406731    3.998832   -0.103899
     80          1           0        0.793597    5.315318   -1.300049
     81          1           0        0.836189    5.492240    0.405758
     82          1           0        3.105385    8.525961   -0.317928
     83          1           0        2.281871    7.234486    0.617458
     84          1           0        2.099983    7.286735   -1.109695
     85          1           0        8.955851    4.324415    0.339702
     86          1           0       10.203365    1.714440   -0.232004
     87          1           0        9.694849    3.011510   -2.192216
     88          1           0        9.718929    4.598285   -1.847971
     89          1           0        8.201214    3.948033   -2.349786
     90          1           0       10.792098    3.078466    1.840210
     91          1           0       10.483492    1.378022    1.970866
     92          1           0        9.326082    3.345195    3.463865
     93          1           0        8.998425    1.539374    3.509621
     94          1           0        7.990082    2.562798    2.598430
     95          1           0        8.713664   -3.828756    1.580167
     96          1           0        9.611892   -2.750197    0.654825
     97          1           0        8.942005   -4.117374   -0.152928
     98          1           0        3.635171   -4.429635    1.050465
     99          1           0        2.654793   -6.473919   -2.667079
    100          1           0        1.097715   -6.449227   -1.798061
    101          1           0        2.343542   -7.588190   -1.389199
    102          1           0       -2.914268   -2.687956   -2.251332
    103          1           0       -2.792209   -1.030967   -1.663641
    104          1           0       -4.724772   -0.980145   -0.451981
    105          1           0       -6.010205   -4.511509   -2.113842
    106          1           0       -5.454855   -4.883534   -0.450803
    107          1           0       -4.274797   -4.400411   -1.780562
    108          1           0       -7.569699   -3.233460   -0.727339
    109          1           0       -7.138051   -1.647548   -0.517582
    110          1           0       -6.061755   -3.398217    1.678075
    111          1           0       -7.759589   -3.452409    1.437287
    112          1           0       -6.546526   -0.712103    1.401887
    113          1           0       -6.091292   -1.720723    2.799425
    114          1           0       -8.930787   -1.525813    1.966000
    115          1           0       -7.721234   -2.637135    4.193971
    116          1           0       -9.416925   -2.848349    3.631762
    117          1           0       -9.041795   -1.599661    4.733433
    118          1           0       -7.375866    0.906732    3.120718
    119          1           0       -8.588120    0.474994    4.238022
    120          1           0       -9.798523    1.906101    3.111854
    121          1           0      -10.183522    0.413927    2.273760
    122          1           0       -8.019418    1.076533    0.744754
    123          1           0       -8.496176    2.748204    1.068809
    124          1           0      -10.219387    0.447191   -0.030269
    125          1           0       -9.576033    1.531655   -2.465367
    126          1           0       -8.588417    0.444952   -1.812081
    127          1           0       -8.212091    2.222568   -1.394031
    128          1           0      -11.128375    2.763774   -1.305229
    129          1           0      -10.391810    3.303799    0.107529
    130          1           0      -12.550841    2.833037    1.111626
    131          1           0      -11.985857    1.150635    1.006959
    132          1           0      -14.081954    1.103930    0.142501
    133          1           0      -12.853857    0.819100   -1.080169
    134          1           0      -13.111891    3.355284   -1.646344
    135          1           0      -15.911247    3.811220   -0.812571
    136          1           0      -14.507909    4.545353   -0.405031
    137          1           0      -14.857220    3.080180    0.477342
    138          1           0      -14.042249    2.595406   -3.332599
    139          1           0      -15.627434    2.500170   -2.596233
    140          1           0      -14.547422    1.046578   -2.708735
 ---------------------------------------------------------------------
 Rotational constants (GHZ):           0.0434495           0.0110368           0.0092795
 Leave Link  202 at Thu May  5 05:33:26 2022, MaxMem= 10066329600 cpu:               0.2 elap:               0.0
 (Enter /sw/apps/gaussian-16.0/g16/l301.exe)
 Standard basis: def2SVP (5D, 7F)
 Ernie: Thresh=  0.10000D-02 Tol=  0.10000D-05 Strict=F.
 There are  1364 symmetry adapted cartesian basis functions of A   symmetry.
 There are  1298 symmetry adapted basis functions of A   symmetry.
  1298 basis functions,  2180 primitive gaussians,  1364 cartesian basis functions
   246 alpha electrons      246 beta electrons
       nuclear repulsion energy      9687.6876194783 Hartrees.
 IExCor=20419 DFT=T Ex+Corr=CAM-B3LYP ExCW=0 ScaHFX=  1.000000
 ScaDFX=  1.000000  1.000000  1.000000  0.810000 ScalE2=  1.000000  1.000000
 IRadAn=      5 IRanWt=     -1 IRanGd=            0 ICorTp=0 IEmpDi=  4
 HFx  wShort=  0.000000 wLong=  0.330000 cFull=  0.190000 cShort=  0.000000 cLong=  0.460000
 DFx  wShort=  0.000000 wLong=  0.330000 cFull=  0.190000 cShort=  0.000000 cLong=  0.460000
 NAtoms=  140 NActive=  140 NUniq=  140 SFac= 1.00D+00 NAtFMM=   60 NAOKFM=T Big=T
 Integral buffers will be    131072 words long.
 Raffenetti 1 integral format.
 Two-electron integral symmetry is turned on.
 Leave Link  301 at Thu May  5 05:33:26 2022, MaxMem= 10066329600 cpu:               1.3 elap:               0.1
 (Enter /sw/apps/gaussian-16.0/g16/l302.exe)
 NPDir=0 NMtPBC=     1 NCelOv=     1 NCel=       1 NClECP=     1 NCelD=      1
         NCelK=      1 NCelE2=     1 NClLst=     1 CellRange=     0.0.
 One-electron integrals computed using PRISM.
 One-electron integral symmetry used in STVInt
   1 Symmetry operations used in ECPInt.
 ECPInt:  NShTT=  192510 NPrTT=  683786 LenC2=   97208 LenP2D=  212551.
 LDataN:  DoStor=T MaxTD1= 4 Len=   56
 NBasis=  1298 RedAO= T EigKep=  2.84D-04  NBF=  1298
 NBsUse=  1298 1.00D-06 EigRej= -1.00D+00 NBFU=  1298
 Precomputing XC quadrature grid using
 IXCGrd= 4 IRadAn=           5 IRanWt=          -1 IRanGd=           0 AccXCQ= 0.00D+00.
 Generated NRdTot=       0 NPtTot=           0 NUsed=           0 NTot=          32
 NSgBfM=  1130  1126  1130  1130  1130 MxSgAt=   140 MxSgA2=   140.
 Leave Link  302 at Thu May  5 05:33:29 2022, MaxMem= 10066329600 cpu:              77.6 elap:               3.3
 (Enter /sw/apps/gaussian-16.0/g16/l303.exe)
 DipDrv:  MaxL=1.
 Leave Link  303 at Thu May  5 05:33:29 2022, MaxMem= 10066329600 cpu:               7.2 elap:               0.3
 (Enter /sw/apps/gaussian-16.0/g16/l308.exe)
 Leave Link  308 at Thu May  5 05:33:30 2022, MaxMem= 10066329600 cpu:               8.6 elap:               0.4
 (Enter /sw/apps/gaussian-16.0/g16/l401.exe)
 ExpMin= 3.36D-02 ExpMax= 4.95D+03 ExpMxC= 7.45D+02 IAcc=3 IRadAn=         5 AccDes= 0.00D+00
 Harris functional with IExCor=20419 and IRadAn=       5 diagonalized for initial guess.
 HarFok:  IExCor=20419 AccDes= 0.00D+00 IRadAn=         5 IDoV= 1 UseB2=F ITyADJ=14
 ICtDFT=  3500011 ScaDFX=  1.000000  1.000000  1.000000  1.000000
 FoFCou: FMM=F IPFlag=           0 FMFlag=      100000 FMFlg1=        2001
         NFxFlg=           0 DoJE=T BraDBF=F KetDBF=T FulRan=T
         wScrn=  0.000000 ICntrl=       500 IOpCl=  0 I1Cent=   200000004 NGrid=           0
         NMat0=    1 NMatS0=      1 NMatT0=    0 NMatD0=    1 NMtDS0=    0 NMtDT0=    0
 Petite list used in FoFCou.
 Harris En= -2890.82194446620    
 JPrj=0 DoOrth=F DoCkMO=F.
 Leave Link  401 at Thu May  5 05:33:35 2022, MaxMem= 10066329600 cpu:             128.7 elap:               5.4
 (Enter /sw/apps/gaussian-16.0/g16/l502.exe)
 Integral symmetry usage will be decided dynamically.
 Closed shell SCF:
 Using DIIS extrapolation, IDIIS=  1040.
 NGot= 10066329600 LenX= 10062561258 LenY= 10060699398
 Requested convergence on RMS density matrix=1.00D-08 within 128 cycles.
 Requested convergence on MAX density matrix=1.00D-06.
 Requested convergence on             energy=1.00D-06.
 No special actions if energy rises.
 Fock matrices will be formed incrementally for  20 cycles.

 Cycle   1  Pass 1  IDiag  1:
 FoFJK:  IHMeth= 1 ICntrl=       0 DoSepK=T KAlg= 0 I1Cent=           0 FoldK=F
 IRaf=         1 NMat=       1 IRICut=       1 DoRegI=T DoRafI=F ISym2E= 0 IDoP0=0 IntGTp=1.
 FoFCou: FMM=T IPFlag=           0 FMFlag=      100000 FMFlg1=        2001
         NFxFlg=           0 DoJE=T BraDBF=F KetDBF=F FulRan=T
         wScrn=  0.000000 ICntrl=       500 IOpCl=  0 I1Cent=           0 NGrid=           0
         NMat0=    1 NMatS0=      1 NMatT0=    0 NMatD0=    1 NMtDS0=    0 NMtDT0=    0
 Symmetry not used in FoFCou.
 FMM levels:  10  Number of levels for PrismC:   9
 E= -3006.43731642348    
 DIIS: error= 2.02D-02 at cycle   1 NSaved=   1.
 NSaved= 1 IEnMin= 1 EnMin= -3006.43731642348     IErMin= 1 ErrMin= 2.02D-02
 ErrMax= 2.02D-02  0.00D+00 EMaxC= 1.00D-01 BMatC= 1.29D+00 BMatP= 1.29D+00
 IDIUse=3 WtCom= 7.98D-01 WtEn= 2.02D-01
 Coeff-Com:  0.100D+01
 Coeff-En:   0.100D+01
 Coeff:      0.100D+01
 Gap=     0.125 Goal=   None    Shift=    0.000
 GapD=    0.125 DampG=1.000 DampE=0.500 DampFc=0.5000 IDamp=-1.
 Damping current iteration by 5.00D-01
 RMSDP=1.60D-03 MaxDP=1.60D-01              OVMax= 2.86D-01

 Cycle   2  Pass 1  IDiag  1:
 RMSU=  7.83D-04    CP:  9.84D-01
 E= -3006.75139563164     Delta-E=       -0.314079208167 Rises=F Damp=T
 DIIS: error= 1.19D-02 at cycle   2 NSaved=   2.
 NSaved= 2 IEnMin= 2 EnMin= -3006.75139563164     IErMin= 2 ErrMin= 1.19D-02
 ErrMax= 1.19D-02  0.00D+00 EMaxC= 1.00D-01 BMatC= 2.34D-01 BMatP= 1.29D+00
 IDIUse=3 WtCom= 8.81D-01 WtEn= 1.19D-01
 Coeff-Com: -0.207D+00 0.121D+01
 Coeff-En:   0.000D+00 0.100D+01
 Coeff:     -0.182D+00 0.118D+01
 Gap=     0.171 Goal=   None    Shift=    0.000
 RMSDP=7.69D-04 MaxDP=8.06D-02 DE=-3.14D-01 OVMax= 2.46D-01

 Cycle   3  Pass 1  IDiag  1:
 RMSU=  7.56D-04    CP:  9.73D-01  1.13D+00
 E= -3006.98494406755     Delta-E=       -0.233548435910 Rises=F Damp=F
 DIIS: error= 1.04D-02 at cycle   3 NSaved=   3.
 NSaved= 3 IEnMin= 3 EnMin= -3006.98494406755     IErMin= 3 ErrMin= 1.04D-02
 ErrMax= 1.04D-02  0.00D+00 EMaxC= 1.00D-01 BMatC= 1.54D-01 BMatP= 2.34D-01
 IDIUse=3 WtCom= 8.96D-01 WtEn= 1.04D-01
 Coeff-Com: -0.260D+00 0.645D+00 0.615D+00
 Coeff-En:   0.000D+00 0.000D+00 0.100D+01
 Coeff:     -0.233D+00 0.578D+00 0.655D+00
 Gap=     0.128 Goal=   None    Shift=    0.000
 RMSDP=5.31D-04 MaxDP=5.06D-02 DE=-2.34D-01 OVMax= 2.06D-01

 Cycle   4  Pass 1  IDiag  1:
 RMSU=  2.89D-04    CP:  9.69D-01  1.47D+00  5.32D-01
 E= -3007.09697365842     Delta-E=       -0.112029590862 Rises=F Damp=F
 DIIS: error= 3.91D-03 at cycle   4 NSaved=   4.
 NSaved= 4 IEnMin= 4 EnMin= -3007.09697365842     IErMin= 4 ErrMin= 3.91D-03
 ErrMax= 3.91D-03  0.00D+00 EMaxC= 1.00D-01 BMatC= 3.31D-02 BMatP= 1.54D-01
 IDIUse=3 WtCom= 9.61D-01 WtEn= 3.91D-02
 Coeff-Com: -0.112D+00 0.230D+00 0.392D+00 0.490D+00
 Coeff-En:   0.000D+00 0.000D+00 0.194D+00 0.806D+00
 Coeff:     -0.108D+00 0.221D+00 0.385D+00 0.502D+00
 Gap=     0.125 Goal=   None    Shift=    0.000
 RMSDP=2.00D-04 MaxDP=1.66D-02 DE=-1.12D-01 OVMax= 8.11D-02

 Cycle   5  Pass 1  IDiag  1:
 RMSU=  7.70D-05    CP:  9.69D-01  1.41D+00  6.99D-01  5.61D-01
 E= -3007.12849487143     Delta-E=       -0.031521213012 Rises=F Damp=F
 DIIS: error= 5.90D-04 at cycle   5 NSaved=   5.
 NSaved= 5 IEnMin= 5 EnMin= -3007.12849487143     IErMin= 5 ErrMin= 5.90D-04
 ErrMax= 5.90D-04  0.00D+00 EMaxC= 1.00D-01 BMatC= 9.01D-04 BMatP= 3.31D-02
 IDIUse=3 WtCom= 9.94D-01 WtEn= 5.90D-03
 Coeff-Com: -0.432D-01 0.848D-01 0.171D+00 0.256D+00 0.531D+00
 Coeff-En:   0.000D+00 0.000D+00 0.000D+00 0.000D+00 0.100D+01
 Coeff:     -0.429D-01 0.843D-01 0.170D+00 0.255D+00 0.534D+00
 Gap=     0.125 Goal=   None    Shift=    0.000
 RMSDP=4.54D-05 MaxDP=5.69D-03 DE=-3.15D-02 OVMax= 2.44D-02

 Cycle   6  Pass 1  IDiag  1:
 RMSU=  3.38D-05    CP:  9.69D-01  1.42D+00  6.93D-01  6.29D-01  7.16D-01
 E= -3007.12934285775     Delta-E=       -0.000847986323 Rises=F Damp=F
 DIIS: error= 2.05D-04 at cycle   6 NSaved=   6.
 NSaved= 6 IEnMin= 6 EnMin= -3007.12934285775     IErMin= 6 ErrMin= 2.05D-04
 ErrMax= 2.05D-04  0.00D+00 EMaxC= 1.00D-01 BMatC= 1.45D-04 BMatP= 9.01D-04
 IDIUse=3 WtCom= 9.98D-01 WtEn= 2.05D-03
 Coeff-Com:  0.245D-02-0.692D-02 0.454D-02 0.239D-01 0.295D+00 0.681D+00
 Coeff-En:   0.000D+00 0.000D+00 0.000D+00 0.000D+00 0.127D+00 0.873D+00
 Coeff:      0.245D-02-0.691D-02 0.453D-02 0.239D-01 0.294D+00 0.682D+00
 Gap=     0.126 Goal=   None    Shift=    0.000
 RMSDP=1.80D-05 MaxDP=1.41D-03 DE=-8.48D-04 OVMax= 8.12D-03

 Cycle   7  Pass 1  IDiag  1:
 RMSU=  1.13D-05    CP:  9.69D-01  1.42D+00  6.99D-01  6.28D-01  8.54D-01
                    CP:  7.72D-01
 E= -3007.12951592581     Delta-E=       -0.000173068060 Rises=F Damp=F
 DIIS: error= 1.34D-04 at cycle   7 NSaved=   7.
 NSaved= 7 IEnMin= 7 EnMin= -3007.12951592581     IErMin= 7 ErrMin= 1.34D-04
 ErrMax= 1.34D-04  0.00D+00 EMaxC= 1.00D-01 BMatC= 1.80D-05 BMatP= 1.45D-04
 IDIUse=3 WtCom= 9.99D-01 WtEn= 1.34D-03
 Coeff-Com:  0.499D-02-0.107D-01-0.117D-01-0.113D-01 0.105D+00 0.349D+00
 Coeff-Com:  0.575D+00
 Coeff-En:   0.000D+00 0.000D+00 0.000D+00 0.000D+00 0.000D+00 0.000D+00
 Coeff-En:   0.100D+01
 Coeff:      0.498D-02-0.107D-01-0.117D-01-0.113D-01 0.105D+00 0.348D+00
 Coeff:      0.575D+00
 Gap=     0.126 Goal=   None    Shift=    0.000
 RMSDP=6.92D-06 MaxDP=1.51D-03 DE=-1.73D-04 OVMax= 4.11D-03

 Cycle   8  Pass 1  IDiag  1:
 RMSU=  4.90D-06    CP:  9.68D-01  1.42D+00  7.00D-01  6.34D-01  8.55D-01
                    CP:  8.95D-01  8.67D-01
 E= -3007.12953866385     Delta-E=       -0.000022738044 Rises=F Damp=F
 DIIS: error= 4.12D-05 at cycle   8 NSaved=   8.
 NSaved= 8 IEnMin= 8 EnMin= -3007.12953866385     IErMin= 8 ErrMin= 4.12D-05
 ErrMax= 4.12D-05  0.00D+00 EMaxC= 1.00D-01 BMatC= 3.24D-06 BMatP= 1.80D-05
 IDIUse=1 WtCom= 1.00D+00 WtEn= 0.00D+00
 Coeff-Com:  0.217D-02-0.423D-02-0.697D-02-0.121D-01-0.784D-02 0.204D-01
 Coeff-Com:  0.298D+00 0.710D+00
 Coeff:      0.217D-02-0.423D-02-0.697D-02-0.121D-01-0.784D-02 0.204D-01
 Coeff:      0.298D+00 0.710D+00
 Gap=     0.126 Goal=   None    Shift=    0.000
 RMSDP=3.35D-06 MaxDP=6.01D-04 DE=-2.27D-05 OVMax= 1.35D-03

 Cycle   9  Pass 1  IDiag  1:
 RMSU=  1.98D-06    CP:  9.68D-01  1.42D+00  7.01D-01  6.35D-01  8.72D-01
                    CP:  9.24D-01  1.04D+00  1.09D+00
 E= -3007.12954473729     Delta-E=       -0.000006073433 Rises=F Damp=F
 DIIS: error= 2.18D-05 at cycle   9 NSaved=   9.
 NSaved= 9 IEnMin= 9 EnMin= -3007.12954473729     IErMin= 9 ErrMin= 2.18D-05
 ErrMax= 2.18D-05  0.00D+00 EMaxC= 1.00D-01 BMatC= 5.39D-07 BMatP= 3.24D-06
 IDIUse=1 WtCom= 1.00D+00 WtEn= 0.00D+00
 Coeff-Com:  0.264D-03-0.373D-03-0.134D-02-0.434D-02-0.181D-01-0.514D-01
 Coeff-Com:  0.749D-01 0.311D+00 0.690D+00
 Coeff:      0.264D-03-0.373D-03-0.134D-02-0.434D-02-0.181D-01-0.514D-01
 Coeff:      0.749D-01 0.311D+00 0.690D+00
 Gap=     0.126 Goal=   None    Shift=    0.000
 RMSDP=1.81D-06 MaxDP=3.20D-04 DE=-6.07D-06 OVMax= 1.16D-03

 Cycle  10  Pass 1  IDiag  1:
 RMSU=  9.98D-07    CP:  9.68D-01  1.42D+00  7.01D-01  6.36D-01  8.76D-01
                    CP:  9.41D-01  1.10D+00  1.31D+00  1.22D+00
 E= -3007.12954629475     Delta-E=       -0.000001557466 Rises=F Damp=F
 DIIS: error= 1.35D-05 at cycle  10 NSaved=  10.
 NSaved=10 IEnMin=10 EnMin= -3007.12954629475     IErMin=10 ErrMin= 1.35D-05
 ErrMax= 1.35D-05  0.00D+00 EMaxC= 1.00D-01 BMatC= 2.02D-07 BMatP= 5.39D-07
 IDIUse=1 WtCom= 1.00D+00 WtEn= 0.00D+00
 Coeff-Com: -0.554D-03 0.113D-02 0.170D-02 0.166D-02-0.298D-02-0.354D-01
 Coeff-Com: -0.412D-01-0.111D+00 0.309D+00 0.878D+00
 Coeff:     -0.554D-03 0.113D-02 0.170D-02 0.166D-02-0.298D-02-0.354D-01
 Coeff:     -0.412D-01-0.111D+00 0.309D+00 0.878D+00
 Gap=     0.126 Goal=   None    Shift=    0.000
 RMSDP=1.56D-06 MaxDP=2.19D-04 DE=-1.56D-06 OVMax= 8.81D-04

 Cycle  11  Pass 1  IDiag  1:
 RMSU=  6.30D-07    CP:  9.68D-01  1.42D+00  7.01D-01  6.37D-01  8.79D-01
                    CP:  9.52D-01  1.16D+00  1.46D+00  1.65D+00  1.41D+00
 E= -3007.12954723147     Delta-E=       -0.000000936718 Rises=F Damp=F
 DIIS: error= 7.70D-06 at cycle  11 NSaved=  11.
 NSaved=11 IEnMin=11 EnMin= -3007.12954723147     IErMin=11 ErrMin= 7.70D-06
 ErrMax= 7.70D-06  0.00D+00 EMaxC= 1.00D-01 BMatC= 7.26D-08 BMatP= 2.02D-07
 IDIUse=1 WtCom= 1.00D+00 WtEn= 0.00D+00
 Coeff-Com: -0.369D-03 0.709D-03 0.134D-02 0.205D-02 0.504D-02-0.707D-02
 Coeff-Com: -0.315D-01-0.162D+00-0.257D-01 0.434D+00 0.784D+00
 Coeff:     -0.369D-03 0.709D-03 0.134D-02 0.205D-02 0.504D-02-0.707D-02
 Coeff:     -0.315D-01-0.162D+00-0.257D-01 0.434D+00 0.784D+00
 Gap=     0.126 Goal=   None    Shift=    0.000
 RMSDP=1.03D-06 MaxDP=1.56D-04 DE=-9.37D-07 OVMax= 6.81D-04

 Cycle  12  Pass 1  IDiag  1:
 RMSU=  3.19D-07    CP:  9.68D-01  1.42D+00  7.01D-01  6.37D-01  8.80D-01
                    CP:  9.57D-01  1.19D+00  1.56D+00  1.92D+00  1.92D+00
                    CP:  1.27D+00
 E= -3007.12954759469     Delta-E=       -0.000000363218 Rises=F Damp=F
 DIIS: error= 4.25D-06 at cycle  12 NSaved=  12.
 NSaved=12 IEnMin=12 EnMin= -3007.12954759469     IErMin=12 ErrMin= 4.25D-06
 ErrMax= 4.25D-06  0.00D+00 EMaxC= 1.00D-01 BMatC= 2.71D-08 BMatP= 7.26D-08
 IDIUse=1 WtCom= 1.00D+00 WtEn= 0.00D+00
 Coeff-Com:  0.297D-04-0.799D-04 0.496D-04 0.335D-03 0.459D-02 0.784D-02
 Coeff-Com:  0.904D-02-0.471D-01-0.108D+00-0.150D+00 0.386D+00 0.897D+00
 Coeff:      0.297D-04-0.799D-04 0.496D-04 0.335D-03 0.459D-02 0.784D-02
 Coeff:      0.904D-02-0.471D-01-0.108D+00-0.150D+00 0.386D+00 0.897D+00
 Gap=     0.126 Goal=   None    Shift=    0.000
 RMSDP=7.37D-07 MaxDP=5.65D-05 DE=-3.63D-07 OVMax= 4.69D-04

 Cycle  13  Pass 1  IDiag  1:
 RMSU=  1.96D-07    CP:  9.68D-01  1.42D+00  7.01D-01  6.37D-01  8.81D-01
                    CP:  9.58D-01  1.20D+00  1.62D+00  2.12D+00  2.25D+00
                    CP:  1.83D+00  1.26D+00
 E= -3007.12954774569     Delta-E=       -0.000000151005 Rises=F Damp=F
 DIIS: error= 1.97D-06 at cycle  13 NSaved=  13.
 NSaved=13 IEnMin=13 EnMin= -3007.12954774569     IErMin=13 ErrMin= 1.97D-06
 ErrMax= 1.97D-06  0.00D+00 EMaxC= 1.00D-01 BMatC= 8.61D-09 BMatP= 2.71D-08
 IDIUse=1 WtCom= 1.00D+00 WtEn= 0.00D+00
 Coeff-Com:  0.171D-03-0.347D-03-0.521D-03-0.657D-03 0.107D-02 0.693D-02
 Coeff-Com:  0.221D-01 0.331D-01-0.506D-01-0.304D+00-0.714D-01 0.546D+00
 Coeff-Com:  0.818D+00
 Coeff:      0.171D-03-0.347D-03-0.521D-03-0.657D-03 0.107D-02 0.693D-02
 Coeff:      0.221D-01 0.331D-01-0.506D-01-0.304D+00-0.714D-01 0.546D+00
 Coeff:      0.818D+00
 Gap=     0.126 Goal=   None    Shift=    0.000
 RMSDP=5.07D-07 MaxDP=4.45D-05 DE=-1.51D-07 OVMax= 3.37D-04

 Cycle  14  Pass 1  IDiag  1:
 RMSU=  9.31D-08    CP:  9.68D-01  1.42D+00  7.01D-01  6.37D-01  8.81D-01
                    CP:  9.59D-01  1.21D+00  1.65D+00  2.24D+00  2.51D+00
                    CP:  2.15D+00  1.76D+00  1.09D+00
 E= -3007.12954779054     Delta-E=       -0.000000044847 Rises=F Damp=F
 DIIS: error= 7.25D-07 at cycle  14 NSaved=  14.
 NSaved=14 IEnMin=14 EnMin= -3007.12954779054     IErMin=14 ErrMin= 7.25D-07
 ErrMax= 7.25D-07  0.00D+00 EMaxC= 1.00D-01 BMatC= 1.25D-09 BMatP= 8.61D-09
 IDIUse=1 WtCom= 1.00D+00 WtEn= 0.00D+00
 Coeff-Com:  0.777D-04-0.153D-03-0.261D-03-0.393D-03-0.339D-03 0.133D-02
 Coeff-Com:  0.950D-02 0.229D-01 0.191D-02-0.113D+00-0.954D-01 0.683D-01
 Coeff-Com:  0.402D+00 0.703D+00
 Coeff:      0.777D-04-0.153D-03-0.261D-03-0.393D-03-0.339D-03 0.133D-02
 Coeff:      0.950D-02 0.229D-01 0.191D-02-0.113D+00-0.954D-01 0.683D-01
 Coeff:      0.402D+00 0.703D+00
 Gap=     0.126 Goal=   None    Shift=    0.000
 RMSDP=1.19D-07 MaxDP=8.12D-06 DE=-4.48D-08 OVMax= 7.22D-05

 Cycle  15  Pass 1  IDiag  1:
 RMSU=  3.90D-08    CP:  9.68D-01  1.42D+00  7.01D-01  6.37D-01  8.81D-01
                    CP:  9.59D-01  1.21D+00  1.66D+00  2.27D+00  2.55D+00
                    CP:  2.26D+00  1.83D+00  1.30D+00  9.72D-01
 E= -3007.12954779390     Delta-E=       -0.000000003360 Rises=F Damp=F
 DIIS: error= 3.28D-07 at cycle  15 NSaved=  15.
 NSaved=15 IEnMin=15 EnMin= -3007.12954779390     IErMin=15 ErrMin= 3.28D-07
 ErrMax= 3.28D-07  0.00D+00 EMaxC= 1.00D-01 BMatC= 1.73D-10 BMatP= 1.25D-09
 IDIUse=1 WtCom= 1.00D+00 WtEn= 0.00D+00
 Coeff-Com:  0.610D-05-0.104D-04-0.290D-04-0.669D-04-0.335D-03-0.600D-03
 Coeff-Com:  0.586D-03 0.384D-02 0.941D-02-0.253D-02-0.278D-01-0.676D-01
 Coeff-Com:  0.440D-01 0.303D+00 0.739D+00
 Coeff:      0.610D-05-0.104D-04-0.290D-04-0.669D-04-0.335D-03-0.600D-03
 Coeff:      0.586D-03 0.384D-02 0.941D-02-0.253D-02-0.278D-01-0.676D-01
 Coeff:      0.440D-01 0.303D+00 0.739D+00
 Gap=     0.126 Goal=   None    Shift=    0.000
 RMSDP=4.67D-08 MaxDP=3.39D-06 DE=-3.36D-09 OVMax= 2.82D-05

 Cycle  16  Pass 1  IDiag  1:
 RMSU=  1.70D-08    CP:  9.68D-01  1.42D+00  7.01D-01  6.37D-01  8.81D-01
                    CP:  9.59D-01  1.21D+00  1.66D+00  2.28D+00  2.57D+00
                    CP:  2.29D+00  1.88D+00  1.35D+00  1.11D+00  1.06D+00
 E= -3007.12954779439     Delta-E=       -0.000000000491 Rises=F Damp=F
 DIIS: error= 1.62D-07 at cycle  16 NSaved=  16.
 NSaved=16 IEnMin=16 EnMin= -3007.12954779439     IErMin=16 ErrMin= 1.62D-07
 ErrMax= 1.62D-07  0.00D+00 EMaxC= 1.00D-01 BMatC= 5.38D-11 BMatP= 1.73D-10
 IDIUse=1 WtCom= 1.00D+00 WtEn= 0.00D+00
 Coeff-Com: -0.117D-04 0.240D-04 0.347D-04 0.367D-04-0.130D-03-0.619D-03
 Coeff-Com: -0.141D-02-0.250D-02 0.537D-02 0.198D-01 0.507D-02-0.513D-01
 Coeff-Com: -0.477D-01 0.297D-01 0.426D+00 0.618D+00
 Coeff:     -0.117D-04 0.240D-04 0.347D-04 0.367D-04-0.130D-03-0.619D-03
 Coeff:     -0.141D-02-0.250D-02 0.537D-02 0.198D-01 0.507D-02-0.513D-01
 Coeff:     -0.477D-01 0.297D-01 0.426D+00 0.618D+00
 Gap=     0.126 Goal=   None    Shift=    0.000
 RMSDP=1.28D-08 MaxDP=1.02D-06 DE=-4.91D-10 OVMax= 6.65D-06

 Cycle  17  Pass 1  IDiag  1:
 RMSU=  8.47D-09    CP:  9.68D-01  1.42D+00  7.01D-01  6.37D-01  8.81D-01
                    CP:  9.59D-01  1.21D+00  1.66D+00  2.28D+00  2.57D+00
                    CP:  2.29D+00  1.89D+00  1.38D+00  1.15D+00  1.21D+00
                    CP:  1.07D+00
 E= -3007.12954779452     Delta-E=       -0.000000000131 Rises=F Damp=F
 DIIS: error= 6.91D-08 at cycle  17 NSaved=  17.
 NSaved=17 IEnMin=17 EnMin= -3007.12954779452     IErMin=17 ErrMin= 6.91D-08
 ErrMax= 6.91D-08  0.00D+00 EMaxC= 1.00D-01 BMatC= 6.49D-12 BMatP= 5.38D-11
 IDIUse=1 WtCom= 1.00D+00 WtEn= 0.00D+00
 Coeff-Com: -0.578D-05 0.114D-04 0.193D-04 0.265D-04 0.957D-05-0.122D-03
 Coeff-Com: -0.639D-03-0.181D-02 0.694D-03 0.829D-02 0.803D-02-0.105D-01
 Coeff-Com: -0.249D-01-0.514D-01 0.458D-01 0.227D+00 0.799D+00
 Coeff:     -0.578D-05 0.114D-04 0.193D-04 0.265D-04 0.957D-05-0.122D-03
 Coeff:     -0.639D-03-0.181D-02 0.694D-03 0.829D-02 0.803D-02-0.105D-01
 Coeff:     -0.249D-01-0.514D-01 0.458D-01 0.227D+00 0.799D+00
 Gap=     0.126 Goal=   None    Shift=    0.000
 RMSDP=7.79D-09 MaxDP=6.00D-07 DE=-1.31D-10 OVMax= 5.19D-06

 SCF Done:  E(RCAM-B3LYP) =  -3007.12954779     A.U. after   17 cycles
            NFock= 17  Conv=0.78D-08     -V/T= 2.0105
 KE= 2.975796213309D+03 PE=-2.636694516032D+04 EE= 1.069633177973D+04
 Leave Link  502 at Thu May  5 05:39:57 2022, MaxMem= 10066329600 cpu:            8751.9 elap:             381.5
 (Enter /sw/apps/gaussian-16.0/g16/l801.exe)
 DoSCS=F DFT=T ScalE2(SS,OS)=  1.000000  1.000000
 ExpMin= 3.36D-02 ExpMax= 4.95D+03 ExpMxC= 7.45D+02 IAcc=3 IRadAn=         5 AccDes= 0.00D+00
 HarFok:  IExCor=  205 AccDes= 0.00D+00 IRadAn=         5 IDoV=-2 UseB2=F ITyADJ=14
 ICtDFT= 12500011 ScaDFX=  1.000000  1.000000  1.000000  1.000000
 GSVD:  LWork=       -5460 too small for GESVD, short by       25550 words or       25550 for optimal perf.
 Largest valence mixing into a core orbital is  1.36D-04
 Largest core mixing into a valence orbital is  5.05D-05
 Range of M.O.s used for correlation:    71  1298
 NBasis=  1298 NAE=   246 NBE=   246 NFC=    70 NFV=     0
 NROrb=   1228 NOA=   176 NOB=   176 NVA=  1052 NVB=  1052
 Leave Link  801 at Thu May  5 05:39:57 2022, MaxMem= 10066329600 cpu:               6.6 elap:               0.3
 (Enter /sw/apps/gaussian-16.0/g16/l914.exe)
 RHF ground state
 Two-electron integrals replicated using symmetry.
 MDV= 10066329600 DFT=T DoStab=F Mixed=T DoRPA=T DoScal=F NonHer=T
 Making orbital integer symmetry assigments:
 Orbital symmetries:
       Occupied  (A) (A) (A) (A) (A) (A) (A) (A) (A) (A) (A) (A)
                 (A) (A) (A) (A) (A) (A) (A) (A) (A) (A) (A) (A)
                 (A) (A) (A) (A) (A) (A) (A) (A) (A) (A) (A) (A)
                 (A) (A) (A) (A) (A) (A) (A) (A) (A) (A) (A) (A)
                 (A) (A) (A) (A) (A) (A) (A) (A) (A) (A) (A) (A)
                 (A) (A) (A) (A) (A) (A) (A) (A) (A) (A) (A) (A)
                 (A) (A) (A) (A) (A) (A) (A) (A) (A) (A) (A) (A)
                 (A) (A) (A) (A) (A) (A) (A) (A) (A) (A) (A) (A)
                 (A) (A) (A) (A) (A) (A) (A) (A) (A) (A) (A) (A)
                 (A) (A) (A) (A) (A) (A) (A) (A) (A) (A) (A) (A)
                 (A) (A) (A) (A) (A) (A) (A) (A) (A) (A) (A) (A)
                 (A) (A) (A) (A) (A) (A) (A) (A) (A) (A) (A) (A)
                 (A) (A) (A) (A) (A) (A) (A) (A) (A) (A) (A) (A)
                 (A) (A) (A) (A) (A) (A) (A) (A) (A) (A) (A) (A)
                 (A) (A) (A) (A) (A) (A) (A) (A) (A) (A) (A) (A)
                 (A) (A) (A) (A) (A) (A) (A) (A) (A) (A) (A) (A)
                 (A) (A) (A) (A) (A) (A) (A) (A) (A) (A) (A) (A)
                 (A) (A) (A) (A) (A) (A) (A) (A) (A) (A) (A) (A)
                 (A) (A) (A) (A) (A) (A) (A) (A) (A) (A) (A) (A)
                 (A) (A) (A) (A) (A) (A) (A) (A) (A) (A) (A) (A)
                 (A) (A) (A) (A) (A) (A)
       Virtual   (A) (A) (A) (A) (A) (A) (A) (A) (A) (A) (A) (A)
                 (A) (A) (A) (A) (A) (A) (A) (A) (A) (A) (A) (A)
                 (A) (A) (A) (A) (A) (A) (A) (A) (A) (A) (A) (A)
                 (A) (A) (A) (A) (A) (A) (A) (A) (A) (A) (A) (A)
                 (A) (A) (A) (A) (A) (A) (A) (A) (A) (A) (A) (A)
                 (A) (A) (A) (A) (A) (A) (A) (A) (A) (A) (A) (A)
                 (A) (A) (A) (A) (A) (A) (A) (A) (A) (A) (A) (A)
                 (A) (A) (A) (A) (A) (A) (A) (A) (A) (A) (A) (A)
                 (A) (A) (A) (A) (A) (A) (A) (A) (A) (A) (A) (A)
                 (A) (A) (A) (A) (A) (A) (A) (A) (A) (A) (A) (A)
                 (A) (A) (A) (A) (A) (A) (A) (A) (A) (A) (A) (A)
                 (A) (A) (A) (A) (A) (A) (A) (A) (A) (A) (A) (A)
                 (A) (A) (A) (A) (A) (A) (A) (A) (A) (A) (A) (A)
                 (A) (A) (A) (A) (A) (A) (A) (A) (A) (A) (A) (A)
                 (A) (A) (A) (A) (A) (A) (A) (A) (A) (A) (A) (A)
                 (A) (A) (A) (A) (A) (A) (A) (A) (A) (A) (A) (A)
                 (A) (A) (A) (A) (A) (A) (A) (A) (A) (A) (A) (A)
                 (A) (A) (A) (A) (A) (A) (A) (A) (A) (A) (A) (A)
                 (A) (A) (A) (A) (A) (A) (A) (A) (A) (A) (A) (A)
                 (A) (A) (A) (A) (A) (A) (A) (A) (A) (A) (A) (A)
                 (A) (A) (A) (A) (A) (A) (A) (A) (A) (A) (A) (A)
                 (A) (A) (A) (A) (A) (A) (A) (A) (A) (A) (A) (A)
                 (A) (A) (A) (A) (A) (A) (A) (A) (A) (A) (A) (A)
                 (A) (A) (A) (A) (A) (A) (A) (A) (A) (A) (A) (A)
                 (A) (A) (A) (A) (A) (A) (A) (A) (A) (A) (A) (A)
                 (A) (A) (A) (A) (A) (A) (A) (A) (A) (A) (A) (A)
                 (A) (A) (A) (A) (A) (A) (A) (A) (A) (A) (A) (A)
                 (A) (A) (A) (A) (A) (A) (A) (A) (A) (A) (A) (A)
                 (A) (A) (A) (A) (A) (A) (A) (A) (A) (A) (A) (A)
                 (A) (A) (A) (A) (A) (A) (A) (A) (A) (A) (A) (A)
                 (A) (A) (A) (A) (A) (A) (A) (A) (A) (A) (A) (A)
                 (A) (A) (A) (A) (A) (A) (A) (A) (A) (A) (A) (A)
                 (A) (A) (A) (A) (A) (A) (A) (A) (A) (A) (A) (A)
                 (A) (A) (A) (A) (A) (A) (A) (A) (A) (A) (A) (A)
                 (A) (A) (A) (A) (A) (A) (A) (A) (A) (A) (A) (A)
                 (A) (A) (A) (A) (A) (A) (A) (A) (A) (A) (A) (A)
                 (A) (A) (A) (A) (A) (A) (A) (A) (A) (A) (A) (A)
                 (A) (A) (A) (A) (A) (A) (A) (A) (A) (A) (A) (A)
                 (A) (A) (A) (A) (A) (A) (A) (A) (A) (A) (A) (A)
                 (A) (A) (A) (A) (A) (A) (A) (A) (A) (A) (A) (A)
                 (A) (A) (A) (A) (A) (A) (A) (A) (A) (A) (A) (A)
                 (A) (A) (A) (A) (A) (A) (A) (A) (A) (A) (A) (A)
                 (A) (A) (A) (A) (A) (A) (A) (A) (A) (A) (A) (A)
                 (A) (A) (A) (A) (A) (A) (A) (A) (A) (A) (A) (A)
                 (A) (A) (A) (A) (A) (A) (A) (A) (A) (A) (A) (A)
                 (A) (A) (A) (A) (A) (A) (A) (A) (A) (A) (A) (A)
                 (A) (A) (A) (A) (A) (A) (A) (A) (A) (A) (A) (A)
                 (A) (A) (A) (A) (A) (A) (A) (A) (A) (A) (A) (A)
                 (A) (A) (A) (A) (A) (A) (A) (A) (A) (A) (A) (A)
                 (A) (A) (A) (A) (A) (A) (A) (A) (A) (A) (A) (A)
                 (A) (A) (A) (A) (A) (A) (A) (A) (A) (A) (A) (A)
                 (A) (A) (A) (A) (A) (A) (A) (A) (A) (A) (A) (A)
                 (A) (A) (A) (A) (A) (A) (A) (A) (A) (A) (A) (A)
                 (A) (A) (A) (A) (A) (A) (A) (A) (A) (A) (A) (A)
                 (A) (A) (A) (A) (A) (A) (A) (A) (A) (A) (A) (A)
                 (A) (A) (A) (A) (A) (A) (A) (A) (A) (A) (A) (A)
                 (A) (A) (A) (A) (A) (A) (A) (A) (A) (A) (A) (A)
                 (A) (A) (A) (A) (A) (A) (A) (A) (A) (A) (A) (A)
                 (A) (A) (A) (A) (A) (A) (A) (A) (A) (A) (A) (A)
                 (A) (A) (A) (A) (A) (A) (A) (A) (A) (A) (A) (A)
                 (A) (A) (A) (A) (A) (A) (A) (A) (A) (A) (A) (A)
                 (A) (A) (A) (A) (A) (A) (A) (A) (A) (A) (A) (A)
                 (A) (A) (A) (A) (A) (A) (A) (A) (A) (A) (A) (A)
                 (A) (A) (A) (A) (A) (A) (A) (A) (A) (A) (A) (A)
                 (A) (A) (A) (A) (A) (A) (A) (A) (A) (A) (A) (A)
                 (A) (A) (A) (A) (A) (A) (A) (A) (A) (A) (A) (A)
                 (A) (A) (A) (A) (A) (A) (A) (A) (A) (A) (A) (A)
                 (A) (A) (A) (A) (A) (A) (A) (A) (A) (A) (A) (A)
                 (A) (A) (A) (A) (A) (A) (A) (A) (A) (A) (A) (A)
                 (A) (A) (A) (A) (A) (A) (A) (A) (A) (A) (A) (A)
                 (A) (A) (A) (A) (A) (A) (A) (A) (A) (A) (A) (A)
                 (A) (A) (A) (A) (A) (A) (A) (A) (A) (A) (A) (A)
                 (A) (A) (A) (A) (A) (A) (A) (A) (A) (A) (A) (A)
                 (A) (A) (A) (A) (A) (A) (A) (A) (A) (A) (A) (A)
                 (A) (A) (A) (A) (A) (A) (A) (A) (A) (A) (A) (A)
                 (A) (A) (A) (A) (A) (A) (A) (A) (A) (A) (A) (A)
                 (A) (A) (A) (A) (A) (A) (A) (A) (A) (A) (A) (A)
                 (A) (A) (A) (A) (A) (A) (A) (A) (A) (A) (A) (A)
                 (A) (A) (A) (A) (A) (A) (A) (A) (A) (A) (A) (A)
                 (A) (A) (A) (A) (A) (A) (A) (A) (A) (A) (A) (A)
                 (A) (A) (A) (A) (A) (A) (A) (A) (A) (A) (A) (A)
                 (A) (A) (A) (A) (A) (A) (A) (A) (A) (A) (A) (A)
                 (A) (A) (A) (A) (A) (A) (A) (A) (A) (A) (A) (A)
                 (A) (A) (A) (A) (A) (A) (A) (A) (A) (A) (A) (A)
                 (A) (A) (A) (A) (A) (A) (A) (A) (A) (A) (A) (A)
                 (A) (A) (A) (A) (A) (A) (A) (A) (A) (A) (A) (A)
                 (A) (A) (A) (A) (A) (A) (A) (A) (A) (A) (A) (A)
                 (A) (A) (A) (A) (A) (A) (A) (A)
    20 initial guesses have been made.
 Convergence on wavefunction:    0.001000000000000
 Davidson Disk Diagonalization:  ConvIn= 1.00D-03 SkipCon=T Conv= 1.00D-03.
 Max sub-space:  2000 roots to seek:    20 dimension of matrix:       370304
 Iteration     1 Dimension    20 NMult     0 NNew     20
 CISAX will form    20 AO SS matrices at one time.
 NMat=    20 NSing=    20 JSym2X= 0.
 FoFJK:  IHMeth= 1 ICntrl=       0 DoSepK=T KAlg= 0 I1Cent=           0 FoldK=F
 IRaf=         1 NMat=      40 IRICut=       1 DoRegI=T DoRafI=F ISym2E= 0 IDoP0=3 IntGTp=3.
 FoFCou: FMM=T IPFlag=           0 FMFlag=      100000 FMFlg1=        2001
         NFxFlg=           0 DoJE=F BraDBF=F KetDBF=F FulRan=T
         wScrn=  0.000000 ICntrl=       500 IOpCl=  0 I1Cent=           0 NGrid=           0
         NMat0=   20 NMatS0=     20 NMatT0=    0 NMatD0=   20 NMtDS0=    0 NMtDT0=    0
 Symmetry not used in FoFCou.
 FMM levels:  10  Number of levels for PrismC:   9
 New state      3 was old state      4
 New state      4 was old state      5
 New state      5 was old state      9
 Excitation Energies [eV] at current iteration:
 Root      1 :     2.221274103572805
 Root      2 :     2.604633952240205
 Root      3 :     3.518881164706765
 Root      4 :     3.677587000355724
 Root      5 :     4.004981476488117
 Root      6 :     4.246394071300956
 Root      7 :     4.284438004911364
 Root      8 :     4.376940738510876
 Root      9 :     4.464842455707411
 Root     10 :     4.514114817440037
 Root     11 :     4.556807832445092
 Root     12 :     4.685455006287554
 Root     13 :     4.930229644931546
 Root     14 :     4.972185000046196
 Root     15 :     5.059463594043168
 Root     16 :     5.139210144371107
 Root     17 :     5.290691961818517
 Root     18 :     5.424388010992151
 Root     19 :     5.839782175270363
 Root     20 :     6.334692277885485
 Iteration     2 Dimension    30 NMult    20 NNew     10
 CISAX will form    10 AO SS matrices at one time.
 NMat=    10 NSing=    10 JSym2X= 0.
 Root      1 not converged, maximum delta is    0.072758053301125
 Root      2 not converged, maximum delta is    0.060399056771868
 Root      3 not converged, maximum delta is    0.048941088047629
 Root      4 not converged, maximum delta is    0.046228455825221
 Root      5 not converged, maximum delta is    0.191947261325108
 Excitation Energies [eV] at current iteration:
 Root      1 :     1.759286801041704   Change is   -0.461987302531101
 Root      2 :     2.219246607198582   Change is   -0.385387345041623
 Root      3 :     3.213251985065925   Change is   -0.305629179640840
 Root      4 :     3.327481648053060   Change is   -0.350105352302665
 Root      5 :     3.652511947493172   Change is   -0.352469528994944
 Iteration     3 Dimension    40 NMult    30 NNew     10
 CISAX will form    10 AO SS matrices at one time.
 NMat=    10 NSing=    10 JSym2X= 0.
 Root      1 not converged, maximum delta is    0.017427738263506
 Root      2 not converged, maximum delta is    0.021934989786223
 Root      3 not converged, maximum delta is    0.019374300288854
 Root      4 not converged, maximum delta is    0.024703972350528
 Root      5 not converged, maximum delta is    0.073301656849130
 Excitation Energies [eV] at current iteration:
 Root      1 :     1.723708381613464   Change is   -0.035578419428239
 Root      2 :     2.195193241340209   Change is   -0.024053365858373
 Root      3 :     3.197899038821385   Change is   -0.015352946244540
 Root      4 :     3.309593664167769   Change is   -0.017887983885290
 Root      5 :     3.539474059184928   Change is   -0.113037888308245
 Iteration     4 Dimension    50 NMult    40 NNew     10
 CISAX will form    10 AO SS matrices at one time.
 NMat=    10 NSing=    10 JSym2X= 0.
 Root      1 not converged, maximum delta is    0.003098994447499
 Root      2 not converged, maximum delta is    0.003436615358199
 Root      3 not converged, maximum delta is    0.004957025608033
 Root      4 not converged, maximum delta is    0.010042559269595
 Root      5 not converged, maximum delta is    0.013540962963284
 Excitation Energies [eV] at current iteration:
 Root      1 :     1.719645249378275   Change is   -0.004063132235189
 Root      2 :     2.192107410746102   Change is   -0.003085830594107
 Root      3 :     3.194940407759593   Change is   -0.002958631061792
 Root      4 :     3.305924603667709   Change is   -0.003669060500060
 Root      5 :     3.524738379349094   Change is   -0.014735679835834
 Iteration     5 Dimension    60 NMult    50 NNew     10
 CISAX will form    10 AO SS matrices at one time.
 NMat=    10 NSing=    10 JSym2X= 0.
 Root      1 not converged, maximum delta is    0.001329504817031
 Root      2 has converged.
 Root      3 not converged, maximum delta is    0.002299660897364
 Root      4 not converged, maximum delta is    0.002200797364840
 Root      5 not converged, maximum delta is    0.004513572791483
 Excitation Energies [eV] at current iteration:
 Root      1 :     1.719268776263528   Change is   -0.000376473114747
 Root      2 :     2.191901800958143   Change is   -0.000205609787959
 Root      3 :     3.194622737231442   Change is   -0.000317670528150
 Root      4 :     3.305530235084365   Change is   -0.000394368583344
 Root      5 :     3.523119321709753   Change is   -0.001619057639340
 Iteration     6 Dimension    68 NMult    60 NNew      8
 CISAX will form     8 AO SS matrices at one time.
 NMat=     8 NSing=     8 JSym2X= 0.
 Root      1 has converged.
 Root      2 has converged.
 Root      3 has converged.
 Root      4 not converged, maximum delta is    0.001857245676642
 Root      5 not converged, maximum delta is    0.005035380729963
 Excitation Energies [eV] at current iteration:
 Root      1 :     1.719234781385998   Change is   -0.000033994877530
 Root      2 :     2.191899680525410   Change is   -0.000002120432733
 Root      3 :     3.194583513463560   Change is   -0.000039223767883
 Root      4 :     3.305470843115371   Change is   -0.000059391968993
 Root      5 :     3.522845927868331   Change is   -0.000273393841422
 Iteration     7 Dimension    72 NMult    68 NNew      4
 CISAX will form     4 AO SS matrices at one time.
 NMat=     4 NSing=     4 JSym2X= 0.
 Root      1 has converged.
 Root      2 has converged.
 Root      3 has converged.
 Root      4 has converged.
 Root      5 not converged, maximum delta is    0.004438000066233
 Excitation Energies [eV] at current iteration:
 Root      1 :     1.719234684772553   Change is   -0.000000096613445
 Root      2 :     2.191898159554837   Change is   -0.000001520970573
 Root      3 :     3.194582942030935   Change is   -0.000000571432625
 Root      4 :     3.305461163722300   Change is   -0.000009679393071
 Root      5 :     3.522795702807865   Change is   -0.000050225060466
 Iteration     8 Dimension    74 NMult    72 NNew      2
 CISAX will form     2 AO SS matrices at one time.
 NMat=     2 NSing=     2 JSym2X= 0.
 Root      1 has converged.
 Root      2 has converged.
 Root      3 has converged.
 Root      4 has converged.
 Root      5 not converged, maximum delta is    0.003687180653549
 Excitation Energies [eV] at current iteration:
 Root      1 :     1.719234675529797   Change is   -0.000000009242756
 Root      2 :     2.191896168082409   Change is   -0.000001991472428
 Root      3 :     3.194582910644099   Change is   -0.000000031386836
 Root      4 :     3.305460720096653   Change is   -0.000000443625647
 Root      5 :     3.522777289092118   Change is   -0.000018413715747
 Iteration     9 Dimension    76 NMult    74 NNew      2
 CISAX will form     2 AO SS matrices at one time.
 NMat=     2 NSing=     2 JSym2X= 0.
 Root      1 has converged.
 Root      2 has converged.
 Root      3 has converged.
 Root      4 has converged.
 Root      5 not converged, maximum delta is    0.001436513406321
 Excitation Energies [eV] at current iteration:
 Root      1 :     1.719234668452166   Change is   -0.000000007077632
 Root      2 :     2.191895737473815   Change is   -0.000000430608594
 Root      3 :     3.194582893900449   Change is   -0.000000016743650
 Root      4 :     3.305460637531670   Change is   -0.000000082564984
 Root      5 :     3.522771981011959   Change is   -0.000005308080159
 Convergence on energies, max DE= 5.31D-06.
 Convergence on expansion vectors.
 ***********************************************************************
 Excited states from <AA,BB:AA,BB> singles matrix:
 ***********************************************************************
 
 1PDM for each excited state written to RWF  633
 Ground to excited state transition densities written to RWF  633
 Ground to excited state transition electric dipole moments (Au):
       state          X           Y           Z        Dip. S.      Osc.
         1        -1.3464      2.6042     -0.3181      8.6960      0.3663
         2         1.2546      0.8711      0.1124      2.3455      0.1260
         3        -0.0444      0.0933     -0.0185      0.0110      0.0009
         4         0.1122     -0.0919      0.0397      0.0226      0.0018
         5        -0.2790     -0.1327      0.0004      0.0954      0.0082
 Ground to excited state transition velocity dipole moments (Au):
       state          X           Y           Z        Dip. S.      Osc.
         1         0.0815     -0.1600      0.0204      0.0326      0.3445
         2        -0.0961     -0.0666     -0.0081      0.0137      0.1137
         3         0.0079     -0.0106      0.0031      0.0002      0.0011
         4        -0.0119      0.0096     -0.0021      0.0002      0.0013
         5         0.0336      0.0158      0.0035      0.0014      0.0072
 Ground to excited state transition magnetic dipole moments (Au):
       state          X           Y           Z
         1         0.0186     -0.2296     -1.5510
         2         0.0245      0.0514     -0.5234
         3        -0.0599     -0.1217      0.8273
         4         0.0238     -0.2443     -0.3435
         5         0.1909     -0.6748      0.0484
 Ground to excited state transition velocity quadrupole moments (Au):
       state          XX          YY          ZZ          XY          XZ          YZ
         1         1.6145     -0.6164      0.0170     -1.3155      0.2495      0.0657
         2        -1.7176     -0.1008      0.0010     -0.7140     -0.0685      0.0351
         3         0.4087     -0.4000      0.0140     -0.3192      0.0331     -0.0330
         4        -0.3603      0.4192     -0.0117      0.0687     -0.0037     -0.0596
         5         0.5726     -0.0091      0.0215      0.3610      0.0631      0.0436
 <0|del|b> * <b|rxdel|0> + <0|del|b> * <b|delr+rdel|0>
 Rotatory Strengths (R) in cgs (10**-40 erg-esu-cm/Gauss)
       state          XX          YY          ZZ    R(velocity)    E-M Angle
         1       101.0622     11.5382    -39.3325     24.4226       88.68
         2         9.0258    -31.9678      9.4584     -4.4945       91.43
         3         9.6670      8.4171      2.1955      6.7599       72.83
         4        -5.0422      3.7176     -9.7858     -3.7035      107.08
         5       -27.9116     18.5777    -12.8200     -7.3847       98.89
 1/2[<0|r|b>*<b|rxdel|0> + (<0|rxdel|b>*<b|r|0>)*]
 Rotatory Strengths (R) in cgs (10**-40 erg-esu-cm/Gauss)
       state          XX          YY          ZZ     R(length)
         1        17.6810    422.8384   -348.9035     30.5386
         2       -21.7730    -31.6810     41.6011     -3.9510
         3        -1.8800      8.0291     10.8058      5.6516
         4        -1.8894    -15.8798      9.6352     -2.7114
         5        37.6687    -63.3336     -0.0144     -8.5598
  1/2[<0|del|b>*<b|r|0> + (<0|r|b>*<b|del|0>)*] (Au)
       state          X           Y           Z        Dip. S.   Osc.(frdel)
         1        -0.1098     -0.4166     -0.0065      0.5328      0.3552
         2        -0.1206     -0.0580     -0.0009      0.1795      0.1197
         3        -0.0004     -0.0010     -0.0001      0.0014      0.0009
         4        -0.0013     -0.0009     -0.0001      0.0023      0.0015
         5        -0.0094     -0.0021      0.0000      0.0115      0.0077

 Excitation energies and oscillator strengths:
 
 Excited State   1:      Singlet-A      1.7192 eV  721.16 nm  f=0.3663  <S**2>=0.000
     245 -> 248        0.19784
     246 -> 247        0.68142
     245 <- 248        0.11279
 This state for optimization and/or second-order correction.
 Total Energy, E(TD-HF/TD-DFT) =  -3007.06636708    
 Copying the excited state density for this state as the 1-particle RhoCI density.
 
 Excited State   2:      Singlet-A      2.1919 eV  565.65 nm  f=0.1260  <S**2>=0.000
     245 -> 247        0.64136
     246 -> 248       -0.28600
 
 Excited State   3:      Singlet-A      3.1946 eV  388.11 nm  f=0.0009  <S**2>=0.000
     244 -> 247        0.68469
 
 Excited State   4:      Singlet-A      3.3055 eV  375.09 nm  f=0.0018  <S**2>=0.000
     243 -> 247        0.65976
     246 -> 248        0.17891
 
 Excited State   5:      Singlet-A      3.5228 eV  351.95 nm  f=0.0082  <S**2>=0.000
     240 -> 247        0.11172
     241 -> 247        0.57997
     241 -> 249        0.26403
     241 -> 250       -0.12072
     241 -> 251        0.13345
     246 -> 248       -0.10409
 SavETr:  write IOETrn=   770 NScale= 10 NData=  16 NLR=1 NState=    5 LETran=     100.
 Leave Link  914 at Thu May  5 05:57:31 2022, MaxMem= 10066329600 cpu:           25033.1 elap:            1054.2
 (Enter /sw/apps/gaussian-16.0/g16/l601.exe)
 Copying SCF densities to generalized density rwf, IOpCl= 0 IROHF=0.
 Hyperfine terms turned off by default for NAtoms > 100.

 **********************************************************************

            Population analysis using the SCF density.

 **********************************************************************

 Orbital symmetries:
       Occupied  (A) (A) (A) (A) (A) (A) (A) (A) (A) (A) (A) (A)
                 (A) (A) (A) (A) (A) (A) (A) (A) (A) (A) (A) (A)
                 (A) (A) (A) (A) (A) (A) (A) (A) (A) (A) (A) (A)
                 (A) (A) (A) (A) (A) (A) (A) (A) (A) (A) (A) (A)
                 (A) (A) (A) (A) (A) (A) (A) (A) (A) (A) (A) (A)
                 (A) (A) (A) (A) (A) (A) (A) (A) (A) (A) (A) (A)
                 (A) (A) (A) (A) (A) (A) (A) (A) (A) (A) (A) (A)
                 (A) (A) (A) (A) (A) (A) (A) (A) (A) (A) (A) (A)
                 (A) (A) (A) (A) (A) (A) (A) (A) (A) (A) (A) (A)
                 (A) (A) (A) (A) (A) (A) (A) (A) (A) (A) (A) (A)
                 (A) (A) (A) (A) (A) (A) (A) (A) (A) (A) (A) (A)
                 (A) (A) (A) (A) (A) (A) (A) (A) (A) (A) (A) (A)
[...]
 Alpha virt. eigenvalues --    1.22105   1.22939   1.23367   1.23466   1.23781
 Alpha virt. eigenvalues --    1.24425   1.25120   1.25418   1.25538   1.26124
 Alpha virt. eigenvalues --    1.26372   1.26889   1.27349   1.28534   1.28908
 Alpha virt. eigenvalues --    1.29365   1.29880   1.30413   1.31064   1.31228
 Alpha virt. eigenvalues --    1.31516   1.32184   1.32320   1.33330   1.33657
 Alpha virt. eigenvalues --    1.33827   1.34093   1.34178   1.34962   1.35031
 Alpha virt. eigenvalues --    1.35245   1.36260   1.36650   1.37670   1.38023
 Alpha virt. eigenvalues --    1.38311   1.38530   1.38965   1.39108   1.39754
 Alpha virt. eigenvalues --    1.39891   1.40085   1.40597   1.41185   1.41591
 Alpha virt. eigenvalues --    1.42451   1.42625   1.43556   1.44123   1.44356
 Alpha virt. eigenvalues --    1.44483   1.45225   1.45403   1.45903   1.46156
 Alpha virt. eigenvalues --    1.46332   1.46620   1.47337   1.47815   1.47968
 Alpha virt. eigenvalues --    1.48438   1.48698   1.49470   1.49747   1.49938
 Alpha virt. eigenvalues --    1.50487   1.51750   1.51945   1.52300   1.52518
 Alpha virt. eigenvalues --    1.53143   1.53632   1.54127   1.54155   1.54551
 Alpha virt. eigenvalues --    1.55672   1.55858   1.56406   1.57123   1.57576
 Alpha virt. eigenvalues --    1.57677   1.57921   1.58436   1.58995   1.59176
 Alpha virt. eigenvalues --    1.59838   1.59957   1.60020   1.60787   1.60961
 Alpha virt. eigenvalues --    1.61030   1.61311   1.61467   1.61787   1.61830
 Alpha virt. eigenvalues --    1.61909   1.62078   1.62120   1.62666   1.62723
 Alpha virt. eigenvalues --    1.62979   1.63117   1.63490   1.63755   1.64259
 Alpha virt. eigenvalues --    1.64465   1.64570   1.64611   1.65060   1.65480
 Alpha virt. eigenvalues --    1.66003   1.66302   1.66481   1.66782   1.67325
 Alpha virt. eigenvalues --    1.67620   1.67806   1.68326   1.68391   1.68649
 Alpha virt. eigenvalues --    1.69826   1.69933   1.71071   1.71483   1.71919
 Alpha virt. eigenvalues --    1.72701   1.73069   1.73861   1.74145   1.74369
 Alpha virt. eigenvalues --    1.74649   1.74806   1.74979   1.75205   1.75630
 Alpha virt. eigenvalues --    1.75955   1.76279   1.76625   1.77371   1.77872
 Alpha virt. eigenvalues --    1.78323   1.78580   1.78781   1.78815   1.79043
 Alpha virt. eigenvalues --    1.79192   1.79249   1.79412   1.79571   1.79792
 Alpha virt. eigenvalues --    1.80055   1.80211   1.80673   1.80780   1.80977
 Alpha virt. eigenvalues --    1.81302   1.81502   1.82018   1.82241   1.82269
 Alpha virt. eigenvalues --    1.82417   1.82899   1.82970   1.83251   1.83542
 Alpha virt. eigenvalues --    1.83955   1.84173   1.84234   1.84540   1.84785
 Alpha virt. eigenvalues --    1.85006   1.85147   1.85285   1.85568   1.85883
 Alpha virt. eigenvalues --    1.85943   1.86198   1.86278   1.86340   1.86599
 Alpha virt. eigenvalues --    1.86812   1.86908   1.87058   1.87151   1.87331
 Alpha virt. eigenvalues --    1.87747   1.87991   1.88243   1.88667   1.88889
 Alpha virt. eigenvalues --    1.89050   1.89172   1.89385   1.89623   1.90059
 Alpha virt. eigenvalues --    1.90160   1.90370   1.90415   1.90873   1.91273
 Alpha virt. eigenvalues --    1.91378   1.91637   1.91730   1.91740   1.92355
 Alpha virt. eigenvalues --    1.92529   1.92737   1.92974   1.93251   1.93621
 Alpha virt. eigenvalues --    1.93750   1.93854   1.94338   1.94480   1.94708
 Alpha virt. eigenvalues --    1.94840   1.95050   1.95210   1.95479   1.95587
 Alpha virt. eigenvalues --    1.95896   1.96090   1.96253   1.96453   1.96611
 Alpha virt. eigenvalues --    1.96664   1.96800   1.96901   1.97280   1.97903
 Alpha virt. eigenvalues --    1.98025   1.98188   1.98254   1.98426   1.98927
 Alpha virt. eigenvalues --    1.99123   1.99382   1.99695   1.99837   1.99968
 Alpha virt. eigenvalues --    2.00578   2.00726   2.01196   2.01477   2.01935
 Alpha virt. eigenvalues --    2.02246   2.02369   2.02490   2.02653   2.03084
 Alpha virt. eigenvalues --    2.03172   2.03706   2.03909   2.03929   2.03995
 Alpha virt. eigenvalues --    2.04263   2.04789   2.05105   2.05456   2.05703
 Alpha virt. eigenvalues --    2.05766   2.06072   2.06299   2.06956   2.07171
 Alpha virt. eigenvalues --    2.07246   2.08355   2.08379   2.08480   2.08635
 Alpha virt. eigenvalues --    2.08897   2.09235   2.09575   2.10078   2.10362
 Alpha virt. eigenvalues --    2.10471   2.10733   2.11128   2.11608   2.11701
 Alpha virt. eigenvalues --    2.12651   2.12794   2.12963   2.13303   2.13381
 Alpha virt. eigenvalues --    2.13979   2.14305   2.14718   2.14821   2.14950
 Alpha virt. eigenvalues --    2.15435   2.15561   2.16013   2.16334   2.16707
 Alpha virt. eigenvalues --    2.17028   2.17829   2.18272   2.18437   2.18733
 Alpha virt. eigenvalues --    2.18906   2.19792   2.19970   2.19993   2.20125
 Alpha virt. eigenvalues --    2.20467   2.20821   2.21084   2.21496   2.21687
 Alpha virt. eigenvalues --    2.21750   2.22113   2.22234   2.22478   2.23138
 Alpha virt. eigenvalues --    2.23483   2.23766   2.24075   2.24341   2.24924
 Alpha virt. eigenvalues --    2.25002   2.25264   2.25507   2.25835   2.26670
 Alpha virt. eigenvalues --    2.27037   2.27861   2.28280   2.28479   2.29113
 Alpha virt. eigenvalues --    2.29626   2.30063   2.30889   2.31358   2.31646
 Alpha virt. eigenvalues --    2.31788   2.32358   2.32869   2.33060   2.33340
 Alpha virt. eigenvalues --    2.33944   2.34408   2.34584   2.34685   2.34833
 Alpha virt. eigenvalues --    2.35469   2.35542   2.36254   2.36533   2.36583
 Alpha virt. eigenvalues --    2.37145   2.37255   2.37873   2.38062   2.39194
 Alpha virt. eigenvalues --    2.39428   2.39516   2.39999   2.40282   2.40448
 Alpha virt. eigenvalues --    2.40842   2.41151   2.41372   2.41544   2.41597
 Alpha virt. eigenvalues --    2.42372   2.42741   2.43361   2.43465   2.43721
 Alpha virt. eigenvalues --    2.44253   2.44770   2.44840   2.45108   2.45287
 Alpha virt. eigenvalues --    2.45805   2.46500   2.46750   2.47022   2.47313
 Alpha virt. eigenvalues --    2.48092   2.48640   2.49199   2.49259   2.49592
 Alpha virt. eigenvalues --    2.49760   2.49788   2.50466   2.50740   2.50891
 Alpha virt. eigenvalues --    2.51260   2.51807   2.52454   2.52615   2.53746
 Alpha virt. eigenvalues --    2.54001   2.54319   2.54918   2.55650   2.55889
 Alpha virt. eigenvalues --    2.56006   2.56633   2.56846   2.56987   2.57634
 Alpha virt. eigenvalues --    2.57869   2.58874   2.58919   2.59184   2.60475
 Alpha virt. eigenvalues --    2.60976   2.60991   2.61409   2.61482   2.61910
 Alpha virt. eigenvalues --    2.62920   2.63462   2.63555   2.64234   2.65120
 Alpha virt. eigenvalues --    2.65170   2.65363   2.65476   2.65589   2.65931
 Alpha virt. eigenvalues --    2.66617   2.67372   2.67545   2.68001   2.68349
 Alpha virt. eigenvalues --    2.68894   2.69069   2.69376   2.69709   2.70159
 Alpha virt. eigenvalues --    2.70955   2.71323   2.71820   2.72070   2.72483
 Alpha virt. eigenvalues --    2.72694   2.73291   2.73690   2.73721   2.74204
 Alpha virt. eigenvalues --    2.74388   2.75203   2.75446   2.76109   2.76239
 Alpha virt. eigenvalues --    2.76475   2.76963   2.77730   2.77838   2.77986
 Alpha virt. eigenvalues --    2.78556   2.78971   2.79256   2.79894   2.80213
 Alpha virt. eigenvalues --    2.80283   2.80567   2.81122   2.81462   2.82048
 Alpha virt. eigenvalues --    2.82712   2.82725   2.82915   2.83353   2.83879
 Alpha virt. eigenvalues --    2.84470   2.85203   2.85800   2.86030   2.86742
 Alpha virt. eigenvalues --    2.86801   2.87393   2.87605   2.88153   2.88684
 Alpha virt. eigenvalues --    2.89184   2.89814   2.89976   2.90831   2.91368
 Alpha virt. eigenvalues --    2.91746   2.92116   2.92935   2.93508   2.93715
 Alpha virt. eigenvalues --    2.94058   2.95197   2.96135   2.96145   2.96852
 Alpha virt. eigenvalues --    2.97137   2.97523   2.97909   2.98423   2.98691
 Alpha virt. eigenvalues --    2.98853   2.99464   2.99745   2.99867   3.00176
 Alpha virt. eigenvalues --    3.00445   3.01273   3.01451   3.01534   3.01867
 Alpha virt. eigenvalues --    3.02045   3.02782   3.03087   3.03318   3.03419
 Alpha virt. eigenvalues --    3.03888   3.04052   3.04281   3.04595   3.04898
 Alpha virt. eigenvalues --    3.04991   3.05463   3.05659   3.05785   3.05966
 Alpha virt. eigenvalues --    3.06790   3.06941   3.07203   3.07233   3.07659
 Alpha virt. eigenvalues --    3.07736   3.07800   3.08445   3.08829   3.09597
 Alpha virt. eigenvalues --    3.09741   3.10178   3.10561   3.10829   3.10845
 Alpha virt. eigenvalues --    3.11564   3.11966   3.12016   3.12550   3.13011
 Alpha virt. eigenvalues --    3.13352   3.13519   3.13785   3.14773   3.14959
 Alpha virt. eigenvalues --    3.15414   3.16554   3.18181   3.18206   3.18562
 Alpha virt. eigenvalues --    3.19340   3.20011   3.21118   3.21490   3.22068
 Alpha virt. eigenvalues --    3.22569   3.23865   3.24600   3.24664   3.24772
 Alpha virt. eigenvalues --    3.26026   3.26816   3.27302   3.27383   3.30035
 Alpha virt. eigenvalues --    3.35430   3.36658   3.43742   3.45966   3.48346
 Alpha virt. eigenvalues --    3.49088   3.49186   3.52168   3.53582   3.56721
 Alpha virt. eigenvalues --    3.61141   3.65877   3.67405   3.68940   3.70962
 Alpha virt. eigenvalues --    3.72363   3.76265
          Condensed to atoms (all electrons):
 Mulliken charges:
               1
     1  Mg   0.817120
     2  C    0.025975
     3  C   -0.066249
     4  C   -0.051861
     5  C   -0.100359
     6  N   -0.221651
     7  C   -0.047045
     8  C   -0.073338
     9  C   -0.105675
    10  C    0.046780
    11  C    0.082862
    12  C    0.051040
    13  C    0.085527
    14  C    0.181934
    15  O   -0.271117
    16  O   -0.325039
    17  N   -0.368586
    18  C    0.147751
    19  C   -0.149731
    20  C   -0.068637
    21  C    0.123477
    22  C    0.104415
    23  C    0.029457
    24  O   -0.184607
    25  C    0.042118
    26  N   -0.315643
    27  C    0.006984
    28  C    0.027672
    29  C    0.016831
    30  C   -0.004212
    31  C    0.078045
    32  C   -0.000608
    33  C   -0.015019
    34  N   -0.375910
    35  C    0.181636
    36  C   -0.153704
    37  C    0.043737
    38  C    0.127155
    39  C    0.118914
    40  C    0.018154
    41  O   -0.160141
    42  C    0.024008
    43  C    0.164521
    44  O   -0.210630
    45  O   -0.338368
    46  C    0.168126
    47  C    0.287639
    48  C   -0.130968
    49  C   -0.178675
    50  C    0.084003
    51  C    0.065976
    52  C    0.007054
    53  C    0.040202
    54  C   -0.109413
    55  C    0.049212
    56  C    0.074282
    57  C    0.001464
    58  C    0.030733
    59  C   -0.164770
    60  C    0.050063
    61  C    0.070883
    62  C    0.061790
    63  C    0.040069
    64  C   -0.157964
    65  C    0.037927
    66  C    0.065867
    67  H   -0.016366
    68  H   -0.000085
    69  H   -0.028643
    70  H    0.047532
    71  H    0.009423
    72  H    0.027565
    73  H    0.027693
    74  H    0.003308
    75  H    0.024930
    76  H    0.017316
    77  H    0.030829
    78  H    0.020682
    79  H    0.005763
    80  H    0.041569
    81  H    0.004693
    82  H    0.029711
    83  H    0.041242
    84  H    0.028990
    85  H    0.010451
    86  H    0.000243
    87  H    0.008025
    88  H    0.005302
    89  H    0.026578
    90  H    0.013471
    91  H    0.001050
    92  H    0.018873
    93  H    0.015240
    94  H    0.021069
    95  H    0.026637
    96  H   -0.023389
    97  H    0.041691
    98  H    0.034202
    99  H    0.046916
   100  H    0.038038
   101  H    0.023932
   102  H    0.043001
   103  H    0.018080
   104  H   -0.011999
   105  H    0.019239
   106  H    0.024017
   107  H    0.021380
   108  H   -0.012496
   109  H    0.002057
   110  H   -0.002086
   111  H   -0.004879
   112  H    0.004747
   113  H   -0.005921
   114  H    0.000546
   115  H    0.005198
   116  H    0.009263
   117  H    0.002163
   118  H    0.000536
   119  H   -0.012064
   120  H    0.001256
   121  H    0.001805
   122  H   -0.011586
   123  H    0.008091
   124  H   -0.016223
   125  H    0.005338
   126  H    0.003628
   127  H    0.023215
   128  H   -0.018812
   129  H   -0.030100
   130  H   -0.010857
   131  H   -0.009435
   132  H   -0.004227
   133  H   -0.017521
   134  H    0.002943
   135  H    0.016259
   136  H   -0.008435
   137  H    0.000753
   138  H   -0.004371
   139  H    0.003662
   140  H    0.007868
 Sum of Mulliken charges =  -0.00000
 Mulliken charges with hydrogens summed into heavy atoms:
               1
     1  Mg   0.817120
     2  C    0.025975
     3  C   -0.082615
     4  C   -0.051946
     5  C   -0.129002
     6  N   -0.221651
     7  C   -0.047045
     8  C   -0.025806
     9  C   -0.096251
    10  C    0.046780
    11  C    0.141429
    12  C    0.093286
    13  C    0.137039
    14  C    0.181934
    15  O   -0.271117
    16  O   -0.325039
    17  N   -0.368586
    18  C    0.147751
    19  C   -0.149731
    20  C   -0.068637
    21  C    0.123477
    22  C    0.156440
    23  C    0.029457
    24  O   -0.184607
    25  C    0.142062
    26  N   -0.315643
    27  C    0.006984
    28  C    0.038123
    29  C    0.017075
    30  C   -0.004212
    31  C    0.117950
    32  C    0.013914
    33  C    0.040164
    34  N   -0.375910
    35  C    0.181636
    36  C   -0.153704
    37  C    0.043737
    38  C    0.127155
    39  C    0.163854
    40  C    0.018154
    41  O   -0.160141
    42  C    0.058210
    43  C    0.164521
    44  O   -0.210630
    45  O   -0.338368
    46  C    0.277011
    47  C    0.348721
    48  C   -0.142967
    49  C   -0.178675
    50  C    0.148639
    51  C    0.055537
    52  C    0.000089
    53  C    0.039028
    54  C   -0.108867
    55  C    0.065837
    56  C    0.062754
    57  C    0.004526
    58  C    0.027238
    59  C   -0.180994
    60  C    0.082244
    61  C    0.021972
    62  C    0.041497
    63  C    0.018320
    64  C   -0.155021
    65  C    0.046504
    66  C    0.073026
 Electronic spatial extent (au):  <R**2>=         112279.2413
 Charge=             -0.0000 electrons
 Dipole moment (field-independent basis, Debye):
    X=             -4.1366    Y=              3.1240    Z=              3.1076  Tot=              6.0438
 Quadrupole moment (field-independent basis, Debye-Ang):
   XX=           -382.2109   YY=           -432.7861   ZZ=           -408.3302
   XY=             18.4857   XZ=              9.6531   YZ=             -8.0820
 Traceless Quadrupole moment (field-independent basis, Debye-Ang):
   XX=             25.5649   YY=            -25.0104   ZZ=             -0.5545
   XY=             18.4857   XZ=              9.6531   YZ=             -8.0820
 Octapole moment (field-independent basis, Debye-Ang**2):
  XXX=            461.5066  YYY=            -42.8522  ZZZ=             -1.2242  XYY=           -298.4407
  XXY=             44.5551  XXZ=             87.1302  XZZ=             12.4596  YZZ=            -12.2119
  YYZ=             12.9897  XYZ=             -4.5529
 Hexadecapole moment (field-independent basis, Debye-Ang**3):
 XXXX=        -119967.3013 YYYY=         -27917.1292 ZZZZ=          -4799.6416 XXXY=           1558.5762
 XXXZ=            -37.4532 YYYX=           -345.6600 YYYZ=            269.5189 ZZZX=            -76.4698
 ZZZY=             44.5602 XXYY=         -26568.8185 XXZZ=         -21680.5733 YYZZ=          -5258.4749
 XXYZ=            -99.1830 YYXZ=            108.4943 ZZXY=             40.1409
 N-N= 9.687687619478D+03 E-N=-2.636694518364D+04  KE= 2.975796213309D+03
 Leave Link  601 at Thu May  5 05:57:32 2022, MaxMem= 10066329600 cpu:              11.4 elap:               0.6
 (Enter /sw/apps/gaussian-16.0/g16/l9999.exe)
 1\1\GINC-BP1-COMPUTE100\SP\RCAM-B3LYP TD-FC\def2SVP\C55H74Mg1N4O6\OF15
 641\05-May-2022\0\\#p cam-b3lyp/Def2SVP td=(nstates=5)\\step_701_chrom
 ophore_24 TDDFT with cam-b3lyp functional\\0,1\Mg,0,-0.395,44.078,24.9
 95\C,0,1.72,43.232,27.767\C,0,-3.009,42.868,26.912\C,0,-2.355,44.064,2
 2.191\C,0,2.456,44.674,23.106\N,0,-0.549,43.038,27.147\C,0,0.367,43.02
 6,28.139\C,0,-0.15,42.418,29.452\C,0,-1.698,42.142,29.052\C,0,-1.791,4
 2.776,27.554\C,0,-2.17,40.678,29.08\C,0,-0.067,43.44,30.652\C,0,0.094,
 42.981,32.064\C,0,-0.544,41.651,32.477\O,0,0.032,40.527,32.58\O,0,-1.9
 21,41.736,32.479\N,0,-2.468,43.858,24.599\C,0,-3.326,43.37,25.573\C,0,
 -4.69,43.454,25.037\C,0,-4.534,43.696,23.577\C,0,-3.081,43.824,23.407\
 C,0,-5.883,43.121,25.824\C,0,-5.622,43.817,22.462\O,0,-5.304,44.018,21
 .309\C,0,-7.045,43.844,22.948\N,0,-0.002,44.498,23.006\C,0,-0.966,44.3
 93,22.013\C,0,-0.325,44.473,20.614\C,0,1.082,45.026,20.93\C,0,1.199,44
 .735,22.398\C,0,-0.338,43.185,19.872\C,0,1.336,46.514,20.682\C,0,0.638
 ,47.529,21.654\N,0,1.661,44.045,25.349\C,0,2.673,44.366,24.457\C,0,3.8
 74,44.247,25.147\C,0,3.558,43.85,26.416\C,0,2.205,43.653,26.543\C,0,5.
 178,44.51,24.742\C,0,4.12,43.552,27.727\O,0,5.291,43.466,28.053\C,0,2.
 946,43.179,28.631\C,0,3.194,41.886,29.241\O,0,3.297,40.876,28.577\O,0,
 3.521,41.904,30.597\C,0,3.946,40.689,31.221\C,0,-2.722,40.598,32.764\C
 ,0,-3.647,40.898,33.954\C,0,-3.537,40.548,35.274\C,0,-2.268,39.921,35.
 856\C,0,-4.504,40.904,36.342\C,0,-4.441,42.346,36.859\C,0,-5.514,43.30
 2,36.27\C,0,-6.609,43.739,37.316\C,0,-6.054,44.652,38.41\C,0,-7.833,44
 .351,36.581\C,0,-9.125,43.523,36.812\C,0,-9.265,42.295,35.74\C,0,-9.54
 1,40.864,36.353\C,0,-9.071,39.707,35.405\C,0,-11.027,40.716,36.654\C,0
 ,-11.495,41.143,38.048\C,0,-11.756,40.02,38.994\C,0,-12.984,39.217,38.
 643\C,0,-14.271,39.896,39.117\C,0,-12.932,37.811,39.257\H,0,-3.859,42.
 488,27.483\H,0,-2.876,44.109,21.232\H,0,3.309,44.882,22.457\H,0,0.332,
 41.464,29.668\H,0,-2.27,42.673,29.813\H,0,-1.294,40.044,29.212\H,0,-2.
 746,40.409,28.195\H,0,-2.752,40.751,29.998\H,0,-0.928,44.109,30.66\H,0
 ,0.892,43.942,30.521\H,0,-0.081,43.816,32.743\H,0,1.168,42.833,32.175\
 H,0,-5.648,43.178,26.887\H,0,-6.471,42.241,25.561\H,0,-6.609,43.934,25
 .801\H,0,-7.719,44.012,22.108\H,0,-7.17,44.617,23.706\H,0,-7.299,42.90
 5,23.439\H,0,-0.888,45.229,20.066\H,0,1.963,44.588,20.461\H,0,0.638,42
 .738,19.683\H,0,-0.635,43.269,18.826\H,0,-0.996,42.421,20.285\H,0,1.18
 2,46.882,19.668\H,0,2.374,46.748,20.919\H,0,0.085,48.227,21.026\H,0,1.
 352,47.994,22.334\H,0,-0.058,47.042,22.338\H,0,5.548,45.414,25.225\H,0
 ,5.215,44.807,23.693\H,0,5.936,43.731,24.83\H,0,3.053,43.887,29.453\H,
 0,4.173,39.834,30.584\H,0,3.227,40.397,31.987\H,0,4.876,40.889,31.752\
 H,0,-2.169,39.666,32.88\H,0,-3.444,40.461,31.959\H,0,-4.636,41.292,33.
 718\H,0,-2.517,39.009,36.398\H,0,-1.909,40.689,36.541\H,0,-1.59,39.668
 ,35.041\H,0,-4.484,40.227,37.195\H,0,-5.515,40.702,35.988\H,0,-3.492,4
 2.832,36.632\H,0,-4.444,42.277,37.947\H,0,-5.946,42.796,35.406\H,0,-4.
 879,44.122,35.936\H,0,-6.697,42.808,37.876\H,0,-5.113,45.071,38.054\H,
 0,-5.933,44.184,39.387\H,0,-6.735,45.478,38.615\H,0,-7.763,44.514,35.5
 05\H,0,-8.14,45.328,36.954\H,0,-9.996,44.178,36.835\H,0,-9.006,43.11,3
 7.813\H,0,-8.251,42.098,35.391\H,0,-9.887,42.527,34.875\H,0,-9.027,40.
 86,37.315\H,0,-9.497,38.734,35.648\H,0,-8.045,39.423,35.64\H,0,-9.266,
 40.114,34.412\H,0,-11.42,39.727,36.416\H,0,-11.44,41.306,35.836\H,0,-1
 2.341,41.83,38.028\H,0,-10.647,41.63,38.529\H,0,-11.832,40.394,40.016\
 H,0,-10.865,39.394,38.944\H,0,-13.061,39.099,37.562\H,0,-15.086,39.45,
 39.687\H,0,-14.859,40.195,38.249\H,0,-13.89,40.815,39.562\H,0,-12.974,
 37.191,38.361\H,0,-13.838,37.605,39.826\H,0,-12.026,37.52,39.788\\Vers
 ion=ES64L-G16RevA.03\State=1-A\HF=-3007.1295478\RMSD=7.794e-09\PG=C01 
 [X(C55H74Mg1N4O6)]\\@


 AN OPTIMIST IS A GUY
 THAT HAS NEVER HAD
 MUCH EXPERIENCE
   (CERTAIN MAXIMS OF ARCHY  -- DON MARQUIS)
 Job cpu time:       0 days  9 hours 27 minutes 18.1 seconds.
 Elapsed time:       0 days  0 hours 24 minutes  6.7 seconds.
 File lengths (MBytes):  RWF=   8929 Int=      0 D2E=      0 Chk=    390 Scr=      1
 Normal termination of Gaussian 16 at Thu May  5 05:57:33 2022.
