 Entering Gaussian System, Link 0=g16
 Initial command:
 /sw/apps/gaussian-16.0/g16/l1.exe "/tmp/Gau-35670.inp" -scrdir="/tmp/"
 Entering Link 1 = /sw/apps/gaussian-16.0/g16/l1.exe PID=     35671.
  
 Copyright (c) 1988,1990,1992,1993,1995,1998,2003,2009,2016,
            Gaussian, Inc.  All Rights Reserved.
  
 This is part of the Gaussian(R) 16 program.  It is based on
 the Gaussian(R) 09 system (copyright 2009, Gaussian, Inc.),
 the Gaussian(R) 03 system (copyright 2003, Gaussian, Inc.),
 the Gaussian(R) 98 system (copyright 1998, Gaussian, Inc.),
 the Gaussian(R) 94 system (copyright 1995, Gaussian, Inc.),
 the Gaussian 92(TM) system (copyright 1992, Gaussian, Inc.),
 the Gaussian 90(TM) system (copyright 1990, Gaussian, Inc.),
 the Gaussian 88(TM) system (copyright 1988, Gaussian, Inc.),
 the Gaussian 86(TM) system (copyright 1986, Carnegie Mellon
 University), and the Gaussian 82(TM) system (copyright 1983,
 Carnegie Mellon University). Gaussian is a federally registered
 trademark of Gaussian, Inc.
  
 This software contains proprietary and confidential information,
 including trade secrets, belonging to Gaussian, Inc.
  
 This software is provided under written license and may be
 used, copied, transmitted, or stored only in accord with that
 written license.
  
 The following legend is applicable only to US Government
 contracts under FAR:
  
                    RESTRICTED RIGHTS LEGEND
  
 Use, reproduction and disclosure by the US Government is
 subject to restrictions as set forth in subparagraphs (a)
 and (c) of the Commercial Computer Software - Restricted
 Rights clause in FAR 52.227-19.
  
 Gaussian, Inc.
 340 Quinnipiac St., Bldg. 40, Wallingford CT 06492
  
  
 ---------------------------------------------------------------
 Warning -- This program may not be used in any manner that
 competes with the business of Gaussian, Inc. or will provide
 assistance to any competitor of Gaussian, Inc.  The licensee
 of this program is prohibited from giving any competitor of
 Gaussian, Inc. access to this program.  By using this program,
 the user acknowledges that Gaussian, Inc. is engaged in the
 business of creating and licensing software in the field of
 computational chemistry and represents and warrants to the
 licensee that it is not a competitor of Gaussian, Inc. and that
 it will not use this program in any manner prohibited above.
 ---------------------------------------------------------------
  

 Cite this work as:
 Gaussian 16, Revision A.03,
 M. J. Frisch, G. W. Trucks, H. B. Schlegel, G. E. Scuseria, 
 M. A. Robb, J. R. Cheeseman, G. Scalmani, V. Barone, 
 G. A. Petersson, H. Nakatsuji, X. Li, M. Caricato, A. V. Marenich, 
 J. Bloino, B. G. Janesko, R. Gomperts, B. Mennucci, H. P. Hratchian, 
 J. V. Ortiz, A. F. Izmaylov, J. L. Sonnenberg, D. Williams-Young, 
 F. Ding, F. Lipparini, F. Egidi, J. Goings, B. Peng, A. Petrone, 
 T. Henderson, D. Ranasinghe, V. G. Zakrzewski, J. Gao, N. Rega, 
 G. Zheng, W. Liang, M. Hada, M. Ehara, K. Toyota, R. Fukuda, 
 J. Hasegawa, M. Ishida, T. Nakajima, Y. Honda, O. Kitao, H. Nakai, 
 T. Vreven, K. Throssell, J. A. Montgomery, Jr., J. E. Peralta, 
 F. Ogliaro, M. J. Bearpark, J. J. Heyd, E. N. Brothers, K. N. Kudin, 
 V. N. Staroverov, T. A. Keith, R. Kobayashi, J. Normand, 
 K. Raghavachari, A. P. Rendell, J. C. Burant, S. S. Iyengar, 
 J. Tomasi, M. Cossi, J. M. Millam, M. Klene, C. Adamo, R. Cammi, 
 J. W. Ochterski, R. L. Martin, K. Morokuma, O. Farkas, 
 J. B. Foresman, and D. J. Fox, Gaussian, Inc., Wallingford CT, 2016.
 
 ******************************************
 Gaussian 16:  ES64L-G16RevA.03 25-Dec-2016
                 4-May-2022 
 ******************************************
 %nproc=24
 Will use up to   24 processors via shared memory.
 %mem=75GB
 -----------------------------------
 #p cam-b3lyp/Def2SVP td=(nstates=5)
 -----------------------------------
 1/38=1,172=1/1;
 2/12=2,17=6,18=5,40=1/2;
 3/5=43,7=101,11=9,25=1,30=1,74=-40/1,2,3,8;
 4//1;
 5/5=2,38=5/2;
 8/6=1,10=1,108=5/1;
 9/41=5,42=1,70=2/14;
 6/7=2,8=2,9=2,10=2/1;
 99/5=1,9=1/99;
 Leave Link    1 at Wed May  4 04:48:48 2022, MaxMem= 10066329600 cpu:               0.6 elap:               0.0
 (Enter /sw/apps/gaussian-16.0/g16/l101.exe)
 --------------------------------------------------------
 step_1401_chromophore_22 TDDFT with cam-b3lyp functional
 --------------------------------------------------------
 Symbolic Z-matrix:
 Charge =  0 Multiplicity = 1
 Mg                    8.761     47.918    25.179 
 C                     6.825     48.088    28.123 
 C                     11.383    49.379    26.991 
 C                     10.531    48.083    22.354 
 C                     5.956     47.186    23.346 
 N                     9.106     48.475    27.356 
 C                     8.174     48.4      28.389 
 C                     8.736     48.92     29.685 
 C                     9.857     49.781    29.185 
 C                     10.164    49.164    27.772 
 C                     9.412     51.296    29.053 
 C                     9.071     47.795    30.684 
 C                     8.614     48.042    32.142 
 C                     8.449     46.864    33.226 
 O                     8.832     45.704    33.156 
 O                     7.734     47.384    34.307 
 N                     10.685    48.501    24.796 
 C                     11.664    48.962    25.668 
 C                     12.986    49.06     24.982 
 C                     12.804    48.655    23.617 
 C                     11.299    48.371    23.575 
 C                     14.275    49.53     25.628 
 C                     13.641    48.422    22.458 
 O                     13.274    47.888    21.434 
 C                     15.1      48.749    22.648 
 N                     8.385     47.538    23.164 
 C                     9.227     47.781    22.147 
 C                     8.671     47.426    20.749 
 C                     7.236     46.925    21.178 
 C                     7.193     47.265    22.652 
 C                     8.868     48.489    19.662 
 C                     7.101     45.402    20.935 
 C                     5.751     45.015    20.166 
 N                     6.782     47.599    25.586 
 C                     5.756     47.432    24.747 
 C                     4.541     47.393    25.508 
 C                     4.895     47.544    26.855 
 C                     6.303     47.708    26.84 
 C                     3.141     47.161    24.994 
 C                     4.427     47.615    28.182 
 O                     3.277     47.479    28.664 
 C                     5.68      47.903    29.09 
 C                     5.782     46.639    29.928 
 O                     6.26      45.582    29.454 
 O                     5.577     46.864    31.255 
 C                     5.502     45.624    32.03 
 C                     7.335     46.642    35.465 
 C                     7.863     47.204    36.783 
 C                     7.379     47.089    38.005 
 C                     6.119     46.364    38.31 
 C                     8.192     47.737    39.103 
 C                     8.851     46.699    40.108 
 C                     10.172    47.228    40.553 
 C                     9.884     47.938    41.911 
 C                     9.791     49.522    41.634 
 C                     11.047    47.681    42.928 
 C                     11.059    46.275    43.671 
 C                     11.387    46.396    45.151 
 C                     12.732    45.778    45.639 
 C                     13.311    46.501    46.869 
 C                     12.64     44.206    45.883 
 C                     13.643    43.382    45.025 
 C                     13.08     42.714    43.785 
 C                     14.162    42.6      42.671 
 C                     13.845    43.385    41.395 
 C                     14.446    41.161    42.254 
 H                     12.129    49.964    27.532 
 H                     11.039    47.975    21.394 
 H                     5.023     46.984    22.816 
 H                     7.913     49.503    30.097 
 H                     10.824    49.634    29.666 
 H                     10.043    51.893    29.71 
 H                     8.355     51.545    29.154 
 H                     9.581     51.573    28.012 
 H                     10.157    47.71     30.702 
 H                     8.678     46.831    30.361 
 H                     7.661     48.57     32.15 
 H                     9.369     48.72     32.54 
 H                     14.099    49.803    26.669 
 H                     14.699    50.433    25.189 
 H                     14.924    48.655    25.607 
 H                     15.464    48.124    23.463 
 H                     15.242    49.815    22.828 
 H                     15.612    48.558    21.705 
 H                     9.263     46.54     20.521 
 H                     6.528     47.569    20.656 
 H                     8.025     48.783    19.036 
 H                     9.789     48.286    19.116 
 H                     9.1       49.484    20.039 
 H                     7.065     44.828    21.861 
 H                     7.886     45.06     20.26 
 H                     5.175     45.855    19.778 
 H                     5.116     44.468    20.862 
 H                     5.932     44.338    19.331 
 H                     3.261     47.521    23.972 
 H                     2.515     47.963    25.388 
 H                     2.72      46.156    25.026 
 H                     5.546     48.694    29.828 
 H                     6.5       45.335    32.36 
 H                     5.074     44.783    31.484 
 H                     4.867     45.994    32.835 
 H                     7.708     45.619    35.423 
 H                     6.252     46.753    35.525 
 H                     8.791     47.757    36.635 
 H                     6.295     46.145    39.363 
 H                     5.946     45.536    37.623 
 H                     5.338     47.121    38.235 
 H                     7.548     48.281    39.794 
 H                     8.883     48.521    38.794 
 H                     8.935     45.669    39.762 
 H                     8.183     46.672    40.969 
 H                     10.568    48.007    39.902 
 H                     10.951    46.471    40.642 
 H                     8.948     47.703    42.418 
 H                     10.528    50.029    42.257 
 H                     8.839     49.941    41.957 
 H                     10.052    49.815    40.617 
 H                     11.214    48.529    43.593 
 H                     11.957    47.691    42.329 
 H                     11.757    45.571    43.218 
 H                     10.101    45.76     43.742 
 H                     10.549    45.936    45.675 
 H                     11.389    47.415    45.537 
 H                     13.384    46.028    44.801 
 H                     13.902    45.888    47.549 
 H                     12.486    46.781    47.524 
 H                     13.941    47.383    46.755 
 H                     11.585    44.006    45.696 
 H                     12.751    43.918    46.929 
 H                     13.999    42.559    45.645 
 H                     14.518    44.009    44.854 
 H                     12.206    43.278    43.458 
 H                     12.61     41.771    44.065 
 H                     15.053    43.111    43.036 
 H                     14.751    43.592    40.825 
 H                     13.473    44.376    41.654 
 H                     13.       42.978    40.839 
 H                     13.898    40.981    41.329 
 H                     14.153    40.391    42.968 
 H                     15.522    41.098    42.096 
 
 ITRead=  0  0  0  0  0  0  0  0  0  0  0  0  0  0  0  0  0  0  0  0
 ITRead=  0  0  0  0  0  0  0  0  0  0  0  0  0  0  0  0  0  0  0  0
 ITRead=  0  0  0  0  0  0  0  0  0  0  0  0  0  0  0  0  0  0  0  0
 ITRead=  0  0  0  0  0  0  0  0  0  0  0  0  0  0  0  0  0  0  0  0
 ITRead=  0  0  0  0  0  0  0  0  0  0  0  0  0  0  0  0  0  0  0  0
 ITRead=  0  0  0  0  0  0  0  0  0  0  0  0  0  0  0  0  0  0  0  0
 ITRead=  0  0  0  0  0  0  0  0  0  0  0  0  0  0  0  0  0  0  0  0
 MicOpt= -1 -1 -1 -1 -1 -1 -1 -1 -1 -1 -1 -1 -1 -1 -1 -1 -1 -1 -1 -1
 MicOpt= -1 -1 -1 -1 -1 -1 -1 -1 -1 -1 -1 -1 -1 -1 -1 -1 -1 -1 -1 -1
 MicOpt= -1 -1 -1 -1 -1 -1 -1 -1 -1 -1 -1 -1 -1 -1 -1 -1 -1 -1 -1 -1
 MicOpt= -1 -1 -1 -1 -1 -1 -1 -1 -1 -1 -1 -1 -1 -1 -1 -1 -1 -1 -1 -1
 MicOpt= -1 -1 -1 -1 -1 -1 -1 -1 -1 -1 -1 -1 -1 -1 -1 -1 -1 -1 -1 -1
 MicOpt= -1 -1 -1 -1 -1 -1 -1 -1 -1 -1 -1 -1 -1 -1 -1 -1 -1 -1 -1 -1
 MicOpt= -1 -1 -1 -1 -1 -1 -1 -1 -1 -1 -1 -1 -1 -1 -1 -1 -1 -1 -1 -1
 NAtoms=    140 NQM=      140 NQMF=       0 NMMI=      0 NMMIF=      0
                NMic=       0 NMicF=      0.
                    Isotopes and Nuclear Properties:
 (Nuclear quadrupole moments (NQMom) in fm**2, nuclear magnetic moments (NMagM)
  in nuclear magnetons)

  Atom         1           2           3           4           5           6           7           8           9          10
 IAtWgt=          24          12          12          12          12          14          12          12          12          12
 AtmWgt=  23.9850450  12.0000000  12.0000000  12.0000000  12.0000000  14.0030740  12.0000000  12.0000000  12.0000000  12.0000000
 NucSpn=           0           0           0           0           0           2           0           0           0           0
 AtZEff=  -0.0000000  -0.0000000  -0.0000000  -0.0000000  -0.0000000  -0.0000000  -0.0000000  -0.0000000  -0.0000000  -0.0000000
 NQMom=    0.0000000   0.0000000   0.0000000   0.0000000   0.0000000   2.0440000   0.0000000   0.0000000   0.0000000   0.0000000
 NMagM=    0.0000000   0.0000000   0.0000000   0.0000000   0.0000000   0.4037610   0.0000000   0.0000000   0.0000000   0.0000000
 AtZNuc=  12.0000000   6.0000000   6.0000000   6.0000000   6.0000000   7.0000000   6.0000000   6.0000000   6.0000000   6.0000000

  Atom        11          12          13          14          15          16          17          18          19          20
 IAtWgt=          12          12          12          12          16          16          14          12          12          12
 AtmWgt=  12.0000000  12.0000000  12.0000000  12.0000000  15.9949146  15.9949146  14.0030740  12.0000000  12.0000000  12.0000000
 NucSpn=           0           0           0           0           0           0           2           0           0           0
 AtZEff=  -0.0000000  -0.0000000  -0.0000000  -0.0000000  -0.0000000  -0.0000000  -0.0000000  -0.0000000  -0.0000000  -0.0000000
 NQMom=    0.0000000   0.0000000   0.0000000   0.0000000   0.0000000   0.0000000   2.0440000   0.0000000   0.0000000   0.0000000
 NMagM=    0.0000000   0.0000000   0.0000000   0.0000000   0.0000000   0.0000000   0.4037610   0.0000000   0.0000000   0.0000000
 AtZNuc=   6.0000000   6.0000000   6.0000000   6.0000000   8.0000000   8.0000000   7.0000000   6.0000000   6.0000000   6.0000000

  Atom        21          22          23          24          25          26          27          28          29          30
 IAtWgt=          12          12          12          16          12          14          12          12          12          12
 AtmWgt=  12.0000000  12.0000000  12.0000000  15.9949146  12.0000000  14.0030740  12.0000000  12.0000000  12.0000000  12.0000000
 NucSpn=           0           0           0           0           0           2           0           0           0           0
 AtZEff=  -0.0000000  -0.0000000  -0.0000000  -0.0000000  -0.0000000  -0.0000000  -0.0000000  -0.0000000  -0.0000000  -0.0000000
 NQMom=    0.0000000   0.0000000   0.0000000   0.0000000   0.0000000   2.0440000   0.0000000   0.0000000   0.0000000   0.0000000
 NMagM=    0.0000000   0.0000000   0.0000000   0.0000000   0.0000000   0.4037610   0.0000000   0.0000000   0.0000000   0.0000000
 AtZNuc=   6.0000000   6.0000000   6.0000000   8.0000000   6.0000000   7.0000000   6.0000000   6.0000000   6.0000000   6.0000000

  Atom        31          32          33          34          35          36          37          38          39          40
 IAtWgt=          12          12          12          14          12          12          12          12          12          12
 AtmWgt=  12.0000000  12.0000000  12.0000000  14.0030740  12.0000000  12.0000000  12.0000000  12.0000000  12.0000000  12.0000000
 NucSpn=           0           0           0           2           0           0           0           0           0           0
 AtZEff=  -0.0000000  -0.0000000  -0.0000000  -0.0000000  -0.0000000  -0.0000000  -0.0000000  -0.0000000  -0.0000000  -0.0000000
 NQMom=    0.0000000   0.0000000   0.0000000   2.0440000   0.0000000   0.0000000   0.0000000   0.0000000   0.0000000   0.0000000
 NMagM=    0.0000000   0.0000000   0.0000000   0.4037610   0.0000000   0.0000000   0.0000000   0.0000000   0.0000000   0.0000000
 AtZNuc=   6.0000000   6.0000000   6.0000000   7.0000000   6.0000000   6.0000000   6.0000000   6.0000000   6.0000000   6.0000000

  Atom        41          42          43          44          45          46          47          48          49          50
 IAtWgt=          16          12          12          16          16          12          12          12          12          12
 AtmWgt=  15.9949146  12.0000000  12.0000000  15.9949146  15.9949146  12.0000000  12.0000000  12.0000000  12.0000000  12.0000000
 NucSpn=           0           0           0           0           0           0           0           0           0           0
 AtZEff=  -0.0000000  -0.0000000  -0.0000000  -0.0000000  -0.0000000  -0.0000000  -0.0000000  -0.0000000  -0.0000000  -0.0000000
 NQMom=    0.0000000   0.0000000   0.0000000   0.0000000   0.0000000   0.0000000   0.0000000   0.0000000   0.0000000   0.0000000
 NMagM=    0.0000000   0.0000000   0.0000000   0.0000000   0.0000000   0.0000000   0.0000000   0.0000000   0.0000000   0.0000000
 AtZNuc=   8.0000000   6.0000000   6.0000000   8.0000000   8.0000000   6.0000000   6.0000000   6.0000000   6.0000000   6.0000000

  Atom        51          52          53          54          55          56          57          58          59          60
 IAtWgt=          12          12          12          12          12          12          12          12          12          12
 AtmWgt=  12.0000000  12.0000000  12.0000000  12.0000000  12.0000000  12.0000000  12.0000000  12.0000000  12.0000000  12.0000000
 NucSpn=           0           0           0           0           0           0           0           0           0           0
 AtZEff=  -0.0000000  -0.0000000  -0.0000000  -0.0000000  -0.0000000  -0.0000000  -0.0000000  -0.0000000  -0.0000000  -0.0000000
 NQMom=    0.0000000   0.0000000   0.0000000   0.0000000   0.0000000   0.0000000   0.0000000   0.0000000   0.0000000   0.0000000
 NMagM=    0.0000000   0.0000000   0.0000000   0.0000000   0.0000000   0.0000000   0.0000000   0.0000000   0.0000000   0.0000000
 AtZNuc=   6.0000000   6.0000000   6.0000000   6.0000000   6.0000000   6.0000000   6.0000000   6.0000000   6.0000000   6.0000000

  Atom        61          62          63          64          65          66          67          68          69          70
 IAtWgt=          12          12          12          12          12          12           1           1           1           1
 AtmWgt=  12.0000000  12.0000000  12.0000000  12.0000000  12.0000000  12.0000000   1.0078250   1.0078250   1.0078250   1.0078250
 NucSpn=           0           0           0           0           0           0           1           1           1           1
 AtZEff=  -0.0000000  -0.0000000  -0.0000000  -0.0000000  -0.0000000  -0.0000000  -0.0000000  -0.0000000  -0.0000000  -0.0000000
 NQMom=    0.0000000   0.0000000   0.0000000   0.0000000   0.0000000   0.0000000   0.0000000   0.0000000   0.0000000   0.0000000
 NMagM=    0.0000000   0.0000000   0.0000000   0.0000000   0.0000000   0.0000000   2.7928460   2.7928460   2.7928460   2.7928460
 AtZNuc=   6.0000000   6.0000000   6.0000000   6.0000000   6.0000000   6.0000000   1.0000000   1.0000000   1.0000000   1.0000000

  Atom        71          72          73          74          75          76          77          78          79          80
 IAtWgt=           1           1           1           1           1           1           1           1           1           1
 AtmWgt=   1.0078250   1.0078250   1.0078250   1.0078250   1.0078250   1.0078250   1.0078250   1.0078250   1.0078250   1.0078250
 NucSpn=           1           1           1           1           1           1           1           1           1           1
 AtZEff=  -0.0000000  -0.0000000  -0.0000000  -0.0000000  -0.0000000  -0.0000000  -0.0000000  -0.0000000  -0.0000000  -0.0000000
 NQMom=    0.0000000   0.0000000   0.0000000   0.0000000   0.0000000   0.0000000   0.0000000   0.0000000   0.0000000   0.0000000
 NMagM=    2.7928460   2.7928460   2.7928460   2.7928460   2.7928460   2.7928460   2.7928460   2.7928460   2.7928460   2.7928460
 AtZNuc=   1.0000000   1.0000000   1.0000000   1.0000000   1.0000000   1.0000000   1.0000000   1.0000000   1.0000000   1.0000000

  Atom        81          82          83          84          85          86          87          88          89          90
 IAtWgt=           1           1           1           1           1           1           1           1           1           1
 AtmWgt=   1.0078250   1.0078250   1.0078250   1.0078250   1.0078250   1.0078250   1.0078250   1.0078250   1.0078250   1.0078250
 NucSpn=           1           1           1           1           1           1           1           1           1           1
 AtZEff=  -0.0000000  -0.0000000  -0.0000000  -0.0000000  -0.0000000  -0.0000000  -0.0000000  -0.0000000  -0.0000000  -0.0000000
 NQMom=    0.0000000   0.0000000   0.0000000   0.0000000   0.0000000   0.0000000   0.0000000   0.0000000   0.0000000   0.0000000
 NMagM=    2.7928460   2.7928460   2.7928460   2.7928460   2.7928460   2.7928460   2.7928460   2.7928460   2.7928460   2.7928460
 AtZNuc=   1.0000000   1.0000000   1.0000000   1.0000000   1.0000000   1.0000000   1.0000000   1.0000000   1.0000000   1.0000000

  Atom        91          92          93          94          95          96          97          98          99         100
 IAtWgt=           1           1           1           1           1           1           1           1           1           1
 AtmWgt=   1.0078250   1.0078250   1.0078250   1.0078250   1.0078250   1.0078250   1.0078250   1.0078250   1.0078250   1.0078250
 NucSpn=           1           1           1           1           1           1           1           1           1           1
 AtZEff=  -0.0000000  -0.0000000  -0.0000000  -0.0000000  -0.0000000  -0.0000000  -0.0000000  -0.0000000  -0.0000000  -0.0000000
 NQMom=    0.0000000   0.0000000   0.0000000   0.0000000   0.0000000   0.0000000   0.0000000   0.0000000   0.0000000   0.0000000
 NMagM=    2.7928460   2.7928460   2.7928460   2.7928460   2.7928460   2.7928460   2.7928460   2.7928460   2.7928460   2.7928460
 AtZNuc=   1.0000000   1.0000000   1.0000000   1.0000000   1.0000000   1.0000000   1.0000000   1.0000000   1.0000000   1.0000000

  Atom       101         102         103         104         105         106         107         108         109         110
 IAtWgt=           1           1           1           1           1           1           1           1           1           1
 AtmWgt=   1.0078250   1.0078250   1.0078250   1.0078250   1.0078250   1.0078250   1.0078250   1.0078250   1.0078250   1.0078250
 NucSpn=           1           1           1           1           1           1           1           1           1           1
 AtZEff=  -0.0000000  -0.0000000  -0.0000000  -0.0000000  -0.0000000  -0.0000000  -0.0000000  -0.0000000  -0.0000000  -0.0000000
 NQMom=    0.0000000   0.0000000   0.0000000   0.0000000   0.0000000   0.0000000   0.0000000   0.0000000   0.0000000   0.0000000
 NMagM=    2.7928460   2.7928460   2.7928460   2.7928460   2.7928460   2.7928460   2.7928460   2.7928460   2.7928460   2.7928460
 AtZNuc=   1.0000000   1.0000000   1.0000000   1.0000000   1.0000000   1.0000000   1.0000000   1.0000000   1.0000000   1.0000000

  Atom       111         112         113         114         115         116         117         118         119         120
 IAtWgt=           1           1           1           1           1           1           1           1           1           1
 AtmWgt=   1.0078250   1.0078250   1.0078250   1.0078250   1.0078250   1.0078250   1.0078250   1.0078250   1.0078250   1.0078250
 NucSpn=           1           1           1           1           1           1           1           1           1           1
 AtZEff=  -0.0000000  -0.0000000  -0.0000000  -0.0000000  -0.0000000  -0.0000000  -0.0000000  -0.0000000  -0.0000000  -0.0000000
 NQMom=    0.0000000   0.0000000   0.0000000   0.0000000   0.0000000   0.0000000   0.0000000   0.0000000   0.0000000   0.0000000
 NMagM=    2.7928460   2.7928460   2.7928460   2.7928460   2.7928460   2.7928460   2.7928460   2.7928460   2.7928460   2.7928460
 AtZNuc=   1.0000000   1.0000000   1.0000000   1.0000000   1.0000000   1.0000000   1.0000000   1.0000000   1.0000000   1.0000000

  Atom       121         122         123         124         125         126         127         128         129         130
 IAtWgt=           1           1           1           1           1           1           1           1           1           1
 AtmWgt=   1.0078250   1.0078250   1.0078250   1.0078250   1.0078250   1.0078250   1.0078250   1.0078250   1.0078250   1.0078250
 NucSpn=           1           1           1           1           1           1           1           1           1           1
 AtZEff=  -0.0000000  -0.0000000  -0.0000000  -0.0000000  -0.0000000  -0.0000000  -0.0000000  -0.0000000  -0.0000000  -0.0000000
 NQMom=    0.0000000   0.0000000   0.0000000   0.0000000   0.0000000   0.0000000   0.0000000   0.0000000   0.0000000   0.0000000
 NMagM=    2.7928460   2.7928460   2.7928460   2.7928460   2.7928460   2.7928460   2.7928460   2.7928460   2.7928460   2.7928460
 AtZNuc=   1.0000000   1.0000000   1.0000000   1.0000000   1.0000000   1.0000000   1.0000000   1.0000000   1.0000000   1.0000000

  Atom       131         132         133         134         135         136         137         138         139         140
 IAtWgt=           1           1           1           1           1           1           1           1           1           1
 AtmWgt=   1.0078250   1.0078250   1.0078250   1.0078250   1.0078250   1.0078250   1.0078250   1.0078250   1.0078250   1.0078250
 NucSpn=           1           1           1           1           1           1           1           1           1           1
 AtZEff=  -0.0000000  -0.0000000  -0.0000000  -0.0000000  -0.0000000  -0.0000000  -0.0000000  -0.0000000  -0.0000000  -0.0000000
 NQMom=    0.0000000   0.0000000   0.0000000   0.0000000   0.0000000   0.0000000   0.0000000   0.0000000   0.0000000   0.0000000
 NMagM=    2.7928460   2.7928460   2.7928460   2.7928460   2.7928460   2.7928460   2.7928460   2.7928460   2.7928460   2.7928460
 AtZNuc=   1.0000000   1.0000000   1.0000000   1.0000000   1.0000000   1.0000000   1.0000000   1.0000000   1.0000000   1.0000000
 Leave Link  101 at Wed May  4 04:48:48 2022, MaxMem= 10066329600 cpu:               3.1 elap:               0.2
 (Enter /sw/apps/gaussian-16.0/g16/l202.exe)
 Stoichiometry    C55H74MgN4O6
 Framework group  C1[X(C55H74MgN4O6)]
 Deg. of freedom   414
 Full point group                 C1      NOp   1
 Largest Abelian subgroup         C1      NOp   1
 Largest concise Abelian subgroup C1      NOp   1
                         Standard orientation:                         
 ---------------------------------------------------------------------
 Center     Atomic      Atomic             Coordinates (Angstroms)
 Number     Number       Type             X           Y           Z
 ---------------------------------------------------------------------
      1         12           0        6.223544    0.419452   -0.044725
      2          6           0        3.624086   -1.899838   -0.599561
      3          6           0        4.236392    2.814491   -1.659583
      4          6           0        8.768023    2.569885    0.160246
      5          6           0        8.340939   -2.127719    0.845383
      6          7           0        4.097942    0.478022   -0.849082
      7          6           0        3.206361   -0.590662   -0.914938
      8          6           0        1.911807   -0.196141   -1.573986
      9          6           0        2.342556    1.013546   -2.347986
     10          6           0        3.617363    1.491825   -1.562094
     11          6           0        2.709304    0.645653   -3.844924
     12          6           0        0.753010   -0.043747   -0.569091
     13          6           0       -0.587102   -0.689951   -0.995871
     14          6           0       -1.764393   -1.046091    0.041971
     15          8           0       -1.883030   -0.698777    1.209228
     16          8           0       -2.665848   -1.885436   -0.616105
     17          7           0        6.393131    2.397612   -0.541189
     18          6           0        5.449337    3.261670   -1.083410
     19          6           0        5.946898    4.668876   -1.074027
     20          6           0        7.268397    4.664123   -0.513676
     21          6           0        7.491302    3.170411   -0.255638
     22          6           0        5.182218    5.871474   -1.592448
     23          6           0        8.262073    5.645308   -0.128938
     24          8           0        9.259852    5.405438    0.515516
     25          6           0        7.905134    7.074450   -0.448088
     26          7           0        8.214571    0.314000    0.564118
     27          6           0        9.122484    1.297394    0.459566
     28          6           0       10.535379    0.928892    0.967012
     29          6           0       10.260380   -0.568802    1.386003
     30          6           0        8.856284   -0.804199    0.872945
     31          6           0       11.697885    1.313008    0.044308
     32          6           0       10.343937   -0.723033    2.924195
     33          6           0       11.247740   -1.965926    3.373623
     34          7           0        6.068446   -1.607041    0.185749
     35          6           0        7.020181   -2.511696    0.431284
     36          6           0        6.440419   -3.821332    0.356492
     37          6           0        5.083028   -3.652935    0.053739
     38          6           0        4.916213   -2.251579   -0.080274
     39          6           0        7.118396   -5.143632    0.620861
     40          6           0        3.853103   -4.298096   -0.183000
     41          8           0        3.527276   -5.508072   -0.127180
     42          6           0        2.815096   -3.174067   -0.552480
     43          6           0        1.831812   -3.234835    0.605020
     44          8           0        2.108662   -2.733639    1.719724
     45          8           0        0.582113   -3.614218    0.220443
     46          6           0       -0.311293   -3.840533    1.358185
     47          6           0       -3.832621   -2.467862   -0.024371
     48          6           0       -5.139152   -2.108548   -0.728375
     49          6           0       -6.284887   -2.761588   -0.768322
     50          6           0       -6.488551   -4.076855   -0.108896
     51          6           0       -7.405820   -2.086557   -1.526161
     52          6           0       -8.606651   -1.611246   -0.602128
     53          6           0       -9.171506   -0.346919   -1.154687
     54          6           0      -10.384283   -0.795422   -2.026023
     55          6           0       -9.917157   -0.792332   -3.567522
     56          6           0      -11.579114    0.204906   -1.869090
     57          6           0      -12.472466    0.063208   -0.561087
     58          6           0      -13.960356    0.186306   -0.850319
     59          6           0      -14.702369    1.427417   -0.268810
     60          6           0      -15.911186    1.855195   -1.121241
     61          6           0      -15.109349    1.246262    1.261136
     62          6           0      -14.502967    2.328747    2.200112
     63          6           0      -13.280292    1.920160    2.999434
     64          6           0      -12.352082    3.141800    3.265402
     65          6           0      -10.962479    3.033592    2.631221
     66          6           0      -12.147451    3.429427    4.748865
     67          1           0        3.665395    3.498428   -2.290150
     68          1           0        9.627194    3.202271    0.390989
     69          1           0        8.971631   -2.984561    1.090828
     70          1           0        1.690680   -1.047077   -2.217393
     71          1           0        1.715200    1.898379   -2.240495
     72          1           0        2.042000    1.200078   -4.503359
     73          1           0        2.788957   -0.405542   -4.124380
     74          1           0        3.740479    0.967574   -3.993302
     75          1           0        0.571031    1.025459   -0.465995
     76          1           0        1.016005   -0.422202    0.418674
     77          1           0       -0.398837   -1.615320   -1.539290
     78          1           0       -1.008128    0.026102   -1.701645
     79          1           0        4.215079    5.562279   -1.990226
     80          1           0        5.656992    6.384401   -2.428750
     81          1           0        5.010221    6.485401   -0.708832
     82          1           0        6.980421    7.299000    0.082788
     83          1           0        7.830141    7.228039   -1.524984
     84          1           0        8.737509    7.705464   -0.136883
     85          1           0       10.573747    1.514805    1.884987
     86          1           0       10.948155   -1.173857    0.794937
     87          1           0       12.467003    0.576309   -0.189555
     88          1           0       12.080366    2.293143    0.328225
     89          1           0       11.408262    1.525730   -0.983723
     90          1           0        9.372858   -0.907952    3.383607
     91          1           0       10.856667    0.135485    3.358785
     92          1           0       11.807452   -2.451980    2.574628
     93          1           0       10.591122   -2.710686    3.821993
     94          1           0       11.965330   -1.694869    4.148160
     95          1           0        8.147376   -4.869880    0.386891
     96          1           0        6.912033   -5.789280   -0.234048
     97          1           0        7.031652   -5.600633    1.606719
     98          1           0        2.199252   -3.381047   -1.427794
     99          1           0       -0.810878   -2.909096    1.625139
    100          1           0        0.190026   -4.218217    2.249596
    101          1           0       -0.969971   -4.567684    0.883269
    102          1           0       -3.961661   -2.129443    1.003366
    103          1           0       -3.724776   -3.544017   -0.162465
    104          1           0       -5.062315   -1.149820   -1.242024
    105          1           0       -7.573970   -4.056948   -0.012899
    106          1           0       -5.883402   -4.182108    0.791214
    107          1           0       -6.216910   -4.812280   -0.866522
    108          1           0       -7.931193   -2.800543   -2.160480
    109          1           0       -7.110492   -1.331729   -2.254606
    110          1           0       -8.396485   -1.516805    0.463040
    111          1           0       -9.361193   -2.393030   -0.690186
    112          1           0       -8.498530    0.163351   -1.843299
    113          1           0       -9.456626    0.384580   -0.398759
    114          1           0      -10.776488   -1.800630   -1.870775
    115          1           0      -10.576434   -0.131494   -4.130544
    116          1           0      -10.051224   -1.764414   -4.040043
    117          1           0       -8.920836   -0.382130   -3.732863
    118          1           0      -12.159487    0.307995   -2.786564
    119          1           0      -11.118546    1.189137   -1.790562
    120          1           0      -12.207110    0.791817    0.204905
    121          1           0      -12.464974   -0.913142   -0.076614
    122          1           0      -14.409010   -0.732321   -0.471832
    123          1           0      -14.223347    0.171018   -1.907657
    124          1           0      -13.942603    2.198137   -0.405172
    125          1           0      -16.734099    2.323596   -0.581923
    126          1           0      -16.405667    0.957658   -1.492678
    127          1           0      -15.787662    2.526039   -1.971259
    128          1           0      -14.798293    0.221055    1.461603
    129          1           0      -16.186545    1.200351    1.425216
    130          1           0      -15.257519    2.565424    2.950512
    131          1           0      -14.387494    3.240867    1.614707
    132          1           0      -12.769781    1.120848    2.461493
    133          1           0      -13.596781    1.382392    3.893408
    134          1           0      -12.779158    3.991066    2.731941
    135          1           0      -10.507274    4.016872    2.510661
    136          1           0      -11.050597    2.664841    1.609554
    137          1           0      -10.342245    2.260129    3.084954
    138          1           0      -11.180674    3.009316    5.026671
    139          1           0      -12.895992    3.012651    5.423052
    140          1           0      -12.152448    4.513999    4.850786
 ---------------------------------------------------------------------
 Rotational constants (GHZ):           0.0526141           0.0080195           0.0074225
 Leave Link  202 at Wed May  4 04:48:48 2022, MaxMem= 10066329600 cpu:               0.2 elap:               0.0
 (Enter /sw/apps/gaussian-16.0/g16/l301.exe)
 Standard basis: def2SVP (5D, 7F)
 Ernie: Thresh=  0.10000D-02 Tol=  0.10000D-05 Strict=F.
 There are  1364 symmetry adapted cartesian basis functions of A   symmetry.
 There are  1298 symmetry adapted basis functions of A   symmetry.
  1298 basis functions,  2180 primitive gaussians,  1364 cartesian basis functions
   246 alpha electrons      246 beta electrons
       nuclear repulsion energy      9360.0350664988 Hartrees.
 IExCor=20419 DFT=T Ex+Corr=CAM-B3LYP ExCW=0 ScaHFX=  1.000000
 ScaDFX=  1.000000  1.000000  1.000000  0.810000 ScalE2=  1.000000  1.000000
 IRadAn=      5 IRanWt=     -1 IRanGd=            0 ICorTp=0 IEmpDi=  4
 HFx  wShort=  0.000000 wLong=  0.330000 cFull=  0.190000 cShort=  0.000000 cLong=  0.460000
 DFx  wShort=  0.000000 wLong=  0.330000 cFull=  0.190000 cShort=  0.000000 cLong=  0.460000
 NAtoms=  140 NActive=  140 NUniq=  140 SFac= 1.00D+00 NAtFMM=   60 NAOKFM=T Big=T
 Integral buffers will be    131072 words long.
 Raffenetti 1 integral format.
 Two-electron integral symmetry is turned on.
 Leave Link  301 at Wed May  4 04:48:48 2022, MaxMem= 10066329600 cpu:               1.3 elap:               0.1
 (Enter /sw/apps/gaussian-16.0/g16/l302.exe)
 NPDir=0 NMtPBC=     1 NCelOv=     1 NCel=       1 NClECP=     1 NCelD=      1
         NCelK=      1 NCelE2=     1 NClLst=     1 CellRange=     0.0.
 One-electron integrals computed using PRISM.
 One-electron integral symmetry used in STVInt
   1 Symmetry operations used in ECPInt.
 ECPInt:  NShTT=  192510 NPrTT=  683786 LenC2=   89377 LenP2D=  198795.
 LDataN:  DoStor=T MaxTD1= 4 Len=   56
 NBasis=  1298 RedAO= T EigKep=  3.24D-04  NBF=  1298
 NBsUse=  1298 1.00D-06 EigRej= -1.00D+00 NBFU=  1298
 Precomputing XC quadrature grid using
 IXCGrd= 4 IRadAn=           5 IRanWt=          -1 IRanGd=           0 AccXCQ= 0.00D+00.
 Generated NRdTot=       0 NPtTot=           0 NUsed=           0 NTot=          32
 NSgBfM=   968   949   951   957   968 MxSgAt=   140 MxSgA2=   140.
 Leave Link  302 at Wed May  4 04:48:51 2022, MaxMem= 10066329600 cpu:              77.7 elap:               3.3
 (Enter /sw/apps/gaussian-16.0/g16/l303.exe)
 DipDrv:  MaxL=1.
 Leave Link  303 at Wed May  4 04:48:52 2022, MaxMem= 10066329600 cpu:               5.8 elap:               0.3
 (Enter /sw/apps/gaussian-16.0/g16/l308.exe)
 Leave Link  308 at Wed May  4 04:48:52 2022, MaxMem= 10066329600 cpu:              10.8 elap:               0.5
 (Enter /sw/apps/gaussian-16.0/g16/l401.exe)
 ExpMin= 3.36D-02 ExpMax= 4.95D+03 ExpMxC= 7.45D+02 IAcc=3 IRadAn=         5 AccDes= 0.00D+00
 Harris functional with IExCor=20419 and IRadAn=       5 diagonalized for initial guess.
 HarFok:  IExCor=20419 AccDes= 0.00D+00 IRadAn=         5 IDoV= 1 UseB2=F ITyADJ=14
 ICtDFT=  3500011 ScaDFX=  1.000000  1.000000  1.000000  1.000000
 FoFCou: FMM=F IPFlag=           0 FMFlag=      100000 FMFlg1=        2001
         NFxFlg=           0 DoJE=T BraDBF=F KetDBF=T FulRan=T
         wScrn=  0.000000 ICntrl=       500 IOpCl=  0 I1Cent=   200000004 NGrid=           0
         NMat0=    1 NMatS0=      1 NMatT0=    0 NMatD0=    1 NMtDS0=    0 NMtDT0=    0
 Petite list used in FoFCou.
 Harris En= -2890.85634725059    
 JPrj=0 DoOrth=F DoCkMO=F.
 Leave Link  401 at Wed May  4 04:48:57 2022, MaxMem= 10066329600 cpu:             124.8 elap:               5.2
 (Enter /sw/apps/gaussian-16.0/g16/l502.exe)
 Integral symmetry usage will be decided dynamically.
 Closed shell SCF:
 Using DIIS extrapolation, IDIIS=  1040.
 NGot= 10066329600 LenX= 10062561258 LenY= 10060699398
 Requested convergence on RMS density matrix=1.00D-08 within 128 cycles.
 Requested convergence on MAX density matrix=1.00D-06.
 Requested convergence on             energy=1.00D-06.
 No special actions if energy rises.
 Fock matrices will be formed incrementally for  20 cycles.

 Cycle   1  Pass 1  IDiag  1:
 FoFJK:  IHMeth= 1 ICntrl=       0 DoSepK=T KAlg= 0 I1Cent=           0 FoldK=F
 IRaf=         1 NMat=       1 IRICut=       1 DoRegI=T DoRafI=F ISym2E= 0 IDoP0=0 IntGTp=1.
 FoFCou: FMM=T IPFlag=           0 FMFlag=      100000 FMFlg1=        2001
         NFxFlg=           0 DoJE=T BraDBF=F KetDBF=F FulRan=T
         wScrn=  0.000000 ICntrl=       500 IOpCl=  0 I1Cent=           0 NGrid=           0
         NMat0=    1 NMatS0=      1 NMatT0=    0 NMatD0=    1 NMtDS0=    0 NMtDT0=    0
 Symmetry not used in FoFCou.
 FMM levels:  10  Number of levels for PrismC:   9
 E= -3006.48308164009    
 DIIS: error= 1.93D-02 at cycle   1 NSaved=   1.
 NSaved= 1 IEnMin= 1 EnMin= -3006.48308164009     IErMin= 1 ErrMin= 1.93D-02
 ErrMax= 1.93D-02  0.00D+00 EMaxC= 1.00D-01 BMatC= 1.27D+00 BMatP= 1.27D+00
 IDIUse=3 WtCom= 8.07D-01 WtEn= 1.93D-01
 Coeff-Com:  0.100D+01
 Coeff-En:   0.100D+01
 Coeff:      0.100D+01
 Gap=     0.106 Goal=   None    Shift=    0.000
 GapD=    0.106 DampG=1.000 DampE=0.500 DampFc=0.5000 IDamp=-1.
 Damping current iteration by 5.00D-01
 RMSDP=1.57D-03 MaxDP=1.32D-01              OVMax= 3.04D-01

 Cycle   2  Pass 1  IDiag  1:
 RMSU=  7.74D-04    CP:  9.85D-01
 E= -3006.78902525618     Delta-E=       -0.305943616095 Rises=F Damp=T
 DIIS: error= 1.01D-02 at cycle   2 NSaved=   2.
 NSaved= 2 IEnMin= 2 EnMin= -3006.78902525618     IErMin= 2 ErrMin= 1.01D-02
 ErrMax= 1.01D-02  0.00D+00 EMaxC= 1.00D-01 BMatC= 2.32D-01 BMatP= 1.27D+00
 IDIUse=3 WtCom= 8.99D-01 WtEn= 1.01D-01
 Coeff-Com: -0.222D+00 0.122D+01
 Coeff-En:   0.000D+00 0.100D+01
 Coeff:     -0.200D+00 0.120D+01
 Gap=     0.136 Goal=   None    Shift=    0.000
 RMSDP=7.44D-04 MaxDP=6.53D-02 DE=-3.06D-01 OVMax= 3.20D-01

 Cycle   3  Pass 1  IDiag  1:
 RMSU=  7.34D-04    CP:  9.76D-01  1.11D+00
 E= -3007.00180103823     Delta-E=       -0.212775782051 Rises=F Damp=F
 DIIS: error= 1.67D-02 at cycle   3 NSaved=   3.
 NSaved= 3 IEnMin= 3 EnMin= -3007.00180103823     IErMin= 2 ErrMin= 1.01D-02
 ErrMax= 1.67D-02  0.00D+00 EMaxC= 1.00D-01 BMatC= 1.60D-01 BMatP= 2.32D-01
 IDIUse=3 WtCom= 8.33D-01 WtEn= 1.67D-01
 Coeff-Com: -0.269D+00 0.667D+00 0.602D+00
 Coeff-En:   0.000D+00 0.000D+00 0.100D+01
 Coeff:     -0.224D+00 0.556D+00 0.669D+00
 Gap=     0.114 Goal=   None    Shift=    0.000
 RMSDP=5.95D-04 MaxDP=5.52D-02 DE=-2.13D-01 OVMax= 2.82D-01

 Cycle   4  Pass 1  IDiag  1:
 RMSU=  3.24D-04    CP:  9.72D-01  1.49D+00  4.53D-01
 E= -3007.09972362948     Delta-E=       -0.097922591252 Rises=F Damp=F
 DIIS: error= 8.55D-03 at cycle   4 NSaved=   4.
 NSaved= 4 IEnMin= 4 EnMin= -3007.09972362948     IErMin= 4 ErrMin= 8.55D-03
 ErrMax= 8.55D-03  0.00D+00 EMaxC= 1.00D-01 BMatC= 5.22D-02 BMatP= 1.60D-01
 IDIUse=3 WtCom= 9.14D-01 WtEn= 8.55D-02
 Coeff-Com: -0.116D+00 0.240D+00 0.425D+00 0.451D+00
 Coeff-En:   0.000D+00 0.000D+00 0.290D+00 0.710D+00
 Coeff:     -0.106D+00 0.219D+00 0.413D+00 0.473D+00
 Gap=     0.118 Goal=   None    Shift=    0.000
 RMSDP=2.71D-04 MaxDP=2.31D-02 DE=-9.79D-02 OVMax= 1.48D-01

 Cycle   5  Pass 1  IDiag  1:
 RMSU=  9.55D-05    CP:  9.72D-01  1.40D+00  6.86D-01  4.64D-01
 E= -3007.15164422299     Delta-E=       -0.051920593509 Rises=F Damp=F
 DIIS: error= 8.75D-04 at cycle   5 NSaved=   5.
 NSaved= 5 IEnMin= 5 EnMin= -3007.15164422299     IErMin= 5 ErrMin= 8.75D-04
 ErrMax= 8.75D-04  0.00D+00 EMaxC= 1.00D-01 BMatC= 1.73D-03 BMatP= 5.22D-02
 IDIUse=3 WtCom= 9.91D-01 WtEn= 8.75D-03
 Coeff-Com: -0.460D-01 0.907D-01 0.202D+00 0.268D+00 0.486D+00
 Coeff-En:   0.000D+00 0.000D+00 0.000D+00 0.000D+00 0.100D+01
 Coeff:     -0.456D-01 0.899D-01 0.200D+00 0.265D+00 0.490D+00
 Gap=     0.118 Goal=   None    Shift=    0.000
 RMSDP=6.10D-05 MaxDP=5.81D-03 DE=-5.19D-02 OVMax= 3.33D-02

 Cycle   6  Pass 1  IDiag  1:
 RMSU=  3.78D-05    CP:  9.72D-01  1.41D+00  6.68D-01  5.63D-01  6.63D-01
 E= -3007.15346668073     Delta-E=       -0.001822457740 Rises=F Damp=F
 DIIS: error= 3.07D-04 at cycle   6 NSaved=   6.
 NSaved= 6 IEnMin= 6 EnMin= -3007.15346668073     IErMin= 6 ErrMin= 3.07D-04
 ErrMax= 3.07D-04  0.00D+00 EMaxC= 1.00D-01 BMatC= 1.59D-04 BMatP= 1.73D-03
 IDIUse=3 WtCom= 9.97D-01 WtEn= 3.07D-03
 Coeff-Com:  0.385D-02-0.979D-02 0.432D-02 0.279D-01 0.247D+00 0.726D+00
 Coeff-En:   0.000D+00 0.000D+00 0.000D+00 0.000D+00 0.494D-01 0.951D+00
 Coeff:      0.383D-02-0.976D-02 0.431D-02 0.278D-01 0.247D+00 0.727D+00
 Gap=     0.120 Goal=   None    Shift=    0.000
 RMSDP=1.98D-05 MaxDP=1.85D-03 DE=-1.82D-03 OVMax= 1.23D-02

 Cycle   7  Pass 1  IDiag  1:
 RMSU=  1.29D-05    CP:  9.72D-01  1.41D+00  6.77D-01  5.55D-01  7.79D-01
                    CP:  8.15D-01
 E= -3007.15365866921     Delta-E=       -0.000191988482 Rises=F Damp=F
 DIIS: error= 1.44D-04 at cycle   7 NSaved=   7.
 NSaved= 7 IEnMin= 7 EnMin= -3007.15365866921     IErMin= 7 ErrMin= 1.44D-04
 ErrMax= 1.44D-04  0.00D+00 EMaxC= 1.00D-01 BMatC= 2.84D-05 BMatP= 1.59D-04
 IDIUse=3 WtCom= 9.99D-01 WtEn= 1.44D-03
 Coeff-Com:  0.560D-02-0.120D-01-0.136D-01-0.843D-02 0.828D-01 0.398D+00
 Coeff-Com:  0.548D+00
 Coeff-En:   0.000D+00 0.000D+00 0.000D+00 0.000D+00 0.000D+00 0.000D+00
 Coeff-En:   0.100D+01
 Coeff:      0.559D-02-0.120D-01-0.135D-01-0.842D-02 0.827D-01 0.397D+00
 Coeff:      0.548D+00
 Gap=     0.120 Goal=   None    Shift=    0.000
 RMSDP=6.75D-06 MaxDP=1.14D-03 DE=-1.92D-04 OVMax= 2.21D-03

 Cycle   8  Pass 1  IDiag  1:
 RMSU=  5.21D-06    CP:  9.72D-01  1.41D+00  6.77D-01  5.61D-01  7.83D-01
                    CP:  8.99D-01  8.50D-01
 E= -3007.15368954740     Delta-E=       -0.000030878189 Rises=F Damp=F
 DIIS: error= 3.60D-05 at cycle   8 NSaved=   8.
 NSaved= 8 IEnMin= 8 EnMin= -3007.15368954740     IErMin= 8 ErrMin= 3.60D-05
 ErrMax= 3.60D-05  0.00D+00 EMaxC= 1.00D-01 BMatC= 2.63D-06 BMatP= 2.84D-05
 IDIUse=1 WtCom= 1.00D+00 WtEn= 0.00D+00
 Coeff-Com:  0.219D-02-0.430D-02-0.802D-02-0.107D-01-0.130D-01 0.572D-01
 Coeff-Com:  0.242D+00 0.735D+00
 Coeff:      0.219D-02-0.430D-02-0.802D-02-0.107D-01-0.130D-01 0.572D-01
 Coeff:      0.242D+00 0.735D+00
 Gap=     0.121 Goal=   None    Shift=    0.000
 RMSDP=3.22D-06 MaxDP=2.33D-04 DE=-3.09D-05 OVMax= 1.83D-03

 Cycle   9  Pass 1  IDiag  1:
 RMSU=  1.97D-06    CP:  9.72D-01  1.41D+00  6.78D-01  5.61D-01  7.94D-01
                    CP:  9.30D-01  9.94D-01  1.02D+00
 E= -3007.15369438348     Delta-E=       -0.000004836078 Rises=F Damp=F
 DIIS: error= 1.49D-05 at cycle   9 NSaved=   9.
 NSaved= 9 IEnMin= 9 EnMin= -3007.15369438348     IErMin= 9 ErrMin= 1.49D-05
 ErrMax= 1.49D-05  0.00D+00 EMaxC= 1.00D-01 BMatC= 5.97D-07 BMatP= 2.63D-06
 IDIUse=1 WtCom= 1.00D+00 WtEn= 0.00D+00
 Coeff-Com:  0.292D-03-0.420D-03-0.211D-02-0.429D-02-0.217D-01-0.268D-01
 Coeff-Com:  0.348D-01 0.369D+00 0.652D+00
 Coeff:      0.292D-03-0.420D-03-0.211D-02-0.429D-02-0.217D-01-0.268D-01
 Coeff:      0.348D-01 0.369D+00 0.652D+00
 Gap=     0.121 Goal=   None    Shift=    0.000
 RMSDP=1.45D-06 MaxDP=1.64D-04 DE=-4.84D-06 OVMax= 7.53D-04

 Cycle  10  Pass 1  IDiag  1:
 RMSU=  9.28D-07    CP:  9.72D-01  1.41D+00  6.78D-01  5.61D-01  7.97D-01
                    CP:  9.41D-01  1.04D+00  1.17D+00  1.10D+00
 E= -3007.15369564545     Delta-E=       -0.000001261969 Rises=F Damp=F
 DIIS: error= 1.01D-05 at cycle  10 NSaved=  10.
 NSaved=10 IEnMin=10 EnMin= -3007.15369564545     IErMin=10 ErrMin= 1.01D-05
 ErrMax= 1.01D-05  0.00D+00 EMaxC= 1.00D-01 BMatC= 1.17D-07 BMatP= 5.97D-07
 IDIUse=1 WtCom= 1.00D+00 WtEn= 0.00D+00
 Coeff-Com: -0.436D-03 0.907D-03 0.110D-02 0.105D-02-0.791D-02-0.233D-01
 Coeff-Com: -0.560D-01-0.241D-01 0.229D+00 0.880D+00
 Coeff:     -0.436D-03 0.907D-03 0.110D-02 0.105D-02-0.791D-02-0.233D-01
 Coeff:     -0.560D-01-0.241D-01 0.229D+00 0.880D+00
 Gap=     0.121 Goal=   None    Shift=    0.000
 RMSDP=1.12D-06 MaxDP=8.72D-05 DE=-1.26D-06 OVMax= 6.93D-04

 Cycle  11  Pass 1  IDiag  1:
 RMSU=  5.76D-07    CP:  9.72D-01  1.41D+00  6.78D-01  5.61D-01  7.98D-01
                    CP:  9.48D-01  1.07D+00  1.25D+00  1.38D+00  1.36D+00
 E= -3007.15369616253     Delta-E=       -0.000000517082 Rises=F Damp=F
 DIIS: error= 4.67D-06 at cycle  11 NSaved=  11.
 NSaved=11 IEnMin=11 EnMin= -3007.15369616253     IErMin=11 ErrMin= 4.67D-06
 ErrMax= 4.67D-06  0.00D+00 EMaxC= 1.00D-01 BMatC= 4.74D-08 BMatP= 1.17D-07
 IDIUse=1 WtCom= 1.00D+00 WtEn= 0.00D+00
 Coeff-Com: -0.250D-03 0.488D-03 0.836D-03 0.135D-02-0.410D-03-0.316D-02
 Coeff-Com: -0.353D-01-0.718D-01-0.386D-01 0.421D+00 0.726D+00
 Coeff:     -0.250D-03 0.488D-03 0.836D-03 0.135D-02-0.410D-03-0.316D-02
 Coeff:     -0.353D-01-0.718D-01-0.386D-01 0.421D+00 0.726D+00
 Gap=     0.121 Goal=   None    Shift=    0.000
 RMSDP=6.07D-07 MaxDP=4.08D-05 DE=-5.17D-07 OVMax= 3.85D-04

 Cycle  12  Pass 1  IDiag  1:
 RMSU=  2.69D-07    CP:  9.72D-01  1.41D+00  6.78D-01  5.61D-01  7.98D-01
                    CP:  9.49D-01  1.08D+00  1.30D+00  1.52D+00  1.74D+00
                    CP:  1.28D+00
 E= -3007.15369633920     Delta-E=       -0.000000176666 Rises=F Damp=F
 DIIS: error= 3.61D-06 at cycle  12 NSaved=  12.
 NSaved=12 IEnMin=12 EnMin= -3007.15369633920     IErMin=12 ErrMin= 3.61D-06
 ErrMax= 3.61D-06  0.00D+00 EMaxC= 1.00D-01 BMatC= 1.64D-08 BMatP= 4.74D-08
 IDIUse=1 WtCom= 1.00D+00 WtEn= 0.00D+00
 Coeff-Com:  0.414D-04-0.950D-04-0.782D-04 0.262D-03 0.164D-02 0.819D-02
 Coeff-Com:  0.191D-02-0.121D-01-0.939D-01-0.130D+00 0.262D+00 0.962D+00
 Coeff:      0.414D-04-0.950D-04-0.782D-04 0.262D-03 0.164D-02 0.819D-02
 Coeff:      0.191D-02-0.121D-01-0.939D-01-0.130D+00 0.262D+00 0.962D+00
 Gap=     0.121 Goal=   None    Shift=    0.000
 RMSDP=5.35D-07 MaxDP=3.90D-05 DE=-1.77D-07 OVMax= 3.35D-04

 Cycle  13  Pass 1  IDiag  1:
 RMSU=  1.73D-07    CP:  9.72D-01  1.41D+00  6.78D-01  5.61D-01  7.98D-01
                    CP:  9.50D-01  1.09D+00  1.31D+00  1.63D+00  2.05D+00
                    CP:  1.81D+00  1.49D+00
 E= -3007.15369643334     Delta-E=       -0.000000094142 Rises=F Damp=F
 DIIS: error= 1.90D-06 at cycle  13 NSaved=  13.
 NSaved=13 IEnMin=13 EnMin= -3007.15369643334     IErMin=13 ErrMin= 1.90D-06
 ErrMax= 1.90D-06  0.00D+00 EMaxC= 1.00D-01 BMatC= 6.35D-09 BMatP= 1.64D-08
 IDIUse=1 WtCom= 1.00D+00 WtEn= 0.00D+00
 Coeff-Com:  0.132D-03-0.267D-03-0.445D-03-0.417D-03 0.632D-03 0.665D-02
 Coeff-Com:  0.150D-01 0.289D-01-0.348D-01-0.271D+00-0.179D+00 0.568D+00
 Coeff-Com:  0.867D+00
 Coeff:      0.132D-03-0.267D-03-0.445D-03-0.417D-03 0.632D-03 0.665D-02
 Coeff:      0.150D-01 0.289D-01-0.348D-01-0.271D+00-0.179D+00 0.568D+00
 Coeff:      0.867D+00
 Gap=     0.121 Goal=   None    Shift=    0.000
 RMSDP=4.12D-07 MaxDP=2.75D-05 DE=-9.41D-08 OVMax= 2.77D-04

 Cycle  14  Pass 1  IDiag  1:
 RMSU=  8.41D-08    CP:  9.72D-01  1.41D+00  6.78D-01  5.61D-01  7.98D-01
                    CP:  9.50D-01  1.09D+00  1.33D+00  1.72D+00  2.28D+00
                    CP:  2.21D+00  2.11D+00  1.24D+00
 E= -3007.15369646942     Delta-E=       -0.000000036081 Rises=F Damp=F
 DIIS: error= 9.55D-07 at cycle  14 NSaved=  14.
 NSaved=14 IEnMin=14 EnMin= -3007.15369646942     IErMin=14 ErrMin= 9.55D-07
 ErrMax= 9.55D-07  0.00D+00 EMaxC= 1.00D-01 BMatC= 1.39D-09 BMatP= 6.35D-09
 IDIUse=1 WtCom= 1.00D+00 WtEn= 0.00D+00
 Coeff-Com:  0.671D-04-0.132D-03-0.256D-03-0.323D-03-0.332D-03 0.152D-02
 Coeff-Com:  0.703D-02 0.211D-01 0.111D-01-0.107D+00-0.170D+00 0.285D-01
 Coeff-Com:  0.456D+00 0.753D+00
 Coeff:      0.671D-04-0.132D-03-0.256D-03-0.323D-03-0.332D-03 0.152D-02
 Coeff:      0.703D-02 0.211D-01 0.111D-01-0.107D+00-0.170D+00 0.285D-01
 Coeff:      0.456D+00 0.753D+00
 Gap=     0.121 Goal=   None    Shift=    0.000
 RMSDP=1.69D-07 MaxDP=2.00D-05 DE=-3.61D-08 OVMax= 1.01D-04

 Cycle  15  Pass 1  IDiag  1:
 RMSU=  4.07D-08    CP:  9.72D-01  1.41D+00  6.78D-01  5.61D-01  7.98D-01
                    CP:  9.49D-01  1.09D+00  1.33D+00  1.74D+00  2.36D+00
                    CP:  2.38D+00  2.33D+00  1.58D+00  1.07D+00
 E= -3007.15369647503     Delta-E=       -0.000000005606 Rises=F Damp=F
 DIIS: error= 4.01D-07 at cycle  15 NSaved=  15.
 NSaved=15 IEnMin=15 EnMin= -3007.15369647503     IErMin=15 ErrMin= 4.01D-07
 ErrMax= 4.01D-07  0.00D+00 EMaxC= 1.00D-01 BMatC= 1.67D-10 BMatP= 1.39D-09
 IDIUse=1 WtCom= 1.00D+00 WtEn= 0.00D+00
 Coeff-Com:  0.111D-05-0.465D-06-0.211D-04-0.498D-04-0.338D-03-0.700D-03
 Coeff-Com: -0.565D-03 0.268D-02 0.109D-01 0.420D-02-0.349D-01-0.920D-01
 Coeff-Com:  0.237D-01 0.298D+00 0.789D+00
 Coeff:      0.111D-05-0.465D-06-0.211D-04-0.498D-04-0.338D-03-0.700D-03
 Coeff:     -0.565D-03 0.268D-02 0.109D-01 0.420D-02-0.349D-01-0.920D-01
 Coeff:      0.237D-01 0.298D+00 0.789D+00
 Gap=     0.121 Goal=   None    Shift=    0.000
 RMSDP=5.88D-08 MaxDP=3.97D-06 DE=-5.61D-09 OVMax= 4.06D-05

 Cycle  16  Pass 1  IDiag  1:
 RMSU=  1.61D-08    CP:  9.72D-01  1.41D+00  6.78D-01  5.61D-01  7.98D-01
                    CP:  9.50D-01  1.09D+00  1.33D+00  1.75D+00  2.39D+00
                    CP:  2.44D+00  2.42D+00  1.66D+00  1.23D+00  9.46D-01
 E= -3007.15369647574     Delta-E=       -0.000000000713 Rises=F Damp=F
 DIIS: error= 1.06D-07 at cycle  16 NSaved=  16.
 NSaved=16 IEnMin=16 EnMin= -3007.15369647574     IErMin=16 ErrMin= 1.06D-07
 ErrMax= 1.06D-07  0.00D+00 EMaxC= 1.00D-01 BMatC= 5.01D-11 BMatP= 1.67D-10
 IDIUse=1 WtCom= 1.00D+00 WtEn= 0.00D+00
 Coeff-Com: -0.977D-05 0.202D-04 0.274D-04 0.218D-04-0.155D-03-0.614D-03
 Coeff-Com: -0.149D-02-0.177D-02 0.478D-02 0.197D-01 0.818D-02-0.559D-01
 Coeff-Com: -0.642D-01 0.292D-01 0.444D+00 0.619D+00
 Coeff:     -0.977D-05 0.202D-04 0.274D-04 0.218D-04-0.155D-03-0.614D-03
 Coeff:     -0.149D-02-0.177D-02 0.478D-02 0.197D-01 0.818D-02-0.559D-01
 Coeff:     -0.642D-01 0.292D-01 0.444D+00 0.619D+00
 Gap=     0.121 Goal=   None    Shift=    0.000
 RMSDP=1.84D-08 MaxDP=2.71D-06 DE=-7.13D-10 OVMax= 8.65D-06

 Cycle  17  Pass 1  IDiag  1:
 RMSU=  7.26D-09    CP:  9.72D-01  1.41D+00  6.78D-01  5.61D-01  7.98D-01
                    CP:  9.50D-01  1.09D+00  1.33D+00  1.75D+00  2.40D+00
                    CP:  2.45D+00  2.44D+00  1.71D+00  1.26D+00  1.11D+00
                    CP:  8.81D-01
 E= -3007.15369647557     Delta-E=        0.000000000169 Rises=F Damp=F
 DIIS: error= 6.22D-08 at cycle  17 NSaved=  17.
 NSaved=17 IEnMin=16 EnMin= -3007.15369647574     IErMin=17 ErrMin= 6.22D-08
 ErrMax= 6.22D-08  0.00D+00 EMaxC= 1.00D-01 BMatC= 4.92D-12 BMatP= 5.01D-11
 IDIUse=1 WtCom= 1.00D+00 WtEn= 0.00D+00
 Coeff-Com: -0.449D-05 0.899D-05 0.150D-04 0.167D-04-0.259D-04-0.155D-03
 Coeff-Com: -0.601D-03-0.114D-02 0.728D-03 0.815D-02 0.896D-02-0.114D-01
 Coeff-Com: -0.342D-01-0.360D-01 0.987D-01 0.280D+00 0.687D+00
 Coeff:     -0.449D-05 0.899D-05 0.150D-04 0.167D-04-0.259D-04-0.155D-03
 Coeff:     -0.601D-03-0.114D-02 0.728D-03 0.815D-02 0.896D-02-0.114D-01
 Coeff:     -0.342D-01-0.360D-01 0.987D-01 0.280D+00 0.687D+00
 Gap=     0.121 Goal=   None    Shift=    0.000
 RMSDP=4.90D-09 MaxDP=6.10D-07 DE= 1.69D-10 OVMax= 2.47D-06

 SCF Done:  E(RCAM-B3LYP) =  -3007.15369648     A.U. after   17 cycles
            NFock= 17  Conv=0.49D-08     -V/T= 2.0107
 KE= 2.975373609915D+03 PE=-2.571204439461D+04 EE= 1.036948202172D+04
 Leave Link  502 at Wed May  4 04:54:53 2022, MaxMem= 10066329600 cpu:            8138.3 elap:             355.9
 (Enter /sw/apps/gaussian-16.0/g16/l801.exe)
 DoSCS=F DFT=T ScalE2(SS,OS)=  1.000000  1.000000
 ExpMin= 3.36D-02 ExpMax= 4.95D+03 ExpMxC= 7.45D+02 IAcc=3 IRadAn=         5 AccDes= 0.00D+00
 HarFok:  IExCor=  205 AccDes= 0.00D+00 IRadAn=         5 IDoV=-2 UseB2=F ITyADJ=14
 ICtDFT= 12500011 ScaDFX=  1.000000  1.000000  1.000000  1.000000
 GSVD:  LWork=       -5460 too small for GESVD, short by       25550 words or       25550 for optimal perf.
 Largest valence mixing into a core orbital is  1.95D-04
 Largest core mixing into a valence orbital is  5.30D-05
 Range of M.O.s used for correlation:    71  1298
 NBasis=  1298 NAE=   246 NBE=   246 NFC=    70 NFV=     0
 NROrb=   1228 NOA=   176 NOB=   176 NVA=  1052 NVB=  1052
 Leave Link  801 at Wed May  4 04:54:54 2022, MaxMem= 10066329600 cpu:               6.4 elap:               0.3
 (Enter /sw/apps/gaussian-16.0/g16/l914.exe)
 RHF ground state
 Two-electron integrals replicated using symmetry.
 MDV= 10066329600 DFT=T DoStab=F Mixed=T DoRPA=T DoScal=F NonHer=T
 Making orbital integer symmetry assigments:
 Orbital symmetries:
       Occupied  (A) (A) (A) (A) (A) (A) (A) (A) (A) (A) (A) (A)
                 (A) (A) (A) (A) (A) (A) (A) (A) (A) (A) (A) (A)
                 (A) (A) (A) (A) (A) (A) (A) (A) (A) (A) (A) (A)
                 (A) (A) (A) (A) (A) (A) (A) (A) (A) (A) (A) (A)
                 (A) (A) (A) (A) (A) (A) (A) (A) (A) (A) (A) (A)
                 (A) (A) (A) (A) (A) (A) (A) (A) (A) (A) (A) (A)
                 (A) (A) (A) (A) (A) (A) (A) (A) (A) (A) (A) (A)
                 (A) (A) (A) (A) (A) (A) (A) (A) (A) (A) (A) (A)
                 (A) (A) (A) (A) (A) (A) (A) (A) (A) (A) (A) (A)
                 (A) (A) (A) (A) (A) (A) (A) (A) (A) (A) (A) (A)
                 (A) (A) (A) (A) (A) (A) (A) (A) (A) (A) (A) (A)
                 (A) (A) (A) (A) (A) (A) (A) (A) (A) (A) (A) (A)
                 (A) (A) (A) (A) (A) (A) (A) (A) (A) (A) (A) (A)
                 (A) (A) (A) (A) (A) (A) (A) (A) (A) (A) (A) (A)
                 (A) (A) (A) (A) (A) (A) (A) (A) (A) (A) (A) (A)
                 (A) (A) (A) (A) (A) (A) (A) (A) (A) (A) (A) (A)
                 (A) (A) (A) (A) (A) (A) (A) (A) (A) (A) (A) (A)
                 (A) (A) (A) (A) (A) (A) (A) (A) (A) (A) (A) (A)
                 (A) (A) (A) (A) (A) (A) (A) (A) (A) (A) (A) (A)
                 (A) (A) (A) (A) (A) (A) (A) (A) (A) (A) (A) (A)
                 (A) (A) (A) (A) (A) (A)
       Virtual   (A) (A) (A) (A) (A) (A) (A) (A) (A) (A) (A) (A)
                 (A) (A) (A) (A) (A) (A) (A) (A) (A) (A) (A) (A)
                 (A) (A) (A) (A) (A) (A) (A) (A) (A) (A) (A) (A)
                 (A) (A) (A) (A) (A) (A) (A) (A) (A) (A) (A) (A)
                 (A) (A) (A) (A) (A) (A) (A) (A) (A) (A) (A) (A)
                 (A) (A) (A) (A) (A) (A) (A) (A) (A) (A) (A) (A)
                 (A) (A) (A) (A) (A) (A) (A) (A) (A) (A) (A) (A)
                 (A) (A) (A) (A) (A) (A) (A) (A) (A) (A) (A) (A)
                 (A) (A) (A) (A) (A) (A) (A) (A) (A) (A) (A) (A)
                 (A) (A) (A) (A) (A) (A) (A) (A) (A) (A) (A) (A)
                 (A) (A) (A) (A) (A) (A) (A) (A) (A) (A) (A) (A)
                 (A) (A) (A) (A) (A) (A) (A) (A) (A) (A) (A) (A)
                 (A) (A) (A) (A) (A) (A) (A) (A) (A) (A) (A) (A)
                 (A) (A) (A) (A) (A) (A) (A) (A) (A) (A) (A) (A)
                 (A) (A) (A) (A) (A) (A) (A) (A) (A) (A) (A) (A)
                 (A) (A) (A) (A) (A) (A) (A) (A) (A) (A) (A) (A)
                 (A) (A) (A) (A) (A) (A) (A) (A) (A) (A) (A) (A)
                 (A) (A) (A) (A) (A) (A) (A) (A) (A) (A) (A) (A)
                 (A) (A) (A) (A) (A) (A) (A) (A) (A) (A) (A) (A)
                 (A) (A) (A) (A) (A) (A) (A) (A) (A) (A) (A) (A)
                 (A) (A) (A) (A) (A) (A) (A) (A) (A) (A) (A) (A)
                 (A) (A) (A) (A) (A) (A) (A) (A) (A) (A) (A) (A)
                 (A) (A) (A) (A) (A) (A) (A) (A) (A) (A) (A) (A)
                 (A) (A) (A) (A) (A) (A) (A) (A) (A) (A) (A) (A)
                 (A) (A) (A) (A) (A) (A) (A) (A) (A) (A) (A) (A)
                 (A) (A) (A) (A) (A) (A) (A) (A) (A) (A) (A) (A)
                 (A) (A) (A) (A) (A) (A) (A) (A) (A) (A) (A) (A)
                 (A) (A) (A) (A) (A) (A) (A) (A) (A) (A) (A) (A)
                 (A) (A) (A) (A) (A) (A) (A) (A) (A) (A) (A) (A)
                 (A) (A) (A) (A) (A) (A) (A) (A) (A) (A) (A) (A)
                 (A) (A) (A) (A) (A) (A) (A) (A) (A) (A) (A) (A)
                 (A) (A) (A) (A) (A) (A) (A) (A) (A) (A) (A) (A)
                 (A) (A) (A) (A) (A) (A) (A) (A) (A) (A) (A) (A)
                 (A) (A) (A) (A) (A) (A) (A) (A) (A) (A) (A) (A)
                 (A) (A) (A) (A) (A) (A) (A) (A) (A) (A) (A) (A)
                 (A) (A) (A) (A) (A) (A) (A) (A) (A) (A) (A) (A)
                 (A) (A) (A) (A) (A) (A) (A) (A) (A) (A) (A) (A)
                 (A) (A) (A) (A) (A) (A) (A) (A) (A) (A) (A) (A)
                 (A) (A) (A) (A) (A) (A) (A) (A) (A) (A) (A) (A)
                 (A) (A) (A) (A) (A) (A) (A) (A) (A) (A) (A) (A)
                 (A) (A) (A) (A) (A) (A) (A) (A) (A) (A) (A) (A)
                 (A) (A) (A) (A) (A) (A) (A) (A) (A) (A) (A) (A)
                 (A) (A) (A) (A) (A) (A) (A) (A) (A) (A) (A) (A)
                 (A) (A) (A) (A) (A) (A) (A) (A) (A) (A) (A) (A)
                 (A) (A) (A) (A) (A) (A) (A) (A) (A) (A) (A) (A)
                 (A) (A) (A) (A) (A) (A) (A) (A) (A) (A) (A) (A)
                 (A) (A) (A) (A) (A) (A) (A) (A) (A) (A) (A) (A)
                 (A) (A) (A) (A) (A) (A) (A) (A) (A) (A) (A) (A)
                 (A) (A) (A) (A) (A) (A) (A) (A) (A) (A) (A) (A)
                 (A) (A) (A) (A) (A) (A) (A) (A) (A) (A) (A) (A)
                 (A) (A) (A) (A) (A) (A) (A) (A) (A) (A) (A) (A)
                 (A) (A) (A) (A) (A) (A) (A) (A) (A) (A) (A) (A)
                 (A) (A) (A) (A) (A) (A) (A) (A) (A) (A) (A) (A)
                 (A) (A) (A) (A) (A) (A) (A) (A) (A) (A) (A) (A)
                 (A) (A) (A) (A) (A) (A) (A) (A) (A) (A) (A) (A)
                 (A) (A) (A) (A) (A) (A) (A) (A) (A) (A) (A) (A)
                 (A) (A) (A) (A) (A) (A) (A) (A) (A) (A) (A) (A)
                 (A) (A) (A) (A) (A) (A) (A) (A) (A) (A) (A) (A)
                 (A) (A) (A) (A) (A) (A) (A) (A) (A) (A) (A) (A)
                 (A) (A) (A) (A) (A) (A) (A) (A) (A) (A) (A) (A)
                 (A) (A) (A) (A) (A) (A) (A) (A) (A) (A) (A) (A)
                 (A) (A) (A) (A) (A) (A) (A) (A) (A) (A) (A) (A)
                 (A) (A) (A) (A) (A) (A) (A) (A) (A) (A) (A) (A)
                 (A) (A) (A) (A) (A) (A) (A) (A) (A) (A) (A) (A)
                 (A) (A) (A) (A) (A) (A) (A) (A) (A) (A) (A) (A)
                 (A) (A) (A) (A) (A) (A) (A) (A) (A) (A) (A) (A)
                 (A) (A) (A) (A) (A) (A) (A) (A) (A) (A) (A) (A)
                 (A) (A) (A) (A) (A) (A) (A) (A) (A) (A) (A) (A)
                 (A) (A) (A) (A) (A) (A) (A) (A) (A) (A) (A) (A)
                 (A) (A) (A) (A) (A) (A) (A) (A) (A) (A) (A) (A)
                 (A) (A) (A) (A) (A) (A) (A) (A) (A) (A) (A) (A)
                 (A) (A) (A) (A) (A) (A) (A) (A) (A) (A) (A) (A)
                 (A) (A) (A) (A) (A) (A) (A) (A) (A) (A) (A) (A)
                 (A) (A) (A) (A) (A) (A) (A) (A) (A) (A) (A) (A)
                 (A) (A) (A) (A) (A) (A) (A) (A) (A) (A) (A) (A)
                 (A) (A) (A) (A) (A) (A) (A) (A) (A) (A) (A) (A)
                 (A) (A) (A) (A) (A) (A) (A) (A) (A) (A) (A) (A)
                 (A) (A) (A) (A) (A) (A) (A) (A) (A) (A) (A) (A)
                 (A) (A) (A) (A) (A) (A) (A) (A) (A) (A) (A) (A)
                 (A) (A) (A) (A) (A) (A) (A) (A) (A) (A) (A) (A)
                 (A) (A) (A) (A) (A) (A) (A) (A) (A) (A) (A) (A)
                 (A) (A) (A) (A) (A) (A) (A) (A) (A) (A) (A) (A)
                 (A) (A) (A) (A) (A) (A) (A) (A) (A) (A) (A) (A)
                 (A) (A) (A) (A) (A) (A) (A) (A) (A) (A) (A) (A)
                 (A) (A) (A) (A) (A) (A) (A) (A) (A) (A) (A) (A)
                 (A) (A) (A) (A) (A) (A) (A) (A) (A) (A) (A) (A)
                 (A) (A) (A) (A) (A) (A) (A) (A) (A) (A) (A) (A)
                 (A) (A) (A) (A) (A) (A) (A) (A)
    20 initial guesses have been made.
 Convergence on wavefunction:    0.001000000000000
 Davidson Disk Diagonalization:  ConvIn= 1.00D-03 SkipCon=T Conv= 1.00D-03.
 Max sub-space:  2000 roots to seek:    20 dimension of matrix:       370304
 Iteration     1 Dimension    20 NMult     0 NNew     20
 CISAX will form    20 AO SS matrices at one time.
 NMat=    20 NSing=    20 JSym2X= 0.
 FoFJK:  IHMeth= 1 ICntrl=       0 DoSepK=T KAlg= 0 I1Cent=           0 FoldK=F
 IRaf=         1 NMat=      40 IRICut=       1 DoRegI=T DoRafI=F ISym2E= 0 IDoP0=3 IntGTp=3.
 FoFCou: FMM=T IPFlag=           0 FMFlag=      100000 FMFlg1=        2001
         NFxFlg=           0 DoJE=F BraDBF=F KetDBF=F FulRan=T
         wScrn=  0.000000 ICntrl=       500 IOpCl=  0 I1Cent=           0 NGrid=           0
         NMat0=   20 NMatS0=     20 NMatT0=    0 NMatD0=   20 NMtDS0=    0 NMtDT0=    0
 Symmetry not used in FoFCou.
 FMM levels:  10  Number of levels for PrismC:   9
 New state      3 was old state      6
 New state      4 was old state      3
 New state      5 was old state      7
 Excitation Energies [eV] at current iteration:
 Root      1 :     2.154503352515447
 Root      2 :     2.612722162592755
 Root      3 :     3.851703935596011
 Root      4 :     4.059811596220285
 Root      5 :     4.071277061888440
 Root      6 :     4.137498781549669
 Root      7 :     4.164237979096585
 Root      8 :     4.285111014350803
 Root      9 :     4.474243782668770
 Root     10 :     4.497614691367103
 Root     11 :     4.636131495330178
 Root     12 :     4.818873115541792
 Root     13 :     4.870803040678084
 Root     14 :     4.945712076805900
 Root     15 :     5.024041498372871
 Root     16 :     5.100826623638733
 Root     17 :     5.140865766717094
 Root     18 :     5.648558930408217
 Root     19 :     5.777474937365932
 Root     20 :     6.414298642566712
 Iteration     2 Dimension    30 NMult    20 NNew     10
 CISAX will form    10 AO SS matrices at one time.
 NMat=    10 NSing=    10 JSym2X= 0.
 Root      1 not converged, maximum delta is    0.075806486042491
 Root      2 not converged, maximum delta is    0.059945829506520
 Root      3 not converged, maximum delta is    0.106014888406511
 Root      4 not converged, maximum delta is    0.212492906902321
 Root      5 not converged, maximum delta is    0.178608103790061
 Excitation Energies [eV] at current iteration:
 Root      1 :     1.684937182804386   Change is   -0.469566169711060
 Root      2 :     2.236936193225124   Change is   -0.375785969367631
 Root      3 :     3.522740478722089   Change is   -0.328963456873921
 Root      4 :     3.577379345246915   Change is   -0.482432250973371
 Root      5 :     3.641911531797539   Change is   -0.429365530090902
 Iteration     3 Dimension    40 NMult    30 NNew     10
 CISAX will form    10 AO SS matrices at one time.
 NMat=    10 NSing=    10 JSym2X= 0.
 Root      1 not converged, maximum delta is    0.023182592164597
 Root      2 not converged, maximum delta is    0.010045337135258
 Root      3 not converged, maximum delta is    0.329272351304950
 Root      4 not converged, maximum delta is    0.166684049632087
 Root      5 not converged, maximum delta is    0.376286405041166
 Excitation Energies [eV] at current iteration:
 Root      1 :     1.646790062023925   Change is   -0.038147120780461
 Root      2 :     2.216496895066241   Change is   -0.020439298158883
 Root      3 :     3.439732528820387   Change is   -0.083007949901702
 Root      4 :     3.513485284319857   Change is   -0.063894060927058
 Root      5 :     3.548803726429564   Change is   -0.093107805367976
 Iteration     4 Dimension    50 NMult    40 NNew     10
 CISAX will form    10 AO SS matrices at one time.
 NMat=    10 NSing=    10 JSym2X= 0.
 Root      1 not converged, maximum delta is    0.003730180254655
 Root      2 not converged, maximum delta is    0.002555980027960
 Root      3 not converged, maximum delta is    0.033901475345789
 Root      4 not converged, maximum delta is    0.064617742237091
 Root      5 not converged, maximum delta is    0.075907485891919
 Excitation Energies [eV] at current iteration:
 Root      1 :     1.642251990173897   Change is   -0.004538071850028
 Root      2 :     2.213500115796815   Change is   -0.002996779269426
 Root      3 :     3.426100883435835   Change is   -0.013631645384552
 Root      4 :     3.496128019355068   Change is   -0.017357264964789
 Root      5 :     3.538097770957845   Change is   -0.010705955471718
 Iteration     5 Dimension    60 NMult    50 NNew     10
 CISAX will form    10 AO SS matrices at one time.
 NMat=    10 NSing=    10 JSym2X= 0.
 Root      1 not converged, maximum delta is    0.001297420815403
 Root      2 not converged, maximum delta is    0.001322026221741
 Root      3 not converged, maximum delta is    0.006456564330328
 Root      4 not converged, maximum delta is    0.019182595866024
 Root      5 not converged, maximum delta is    0.013292522745807
 Excitation Energies [eV] at current iteration:
 Root      1 :     1.641890428843739   Change is   -0.000361561330157
 Root      2 :     2.213251354358229   Change is   -0.000248761438586
 Root      3 :     3.424302310125635   Change is   -0.001798573310200
 Root      4 :     3.492587920543756   Change is   -0.003540098811312
 Root      5 :     3.536531209574009   Change is   -0.001566561383836
 Iteration     6 Dimension    70 NMult    60 NNew     10
 CISAX will form    10 AO SS matrices at one time.
 NMat=    10 NSing=    10 JSym2X= 0.
 Root      1 has converged.
 Root      2 has converged.
 Root      3 not converged, maximum delta is    0.003665218562762
 Root      4 not converged, maximum delta is    0.016881735986182
 Root      5 not converged, maximum delta is    0.014150157616709
 Excitation Energies [eV] at current iteration:
 Root      1 :     1.641857697148448   Change is   -0.000032731695291
 Root      2 :     2.213220299688908   Change is   -0.000031054669321
 Root      3 :     3.423914855517763   Change is   -0.000387454607872
 Root      4 :     3.491494847230293   Change is   -0.001093073313463
 Root      5 :     3.536019755372918   Change is   -0.000511454201092
 Iteration     7 Dimension    76 NMult    70 NNew      6
 CISAX will form     6 AO SS matrices at one time.
 NMat=     6 NSing=     6 JSym2X= 0.
 Root      1 has converged.
 Root      2 has converged.
 Root      3 not converged, maximum delta is    0.004129016813765
 Root      4 not converged, maximum delta is    0.027629202056370
 Root      5 not converged, maximum delta is    0.036853651167575
 Excitation Energies [eV] at current iteration:
 Root      1 :     1.641857648647117   Change is   -0.000000048501332
 Root      2 :     2.213219417059371   Change is   -0.000000882629537
 Root      3 :     3.423840946075478   Change is   -0.000073909442285
 Root      4 :     3.490803946927969   Change is   -0.000690900302324
 Root      5 :     3.535386497293685   Change is   -0.000633258079233
 Iteration     8 Dimension    82 NMult    76 NNew      6
 CISAX will form     6 AO SS matrices at one time.
 NMat=     6 NSing=     6 JSym2X= 0.
 Root      1 has converged.
 Root      2 has converged.
 Root      3 not converged, maximum delta is    0.001137215509466
 Root      4 not converged, maximum delta is    0.011544901566981
 Root      5 not converged, maximum delta is    0.027135857297964
 Excitation Energies [eV] at current iteration:
 Root      1 :     1.641857488418329   Change is   -0.000000160228787
 Root      2 :     2.213219317262245   Change is   -0.000000099797127
 Root      3 :     3.423829122963699   Change is   -0.000011823111779
 Root      4 :     3.490586822894459   Change is   -0.000217124033510
 Root      5 :     3.534977019436429   Change is   -0.000409477857257
 Iteration     9 Dimension    88 NMult    82 NNew      6
 CISAX will form     6 AO SS matrices at one time.
 NMat=     6 NSing=     6 JSym2X= 0.
 Root      1 has converged.
 Root      2 has converged.
 Root      3 has converged.
 Root      4 not converged, maximum delta is    0.002182186382818
 Root      5 not converged, maximum delta is    0.005977701864843
 Excitation Energies [eV] at current iteration:
 Root      1 :     1.641857352473193   Change is   -0.000000135945136
 Root      2 :     2.213219267034975   Change is   -0.000000050227270
 Root      3 :     3.423827214387473   Change is   -0.000001908576225
 Root      4 :     3.490543875469353   Change is   -0.000042947425106
 Root      5 :     3.534887816152169   Change is   -0.000089203284260
 Iteration    10 Dimension    92 NMult    88 NNew      4
 CISAX will form     4 AO SS matrices at one time.
 NMat=     4 NSing=     4 JSym2X= 0.
 Root      1 has converged.
 Root      2 has converged.
 Root      3 has converged.
 Root      4 has converged.
 Root      5 not converged, maximum delta is    0.001085306068838
 Excitation Energies [eV] at current iteration:
 Root      1 :     1.641857302768423   Change is   -0.000000049704770
 Root      2 :     2.213219239358636   Change is   -0.000000027676339
 Root      3 :     3.423827077948402   Change is   -0.000000136439072
 Root      4 :     3.490536526058510   Change is   -0.000007349410843
 Root      5 :     3.534872370138220   Change is   -0.000015446013949
 Iteration    11 Dimension    94 NMult    92 NNew      2
 CISAX will form     2 AO SS matrices at one time.
 NMat=     2 NSing=     2 JSym2X= 0.
 Root      1 has converged.
 Root      2 has converged.
 Root      3 has converged.
 Root      4 has converged.
 Root      5 has converged.
 Excitation Energies [eV] at current iteration:
 Root      1 :     1.641857244427557   Change is   -0.000000058340866
 Root      2 :     2.213219231127481   Change is   -0.000000008231155
 Root      3 :     3.423827038741023   Change is   -0.000000039207379
 Root      4 :     3.490535398685203   Change is   -0.000001127373308
 Root      5 :     3.534869201972936   Change is   -0.000003168165284
 Convergence achieved on expansion vectors.
 ***********************************************************************
 Excited states from <AA,BB:AA,BB> singles matrix:
 ***********************************************************************
 
 1PDM for each excited state written to RWF  633
 Ground to excited state transition densities written to RWF  633
 Ground to excited state transition electric dipole moments (Au):
       state          X           Y           Z        Dip. S.      Osc.
         1        -0.0532     -2.9851      0.6056      9.2803      0.3733
         2         1.4551      0.2823      0.3950      2.3529      0.1276
         3         0.6961      0.3223      0.1856      0.6228      0.0522
         4        -2.2984     -0.6701     -0.5579      6.0429      0.5168
         5        -0.1984      0.0199     -0.0403      0.0414      0.0036
 Ground to excited state transition velocity dipole moments (Au):
       state          X           Y           Z        Dip. S.      Osc.
         1         0.0040      0.1743     -0.0359      0.0317      0.3503
         2        -0.1124     -0.0217     -0.0298      0.0140      0.1147
         3        -0.0869     -0.0366     -0.0184      0.0092      0.0489
         4         0.2860      0.0827      0.0692      0.0934      0.4856
         5         0.0263     -0.0035      0.0054      0.0007      0.0038
 Ground to excited state transition magnetic dipole moments (Au):
       state          X           Y           Z
         1         0.1129      0.3870      1.9421
         2        -0.2436      0.5248      0.2961
         3        -0.3605     -0.3211     -0.1855
         4        -0.0018     -1.1641      1.4673
         5        -0.1611      0.2217      0.4441
 Ground to excited state transition velocity quadrupole moments (Au):
       state          XX          YY          ZZ          XY          XZ          YZ
         1        -0.0864      0.3440      0.0590      2.0855     -0.4090     -0.1059
         2        -2.4876      0.0496      0.0324     -0.2240     -0.3551     -0.0308
         3        -1.7838     -0.1343      0.0077     -0.4307     -0.1983      0.0098
         4         5.9138     -0.0209     -0.1097      0.8941      0.7388     -0.0393
         5         0.4146      0.1690     -0.0515     -0.3225     -0.0519     -0.0909
 <0|del|b> * <b|rxdel|0> + <0|del|b> * <b|delr+rdel|0>
 Rotatory Strengths (R) in cgs (10**-40 erg-esu-cm/Gauss)
       state          XX          YY          ZZ    R(velocity)    E-M Angle
         1       -34.7131     30.3408    -17.2742     -7.2155       90.30
         2       -92.4337     66.7756     87.9843     20.7754       84.65
         3        44.5669     72.9102    143.8389     87.1053       20.63
         4        16.7533     77.0691    -67.4477      8.7916       89.52
         5        -0.8317     -6.7225     -6.6519     -4.7354      100.64
 1/2[<0|r|b>*<b|rxdel|0> + (<0|rxdel|b>*<b|r|0>)*]
 Rotatory Strengths (R) in cgs (10**-40 erg-esu-cm/Gauss)
       state          XX          YY          ZZ     R(length)
         1         4.2459    816.9536   -831.7497     -3.5168
         2       250.6201   -104.7557    -82.7104     21.0513
         3       177.4494     73.1938     24.3509     91.6647
         4        -2.8748   -551.6926    578.8645      8.0991
         5       -22.6028     -3.1175     12.6432     -4.3590
  1/2[<0|del|b>*<b|r|0> + (<0|r|b>*<b|del|0>)*] (Au)
       state          X           Y           Z        Dip. S.   Osc.(frdel)
         1        -0.0002     -0.5204     -0.0218      0.5424      0.3616
         2        -0.1636     -0.0061     -0.0118      0.1815      0.1210
         3        -0.0605     -0.0118     -0.0034      0.0757      0.0505
         4        -0.6573     -0.0554     -0.0386      0.7514      0.5009
         5        -0.0052     -0.0001     -0.0002      0.0055      0.0037

 Excitation energies and oscillator strengths:
 
 Excited State   1:      Singlet-A      1.6419 eV  755.15 nm  f=0.3733  <S**2>=0.000
     245 -> 248       -0.16658
     246 -> 247        0.68802
     245 <- 248       -0.10648
 This state for optimization and/or second-order correction.
 Total Energy, E(TD-HF/TD-DFT) =  -3007.09335933    
 Copying the excited state density for this state as the 1-particle RhoCI density.
 
 Excited State   2:      Singlet-A      2.2132 eV  560.20 nm  f=0.1276  <S**2>=0.000
     245 -> 247        0.64117
     246 -> 248        0.28382
 
 Excited State   3:      Singlet-A      3.4238 eV  362.12 nm  f=0.0522  <S**2>=0.000
     241 -> 247        0.13641
     241 -> 249        0.12712
     241 -> 250       -0.12167
     242 -> 247        0.48706
     242 -> 249        0.23859
     242 -> 250       -0.19980
     243 -> 247        0.17319
[...]
 Alpha virt. eigenvalues --    1.20587   1.21006   1.21149   1.21416   1.22447
 Alpha virt. eigenvalues --    1.23113   1.23376   1.23605   1.24013   1.24367
 Alpha virt. eigenvalues --    1.25369   1.25538   1.26302   1.26320   1.26697
 Alpha virt. eigenvalues --    1.27027   1.27518   1.28158   1.28705   1.28855
 Alpha virt. eigenvalues --    1.29543   1.29950   1.30221   1.30468   1.31208
 Alpha virt. eigenvalues --    1.31402   1.32002   1.32848   1.32901   1.32977
 Alpha virt. eigenvalues --    1.33676   1.34371   1.34886   1.35276   1.35429
 Alpha virt. eigenvalues --    1.36535   1.37173   1.37304   1.37437   1.37750
 Alpha virt. eigenvalues --    1.38626   1.38767   1.39785   1.40145   1.40576
 Alpha virt. eigenvalues --    1.41137   1.41344   1.41668   1.41726   1.42523
 Alpha virt. eigenvalues --    1.42767   1.42939   1.43301   1.43666   1.44042
 Alpha virt. eigenvalues --    1.44784   1.45113   1.45727   1.46205   1.46403
 Alpha virt. eigenvalues --    1.46639   1.46679   1.47619   1.47956   1.48495
 Alpha virt. eigenvalues --    1.48567   1.49729   1.49934   1.50331   1.50424
 Alpha virt. eigenvalues --    1.50828   1.51162   1.51822   1.52101   1.52273
 Alpha virt. eigenvalues --    1.52487   1.53223   1.53571   1.54164   1.54382
 Alpha virt. eigenvalues --    1.55514   1.55588   1.55676   1.56298   1.56660
 Alpha virt. eigenvalues --    1.56728   1.57144   1.57800   1.58317   1.58587
 Alpha virt. eigenvalues --    1.58726   1.58758   1.58928   1.59068   1.59740
 Alpha virt. eigenvalues --    1.59939   1.60468   1.60495   1.60733   1.60826
 Alpha virt. eigenvalues --    1.61308   1.61486   1.61604   1.61986   1.62344
 Alpha virt. eigenvalues --    1.62501   1.62940   1.62977   1.63047   1.63421
 Alpha virt. eigenvalues --    1.63774   1.64197   1.64234   1.64475   1.65152
 Alpha virt. eigenvalues --    1.65521   1.65746   1.66028   1.66423   1.66655
 Alpha virt. eigenvalues --    1.67025   1.68117   1.68509   1.68902   1.69438
 Alpha virt. eigenvalues --    1.69624   1.69842   1.70209   1.70790   1.71374
 Alpha virt. eigenvalues --    1.72036   1.72174   1.72251   1.72435   1.73025
 Alpha virt. eigenvalues --    1.73399   1.73926   1.74451   1.74955   1.75150
 Alpha virt. eigenvalues --    1.75491   1.75791   1.76452   1.76596   1.77223
 Alpha virt. eigenvalues --    1.77401   1.77735   1.78052   1.78270   1.78709
 Alpha virt. eigenvalues --    1.79156   1.79197   1.79571   1.79704   1.79841
 Alpha virt. eigenvalues --    1.80208   1.80484   1.80924   1.81250   1.81590
 Alpha virt. eigenvalues --    1.81680   1.81771   1.81847   1.82128   1.82806
 Alpha virt. eigenvalues --    1.83047   1.83261   1.83354   1.83572   1.83757
 Alpha virt. eigenvalues --    1.83985   1.84141   1.84456   1.84490   1.84770
 Alpha virt. eigenvalues --    1.84933   1.85088   1.85324   1.85474   1.85718
 Alpha virt. eigenvalues --    1.85949   1.86197   1.86451   1.86525   1.86734
 Alpha virt. eigenvalues --    1.86910   1.87216   1.87468   1.87771   1.87841
 Alpha virt. eigenvalues --    1.87972   1.88216   1.88461   1.88609   1.88749
 Alpha virt. eigenvalues --    1.89240   1.89324   1.89499   1.89740   1.90210
 Alpha virt. eigenvalues --    1.90262   1.90390   1.90544   1.90625   1.90839
 Alpha virt. eigenvalues --    1.91114   1.91349   1.91617   1.92073   1.92453
 Alpha virt. eigenvalues --    1.92605   1.92876   1.93087   1.93161   1.93243
 Alpha virt. eigenvalues --    1.93421   1.93802   1.94142   1.94257   1.94569
 Alpha virt. eigenvalues --    1.94679   1.94870   1.95160   1.95240   1.96011
 Alpha virt. eigenvalues --    1.96165   1.96423   1.96812   1.96970   1.97121
 Alpha virt. eigenvalues --    1.97223   1.97622   1.98082   1.98246   1.98549
 Alpha virt. eigenvalues --    1.98611   1.98850   1.99084   1.99190   1.99414
 Alpha virt. eigenvalues --    1.99428   1.99755   2.00051   2.00277   2.00465
 Alpha virt. eigenvalues --    2.00882   2.01164   2.01550   2.01823   2.01877
 Alpha virt. eigenvalues --    2.01958   2.02258   2.02673   2.02736   2.02950
 Alpha virt. eigenvalues --    2.03174   2.03353   2.03535   2.03949   2.03977
 Alpha virt. eigenvalues --    2.04649   2.05119   2.05581   2.05908   2.06173
 Alpha virt. eigenvalues --    2.06349   2.06513   2.07001   2.07352   2.07616
 Alpha virt. eigenvalues --    2.08039   2.08208   2.08248   2.08648   2.08698
 Alpha virt. eigenvalues --    2.09038   2.09429   2.09541   2.09660   2.10059
 Alpha virt. eigenvalues --    2.10577   2.10964   2.11119   2.11492   2.11647
 Alpha virt. eigenvalues --    2.12063   2.12641   2.13301   2.13382   2.13599
 Alpha virt. eigenvalues --    2.13724   2.14071   2.14200   2.14782   2.14851
 Alpha virt. eigenvalues --    2.15006   2.15446   2.15687   2.15852   2.16038
 Alpha virt. eigenvalues --    2.16218   2.16416   2.16936   2.17432   2.17783
 Alpha virt. eigenvalues --    2.17957   2.18366   2.18692   2.19045   2.19150
 Alpha virt. eigenvalues --    2.19360   2.19808   2.19950   2.20324   2.20541
 Alpha virt. eigenvalues --    2.21111   2.21339   2.21992   2.22522   2.22773
 Alpha virt. eigenvalues --    2.23237   2.23342   2.23621   2.23856   2.24482
 Alpha virt. eigenvalues --    2.24843   2.25023   2.25469   2.25871   2.27150
 Alpha virt. eigenvalues --    2.27414   2.27908   2.28658   2.28974   2.29230
 Alpha virt. eigenvalues --    2.29355   2.29626   2.30336   2.30803   2.30846
 Alpha virt. eigenvalues --    2.31736   2.31885   2.32382   2.32961   2.33211
 Alpha virt. eigenvalues --    2.33670   2.34214   2.34291   2.35074   2.35160
 Alpha virt. eigenvalues --    2.35503   2.35610   2.36096   2.36469   2.37217
 Alpha virt. eigenvalues --    2.37689   2.37755   2.38167   2.38246   2.38610
 Alpha virt. eigenvalues --    2.38825   2.39290   2.39641   2.40271   2.40537
 Alpha virt. eigenvalues --    2.40810   2.41000   2.41470   2.42048   2.42457
 Alpha virt. eigenvalues --    2.43368   2.43711   2.44095   2.44464   2.44739
 Alpha virt. eigenvalues --    2.45139   2.45541   2.45626   2.45758   2.46206
 Alpha virt. eigenvalues --    2.46280   2.46829   2.47117   2.47395   2.47702
 Alpha virt. eigenvalues --    2.48092   2.48149   2.48604   2.48821   2.49321
 Alpha virt. eigenvalues --    2.49544   2.50033   2.50119   2.50705   2.50781
 Alpha virt. eigenvalues --    2.51279   2.51594   2.51997   2.52231   2.53140
 Alpha virt. eigenvalues --    2.53446   2.53913   2.54022   2.54374   2.55871
 Alpha virt. eigenvalues --    2.56190   2.56208   2.56390   2.56742   2.57536
 Alpha virt. eigenvalues --    2.57830   2.58351   2.58830   2.59807   2.60122
 Alpha virt. eigenvalues --    2.60385   2.60456   2.61055   2.61255   2.61471
 Alpha virt. eigenvalues --    2.62693   2.62787   2.62942   2.63909   2.64016
 Alpha virt. eigenvalues --    2.64587   2.64648   2.64918   2.65427   2.65593
 Alpha virt. eigenvalues --    2.66191   2.66698   2.67237   2.67329   2.67586
 Alpha virt. eigenvalues --    2.68133   2.68287   2.68541   2.68691   2.69554
 Alpha virt. eigenvalues --    2.70023   2.70185   2.70667   2.70842   2.71100
 Alpha virt. eigenvalues --    2.71642   2.72518   2.73200   2.73324   2.73918
 Alpha virt. eigenvalues --    2.74175   2.74420   2.74543   2.75303   2.76132
 Alpha virt. eigenvalues --    2.76656   2.77006   2.77563   2.77994   2.78585
 Alpha virt. eigenvalues --    2.78703   2.79063   2.79240   2.79264   2.80595
 Alpha virt. eigenvalues --    2.80775   2.81202   2.81440   2.81927   2.82079
 Alpha virt. eigenvalues --    2.82108   2.82899   2.83129   2.83301   2.84003
 Alpha virt. eigenvalues --    2.84376   2.84527   2.85783   2.85962   2.86849
 Alpha virt. eigenvalues --    2.87424   2.87693   2.88302   2.88544   2.89034
 Alpha virt. eigenvalues --    2.90087   2.90135   2.90652   2.91300   2.91551
 Alpha virt. eigenvalues --    2.92631   2.93621   2.93906   2.94607   2.95403
 Alpha virt. eigenvalues --    2.95558   2.95649   2.96035   2.96248   2.96788
 Alpha virt. eigenvalues --    2.97044   2.97208   2.97432   2.97780   2.98416
 Alpha virt. eigenvalues --    2.98561   2.98979   2.99466   2.99528   2.99804
 Alpha virt. eigenvalues --    2.99917   3.00196   3.00472   3.00590   3.00811
 Alpha virt. eigenvalues --    3.00977   3.01132   3.01435   3.01760   3.01799
 Alpha virt. eigenvalues --    3.02062   3.02254   3.02506   3.03121   3.03334
 Alpha virt. eigenvalues --    3.03599   3.03783   3.04244   3.04430   3.04924
 Alpha virt. eigenvalues --    3.05295   3.05447   3.05816   3.06052   3.06193
 Alpha virt. eigenvalues --    3.06516   3.07029   3.07154   3.08012   3.08761
 Alpha virt. eigenvalues --    3.08848   3.08863   3.09426   3.09913   3.10236
 Alpha virt. eigenvalues --    3.10539   3.10826   3.11151   3.11766   3.12004
 Alpha virt. eigenvalues --    3.12610   3.13318   3.14222   3.14863   3.15409
 Alpha virt. eigenvalues --    3.15704   3.16389   3.17118   3.17971   3.18565
 Alpha virt. eigenvalues --    3.18803   3.19507   3.19697   3.20427   3.22021
 Alpha virt. eigenvalues --    3.22397   3.22480   3.23847   3.24136   3.24652
 Alpha virt. eigenvalues --    3.25451   3.26877   3.27031   3.27633   3.29088
 Alpha virt. eigenvalues --    3.34009   3.34270   3.44483   3.45095   3.47386
 Alpha virt. eigenvalues --    3.48389   3.49656   3.51486   3.54486   3.57344
 Alpha virt. eigenvalues --    3.60884   3.62384   3.66788   3.70555   3.70745
 Alpha virt. eigenvalues --    3.72785   3.73265
          Condensed to atoms (all electrons):
 Mulliken charges:
               1
     1  Mg   0.856287
     2  C   -0.005282
     3  C   -0.081705
     4  C   -0.058946
     5  C   -0.092488
     6  N   -0.243441
     7  C   -0.034274
     8  C   -0.025893
     9  C   -0.039024
    10  C   -0.028622
    11  C    0.078233
    12  C    0.104335
    13  C   -0.015893
    14  C    0.209734
    15  O   -0.219118
    16  O   -0.352615
    17  N   -0.382074
    18  C    0.181374
    19  C   -0.156136
    20  C   -0.010208
    21  C    0.125403
    22  C    0.120974
    23  C   -0.030855
    24  O   -0.185756
    25  C    0.049026
    26  N   -0.286958
    27  C    0.002205
    28  C   -0.026290
    29  C   -0.012463
    30  C    0.052051
    31  C    0.080244
    32  C    0.049444
    33  C   -0.025832
    34  N   -0.341503
    35  C    0.090482
    36  C   -0.209674
    37  C    0.080181
    38  C    0.101948
    39  C    0.139031
    40  C    0.016039
    41  O   -0.212058
    42  C    0.001525
    43  C    0.200990
    44  O   -0.257144
    45  O   -0.320833
    46  C    0.165145
    47  C    0.292412
    48  C   -0.158312
    49  C   -0.161707
    50  C    0.115116
    51  C    0.067623
    52  C    0.009516
    53  C    0.080884
    54  C   -0.167506
    55  C    0.034879
    56  C    0.052154
    57  C    0.039141
    58  C    0.010963
    59  C   -0.114545
    60  C    0.036220
    61  C    0.061212
    62  C    0.000859
    63  C    0.069337
    64  C   -0.142667
    65  C    0.033493
    66  C    0.062551
    67  H   -0.025960
    68  H   -0.010859
    69  H   -0.030214
    70  H    0.000654
    71  H   -0.004132
    72  H    0.028392
    73  H    0.027929
    74  H    0.013095
    75  H    0.001349
    76  H    0.041970
    77  H    0.038592
    78  H    0.031813
    79  H    0.003529
    80  H    0.041269
    81  H    0.039593
    82  H    0.037031
    83  H    0.028591
    84  H    0.021829
    85  H    0.024221
    86  H    0.002588
    87  H    0.016542
    88  H    0.027986
    89  H    0.002457
    90  H    0.030918
    91  H    0.019449
    92  H    0.014347
    93  H    0.015852
    94  H    0.013148
    95  H   -0.013097
    96  H    0.021727
    97  H    0.052239
    98  H    0.022480
    99  H    0.049438
   100  H    0.052552
   101  H    0.037908
   102  H    0.041372
   103  H    0.019013
   104  H   -0.015865
   105  H    0.010552
   106  H    0.032323
   107  H    0.032145
   108  H   -0.012502
   109  H    0.003519
   110  H    0.001746
   111  H    0.004978
   112  H   -0.003738
   113  H    0.001104
   114  H    0.001951
   115  H   -0.005957
   116  H    0.011210
   117  H    0.007707
   118  H   -0.001337
   119  H   -0.015481
   120  H    0.010929
   121  H   -0.005226
   122  H   -0.015126
   123  H   -0.011604
   124  H   -0.008084
   125  H   -0.004257
   126  H   -0.003442
   127  H    0.007498
   128  H   -0.017632
   129  H   -0.008003
   130  H   -0.008256
   131  H    0.005602
   132  H   -0.018295
   133  H   -0.011162
   134  H   -0.000815
   135  H    0.013268
   136  H   -0.013018
   137  H    0.010891
   138  H    0.005966
   139  H    0.005304
   140  H    0.006303
 Sum of Mulliken charges =  -0.00000
 Mulliken charges with hydrogens summed into heavy atoms:
               1
     1  Mg   0.856287
     2  C   -0.005282
     3  C   -0.107664
     4  C   -0.069806
     5  C   -0.122702
     6  N   -0.243441
     7  C   -0.034274
     8  C   -0.025240
     9  C   -0.043157
    10  C   -0.028622
    11  C    0.147649
    12  C    0.147654
    13  C    0.054512
    14  C    0.209734
    15  O   -0.219118
    16  O   -0.352615
    17  N   -0.382074
    18  C    0.181374
    19  C   -0.156136
    20  C   -0.010208
    21  C    0.125403
    22  C    0.205365
    23  C   -0.030855
    24  O   -0.185756
    25  C    0.136477
    26  N   -0.286958
    27  C    0.002205
    28  C   -0.002069
    29  C   -0.009875
    30  C    0.052051
    31  C    0.127230
    32  C    0.099811
    33  C    0.017515
    34  N   -0.341503
    35  C    0.090482
    36  C   -0.209674
    37  C    0.080181
    38  C    0.101948
    39  C    0.199900
    40  C    0.016039
    41  O   -0.212058
    42  C    0.024005
    43  C    0.200990
    44  O   -0.257144
    45  O   -0.320833
    46  C    0.305043
    47  C    0.352797
    48  C   -0.174176
    49  C   -0.161707
    50  C    0.190136
    51  C    0.058640
    52  C    0.016240
    53  C    0.078250
    54  C   -0.165555
    55  C    0.047838
    56  C    0.035337
    57  C    0.044843
    58  C   -0.015767
    59  C   -0.122629
    60  C    0.036019
    61  C    0.035577
    62  C   -0.001795
    63  C    0.039880
    64  C   -0.143482
    65  C    0.044635
    66  C    0.080123
 Electronic spatial extent (au):  <R**2>=         141221.4198
 Charge=             -0.0000 electrons
 Dipole moment (field-independent basis, Debye):
    X=             -1.9416    Y=              3.8206    Z=             -4.1222  Tot=              5.9464
 Quadrupole moment (field-independent basis, Debye-Ang):
   XX=           -367.1813   YY=           -410.2772   ZZ=           -402.8271
   XY=             13.0405   XZ=             -5.4000   YZ=            -12.8420
 Traceless Quadrupole moment (field-independent basis, Debye-Ang):
   XX=             26.2473   YY=            -16.8486   ZZ=             -9.3986
   XY=             13.0405   XZ=             -5.4000   YZ=            -12.8420
 Octapole moment (field-independent basis, Debye-Ang**2):
  XXX=            101.3900  YYY=            202.0831  ZZZ=             -6.0107  XYY=           -113.4163
  XXY=           -231.1243  XXZ=              0.4219  XZZ=             56.0840  YZZ=             -6.6687
  YYZ=            -40.7433  XYZ=            -57.5677
 Hexadecapole moment (field-independent basis, Debye-Ang**3):
 XXXX=        -165295.4219 YYYY=         -20086.3546 ZZZZ=          -7063.7631 XXXY=          -1946.3269
 XXXZ=            -73.6621 YYYX=           1034.2348 YYYZ=           -470.6886 ZZZX=            136.2011
 ZZZY=            -98.0284 XXYY=         -32019.0245 XXZZ=         -29331.5030 YYZZ=          -4439.1756
 XXYZ=           -644.9903 YYXZ=           -350.2597 ZZXY=            149.0445
 N-N= 9.360035066499D+03 E-N=-2.571204439715D+04  KE= 2.975373609915D+03
 Leave Link  601 at Wed May  4 05:16:13 2022, MaxMem= 10066329600 cpu:              13.8 elap:               0.7
 (Enter /sw/apps/gaussian-16.0/g16/l9999.exe)
 1\1\GINC-BP1-COMPUTE089\SP\RCAM-B3LYP TD-FC\def2SVP\C55H74Mg1N4O6\OF15
 641\04-May-2022\0\\#p cam-b3lyp/Def2SVP td=(nstates=5)\\step_1401_chro
 mophore_22 TDDFT with cam-b3lyp functional\\0,1\Mg,0,8.761,47.918,25.1
 79\C,0,6.825,48.088,28.123\C,0,11.383,49.379,26.991\C,0,10.531,48.083,
 22.354\C,0,5.956,47.186,23.346\N,0,9.106,48.475,27.356\C,0,8.174,48.4,
 28.389\C,0,8.736,48.92,29.685\C,0,9.857,49.781,29.185\C,0,10.164,49.16
 4,27.772\C,0,9.412,51.296,29.053\C,0,9.071,47.795,30.684\C,0,8.614,48.
 042,32.142\C,0,8.449,46.864,33.226\O,0,8.832,45.704,33.156\O,0,7.734,4
 7.384,34.307\N,0,10.685,48.501,24.796\C,0,11.664,48.962,25.668\C,0,12.
 986,49.06,24.982\C,0,12.804,48.655,23.617\C,0,11.299,48.371,23.575\C,0
 ,14.275,49.53,25.628\C,0,13.641,48.422,22.458\O,0,13.274,47.888,21.434
 \C,0,15.1,48.749,22.648\N,0,8.385,47.538,23.164\C,0,9.227,47.781,22.14
 7\C,0,8.671,47.426,20.749\C,0,7.236,46.925,21.178\C,0,7.193,47.265,22.
 652\C,0,8.868,48.489,19.662\C,0,7.101,45.402,20.935\C,0,5.751,45.015,2
 0.166\N,0,6.782,47.599,25.586\C,0,5.756,47.432,24.747\C,0,4.541,47.393
 ,25.508\C,0,4.895,47.544,26.855\C,0,6.303,47.708,26.84\C,0,3.141,47.16
 1,24.994\C,0,4.427,47.615,28.182\O,0,3.277,47.479,28.664\C,0,5.68,47.9
 03,29.09\C,0,5.782,46.639,29.928\O,0,6.26,45.582,29.454\O,0,5.577,46.8
 64,31.255\C,0,5.502,45.624,32.03\C,0,7.335,46.642,35.465\C,0,7.863,47.
 204,36.783\C,0,7.379,47.089,38.005\C,0,6.119,46.364,38.31\C,0,8.192,47
 .737,39.103\C,0,8.851,46.699,40.108\C,0,10.172,47.228,40.553\C,0,9.884
 ,47.938,41.911\C,0,9.791,49.522,41.634\C,0,11.047,47.681,42.928\C,0,11
 .059,46.275,43.671\C,0,11.387,46.396,45.151\C,0,12.732,45.778,45.639\C
 ,0,13.311,46.501,46.869\C,0,12.64,44.206,45.883\C,0,13.643,43.382,45.0
 25\C,0,13.08,42.714,43.785\C,0,14.162,42.6,42.671\C,0,13.845,43.385,41
 .395\C,0,14.446,41.161,42.254\H,0,12.129,49.964,27.532\H,0,11.039,47.9
 75,21.394\H,0,5.023,46.984,22.816\H,0,7.913,49.503,30.097\H,0,10.824,4
 9.634,29.666\H,0,10.043,51.893,29.71\H,0,8.355,51.545,29.154\H,0,9.581
 ,51.573,28.012\H,0,10.157,47.71,30.702\H,0,8.678,46.831,30.361\H,0,7.6
 61,48.57,32.15\H,0,9.369,48.72,32.54\H,0,14.099,49.803,26.669\H,0,14.6
 99,50.433,25.189\H,0,14.924,48.655,25.607\H,0,15.464,48.124,23.463\H,0
 ,15.242,49.815,22.828\H,0,15.612,48.558,21.705\H,0,9.263,46.54,20.521\
 H,0,6.528,47.569,20.656\H,0,8.025,48.783,19.036\H,0,9.789,48.286,19.11
 6\H,0,9.1,49.484,20.039\H,0,7.065,44.828,21.861\H,0,7.886,45.06,20.26\
 H,0,5.175,45.855,19.778\H,0,5.116,44.468,20.862\H,0,5.932,44.338,19.33
 1\H,0,3.261,47.521,23.972\H,0,2.515,47.963,25.388\H,0,2.72,46.156,25.0
 26\H,0,5.546,48.694,29.828\H,0,6.5,45.335,32.36\H,0,5.074,44.783,31.48
 4\H,0,4.867,45.994,32.835\H,0,7.708,45.619,35.423\H,0,6.252,46.753,35.
 525\H,0,8.791,47.757,36.635\H,0,6.295,46.145,39.363\H,0,5.946,45.536,3
 7.623\H,0,5.338,47.121,38.235\H,0,7.548,48.281,39.794\H,0,8.883,48.521
 ,38.794\H,0,8.935,45.669,39.762\H,0,8.183,46.672,40.969\H,0,10.568,48.
 007,39.902\H,0,10.951,46.471,40.642\H,0,8.948,47.703,42.418\H,0,10.528
 ,50.029,42.257\H,0,8.839,49.941,41.957\H,0,10.052,49.815,40.617\H,0,11
 .214,48.529,43.593\H,0,11.957,47.691,42.329\H,0,11.757,45.571,43.218\H
 ,0,10.101,45.76,43.742\H,0,10.549,45.936,45.675\H,0,11.389,47.415,45.5
 37\H,0,13.384,46.028,44.801\H,0,13.902,45.888,47.549\H,0,12.486,46.781
 ,47.524\H,0,13.941,47.383,46.755\H,0,11.585,44.006,45.696\H,0,12.751,4
 3.918,46.929\H,0,13.999,42.559,45.645\H,0,14.518,44.009,44.854\H,0,12.
 206,43.278,43.458\H,0,12.61,41.771,44.065\H,0,15.053,43.111,43.036\H,0
 ,14.751,43.592,40.825\H,0,13.473,44.376,41.654\H,0,13.,42.978,40.839\H
 ,0,13.898,40.981,41.329\H,0,14.153,40.391,42.968\H,0,15.522,41.098,42.
 096\\Version=ES64L-G16RevA.03\State=1-A\HF=-3007.1536965\RMSD=4.897e-0
 9\PG=C01 [X(C55H74Mg1N4O6)]\\@


 Life may have no meaning.  Or even worse, it may have a
 meaning of which I disapprove.
                                 -- Ashleigh Brilliant
 Job cpu time:       0 days 10 hours 46 minutes 21.1 seconds.
 Elapsed time:       0 days  0 hours 27 minutes 25.3 seconds.
 File lengths (MBytes):  RWF=   8929 Int=      0 D2E=      0 Chk=    390 Scr=      1
 Normal termination of Gaussian 16 at Wed May  4 05:16:14 2022.
