 Entering Gaussian System, Link 0=g16
 Initial command:
 /sw/apps/gaussian-16.0/g16/l1.exe "/tmp/Gau-6178.inp" -scrdir="/tmp/"
 Entering Link 1 = /sw/apps/gaussian-16.0/g16/l1.exe PID=      6179.
  
 Copyright (c) 1988,1990,1992,1993,1995,1998,2003,2009,2016,
            Gaussian, Inc.  All Rights Reserved.
  
 This is part of the Gaussian(R) 16 program.  It is based on
 the Gaussian(R) 09 system (copyright 2009, Gaussian, Inc.),
 the Gaussian(R) 03 system (copyright 2003, Gaussian, Inc.),
 the Gaussian(R) 98 system (copyright 1998, Gaussian, Inc.),
 the Gaussian(R) 94 system (copyright 1995, Gaussian, Inc.),
 the Gaussian 92(TM) system (copyright 1992, Gaussian, Inc.),
 the Gaussian 90(TM) system (copyright 1990, Gaussian, Inc.),
 the Gaussian 88(TM) system (copyright 1988, Gaussian, Inc.),
 the Gaussian 86(TM) system (copyright 1986, Carnegie Mellon
 University), and the Gaussian 82(TM) system (copyright 1983,
 Carnegie Mellon University). Gaussian is a federally registered
 trademark of Gaussian, Inc.
  
 This software contains proprietary and confidential information,
 including trade secrets, belonging to Gaussian, Inc.
  
 This software is provided under written license and may be
 used, copied, transmitted, or stored only in accord with that
 written license.
  
 The following legend is applicable only to US Government
 contracts under FAR:
  
                    RESTRICTED RIGHTS LEGEND
  
 Use, reproduction and disclosure by the US Government is
 subject to restrictions as set forth in subparagraphs (a)
 and (c) of the Commercial Computer Software - Restricted
 Rights clause in FAR 52.227-19.
  
 Gaussian, Inc.
 340 Quinnipiac St., Bldg. 40, Wallingford CT 06492
  
  
 ---------------------------------------------------------------
 Warning -- This program may not be used in any manner that
 competes with the business of Gaussian, Inc. or will provide
 assistance to any competitor of Gaussian, Inc.  The licensee
 of this program is prohibited from giving any competitor of
 Gaussian, Inc. access to this program.  By using this program,
 the user acknowledges that Gaussian, Inc. is engaged in the
 business of creating and licensing software in the field of
 computational chemistry and represents and warrants to the
 licensee that it is not a competitor of Gaussian, Inc. and that
 it will not use this program in any manner prohibited above.
 ---------------------------------------------------------------
  

 Cite this work as:
 Gaussian 16, Revision A.03,
 M. J. Frisch, G. W. Trucks, H. B. Schlegel, G. E. Scuseria, 
 M. A. Robb, J. R. Cheeseman, G. Scalmani, V. Barone, 
 G. A. Petersson, H. Nakatsuji, X. Li, M. Caricato, A. V. Marenich, 
 J. Bloino, B. G. Janesko, R. Gomperts, B. Mennucci, H. P. Hratchian, 
 J. V. Ortiz, A. F. Izmaylov, J. L. Sonnenberg, D. Williams-Young, 
 F. Ding, F. Lipparini, F. Egidi, J. Goings, B. Peng, A. Petrone, 
 T. Henderson, D. Ranasinghe, V. G. Zakrzewski, J. Gao, N. Rega, 
 G. Zheng, W. Liang, M. Hada, M. Ehara, K. Toyota, R. Fukuda, 
 J. Hasegawa, M. Ishida, T. Nakajima, Y. Honda, O. Kitao, H. Nakai, 
 T. Vreven, K. Throssell, J. A. Montgomery, Jr., J. E. Peralta, 
 F. Ogliaro, M. J. Bearpark, J. J. Heyd, E. N. Brothers, K. N. Kudin, 
 V. N. Staroverov, T. A. Keith, R. Kobayashi, J. Normand, 
 K. Raghavachari, A. P. Rendell, J. C. Burant, S. S. Iyengar, 
 J. Tomasi, M. Cossi, J. M. Millam, M. Klene, C. Adamo, R. Cammi, 
 J. W. Ochterski, R. L. Martin, K. Morokuma, O. Farkas, 
 J. B. Foresman, and D. J. Fox, Gaussian, Inc., Wallingford CT, 2016.
 
 ******************************************
 Gaussian 16:  ES64L-G16RevA.03 25-Dec-2016
                 4-May-2022 
 ******************************************
 %nproc=24
 Will use up to   24 processors via shared memory.
 %mem=75GB
 ------------------------------
 #p blyp/Def2SVP td=(nstates=5)
 ------------------------------
 1/38=1,172=1/1;
 2/12=2,17=6,18=5,40=1/2;
 3/5=43,7=101,11=9,25=1,30=1,74=402/1,2,3,8;
 4//1;
 5/5=2,38=5/2;
 8/6=1,10=1,108=5/1;
 9/41=5,42=1,70=2/14;
 6/7=2,8=2,9=2,10=2/1;
 99/5=1,9=1/99;
 Leave Link    1 at Wed May  4 18:33:29 2022, MaxMem= 10066329600 cpu:               2.0 elap:               0.1
 (Enter /sw/apps/gaussian-16.0/g16/l101.exe)
 --------------------------------------------------
 step_251_chromophore_25 TDDFT with blyp functional
 --------------------------------------------------
 Symbolic Z-matrix:
 Charge =  0 Multiplicity = 1
 Mg                   -2.512     34.32     26.71 
 C                    -3.706     32.37     29.494 
 C                    -1.096     36.452    28.856 
 C                    -2.235     36.472    24.156 
 C                    -4.454     32.242    24.657 
 N                    -2.472     34.411    28.883 
 C                    -2.842     33.436    29.825 
 C                    -2.279     33.778    31.257 
 C                    -1.516     35.114    31.007 
 C                    -1.649     35.323    29.475 
 C                    -1.968     36.325    31.783 
 C                    -1.395     32.574    31.888 
 C                    -1.813     32.123    33.293 
 C                    -0.669     32.237    34.368 
 O                     0.054     31.28     34.759 
 O                    -0.64      33.491    34.83 
 N                    -1.637     36.158    26.505 
 C                    -1.11      36.895    27.488 
 C                    -0.61      38.178    26.991 
 C                    -1.042     38.204    25.62 
 C                    -1.69      36.914    25.361 
 C                     0.109     39.146    27.829 
 C                    -0.905     39.451    24.691 
 O                    -1.223     39.418    23.514 
 C                    -0.355     40.758    25.166 
 N                    -3.223     34.331    24.763 
 C                    -2.855     35.305    23.841 
 C                    -3.393     34.958    22.414 
 C                    -3.787     33.44     22.551 
 C                    -3.776     33.289    24.072 
 C                    -4.458     35.913    21.783 
 C                    -2.788     32.46     21.877 
 C                    -3.333     31.256    21.151 
 N                    -3.861     32.677    26.985 
 C                    -4.559     31.955    26.059 
 C                    -5.216     30.768    26.762 
 C                    -4.866     30.866    28.087 
 C                    -4.102     32.079    28.188 
 C                    -5.976     29.695    26.016 
 C                    -4.987     30.303    29.42 
 O                    -5.621     29.26     29.684 
 C                    -4.282     31.353    30.469 
 C                    -5.239     32.034    31.425 
 O                    -6.237     32.649    31. 
 O                    -4.967     31.732    32.76 
 C                    -6.098     32.021    33.634 
 C                     0.222     33.704    35.942 
 C                    -0.282     34.928    36.657 
 C                     0.051     35.427    37.854 
 C                     1.023     34.675    38.818 
 C                    -0.65      36.631    38.439 
 C                    -1.77      36.397    39.492 
 C                    -1.729     37.395    40.781 
 C                    -1.454     36.6      42.108 
 C                    -2.534     36.95     43.149 
 C                    -0.008     36.811    42.638 
 C                     0.502     35.633    43.537 
 C                     0.883     35.946    45.025 
 C                     2.176     35.252    45.423 
 C                     2.18      34.82     46.907 
 C                     3.349     36.121    44.95 
 C                     4.641     35.371    44.762 
 C                     5.11      35.624    43.304 
 C                     5.387     34.303    42.566 
 C                     6.581     34.522    41.686 
 C                     4.121     33.908    41.727 
 H                    -0.519     37.13     29.488 
 H                    -2.044     37.203    23.368 
 H                    -4.934     31.572    23.94 
 H                    -3.19      33.893    31.844 
 H                    -0.528     34.949    31.439 
 H                    -2.834     36.131    32.416 
 H                    -2.36      36.923    30.961 
 H                    -1.189     36.745    32.42 
 H                    -0.386     32.985    31.87 
 H                    -1.367     31.747    31.179 
 H                    -2.212     31.114    33.189 
 H                    -2.623     32.762    33.647 
 H                    -0.255     40.169    27.919 
 H                     1.019     39.361    27.27 
 H                     0.499     38.755    28.769 
 H                     0.665     40.536    25.482 
 H                    -0.917     41.023    26.062 
 H                    -0.466     41.445    24.328 
 H                    -2.506     35.025    21.784 
 H                    -4.814     33.239    22.247 
 H                    -4.509     36.75     22.479 
 H                    -5.42      35.442    21.583 
 H                    -4.086     36.406    20.884 
 H                    -2.245     32.169    22.776 
 H                    -2.065     32.93     21.21 
 H                    -2.75      31.181    20.233 
 H                    -4.377     31.369    20.857 
 H                    -3.031     30.391    21.742 
 H                    -5.976     29.976    24.963 
 H                    -7.017     29.734    26.336 
 H                    -5.547     28.719    26.242 
 H                    -3.482     30.828    30.991 
 H                    -6.594     31.149    34.058 
 H                    -6.868     32.642    33.176 
 H                    -5.697     32.605    34.462 
 H                     1.253     33.954    35.69 
 H                     0.15      32.926    36.702 
 H                    -0.976     35.538    36.08 
 H                     0.748     34.711    39.873 
 H                     1.922     35.29     38.797 
 H                     1.217     33.698    38.376 
 H                    -1.07      37.182    37.597 
 H                     0.064     37.316    38.896 
 H                    -1.608     35.347    39.737 
 H                    -2.763     36.548    39.068 
 H                    -2.663     37.952    40.845 
 H                    -1.082     38.27     40.724 
 H                    -1.606     35.542    41.892 
 H                    -2.143     37.655    43.883 
 H                    -2.597     36.161    43.898 
 H                    -3.499     37.257    42.747 
 H                     0.04      37.778    43.139 
 H                     0.717     36.807    41.824 
 H                     1.364     35.225    43.01 
 H                    -0.297     34.897    43.617 
 H                    -0.018     35.578    45.515 
 H                     0.966     37.031    45.095 
 H                     2.269     34.324    44.859 
 H                     2.955     35.289    47.513 
 H                     2.268     33.735    46.953 
 H                     1.285     35.075    47.476 
 H                     3.574     36.775    45.792 
 H                     3.002     36.703    44.096 
 H                     4.533     34.289    44.838 
 H                     5.46      35.735    45.382 
 H                     5.977     36.264    43.467 
 H                     4.435     36.225    42.694 
 H                     5.649     33.58     43.34 
 H                     6.732     33.779    40.903 
 H                     7.446     34.513    42.351 
 H                     6.506     35.506    41.225 
 H                     3.936     32.964    42.239 
 H                     4.224     33.82     40.645 
 H                     3.228     34.454    42.032 
 
 ITRead=  0  0  0  0  0  0  0  0  0  0  0  0  0  0  0  0  0  0  0  0
 ITRead=  0  0  0  0  0  0  0  0  0  0  0  0  0  0  0  0  0  0  0  0
 ITRead=  0  0  0  0  0  0  0  0  0  0  0  0  0  0  0  0  0  0  0  0
 ITRead=  0  0  0  0  0  0  0  0  0  0  0  0  0  0  0  0  0  0  0  0
 ITRead=  0  0  0  0  0  0  0  0  0  0  0  0  0  0  0  0  0  0  0  0
 ITRead=  0  0  0  0  0  0  0  0  0  0  0  0  0  0  0  0  0  0  0  0
 ITRead=  0  0  0  0  0  0  0  0  0  0  0  0  0  0  0  0  0  0  0  0
 MicOpt= -1 -1 -1 -1 -1 -1 -1 -1 -1 -1 -1 -1 -1 -1 -1 -1 -1 -1 -1 -1
 MicOpt= -1 -1 -1 -1 -1 -1 -1 -1 -1 -1 -1 -1 -1 -1 -1 -1 -1 -1 -1 -1
 MicOpt= -1 -1 -1 -1 -1 -1 -1 -1 -1 -1 -1 -1 -1 -1 -1 -1 -1 -1 -1 -1
 MicOpt= -1 -1 -1 -1 -1 -1 -1 -1 -1 -1 -1 -1 -1 -1 -1 -1 -1 -1 -1 -1
 MicOpt= -1 -1 -1 -1 -1 -1 -1 -1 -1 -1 -1 -1 -1 -1 -1 -1 -1 -1 -1 -1
 MicOpt= -1 -1 -1 -1 -1 -1 -1 -1 -1 -1 -1 -1 -1 -1 -1 -1 -1 -1 -1 -1
 MicOpt= -1 -1 -1 -1 -1 -1 -1 -1 -1 -1 -1 -1 -1 -1 -1 -1 -1 -1 -1 -1
 NAtoms=    140 NQM=      140 NQMF=       0 NMMI=      0 NMMIF=      0
                NMic=       0 NMicF=      0.
                    Isotopes and Nuclear Properties:
 (Nuclear quadrupole moments (NQMom) in fm**2, nuclear magnetic moments (NMagM)
  in nuclear magnetons)

  Atom         1           2           3           4           5           6           7           8           9          10
 IAtWgt=          24          12          12          12          12          14          12          12          12          12
 AtmWgt=  23.9850450  12.0000000  12.0000000  12.0000000  12.0000000  14.0030740  12.0000000  12.0000000  12.0000000  12.0000000
 NucSpn=           0           0           0           0           0           2           0           0           0           0
 AtZEff=  -0.0000000  -0.0000000  -0.0000000  -0.0000000  -0.0000000  -0.0000000  -0.0000000  -0.0000000  -0.0000000  -0.0000000
 NQMom=    0.0000000   0.0000000   0.0000000   0.0000000   0.0000000   2.0440000   0.0000000   0.0000000   0.0000000   0.0000000
 NMagM=    0.0000000   0.0000000   0.0000000   0.0000000   0.0000000   0.4037610   0.0000000   0.0000000   0.0000000   0.0000000
 AtZNuc=  12.0000000   6.0000000   6.0000000   6.0000000   6.0000000   7.0000000   6.0000000   6.0000000   6.0000000   6.0000000

  Atom        11          12          13          14          15          16          17          18          19          20
 IAtWgt=          12          12          12          12          16          16          14          12          12          12
 AtmWgt=  12.0000000  12.0000000  12.0000000  12.0000000  15.9949146  15.9949146  14.0030740  12.0000000  12.0000000  12.0000000
 NucSpn=           0           0           0           0           0           0           2           0           0           0
 AtZEff=  -0.0000000  -0.0000000  -0.0000000  -0.0000000  -0.0000000  -0.0000000  -0.0000000  -0.0000000  -0.0000000  -0.0000000
 NQMom=    0.0000000   0.0000000   0.0000000   0.0000000   0.0000000   0.0000000   2.0440000   0.0000000   0.0000000   0.0000000
 NMagM=    0.0000000   0.0000000   0.0000000   0.0000000   0.0000000   0.0000000   0.4037610   0.0000000   0.0000000   0.0000000
 AtZNuc=   6.0000000   6.0000000   6.0000000   6.0000000   8.0000000   8.0000000   7.0000000   6.0000000   6.0000000   6.0000000

  Atom        21          22          23          24          25          26          27          28          29          30
 IAtWgt=          12          12          12          16          12          14          12          12          12          12
 AtmWgt=  12.0000000  12.0000000  12.0000000  15.9949146  12.0000000  14.0030740  12.0000000  12.0000000  12.0000000  12.0000000
 NucSpn=           0           0           0           0           0           2           0           0           0           0
 AtZEff=  -0.0000000  -0.0000000  -0.0000000  -0.0000000  -0.0000000  -0.0000000  -0.0000000  -0.0000000  -0.0000000  -0.0000000
 NQMom=    0.0000000   0.0000000   0.0000000   0.0000000   0.0000000   2.0440000   0.0000000   0.0000000   0.0000000   0.0000000
 NMagM=    0.0000000   0.0000000   0.0000000   0.0000000   0.0000000   0.4037610   0.0000000   0.0000000   0.0000000   0.0000000
 AtZNuc=   6.0000000   6.0000000   6.0000000   8.0000000   6.0000000   7.0000000   6.0000000   6.0000000   6.0000000   6.0000000

  Atom        31          32          33          34          35          36          37          38          39          40
 IAtWgt=          12          12          12          14          12          12          12          12          12          12
 AtmWgt=  12.0000000  12.0000000  12.0000000  14.0030740  12.0000000  12.0000000  12.0000000  12.0000000  12.0000000  12.0000000
 NucSpn=           0           0           0           2           0           0           0           0           0           0
 AtZEff=  -0.0000000  -0.0000000  -0.0000000  -0.0000000  -0.0000000  -0.0000000  -0.0000000  -0.0000000  -0.0000000  -0.0000000
 NQMom=    0.0000000   0.0000000   0.0000000   2.0440000   0.0000000   0.0000000   0.0000000   0.0000000   0.0000000   0.0000000
 NMagM=    0.0000000   0.0000000   0.0000000   0.4037610   0.0000000   0.0000000   0.0000000   0.0000000   0.0000000   0.0000000
 AtZNuc=   6.0000000   6.0000000   6.0000000   7.0000000   6.0000000   6.0000000   6.0000000   6.0000000   6.0000000   6.0000000

  Atom        41          42          43          44          45          46          47          48          49          50
 IAtWgt=          16          12          12          16          16          12          12          12          12          12
 AtmWgt=  15.9949146  12.0000000  12.0000000  15.9949146  15.9949146  12.0000000  12.0000000  12.0000000  12.0000000  12.0000000
 NucSpn=           0           0           0           0           0           0           0           0           0           0
 AtZEff=  -0.0000000  -0.0000000  -0.0000000  -0.0000000  -0.0000000  -0.0000000  -0.0000000  -0.0000000  -0.0000000  -0.0000000
 NQMom=    0.0000000   0.0000000   0.0000000   0.0000000   0.0000000   0.0000000   0.0000000   0.0000000   0.0000000   0.0000000
 NMagM=    0.0000000   0.0000000   0.0000000   0.0000000   0.0000000   0.0000000   0.0000000   0.0000000   0.0000000   0.0000000
 AtZNuc=   8.0000000   6.0000000   6.0000000   8.0000000   8.0000000   6.0000000   6.0000000   6.0000000   6.0000000   6.0000000

  Atom        51          52          53          54          55          56          57          58          59          60
 IAtWgt=          12          12          12          12          12          12          12          12          12          12
 AtmWgt=  12.0000000  12.0000000  12.0000000  12.0000000  12.0000000  12.0000000  12.0000000  12.0000000  12.0000000  12.0000000
 NucSpn=           0           0           0           0           0           0           0           0           0           0
 AtZEff=  -0.0000000  -0.0000000  -0.0000000  -0.0000000  -0.0000000  -0.0000000  -0.0000000  -0.0000000  -0.0000000  -0.0000000
 NQMom=    0.0000000   0.0000000   0.0000000   0.0000000   0.0000000   0.0000000   0.0000000   0.0000000   0.0000000   0.0000000
 NMagM=    0.0000000   0.0000000   0.0000000   0.0000000   0.0000000   0.0000000   0.0000000   0.0000000   0.0000000   0.0000000
 AtZNuc=   6.0000000   6.0000000   6.0000000   6.0000000   6.0000000   6.0000000   6.0000000   6.0000000   6.0000000   6.0000000

  Atom        61          62          63          64          65          66          67          68          69          70
 IAtWgt=          12          12          12          12          12          12           1           1           1           1
 AtmWgt=  12.0000000  12.0000000  12.0000000  12.0000000  12.0000000  12.0000000   1.0078250   1.0078250   1.0078250   1.0078250
 NucSpn=           0           0           0           0           0           0           1           1           1           1
 AtZEff=  -0.0000000  -0.0000000  -0.0000000  -0.0000000  -0.0000000  -0.0000000  -0.0000000  -0.0000000  -0.0000000  -0.0000000
 NQMom=    0.0000000   0.0000000   0.0000000   0.0000000   0.0000000   0.0000000   0.0000000   0.0000000   0.0000000   0.0000000
 NMagM=    0.0000000   0.0000000   0.0000000   0.0000000   0.0000000   0.0000000   2.7928460   2.7928460   2.7928460   2.7928460
 AtZNuc=   6.0000000   6.0000000   6.0000000   6.0000000   6.0000000   6.0000000   1.0000000   1.0000000   1.0000000   1.0000000

  Atom        71          72          73          74          75          76          77          78          79          80
 IAtWgt=           1           1           1           1           1           1           1           1           1           1
 AtmWgt=   1.0078250   1.0078250   1.0078250   1.0078250   1.0078250   1.0078250   1.0078250   1.0078250   1.0078250   1.0078250
 NucSpn=           1           1           1           1           1           1           1           1           1           1
 AtZEff=  -0.0000000  -0.0000000  -0.0000000  -0.0000000  -0.0000000  -0.0000000  -0.0000000  -0.0000000  -0.0000000  -0.0000000
 NQMom=    0.0000000   0.0000000   0.0000000   0.0000000   0.0000000   0.0000000   0.0000000   0.0000000   0.0000000   0.0000000
 NMagM=    2.7928460   2.7928460   2.7928460   2.7928460   2.7928460   2.7928460   2.7928460   2.7928460   2.7928460   2.7928460
 AtZNuc=   1.0000000   1.0000000   1.0000000   1.0000000   1.0000000   1.0000000   1.0000000   1.0000000   1.0000000   1.0000000

  Atom        81          82          83          84          85          86          87          88          89          90
 IAtWgt=           1           1           1           1           1           1           1           1           1           1
 AtmWgt=   1.0078250   1.0078250   1.0078250   1.0078250   1.0078250   1.0078250   1.0078250   1.0078250   1.0078250   1.0078250
 NucSpn=           1           1           1           1           1           1           1           1           1           1
 AtZEff=  -0.0000000  -0.0000000  -0.0000000  -0.0000000  -0.0000000  -0.0000000  -0.0000000  -0.0000000  -0.0000000  -0.0000000
 NQMom=    0.0000000   0.0000000   0.0000000   0.0000000   0.0000000   0.0000000   0.0000000   0.0000000   0.0000000   0.0000000
 NMagM=    2.7928460   2.7928460   2.7928460   2.7928460   2.7928460   2.7928460   2.7928460   2.7928460   2.7928460   2.7928460
 AtZNuc=   1.0000000   1.0000000   1.0000000   1.0000000   1.0000000   1.0000000   1.0000000   1.0000000   1.0000000   1.0000000

  Atom        91          92          93          94          95          96          97          98          99         100
 IAtWgt=           1           1           1           1           1           1           1           1           1           1
 AtmWgt=   1.0078250   1.0078250   1.0078250   1.0078250   1.0078250   1.0078250   1.0078250   1.0078250   1.0078250   1.0078250
 NucSpn=           1           1           1           1           1           1           1           1           1           1
 AtZEff=  -0.0000000  -0.0000000  -0.0000000  -0.0000000  -0.0000000  -0.0000000  -0.0000000  -0.0000000  -0.0000000  -0.0000000
 NQMom=    0.0000000   0.0000000   0.0000000   0.0000000   0.0000000   0.0000000   0.0000000   0.0000000   0.0000000   0.0000000
 NMagM=    2.7928460   2.7928460   2.7928460   2.7928460   2.7928460   2.7928460   2.7928460   2.7928460   2.7928460   2.7928460
 AtZNuc=   1.0000000   1.0000000   1.0000000   1.0000000   1.0000000   1.0000000   1.0000000   1.0000000   1.0000000   1.0000000

  Atom       101         102         103         104         105         106         107         108         109         110
 IAtWgt=           1           1           1           1           1           1           1           1           1           1
 AtmWgt=   1.0078250   1.0078250   1.0078250   1.0078250   1.0078250   1.0078250   1.0078250   1.0078250   1.0078250   1.0078250
 NucSpn=           1           1           1           1           1           1           1           1           1           1
 AtZEff=  -0.0000000  -0.0000000  -0.0000000  -0.0000000  -0.0000000  -0.0000000  -0.0000000  -0.0000000  -0.0000000  -0.0000000
 NQMom=    0.0000000   0.0000000   0.0000000   0.0000000   0.0000000   0.0000000   0.0000000   0.0000000   0.0000000   0.0000000
 NMagM=    2.7928460   2.7928460   2.7928460   2.7928460   2.7928460   2.7928460   2.7928460   2.7928460   2.7928460   2.7928460
 AtZNuc=   1.0000000   1.0000000   1.0000000   1.0000000   1.0000000   1.0000000   1.0000000   1.0000000   1.0000000   1.0000000

  Atom       111         112         113         114         115         116         117         118         119         120
 IAtWgt=           1           1           1           1           1           1           1           1           1           1
 AtmWgt=   1.0078250   1.0078250   1.0078250   1.0078250   1.0078250   1.0078250   1.0078250   1.0078250   1.0078250   1.0078250
 NucSpn=           1           1           1           1           1           1           1           1           1           1
 AtZEff=  -0.0000000  -0.0000000  -0.0000000  -0.0000000  -0.0000000  -0.0000000  -0.0000000  -0.0000000  -0.0000000  -0.0000000
 NQMom=    0.0000000   0.0000000   0.0000000   0.0000000   0.0000000   0.0000000   0.0000000   0.0000000   0.0000000   0.0000000
 NMagM=    2.7928460   2.7928460   2.7928460   2.7928460   2.7928460   2.7928460   2.7928460   2.7928460   2.7928460   2.7928460
 AtZNuc=   1.0000000   1.0000000   1.0000000   1.0000000   1.0000000   1.0000000   1.0000000   1.0000000   1.0000000   1.0000000

  Atom       121         122         123         124         125         126         127         128         129         130
 IAtWgt=           1           1           1           1           1           1           1           1           1           1
 AtmWgt=   1.0078250   1.0078250   1.0078250   1.0078250   1.0078250   1.0078250   1.0078250   1.0078250   1.0078250   1.0078250
 NucSpn=           1           1           1           1           1           1           1           1           1           1
 AtZEff=  -0.0000000  -0.0000000  -0.0000000  -0.0000000  -0.0000000  -0.0000000  -0.0000000  -0.0000000  -0.0000000  -0.0000000
 NQMom=    0.0000000   0.0000000   0.0000000   0.0000000   0.0000000   0.0000000   0.0000000   0.0000000   0.0000000   0.0000000
 NMagM=    2.7928460   2.7928460   2.7928460   2.7928460   2.7928460   2.7928460   2.7928460   2.7928460   2.7928460   2.7928460
 AtZNuc=   1.0000000   1.0000000   1.0000000   1.0000000   1.0000000   1.0000000   1.0000000   1.0000000   1.0000000   1.0000000

  Atom       131         132         133         134         135         136         137         138         139         140
 IAtWgt=           1           1           1           1           1           1           1           1           1           1
 AtmWgt=   1.0078250   1.0078250   1.0078250   1.0078250   1.0078250   1.0078250   1.0078250   1.0078250   1.0078250   1.0078250
 NucSpn=           1           1           1           1           1           1           1           1           1           1
 AtZEff=  -0.0000000  -0.0000000  -0.0000000  -0.0000000  -0.0000000  -0.0000000  -0.0000000  -0.0000000  -0.0000000  -0.0000000
 NQMom=    0.0000000   0.0000000   0.0000000   0.0000000   0.0000000   0.0000000   0.0000000   0.0000000   0.0000000   0.0000000
 NMagM=    2.7928460   2.7928460   2.7928460   2.7928460   2.7928460   2.7928460   2.7928460   2.7928460   2.7928460   2.7928460
 AtZNuc=   1.0000000   1.0000000   1.0000000   1.0000000   1.0000000   1.0000000   1.0000000   1.0000000   1.0000000   1.0000000
 Leave Link  101 at Wed May  4 18:33:29 2022, MaxMem= 10066329600 cpu:               4.9 elap:               0.2
 (Enter /sw/apps/gaussian-16.0/g16/l202.exe)
 Stoichiometry    C55H74MgN4O6
 Framework group  C1[X(C55H74MgN4O6)]
 Deg. of freedom   414
 Full point group                 C1      NOp   1
 Largest Abelian subgroup         C1      NOp   1
 Largest concise Abelian subgroup C1      NOp   1
                         Standard orientation:                         
 ---------------------------------------------------------------------
 Center     Atomic      Atomic             Coordinates (Angstroms)
 Number     Number       Type             X           Y           Z
 ---------------------------------------------------------------------
      1         12           0        5.745649    0.463586    0.391074
      2          6           0        3.523430   -2.353672    0.069224
      3          6           0        3.165577    2.515322   -0.146892
      4          6           0        7.987013    2.890660   -0.171374
      5          6           0        8.377871   -1.853770    0.465395
      6          7           0        3.644190    0.103010   -0.039813
      7          6           0        2.902372   -1.086132    0.062847
      8          6           0        1.352474   -0.800340    0.036435
      9          6           0        1.299968    0.751632   -0.098432
     10          6           0        2.793505    1.168780   -0.037355
     11          6           0        0.605067    1.318045   -1.310574
     12          6           0        0.578179   -1.418486    1.320021
     13          6           0       -0.626988   -2.307957    0.990530
     14          6           0       -1.980140   -1.811396    1.622799
     15          8           0       -2.495123   -2.268315    2.679907
     16          8           0       -2.508764   -0.879403    0.823583
     17          7           0        5.588175    2.473324    0.041718
     18          6           0        4.454588    3.152618   -0.160089
     19          6           0        4.714686    4.568762   -0.424631
     20          6           0        6.147308    4.639597   -0.522196
     21          6           0        6.653686    3.294966   -0.227858
     22          6           0        3.653138    5.570851   -0.583260
     23          6           0        6.923968    5.917397   -0.970353
     24          8           0        8.142739    5.962641   -0.980022
     25          6           0        6.236266    7.176443   -1.392541
     26          7           0        7.808584    0.489534    0.190882
     27          6           0        8.531825    1.672568    0.083467
     28          6           0       10.070356    1.395458    0.131569
     29          6           0       10.140993   -0.076572    0.685165
     30          6           0        8.687994   -0.511755    0.496024
     31          6           0       10.909815    1.712763   -1.148680
     32          6           0       10.573289   -0.176501    2.173725
     33          6           0       11.494076   -1.296903    2.586724
     34          7           0        5.954333   -1.664401    0.239435
     35          6           0        7.079351   -2.437730    0.286972
     36          6           0        6.658879   -3.906040    0.332745
     37          6           0        5.285297   -3.912216    0.301666
     38          6           0        4.903348   -2.532729    0.173616
     39          6           0        7.649919   -5.034842    0.503299
     40          6           0        4.074413   -4.713461    0.285416
     41          8           0        4.059915   -5.960631    0.347541
     42          6           0        2.809216   -3.697133    0.027966
     43          6           0        2.113259   -3.874798   -1.305310
     44          8           0        2.757626   -3.838485   -2.372234
     45          8           0        0.776229   -4.249160   -1.165254
     46          6           0        0.231007   -4.822114   -2.390413
     47          6           0       -3.825943   -0.465961    1.168639
     48          6           0       -4.448816    0.095115   -0.080617
     49          6           0       -5.719661    0.430375   -0.336063
     50          6           0       -6.865551    0.155933    0.689218
     51          6           0       -6.162376    0.894075   -1.704357
     52          6           0       -6.850085   -0.132878   -2.647961
     53          6           0       -8.159660    0.425335   -3.443334
     54          6           0       -9.459415   -0.343946   -3.010410
     55          6           0      -10.182657   -0.874586   -4.262578
     56          6           0      -10.378749    0.511712   -2.094435
     57          6           0      -11.308884   -0.347684   -1.171248
     58          6           0      -12.860649   -0.197320   -1.334617
     59          6           0      -13.555394   -0.129296    0.016157
     60          6           0      -14.953626   -0.787564   -0.006812
     61          6           0      -13.477924    1.318065    0.520102
     62          6           0      -13.606712    1.463304    2.013229
     63          6           0      -12.352508    2.232045    2.508953
     64          6           0      -11.639131    1.472407    3.640526
     65          6           0      -11.136836    2.491689    4.618668
     66          6           0      -10.461498    0.632116    3.032419
     67          1           0        2.358635    3.248171   -0.208639
     68          1           0        8.645382    3.751777   -0.301042
     69          1           0        9.239185   -2.508887    0.614888
     70          1           0        1.032822   -1.332435   -0.859340
     71          1           0        0.623865    1.071857    0.695504
     72          1           0        0.247970    0.551467   -1.998412
     73          1           0        1.464656    1.757742   -1.815276
     74          1           0       -0.246324    1.952691   -1.062848
     75          1           0        0.292493   -0.526939    1.877564
     76          1           0        1.301748   -1.922302    1.960342
     77          1           0       -0.355166   -3.320979    1.287177
     78          1           0       -0.783219   -2.312221   -0.088966
     79          1           0        3.603797    6.177859   -1.486715
     80          1           0        3.925836    6.363095    0.113009
     81          1           0        2.668111    5.272500   -0.223691
     82          1           0        5.666170    7.492596   -0.518140
     83          1           0        5.514877    6.892889   -2.159406
     84          1           0        7.028406    7.846169   -1.724977
     85          1           0       10.426635    2.070381    0.909838
     86          1           0       10.727606   -0.740804    0.050952
     87          1           0       10.204428    2.214718   -1.810539
     88          1           0       11.395428    0.844394   -1.592977
     89          1           0       11.639573    2.504615   -0.975310
     90          1           0        9.579334   -0.301192    2.602954
     91          1           0       10.985314    0.741404    2.593489
     92          1           0       12.219069   -0.843681    3.262900
     93          1           0       12.056394   -1.718945    1.753165
     94          1           0       10.897352   -1.953370    3.220508
     95          1           0        8.642856   -4.586819    0.536801
     96          1           0        7.626889   -5.643891   -0.400101
     97          1           0        7.375298   -5.634410    1.370936
     98          1           0        2.120704   -3.790163    0.867850
     99          1           0        0.014481   -5.888721   -2.349906
    100          1           0        0.843938   -4.648444   -3.274980
    101          1           0       -0.709763   -4.303281   -2.572639
    102          1           0       -3.883238    0.356763    1.881946
    103          1           0       -4.487286   -1.293622    1.424900
    104          1           0       -3.741942    0.326738   -0.876447
    105          1           0       -7.804314   -0.187903    0.252815
    106          1           0       -7.130686    1.152315    1.041061
    107          1           0       -6.434561   -0.433665    1.498012
    108          1           0       -5.272994    1.284581   -2.199805
    109          1           0       -6.839541    1.744772   -1.629308
    110          1           0       -7.064913   -0.943276   -1.950915
    111          1           0       -6.179418   -0.468845   -3.439135
    112          1           0       -7.998482    0.347404   -4.517880
    113          1           0       -8.336972    1.500503   -3.435700
    114          1           0       -9.145067   -1.236993   -2.469322
    115          1           0      -11.037956   -0.243785   -4.505919
    116          1           0      -10.835244   -1.703867   -3.990705
    117          1           0       -9.550428   -1.073730   -5.127277
    118          1           0      -10.932307    1.214142   -2.717780
    119          1           0       -9.796985    1.078673   -1.367563
    120          1           0      -11.015234   -0.091861   -0.153623
    121          1           0      -11.120400   -1.399115   -1.384469
    122          1           0      -13.060180   -1.093719   -1.921117
    123          1           0      -13.017604    0.710179   -1.918420
    124          1           0      -12.982591   -0.709335    0.739607
    125          1           0      -15.777198   -0.109031    0.214875
    126          1           0      -14.955009   -1.625224    0.689901
    127          1           0      -15.269051   -1.193974   -0.968659
    128          1           0      -14.388025    1.793566    0.155520
    129          1           0      -12.599025    1.776341    0.066264
    130          1           0      -13.583141    0.513813    2.548089
    131          1           0      -14.449341    2.078313    2.328503
    132          1           0      -12.786916    3.192374    2.786288
    133          1           0      -11.618645    2.473789    1.739583
    134          1           0      -12.409189    0.870204    4.125100
    135          1           0      -10.381291    2.139010    5.320600
    136          1           0      -12.012274    2.821276    5.180371
    137          1           0      -10.734633    3.342030    4.069528
    138          1           0      -10.843571   -0.339827    3.343632
    139          1           0       -9.446302    0.844876    3.368852
    140          1           0      -10.542143    0.517295    1.951261
 ---------------------------------------------------------------------
 Rotational constants (GHZ):           0.0524732           0.0091611           0.0084240
 Leave Link  202 at Wed May  4 18:33:30 2022, MaxMem= 10066329600 cpu:               0.9 elap:               0.1
 (Enter /sw/apps/gaussian-16.0/g16/l301.exe)
 Standard basis: def2SVP (5D, 7F)
 Ernie: Thresh=  0.10000D-02 Tol=  0.10000D-05 Strict=F.
 There are  1364 symmetry adapted cartesian basis functions of A   symmetry.
 There are  1298 symmetry adapted basis functions of A   symmetry.
  1298 basis functions,  2180 primitive gaussians,  1364 cartesian basis functions
   246 alpha electrons      246 beta electrons
       nuclear repulsion energy      9495.5295411115 Hartrees.
 IExCor=  402 DFT=T Ex=B Corr=LYP ExCW=0 ScaHFX=  0.000000
 ScaDFX=  1.000000  1.000000  1.000000  1.000000 ScalE2=  1.000000  1.000000
 IRadAn=      5 IRanWt=     -1 IRanGd=            0 ICorTp=0 IEmpDi=  4
 NAtoms=  140 NActive=  140 NUniq=  140 SFac= 1.00D+00 NAtFMM=   60 NAOKFM=T Big=T
 Integral buffers will be    131072 words long.
 Regular integral format.
 Two-electron integral symmetry is turned on.
 Leave Link  301 at Wed May  4 18:33:30 2022, MaxMem= 10066329600 cpu:               2.5 elap:               0.1
 (Enter /sw/apps/gaussian-16.0/g16/l302.exe)
 NPDir=0 NMtPBC=     1 NCelOv=     1 NCel=       1 NClECP=     1 NCelD=      1
         NCelK=      1 NCelE2=     1 NClLst=     1 CellRange=     0.0.
 One-electron integrals computed using PRISM.
 One-electron integral symmetry used in STVInt
   1 Symmetry operations used in ECPInt.
 ECPInt:  NShTT=  192510 NPrTT=  683786 LenC2=   93574 LenP2D=  206183.
 LDataN:  DoStor=T MaxTD1= 4 Len=   56
 NBasis=  1298 RedAO= T EigKep=  2.93D-04  NBF=  1298
 NBsUse=  1298 1.00D-06 EigRej= -1.00D+00 NBFU=  1298
 Precomputing XC quadrature grid using
 IXCGrd= 4 IRadAn=           5 IRanWt=          -1 IRanGd=           0 AccXCQ= 0.00D+00.
 Generated NRdTot=       0 NPtTot=           0 NUsed=           0 NTot=          32
 NSgBfM=  1042  1033  1034  1038  1042 MxSgAt=   140 MxSgA2=   140.
 Leave Link  302 at Wed May  4 18:33:34 2022, MaxMem= 10066329600 cpu:              94.7 elap:               4.0
 (Enter /sw/apps/gaussian-16.0/g16/l303.exe)
 DipDrv:  MaxL=1.
 Leave Link  303 at Wed May  4 18:33:34 2022, MaxMem= 10066329600 cpu:               7.2 elap:               0.3
 (Enter /sw/apps/gaussian-16.0/g16/l308.exe)
 Leave Link  308 at Wed May  4 18:33:34 2022, MaxMem= 10066329600 cpu:               8.6 elap:               0.4
 (Enter /sw/apps/gaussian-16.0/g16/l401.exe)
 ExpMin= 3.36D-02 ExpMax= 4.95D+03 ExpMxC= 7.45D+02 IAcc=3 IRadAn=         5 AccDes= 0.00D+00
 Harris functional with IExCor=  402 and IRadAn=       5 diagonalized for initial guess.
 HarFok:  IExCor=  402 AccDes= 0.00D+00 IRadAn=         5 IDoV= 1 UseB2=F ITyADJ=14
 ICtDFT=  3500011 ScaDFX=  1.000000  1.000000  1.000000  1.000000
 FoFCou: FMM=F IPFlag=           0 FMFlag=      100000 FMFlg1=        2001
         NFxFlg=           0 DoJE=T BraDBF=F KetDBF=T FulRan=T
         wScrn=  0.000000 ICntrl=       500 IOpCl=  0 I1Cent=   200000004 NGrid=           0
         NMat0=    1 NMatS0=      1 NMatT0=    0 NMatD0=    1 NMtDS0=    0 NMtDT0=    0
 Petite list used in FoFCou.
 Harris En= -3008.75129267399    
 JPrj=0 DoOrth=F DoCkMO=F.
 Leave Link  401 at Wed May  4 18:33:41 2022, MaxMem= 10066329600 cpu:             167.5 elap:               7.0
 (Enter /sw/apps/gaussian-16.0/g16/l502.exe)
 Integral symmetry usage will be decided dynamically.
 Closed shell SCF:
 Using DIIS extrapolation, IDIIS=  1040.
 NGot= 10066329600 LenX= 10062561258 LenY= 10060699398
 Requested convergence on RMS density matrix=1.00D-08 within 128 cycles.
 Requested convergence on MAX density matrix=1.00D-06.
 Requested convergence on             energy=1.00D-06.
 No special actions if energy rises.
 Fock matrices will be formed incrementally for  20 cycles.

 Cycle   1  Pass 1  IDiag  1:
 FoFJK:  IHMeth= 1 ICntrl=     500 DoSepK=F KAlg= 0 I1Cent=           0 FoldK=F
 IRaf= 520000000 NMat=       1 IRICut=       1 DoRegI=T DoRafI=F ISym2E= 0 IDoP0=0 IntGTp=1.
 FoFCou: FMM=T IPFlag=           0 FMFlag=      100000 FMFlg1=        2001
         NFxFlg=           0 DoJE=T BraDBF=F KetDBF=F FulRan=T
         wScrn=  0.000000 ICntrl=       500 IOpCl=  0 I1Cent=           0 NGrid=           0
         NMat0=    1 NMatS0=      1 NMatT0=    0 NMatD0=    1 NMtDS0=    0 NMtDT0=    0
 Symmetry not used in FoFCou.
 FMM levels:  10  Number of levels for PrismC:   9
 E= -3005.63192218030    
 DIIS: error= 2.15D-02 at cycle   1 NSaved=   1.
 NSaved= 1 IEnMin= 1 EnMin= -3005.63192218030     IErMin= 1 ErrMin= 2.15D-02
 ErrMax= 2.15D-02  0.00D+00 EMaxC= 1.00D-01 BMatC= 1.57D+00 BMatP= 1.57D+00
 IDIUse=3 WtCom= 7.85D-01 WtEn= 2.15D-01
 Coeff-Com:  0.100D+01
 Coeff-En:   0.100D+01
 Coeff:      0.100D+01
 Gap=     0.056 Goal=   None    Shift=    0.000
 GapD=    0.056 DampG=0.500 DampE=0.500 DampFc=0.2500 IDamp=-1.
 Damping current iteration by 2.50D-01
 RMSDP=3.99D-03 MaxDP=1.15D+00              OVMax= 9.12D-01

 Cycle   2  Pass 1  IDiag  1:
 RMSU=  9.92D-04    CP:  9.90D-01
 E= -3006.11365927253     Delta-E=       -0.481737092228 Rises=F Damp=T
 DIIS: error= 8.03D-03 at cycle   2 NSaved=   2.
 NSaved= 2 IEnMin= 2 EnMin= -3006.11365927253     IErMin= 2 ErrMin= 8.03D-03
 ErrMax= 8.03D-03  0.00D+00 EMaxC= 1.00D-01 BMatC= 2.62D-01 BMatP= 1.57D+00
 IDIUse=3 WtCom= 9.20D-01 WtEn= 8.03D-02
 Coeff-Com: -0.247D+00 0.125D+01
 Coeff-En:   0.129D+00 0.871D+00
 Coeff:     -0.217D+00 0.122D+01
 Gap=     0.038 Goal=   None    Shift=    0.000
 RMSDP=1.70D-03 MaxDP=2.85D-01 DE=-4.82D-01 OVMax= 5.77D-01

 Cycle   3  Pass 1  IDiag  1:
 RMSU=  1.67D-03    CP:  9.63D-01  1.13D+00
 E= -3004.58531488512     Delta-E=        1.528344387412 Rises=F Damp=F
 DIIS: error= 4.80D-02 at cycle   3 NSaved=   3.
 NSaved= 3 IEnMin= 2 EnMin= -3006.11365927253     IErMin= 2 ErrMin= 8.03D-03
 ErrMax= 4.80D-02  0.00D+00 EMaxC= 1.00D-01 BMatC= 1.93D+00 BMatP= 2.62D-01
 IDIUse=2 WtCom= 0.00D+00 WtEn= 1.00D+00
 Coeff-En:   0.000D+00 0.729D+00 0.271D+00
 Coeff:      0.000D+00 0.729D+00 0.271D+00
 Gap=     0.007 Goal=   None    Shift=    0.000
 RMSDP=2.14D-03 MaxDP=4.48D-01 DE= 1.53D+00 OVMax= 7.22D-01

 Cycle   4  Pass 1  IDiag  1:
 RMSU=  1.08D-03    CP:  9.70D-01  1.90D+00 -1.97D-03
 E= -3004.97254245992     Delta-E=       -0.387227574804 Rises=F Damp=F
 DIIS: error= 4.40D-02 at cycle   4 NSaved=   4.
 NSaved= 4 IEnMin= 2 EnMin= -3006.11365927253     IErMin= 2 ErrMin= 8.03D-03
 ErrMax= 4.40D-02  0.00D+00 EMaxC= 1.00D-01 BMatC= 1.40D+00 BMatP= 2.62D-01
 IDIUse=2 WtCom= 0.00D+00 WtEn= 1.00D+00
 EnCoef did     2 forward-backward iterations
 Coeff-En:   0.134D+00 0.000D+00 0.402D+00 0.463D+00
 Coeff:      0.134D+00 0.000D+00 0.402D+00 0.463D+00
 Gap=     0.067 Goal=   None    Shift=    0.000
 RMSDP=1.51D-03 MaxDP=3.41D-01 DE=-3.87D-01 OVMax= 6.99D-01

 Cycle   5  Pass 1  IDiag  1:
 RMSU=  7.58D-04    CP:  9.80D-01  1.20D+00  1.23D-01 -8.84D-04
 E= -3006.98523487011     Delta-E=       -2.012692410193 Rises=F Damp=F
 DIIS: error= 2.37D-02 at cycle   5 NSaved=   5.
 NSaved= 5 IEnMin= 5 EnMin= -3006.98523487011     IErMin= 2 ErrMin= 8.03D-03
 ErrMax= 2.37D-02  0.00D+00 EMaxC= 1.00D-01 BMatC= 3.72D-01 BMatP= 2.62D-01
 IDIUse=2 WtCom= 0.00D+00 WtEn= 1.00D+00
 EnCoef did     7 forward-backward iterations
 Coeff-En:   0.000D+00 0.000D+00 0.129D+00 0.204D+00 0.667D+00
 Coeff:      0.000D+00 0.000D+00 0.129D+00 0.204D+00 0.667D+00
 Gap=     0.188 Goal=   None    Shift=    0.000
 RMSDP=1.53D-03 MaxDP=2.46D-01 DE=-2.01D+00 OVMax= 5.88D-01

 Cycle   6  Pass 1  IDiag  1:
 RMSU=  1.10D-03    CP:  9.73D-01  7.98D-01  3.54D-01  2.94D-01 -1.12D-01
 E= -3006.23892666316     Delta-E=        0.746308206952 Rises=F Damp=F
 DIIS: error= 4.57D-02 at cycle   6 NSaved=   6.
 NSaved= 6 IEnMin= 5 EnMin= -3006.98523487011     IErMin= 2 ErrMin= 8.03D-03
 ErrMax= 4.57D-02  0.00D+00 EMaxC= 1.00D-01 BMatC= 1.11D+00 BMatP= 2.62D-01
 IDIUse=2 WtCom= 0.00D+00 WtEn= 1.00D+00
 EnCoef did     3 forward-backward iterations
 Coeff-En:   0.000D+00 0.000D+00 0.000D+00 0.255D-01 0.670D+00 0.304D+00
 Coeff:      0.000D+00 0.000D+00 0.000D+00 0.255D-01 0.670D+00 0.304D+00
 Gap=     0.036 Goal=   None    Shift=    0.000
 RMSDP=1.01D-03 MaxDP=1.32D-01 DE= 7.46D-01 OVMax= 6.61D-01

 Cycle   7  Pass 1  IDiag  1:
 RMSU=  5.82D-04    CP:  9.76D-01  1.17D+00  2.05D-01  1.39D-01  5.42D-01
                    CP:  5.90D-01
 E= -3007.20693784812     Delta-E=       -0.968011184961 Rises=F Damp=F
 DIIS: error= 1.09D-02 at cycle   7 NSaved=   7.
 NSaved= 7 IEnMin= 7 EnMin= -3007.20693784812     IErMin= 2 ErrMin= 8.03D-03
 ErrMax= 1.09D-02  0.00D+00 EMaxC= 1.00D-01 BMatC= 1.47D-01 BMatP= 2.62D-01
 IDIUse=3 WtCom= 8.91D-01 WtEn= 1.09D-01
 EnCoef did     5 forward-backward iterations
 Coeff-Com: -0.148D-01 0.344D-01 0.271D-01 0.274D-01 0.435D+00 0.178D+00
 Coeff-Com:  0.313D+00
 Coeff-En:   0.000D+00 0.000D+00 0.000D+00 0.000D+00 0.335D+00 0.413D-01
 Coeff-En:   0.624D+00
 Coeff:     -0.132D-01 0.307D-01 0.241D-01 0.244D-01 0.424D+00 0.163D+00
 Coeff:      0.347D+00
 Gap=     0.076 Goal=   None    Shift=    0.000
 RMSDP=6.34D-04 MaxDP=7.90D-02 DE=-9.68D-01 OVMax= 3.75D-01

 Cycle   8  Pass 1  IDiag  1:
 RMSU=  3.47D-04    CP:  9.78D-01  1.12D+00  1.91D-01  1.63D-01  4.89D-01
                    CP:  4.96D-01  1.16D-01
 E= -3007.27766694371     Delta-E=       -0.070729095587 Rises=F Damp=F
 DIIS: error= 6.70D-03 at cycle   8 NSaved=   8.
 NSaved= 8 IEnMin= 8 EnMin= -3007.27766694371     IErMin= 8 ErrMin= 6.70D-03
 ErrMax= 6.70D-03  0.00D+00 EMaxC= 1.00D-01 BMatC= 5.05D-02 BMatP= 1.47D-01
 IDIUse=3 WtCom= 9.33D-01 WtEn= 6.70D-02
 EnCoef did     4 forward-backward iterations
 Coeff-Com:  0.185D-01-0.431D-02 0.967D-02-0.286D-02 0.230D+00 0.386D-01
 Coeff-Com:  0.366D+00 0.345D+00
 Coeff-En:   0.000D+00 0.000D+00 0.000D+00 0.000D+00 0.107D+00 0.000D+00
 Coeff-En:   0.352D+00 0.541D+00
 Coeff:      0.172D-01-0.402D-02 0.902D-02-0.267D-02 0.221D+00 0.360D-01
 Coeff:      0.365D+00 0.358D+00
 Gap=     0.034 Goal=   None    Shift=    0.000
 RMSDP=4.21D-04 MaxDP=4.08D-02 DE=-7.07D-02 OVMax= 3.56D-01

 Cycle   9  Pass 1  IDiag  1:
 RMSU=  1.47D-04    CP:  9.78D-01  1.11D+00  1.90D-01  8.52D-02  6.67D-01
                    CP:  4.23D-01  5.25D-01  2.57D-01
 E= -3007.34359623481     Delta-E=       -0.065929291104 Rises=F Damp=F
 DIIS: error= 2.28D-03 at cycle   9 NSaved=   9.
 NSaved= 9 IEnMin= 9 EnMin= -3007.34359623481     IErMin= 9 ErrMin= 2.28D-03
 ErrMax= 2.28D-03  0.00D+00 EMaxC= 1.00D-01 BMatC= 1.02D-02 BMatP= 5.05D-02
 IDIUse=3 WtCom= 9.77D-01 WtEn= 2.28D-02
 Coeff-Com:  0.221D-01-0.157D-01 0.348D-02-0.301D-02 0.892D-01-0.967D-02
 Coeff-Com:  0.231D+00 0.329D+00 0.353D+00
 Coeff-En:   0.000D+00 0.000D+00 0.000D+00 0.000D+00 0.000D+00 0.000D+00
 Coeff-En:   0.000D+00 0.230D+00 0.770D+00
 Coeff:      0.216D-01-0.153D-01 0.341D-02-0.294D-02 0.872D-01-0.945D-02
 Coeff:      0.226D+00 0.327D+00 0.363D+00
 Gap=     0.042 Goal=   None    Shift=    0.000
 RMSDP=1.50D-04 MaxDP=1.92D-02 DE=-6.59D-02 OVMax= 1.17D-01

 Cycle  10  Pass 1  IDiag  1:
 RMSU=  5.59D-05    CP:  9.78D-01  1.12D+00  1.78D-01  1.03D-01  6.24D-01
                    CP:  4.40D-01  4.61D-01  4.76D-01  3.26D-01
 E= -3007.35645771377     Delta-E=       -0.012861478954 Rises=F Damp=F
 DIIS: error= 5.51D-04 at cycle  10 NSaved=  10.
 NSaved=10 IEnMin=10 EnMin= -3007.35645771377     IErMin=10 ErrMin= 5.51D-04
 ErrMax= 5.51D-04  0.00D+00 EMaxC= 1.00D-01 BMatC= 1.06D-03 BMatP= 1.02D-02
 IDIUse=3 WtCom= 9.94D-01 WtEn= 5.51D-03
 Coeff-Com:  0.201D-01-0.266D-01 0.247D-02 0.780D-03 0.281D-01-0.146D-01
 Coeff-Com:  0.104D+00 0.178D+00 0.267D+00 0.440D+00
 Coeff-En:   0.000D+00 0.000D+00 0.000D+00 0.000D+00 0.000D+00 0.000D+00
 Coeff-En:   0.000D+00 0.000D+00 0.112D+00 0.888D+00
 Coeff:      0.200D-01-0.264D-01 0.246D-02 0.776D-03 0.280D-01-0.145D-01
 Coeff:      0.104D+00 0.177D+00 0.266D+00 0.443D+00
 Gap=     0.042 Goal=   None    Shift=    0.000
 RMSDP=4.65D-05 MaxDP=5.46D-03 DE=-1.29D-02 OVMax= 2.26D-02

 Cycle  11  Pass 1  IDiag  1:
 RMSU=  2.64D-05    CP:  9.78D-01  1.12D+00  1.80D-01  1.03D-01  6.28D-01
                    CP:  4.36D-01  4.64D-01  4.56D-01  4.91D-01  5.01D-01
 E= -3007.35738560245     Delta-E=       -0.000927888685 Rises=F Damp=F
 DIIS: error= 3.21D-04 at cycle  11 NSaved=  11.
 NSaved=11 IEnMin=11 EnMin= -3007.35738560245     IErMin=11 ErrMin= 3.21D-04
 ErrMax= 3.21D-04  0.00D+00 EMaxC= 1.00D-01 BMatC= 2.70D-04 BMatP= 1.06D-03
 IDIUse=3 WtCom= 9.97D-01 WtEn= 3.21D-03
 Coeff-Com:  0.110D-01-0.188D-01 0.179D-02 0.322D-03 0.452D-02-0.676D-02
 Coeff-Com:  0.260D-01 0.590D-01 0.116D+00 0.352D+00 0.455D+00
 Coeff-En:   0.000D+00 0.000D+00 0.000D+00 0.000D+00 0.000D+00 0.000D+00
 Coeff-En:   0.000D+00 0.000D+00 0.000D+00 0.232D+00 0.768D+00
 Coeff:      0.110D-01-0.188D-01 0.178D-02 0.321D-03 0.451D-02-0.673D-02
 Coeff:      0.259D-01 0.588D-01 0.115D+00 0.352D+00 0.456D+00
 Gap=     0.042 Goal=   None    Shift=    0.000
 RMSDP=2.37D-05 MaxDP=3.15D-03 DE=-9.28D-04 OVMax= 1.46D-02

 Cycle  12  Pass 1  IDiag  1:
 RMSU=  1.36D-05    CP:  9.78D-01  1.11D+00  1.83D-01  1.01D-01  6.27D-01
                    CP:  4.36D-01  4.65D-01  4.54D-01  4.60D-01  6.58D-01
                    CP:  4.14D-01
 E= -3007.35762035410     Delta-E=       -0.000234751644 Rises=F Damp=F
 DIIS: error= 1.51D-04 at cycle  12 NSaved=  12.
 NSaved=12 IEnMin=12 EnMin= -3007.35762035410     IErMin=12 ErrMin= 1.51D-04
 ErrMax= 1.51D-04  0.00D+00 EMaxC= 1.00D-01 BMatC= 7.31D-05 BMatP= 2.70D-04
 IDIUse=3 WtCom= 9.98D-01 WtEn= 1.51D-03
 Coeff-Com:  0.489D-02-0.100D-01 0.117D-02 0.976D-04 0.399D-04-0.149D-02
 Coeff-Com: -0.276D-03 0.137D-01 0.391D-01 0.197D+00 0.376D+00 0.380D+00
 Coeff-En:   0.000D+00 0.000D+00 0.000D+00 0.000D+00 0.000D+00 0.000D+00
 Coeff-En:   0.000D+00 0.000D+00 0.000D+00 0.000D+00 0.237D+00 0.763D+00
 Coeff:      0.488D-02-0.100D-01 0.117D-02 0.975D-04 0.398D-04-0.148D-02
 Coeff:     -0.276D-03 0.137D-01 0.391D-01 0.197D+00 0.376D+00 0.381D+00
 Gap=     0.042 Goal=   None    Shift=    0.000
 RMSDP=1.30D-05 MaxDP=1.65D-03 DE=-2.35D-04 OVMax= 8.25D-03

 Cycle  13  Pass 1  IDiag  1:
 RMSU=  6.79D-06    CP:  9.78D-01  1.11D+00  1.82D-01  1.02D-01  6.26D-01
                    CP:  4.35D-01  4.60D-01  4.55D-01  4.67D-01  6.51D-01
                    CP:  6.06D-01  3.34D-01
 E= -3007.35768651723     Delta-E=       -0.000066163135 Rises=F Damp=F
 DIIS: error= 1.27D-04 at cycle  13 NSaved=  13.
 NSaved=13 IEnMin=13 EnMin= -3007.35768651723     IErMin=13 ErrMin= 1.27D-04
 ErrMax= 1.27D-04  0.00D+00 EMaxC= 1.00D-01 BMatC= 1.85D-05 BMatP= 7.31D-05
 IDIUse=3 WtCom= 9.99D-01 WtEn= 1.27D-03
 Coeff-Com:  0.197D-02-0.458D-02 0.871D-03-0.390D-03-0.573D-03-0.959D-04
 Coeff-Com: -0.516D-02 0.145D-02 0.971D-02 0.973D-01 0.229D+00 0.307D+00
 Coeff-Com:  0.364D+00
 Coeff-En:   0.000D+00 0.000D+00 0.000D+00 0.000D+00 0.000D+00 0.000D+00
 Coeff-En:   0.000D+00 0.000D+00 0.000D+00 0.000D+00 0.000D+00 0.218D+00
 Coeff-En:   0.782D+00
 Coeff:      0.196D-02-0.458D-02 0.870D-03-0.389D-03-0.572D-03-0.958D-04
 Coeff:     -0.516D-02 0.145D-02 0.969D-02 0.971D-01 0.229D+00 0.307D+00
 Coeff:      0.365D+00
 Gap=     0.042 Goal=   None    Shift=    0.000
 RMSDP=6.19D-06 MaxDP=8.26D-04 DE=-6.62D-05 OVMax= 4.28D-03

 Cycle  14  Pass 1  IDiag  1:
 RMSU=  2.93D-06    CP:  9.78D-01  1.11D+00  1.83D-01  1.01D-01  6.27D-01
                    CP:  4.35D-01  4.59D-01  4.55D-01  4.68D-01  6.58D-01
                    CP:  5.81D-01  5.48D-01  4.07D-01
 E= -3007.35770777931     Delta-E=       -0.000021262082 Rises=F Damp=F
 DIIS: error= 7.28D-05 at cycle  14 NSaved=  14.
 NSaved=14 IEnMin=14 EnMin= -3007.35770777931     IErMin=14 ErrMin= 7.28D-05
 ErrMax= 7.28D-05  0.00D+00 EMaxC= 1.00D-01 BMatC= 4.29D-06 BMatP= 1.85D-05
 IDIUse=1 WtCom= 1.00D+00 WtEn= 0.00D+00
 Coeff-Com:  0.572D-03-0.180D-02 0.492D-03-0.276D-03 0.708D-04 0.334D-03
 Coeff-Com: -0.432D-02-0.232D-02-0.514D-02 0.194D-01 0.774D-01 0.133D+00
 Coeff-Com:  0.299D+00 0.484D+00
 Coeff:      0.572D-03-0.180D-02 0.492D-03-0.276D-03 0.708D-04 0.334D-03
 Coeff:     -0.432D-02-0.232D-02-0.514D-02 0.194D-01 0.774D-01 0.133D+00
 Coeff:      0.299D+00 0.484D+00
 Gap=     0.042 Goal=   None    Shift=    0.000
 RMSDP=2.80D-06 MaxDP=3.21D-04 DE=-2.13D-05 OVMax= 1.27D-03

 Cycle  15  Pass 1  IDiag  1:
 RMSU=  1.67D-06    CP:  9.78D-01  1.11D+00  1.83D-01  1.02D-01  6.26D-01
                    CP:  4.34D-01  4.57D-01  4.55D-01  4.68D-01  6.66D-01
                    CP:  6.05D-01  5.04D-01  5.93D-01  5.99D-01
 E= -3007.35771089760     Delta-E=       -0.000003118290 Rises=F Damp=F
 DIIS: error= 2.36D-05 at cycle  15 NSaved=  15.
 NSaved=15 IEnMin=15 EnMin= -3007.35771089760     IErMin=15 ErrMin= 2.36D-05
 ErrMax= 2.36D-05  0.00D+00 EMaxC= 1.00D-01 BMatC= 1.28D-06 BMatP= 4.29D-06
 IDIUse=1 WtCom= 1.00D+00 WtEn= 0.00D+00
 Coeff-Com:  0.493D-04-0.405D-03 0.147D-03-0.102D-03 0.405D-03 0.133D-03
 Coeff-Com: -0.137D-02-0.124D-02-0.745D-02-0.199D-01-0.228D-01-0.118D-01
 Coeff-Com:  0.101D+00 0.409D+00 0.554D+00
 Coeff:      0.493D-04-0.405D-03 0.147D-03-0.102D-03 0.405D-03 0.133D-03
 Coeff:     -0.137D-02-0.124D-02-0.745D-02-0.199D-01-0.228D-01-0.118D-01
 Coeff:      0.101D+00 0.409D+00 0.554D+00
 Gap=     0.042 Goal=   None    Shift=    0.000
 RMSDP=1.42D-06 MaxDP=1.56D-04 DE=-3.12D-06 OVMax= 5.69D-04

 Cycle  16  Pass 1  IDiag  1:
 RMSU=  7.82D-07    CP:  9.78D-01  1.11D+00  1.83D-01  1.01D-01  6.27D-01
                    CP:  4.34D-01  4.57D-01  4.55D-01  4.67D-01  6.66D-01
                    CP:  6.09D-01  5.19D-01  5.72D-01  7.85D-01  5.69D-01
 E= -3007.35771205503     Delta-E=       -0.000001157430 Rises=F Damp=F
 DIIS: error= 1.12D-05 at cycle  16 NSaved=  16.
 NSaved=16 IEnMin=16 EnMin= -3007.35771205503     IErMin=16 ErrMin= 1.12D-05
 ErrMax= 1.12D-05  0.00D+00 EMaxC= 1.00D-01 BMatC= 2.79D-07 BMatP= 1.28D-06
 IDIUse=1 WtCom= 1.00D+00 WtEn= 0.00D+00
 Coeff-Com:  0.335D-04-0.199D-03 0.328D-04-0.182D-04 0.254D-03 0.180D-04
 Coeff-Com: -0.315D-03-0.339D-03-0.460D-02-0.176D-01-0.305D-01-0.320D-01
 Coeff-Com:  0.196D-01 0.215D+00 0.430D+00 0.421D+00
 Coeff:      0.335D-04-0.199D-03 0.328D-04-0.182D-04 0.254D-03 0.180D-04
 Coeff:     -0.315D-03-0.339D-03-0.460D-02-0.176D-01-0.305D-01-0.320D-01
 Coeff:      0.196D-01 0.215D+00 0.430D+00 0.421D+00
 Gap=     0.042 Goal=   None    Shift=    0.000
 RMSDP=6.61D-07 MaxDP=8.35D-05 DE=-1.16D-06 OVMax= 2.06D-04

 Cycle  17  Pass 1  IDiag  1:
 RMSU=  2.86D-07    CP:  9.78D-01  1.11D+00  1.83D-01  1.01D-01  6.27D-01
                    CP:  4.34D-01  4.56D-01  4.55D-01  4.68D-01  6.66D-01
                    CP:  6.09D-01  5.25D-01  6.00D-01  7.95D-01  6.90D-01
                    CP:  4.36D-01
 E= -3007.35771232716     Delta-E=       -0.000000272123 Rises=F Damp=F
 DIIS: error= 9.39D-06 at cycle  17 NSaved=  17.
 NSaved=17 IEnMin=17 EnMin= -3007.35771232716     IErMin=17 ErrMin= 9.39D-06
 ErrMax= 9.39D-06  0.00D+00 EMaxC= 1.00D-01 BMatC= 3.91D-08 BMatP= 2.79D-07
 IDIUse=1 WtCom= 1.00D+00 WtEn= 0.00D+00
 Coeff-Com:  0.291D-04-0.111D-03 0.563D-05-0.595D-06 0.108D-03 0.217D-06
 Coeff-Com: -0.513D-04-0.545D-04-0.237D-02-0.104D-01-0.203D-01-0.227D-01
 Coeff-Com: -0.155D-02 0.970D-01 0.242D+00 0.306D+00 0.413D+00
 Coeff:      0.291D-04-0.111D-03 0.563D-05-0.595D-06 0.108D-03 0.217D-06
 Coeff:     -0.513D-04-0.545D-04-0.237D-02-0.104D-01-0.203D-01-0.227D-01
 Coeff:     -0.155D-02 0.970D-01 0.242D+00 0.306D+00 0.413D+00
 Gap=     0.042 Goal=   None    Shift=    0.000
 RMSDP=2.47D-07 MaxDP=3.03D-05 DE=-2.72D-07 OVMax= 6.06D-05

 Cycle  18  Pass 1  IDiag  1:
 RMSU=  1.27D-07    CP:  9.78D-01  1.11D+00  1.83D-01  1.01D-01  6.27D-01
                    CP:  4.34D-01  4.56D-01  4.55D-01  4.68D-01  6.66D-01
                    CP:  6.09D-01  5.28D-01  6.01D-01  8.12D-01  6.72D-01
                    CP:  4.97D-01  4.05D-01
 E= -3007.35771236066     Delta-E=       -0.000000033502 Rises=F Damp=F
 DIIS: error= 3.13D-06 at cycle  18 NSaved=  18.
 NSaved=18 IEnMin=18 EnMin= -3007.35771236066     IErMin=18 ErrMin= 3.13D-06
 ErrMax= 3.13D-06  0.00D+00 EMaxC= 1.00D-01 BMatC= 6.65D-09 BMatP= 3.91D-08
 IDIUse=1 WtCom= 1.00D+00 WtEn= 0.00D+00
 Coeff-Com:  0.180D-04-0.482D-04 0.927D-06-0.260D-06 0.252D-04-0.260D-05
 Coeff-Com:  0.170D-04 0.318D-04-0.987D-03-0.484D-02-0.103D-01-0.119D-01
 Coeff-Com: -0.516D-02 0.327D-01 0.109D+00 0.157D+00 0.314D+00 0.421D+00
 Coeff:      0.180D-04-0.482D-04 0.927D-06-0.260D-06 0.252D-04-0.260D-05
 Coeff:      0.170D-04 0.318D-04-0.987D-03-0.484D-02-0.103D-01-0.119D-01
 Coeff:     -0.516D-02 0.327D-01 0.109D+00 0.157D+00 0.314D+00 0.421D+00
 Gap=     0.042 Goal=   None    Shift=    0.000
 RMSDP=1.09D-07 MaxDP=1.98D-05 DE=-3.35D-08 OVMax= 4.46D-05

 Cycle  19  Pass 1  IDiag  1:
 RMSU=  4.44D-08    CP:  9.78D-01  1.11D+00  1.83D-01  1.01D-01  6.27D-01
                    CP:  4.34D-01  4.56D-01  4.55D-01  4.68D-01  6.66D-01
                    CP:  6.09D-01  5.27D-01  6.03D-01  8.14D-01  6.88D-01
                    CP:  5.03D-01  4.84D-01  4.58D-01
 E= -3007.35771236607     Delta-E=       -0.000000005411 Rises=F Damp=F
 DIIS: error= 1.29D-06 at cycle  19 NSaved=  19.
 NSaved=19 IEnMin=19 EnMin= -3007.35771236607     IErMin=19 ErrMin= 1.29D-06
 ErrMax= 1.29D-06  0.00D+00 EMaxC= 1.00D-01 BMatC= 1.10D-09 BMatP= 6.65D-09
 IDIUse=1 WtCom= 1.00D+00 WtEn= 0.00D+00
 Coeff-Com:  0.866D-05-0.182D-04-0.805D-07 0.271D-06 0.199D-05-0.183D-05
 Coeff-Com:  0.232D-04 0.220D-04-0.435D-03-0.238D-02-0.537D-02-0.632D-02
 Coeff-Com: -0.433D-02 0.100D-01 0.491D-01 0.769D-01 0.185D+00 0.326D+00
 Coeff-Com:  0.372D+00
 Coeff:      0.866D-05-0.182D-04-0.805D-07 0.271D-06 0.199D-05-0.183D-05
 Coeff:      0.232D-04 0.220D-04-0.435D-03-0.238D-02-0.537D-02-0.632D-02
 Coeff:     -0.433D-02 0.100D-01 0.491D-01 0.769D-01 0.185D+00 0.326D+00
 Coeff:      0.372D+00
 Gap=     0.042 Goal=   None    Shift=    0.000
 RMSDP=3.69D-08 MaxDP=4.39D-06 DE=-5.41D-09 OVMax= 1.06D-05

 Cycle  20  Pass 1  IDiag  1:
 RMSU=  1.83D-08    CP:  9.78D-01  1.11D+00  1.83D-01  1.01D-01  6.27D-01
                    CP:  4.34D-01  4.56D-01  4.55D-01  4.68D-01  6.67D-01
                    CP:  6.09D-01  5.28D-01  6.03D-01  8.13D-01  6.94D-01
                    CP:  5.02D-01  4.87D-01  5.14D-01  4.30D-01
 E= -3007.35771236703     Delta-E=       -0.000000000964 Rises=F Damp=F
 DIIS: error= 2.43D-07 at cycle  20 NSaved=  20.
 NSaved=20 IEnMin=20 EnMin= -3007.35771236703     IErMin=20 ErrMin= 2.43D-07
 ErrMax= 2.43D-07  0.00D+00 EMaxC= 1.00D-01 BMatC= 8.12D-11 BMatP= 1.10D-09
 IDIUse=1 WtCom= 1.00D+00 WtEn= 0.00D+00
 Coeff-Com:  0.411D-05-0.750D-05-0.210D-06 0.187D-06-0.104D-05-0.109D-05
 Coeff-Com:  0.160D-04 0.962D-05-0.192D-03-0.114D-02-0.262D-02-0.315D-02
 Coeff-Com: -0.259D-02 0.296D-02 0.217D-01 0.359D-01 0.912D-01 0.175D+00
 Coeff-Com:  0.251D+00 0.432D+00
 Coeff:      0.411D-05-0.750D-05-0.210D-06 0.187D-06-0.104D-05-0.109D-05
 Coeff:      0.160D-04 0.962D-05-0.192D-03-0.114D-02-0.262D-02-0.315D-02
 Coeff:     -0.259D-02 0.296D-02 0.217D-01 0.359D-01 0.912D-01 0.175D+00
 Coeff:      0.251D+00 0.432D+00
 Gap=     0.042 Goal=   None    Shift=    0.000
 RMSDP=1.27D-08 MaxDP=1.95D-06 DE=-9.64D-10 OVMax= 3.69D-06

 Cycle  21  Pass 1  IDiag  1:
 Restarting incremental Fock formation.
 E= -3007.35771236716     Delta-E=       -0.000000000129 Rises=F Damp=F
 DIIS: error= 1.40D-07 at cycle  21 NSaved=  20.
 NSaved=20 IEnMin=20 EnMin= -3007.35771236716     IErMin=20 ErrMin= 1.40D-07
 ErrMax= 1.40D-07  0.00D+00 EMaxC= 1.00D-01 BMatC= 1.75D-11 BMatP= 8.12D-11
 IDIUse=1 WtCom= 1.00D+00 WtEn= 0.00D+00
 Coeff-Com:  0.112D-05-0.152D-05-0.119D-06-0.106D-05-0.322D-06 0.769D-05
 Coeff-Com:  0.191D-05-0.524D-04-0.355D-03-0.850D-03-0.106D-02-0.111D-02
 Coeff-Com: -0.136D-03 0.572D-02 0.109D-01 0.303D-01 0.656D-01 0.113D+00
 Coeff-Com:  0.327D+00 0.451D+00
 Coeff:      0.112D-05-0.152D-05-0.119D-06-0.106D-05-0.322D-06 0.769D-05
 Coeff:      0.191D-05-0.524D-04-0.355D-03-0.850D-03-0.106D-02-0.111D-02
 Coeff:     -0.136D-03 0.572D-02 0.109D-01 0.303D-01 0.656D-01 0.113D+00
 Coeff:      0.327D+00 0.451D+00
 Gap=     0.042 Goal=   None    Shift=    0.000
 RMSDP=5.12D-09 MaxDP=5.85D-07 DE=-1.29D-10 OVMax= 2.15D-06

 SCF Done:  E(RB-LYP) =  -3007.35771237     A.U. after   21 cycles
            NFock= 21  Conv=0.51D-08     -V/T= 2.0100
 KE= 2.977621180960D+03 PE=-2.598575430069D+04 EE= 1.050524586625D+04
 Leave Link  502 at Wed May  4 18:38:38 2022, MaxMem= 10066329600 cpu:            7106.8 elap:             297.0
 (Enter /sw/apps/gaussian-16.0/g16/l801.exe)
 DoSCS=F DFT=T ScalE2(SS,OS)=  1.000000  1.000000
 ExpMin= 3.36D-02 ExpMax= 4.95D+03 ExpMxC= 7.45D+02 IAcc=3 IRadAn=         5 AccDes= 0.00D+00
 HarFok:  IExCor=  205 AccDes= 0.00D+00 IRadAn=         5 IDoV=-2 UseB2=F ITyADJ=14
 ICtDFT= 12500011 ScaDFX=  1.000000  1.000000  1.000000  1.000000
 GSVD:  LWork=       -5460 too small for GESVD, short by       25550 words or       25550 for optimal perf.
 Largest valence mixing into a core orbital is  1.47D-04
 Largest core mixing into a valence orbital is  4.70D-05
 Range of M.O.s used for correlation:    71  1298
 NBasis=  1298 NAE=   246 NBE=   246 NFC=    70 NFV=     0
 NROrb=   1228 NOA=   176 NOB=   176 NVA=  1052 NVB=  1052

 **** Warning!!: The smallest alpha delta epsilon is  0.41984598D-01

 Leave Link  801 at Wed May  4 18:38:39 2022, MaxMem= 10066329600 cpu:               7.4 elap:               0.3
 (Enter /sw/apps/gaussian-16.0/g16/l914.exe)
 RHF ground state
 Two-electron integrals replicated using symmetry.
 MDV= 10066329600 DFT=T DoStab=F Mixed=F DoRPA=T DoScal=T NonHer=F
 Making orbital integer symmetry assigments:
 Orbital symmetries:
       Occupied  (A) (A) (A) (A) (A) (A) (A) (A) (A) (A) (A) (A)
                 (A) (A) (A) (A) (A) (A) (A) (A) (A) (A) (A) (A)
                 (A) (A) (A) (A) (A) (A) (A) (A) (A) (A) (A) (A)
                 (A) (A) (A) (A) (A) (A) (A) (A) (A) (A) (A) (A)
                 (A) (A) (A) (A) (A) (A) (A) (A) (A) (A) (A) (A)
                 (A) (A) (A) (A) (A) (A) (A) (A) (A) (A) (A) (A)
                 (A) (A) (A) (A) (A) (A) (A) (A) (A) (A) (A) (A)
                 (A) (A) (A) (A) (A) (A) (A) (A) (A) (A) (A) (A)
                 (A) (A) (A) (A) (A) (A) (A) (A) (A) (A) (A) (A)
                 (A) (A) (A) (A) (A) (A) (A) (A) (A) (A) (A) (A)
                 (A) (A) (A) (A) (A) (A) (A) (A) (A) (A) (A) (A)
                 (A) (A) (A) (A) (A) (A) (A) (A) (A) (A) (A) (A)
                 (A) (A) (A) (A) (A) (A) (A) (A) (A) (A) (A) (A)
                 (A) (A) (A) (A) (A) (A) (A) (A) (A) (A) (A) (A)
                 (A) (A) (A) (A) (A) (A) (A) (A) (A) (A) (A) (A)
                 (A) (A) (A) (A) (A) (A) (A) (A) (A) (A) (A) (A)
                 (A) (A) (A) (A) (A) (A) (A) (A) (A) (A) (A) (A)
                 (A) (A) (A) (A) (A) (A) (A) (A) (A) (A) (A) (A)
                 (A) (A) (A) (A) (A) (A) (A) (A) (A) (A) (A) (A)
                 (A) (A) (A) (A) (A) (A) (A) (A) (A) (A) (A) (A)
                 (A) (A) (A) (A) (A) (A)
       Virtual   (A) (A) (A) (A) (A) (A) (A) (A) (A) (A) (A) (A)
                 (A) (A) (A) (A) (A) (A) (A) (A) (A) (A) (A) (A)
                 (A) (A) (A) (A) (A) (A) (A) (A) (A) (A) (A) (A)
                 (A) (A) (A) (A) (A) (A) (A) (A) (A) (A) (A) (A)
                 (A) (A) (A) (A) (A) (A) (A) (A) (A) (A) (A) (A)
                 (A) (A) (A) (A) (A) (A) (A) (A) (A) (A) (A) (A)
                 (A) (A) (A) (A) (A) (A) (A) (A) (A) (A) (A) (A)
                 (A) (A) (A) (A) (A) (A) (A) (A) (A) (A) (A) (A)
                 (A) (A) (A) (A) (A) (A) (A) (A) (A) (A) (A) (A)
                 (A) (A) (A) (A) (A) (A) (A) (A) (A) (A) (A) (A)
                 (A) (A) (A) (A) (A) (A) (A) (A) (A) (A) (A) (A)
                 (A) (A) (A) (A) (A) (A) (A) (A) (A) (A) (A) (A)
                 (A) (A) (A) (A) (A) (A) (A) (A) (A) (A) (A) (A)
                 (A) (A) (A) (A) (A) (A) (A) (A) (A) (A) (A) (A)
                 (A) (A) (A) (A) (A) (A) (A) (A) (A) (A) (A) (A)
                 (A) (A) (A) (A) (A) (A) (A) (A) (A) (A) (A) (A)
                 (A) (A) (A) (A) (A) (A) (A) (A) (A) (A) (A) (A)
                 (A) (A) (A) (A) (A) (A) (A) (A) (A) (A) (A) (A)
                 (A) (A) (A) (A) (A) (A) (A) (A) (A) (A) (A) (A)
                 (A) (A) (A) (A) (A) (A) (A) (A) (A) (A) (A) (A)
                 (A) (A) (A) (A) (A) (A) (A) (A) (A) (A) (A) (A)
                 (A) (A) (A) (A) (A) (A) (A) (A) (A) (A) (A) (A)
                 (A) (A) (A) (A) (A) (A) (A) (A) (A) (A) (A) (A)
                 (A) (A) (A) (A) (A) (A) (A) (A) (A) (A) (A) (A)
                 (A) (A) (A) (A) (A) (A) (A) (A) (A) (A) (A) (A)
                 (A) (A) (A) (A) (A) (A) (A) (A) (A) (A) (A) (A)
                 (A) (A) (A) (A) (A) (A) (A) (A) (A) (A) (A) (A)
                 (A) (A) (A) (A) (A) (A) (A) (A) (A) (A) (A) (A)
                 (A) (A) (A) (A) (A) (A) (A) (A) (A) (A) (A) (A)
                 (A) (A) (A) (A) (A) (A) (A) (A) (A) (A) (A) (A)
                 (A) (A) (A) (A) (A) (A) (A) (A) (A) (A) (A) (A)
                 (A) (A) (A) (A) (A) (A) (A) (A) (A) (A) (A) (A)
                 (A) (A) (A) (A) (A) (A) (A) (A) (A) (A) (A) (A)
                 (A) (A) (A) (A) (A) (A) (A) (A) (A) (A) (A) (A)
                 (A) (A) (A) (A) (A) (A) (A) (A) (A) (A) (A) (A)
                 (A) (A) (A) (A) (A) (A) (A) (A) (A) (A) (A) (A)
                 (A) (A) (A) (A) (A) (A) (A) (A) (A) (A) (A) (A)
                 (A) (A) (A) (A) (A) (A) (A) (A) (A) (A) (A) (A)
                 (A) (A) (A) (A) (A) (A) (A) (A) (A) (A) (A) (A)
                 (A) (A) (A) (A) (A) (A) (A) (A) (A) (A) (A) (A)
                 (A) (A) (A) (A) (A) (A) (A) (A) (A) (A) (A) (A)
                 (A) (A) (A) (A) (A) (A) (A) (A) (A) (A) (A) (A)
                 (A) (A) (A) (A) (A) (A) (A) (A) (A) (A) (A) (A)
                 (A) (A) (A) (A) (A) (A) (A) (A) (A) (A) (A) (A)
                 (A) (A) (A) (A) (A) (A) (A) (A) (A) (A) (A) (A)
                 (A) (A) (A) (A) (A) (A) (A) (A) (A) (A) (A) (A)
                 (A) (A) (A) (A) (A) (A) (A) (A) (A) (A) (A) (A)
                 (A) (A) (A) (A) (A) (A) (A) (A) (A) (A) (A) (A)
                 (A) (A) (A) (A) (A) (A) (A) (A) (A) (A) (A) (A)
                 (A) (A) (A) (A) (A) (A) (A) (A) (A) (A) (A) (A)
                 (A) (A) (A) (A) (A) (A) (A) (A) (A) (A) (A) (A)
                 (A) (A) (A) (A) (A) (A) (A) (A) (A) (A) (A) (A)
                 (A) (A) (A) (A) (A) (A) (A) (A) (A) (A) (A) (A)
                 (A) (A) (A) (A) (A) (A) (A) (A) (A) (A) (A) (A)
                 (A) (A) (A) (A) (A) (A) (A) (A) (A) (A) (A) (A)
                 (A) (A) (A) (A) (A) (A) (A) (A) (A) (A) (A) (A)
                 (A) (A) (A) (A) (A) (A) (A) (A) (A) (A) (A) (A)
                 (A) (A) (A) (A) (A) (A) (A) (A) (A) (A) (A) (A)
                 (A) (A) (A) (A) (A) (A) (A) (A) (A) (A) (A) (A)
                 (A) (A) (A) (A) (A) (A) (A) (A) (A) (A) (A) (A)
                 (A) (A) (A) (A) (A) (A) (A) (A) (A) (A) (A) (A)
                 (A) (A) (A) (A) (A) (A) (A) (A) (A) (A) (A) (A)
                 (A) (A) (A) (A) (A) (A) (A) (A) (A) (A) (A) (A)
                 (A) (A) (A) (A) (A) (A) (A) (A) (A) (A) (A) (A)
                 (A) (A) (A) (A) (A) (A) (A) (A) (A) (A) (A) (A)
                 (A) (A) (A) (A) (A) (A) (A) (A) (A) (A) (A) (A)
                 (A) (A) (A) (A) (A) (A) (A) (A) (A) (A) (A) (A)
                 (A) (A) (A) (A) (A) (A) (A) (A) (A) (A) (A) (A)
                 (A) (A) (A) (A) (A) (A) (A) (A) (A) (A) (A) (A)
                 (A) (A) (A) (A) (A) (A) (A) (A) (A) (A) (A) (A)
                 (A) (A) (A) (A) (A) (A) (A) (A) (A) (A) (A) (A)
                 (A) (A) (A) (A) (A) (A) (A) (A) (A) (A) (A) (A)
                 (A) (A) (A) (A) (A) (A) (A) (A) (A) (A) (A) (A)
                 (A) (A) (A) (A) (A) (A) (A) (A) (A) (A) (A) (A)
                 (A) (A) (A) (A) (A) (A) (A) (A) (A) (A) (A) (A)
                 (A) (A) (A) (A) (A) (A) (A) (A) (A) (A) (A) (A)
                 (A) (A) (A) (A) (A) (A) (A) (A) (A) (A) (A) (A)
                 (A) (A) (A) (A) (A) (A) (A) (A) (A) (A) (A) (A)
                 (A) (A) (A) (A) (A) (A) (A) (A) (A) (A) (A) (A)
                 (A) (A) (A) (A) (A) (A) (A) (A) (A) (A) (A) (A)
                 (A) (A) (A) (A) (A) (A) (A) (A) (A) (A) (A) (A)
                 (A) (A) (A) (A) (A) (A) (A) (A) (A) (A) (A) (A)
                 (A) (A) (A) (A) (A) (A) (A) (A) (A) (A) (A) (A)
                 (A) (A) (A) (A) (A) (A) (A) (A) (A) (A) (A) (A)
                 (A) (A) (A) (A) (A) (A) (A) (A) (A) (A) (A) (A)
                 (A) (A) (A) (A) (A) (A) (A) (A) (A) (A) (A) (A)
                 (A) (A) (A) (A) (A) (A) (A) (A) (A) (A) (A) (A)
                 (A) (A) (A) (A) (A) (A) (A) (A)
    20 initial guesses have been made.
 Convergence on wavefunction:    0.001000000000000
 Davidson Disk Diagonalization:  ConvIn= 1.00D-03 SkipCon=T Conv= 1.00D-03.
 Max sub-space:  2000 roots to seek:    20 dimension of matrix:       370304
 Iteration     1 Dimension    20 NMult     0 NNew     20
 CISAX will form    20 AO SS matrices at one time.
 NMat=    20 NSing=    20 JSym2X= 0.
 FoFJK:  IHMeth= 1 ICntrl=     500 DoSepK=F KAlg= 0 I1Cent=           0 FoldK=F
 IRaf= 520000000 NMat=      20 IRICut=       1 DoRegI=T DoRafI=F ISym2E= 0 IDoP0=0 IntGTp=1.
 FoFCou: FMM=T IPFlag=           0 FMFlag=      100000 FMFlg1=        2001
         NFxFlg=           0 DoJE=F BraDBF=F KetDBF=F FulRan=T
         wScrn=  0.000000 ICntrl=       500 IOpCl=  0 I1Cent=           0 NGrid=           0
         NMat0=   20 NMatS0=     20 NMatT0=    0 NMatD0=   20 NMtDS0=    0 NMtDT0=    0
 Symmetry not used in FoFCou.
 FMM levels:  10  Number of levels for PrismC:   9
 New state      1 was old state      3
 New state      2 was old state      1
 New state      3 was old state      4
 New state      4 was old state      2
 New state      5 was old state      7
 Excitation Energies [eV] at current iteration:
 Root      1 :     1.987369181298701
 Root      2 :     2.140526409697657
 Root      3 :     2.189562678883139
 Root      4 :     2.352495053969637
 Root      5 :     2.497738872658496
 Root      6 :     2.689627440880607
 Root      7 :     2.877071535626845
 Root      8 :     2.963614406907963
 Root      9 :     2.990064762534587
 Root     10 :     3.053864538001777
 Root     11 :     3.147468351971994
 Root     12 :     3.225399099633125
 Root     13 :     3.270799228745763
 Root     14 :     3.300397150036302
 Root     15 :     3.342639667394630
 Root     16 :     3.392945843222522
 Root     17 :     3.978821021612731
 Root     18 :     4.057637840746438
 Root     19 :     4.328777675881027
 Root     20 :     4.369869869045899
 Iteration     2 Dimension    40 NMult    20 NNew     20
 CISAX will form    20 AO SS matrices at one time.
 NMat=    20 NSing=    20 JSym2X= 0.
 New state      1 was old state      2
 Root      1 not converged, maximum delta is    0.045020884966115
 New state      2 was old state      1
 Root      2 not converged, maximum delta is    0.042759645467150
 New state      3 was old state      4
 Root      3 not converged, maximum delta is    0.153753964950195
 New state      4 was old state      3
 Root      4 not converged, maximum delta is    0.137709183929584
 Root      5 not converged, maximum delta is    0.001376641849789
 Excitation Energies [eV] at current iteration:
 Root      1 :     1.888138311448073   Change is   -0.252388098249584
 Root      2 :     1.983797515554967   Change is   -0.003571665743734
 Root      3 :     2.115741134160888   Change is   -0.236753919808749
 Root      4 :     2.180925166101445   Change is   -0.008637512781695
 Root      5 :     2.497719954066296   Change is   -0.000018918592200
 Root      6 :     2.675846539945358   Change is   -0.013780900935249
 Root      7 :     2.698612014752677   Change is   -0.178459520874168
 Root      8 :     2.723401812993774   Change is   -0.240212593914189
 Root      9 :     2.832811452496906   Change is   -0.392587647136219
 Root     10 :     2.926487816231551   Change is   -0.063576946303036
 Root     11 :     2.984718749256559   Change is   -0.069145788745218
 Root     12 :     3.039320785347627   Change is   -0.108147566624367
 Root     13 :     3.132574012878235   Change is   -0.260371830344287
 Root     14 :     3.252971682641812   Change is   -0.047425467394490
 Root     15 :     3.270031060419441   Change is   -0.000768168326323
 Root     16 :     3.333921344441157   Change is   -0.008718322953474
 Root     17 :     3.408933188677274   Change is   -0.648704652069164
 Root     18 :     3.483306802602987   Change is   -0.495514219009744
 Root     19 :     3.633791899166772
 Root     20 :     3.969357071719099   Change is   -0.359420604161928
 Iteration     3 Dimension    45 NMult    40 NNew      5
 CISAX will form     5 AO SS matrices at one time.
 NMat=     5 NSing=     5 JSym2X= 0.
 Root      1 not converged, maximum delta is    0.023895019320301
 Root      2 not converged, maximum delta is    0.012739236247853
 Root      3 not converged, maximum delta is    0.042640522211556
 Root      4 not converged, maximum delta is    0.035681334753550
 Root      5 has converged.
 Excitation Energies [eV] at current iteration:
 Root      1 :     1.837342342499186   Change is   -0.050795968948887
 Root      2 :     1.982665655074373   Change is   -0.001131860480594
 Root      3 :     2.081549276015274   Change is   -0.034191858145615
 Root      4 :     2.177264668442365   Change is   -0.003660497659080
 Root      5 :     2.497717481554085   Change is   -0.000002472512210
 Iteration     4 Dimension    49 NMult    45 NNew      4
 CISAX will form     4 AO SS matrices at one time.
 NMat=     4 NSing=     4 JSym2X= 0.
 Root      1 not converged, maximum delta is    0.011378161239052
 Root      2 not converged, maximum delta is    0.006409921606706
 Root      3 not converged, maximum delta is    0.010380040276630
 Root      4 not converged, maximum delta is    0.006982056875203
 Root      5 has converged.
 Excitation Energies [eV] at current iteration:
 Root      1 :     1.818868078724257   Change is   -0.018474263774929
 Root      2 :     1.982143862540649   Change is   -0.000521792533724
 Root      3 :     2.069125155881021   Change is   -0.012424120134253
 Root      4 :     2.175622416510700   Change is   -0.001642251931665
 Root      5 :     2.497717401571967   Change is   -0.000000079982118
 Iteration     5 Dimension    53 NMult    49 NNew      4
 CISAX will form     4 AO SS matrices at one time.
 NMat=     4 NSing=     4 JSym2X= 0.
 Root      1 not converged, maximum delta is    0.002429425189404
 Root      2 not converged, maximum delta is    0.002446456421982
 Root      3 not converged, maximum delta is    0.002740492720430
 Root      4 not converged, maximum delta is    0.004957584676781
 Root      5 has converged.
 Excitation Energies [eV] at current iteration:
 Root      1 :     1.813119218359569   Change is   -0.005748860364687
 Root      2 :     1.981942461395205   Change is   -0.000201401145444
 Root      3 :     2.064982234035664   Change is   -0.004142921845356
 Root      4 :     2.174926088337186   Change is   -0.000696328173514
 Root      5 :     2.497717355594203   Change is   -0.000000045977764
 Iteration     6 Dimension    57 NMult    53 NNew      4
 CISAX will form     4 AO SS matrices at one time.
 NMat=     4 NSing=     4 JSym2X= 0.
 Root      1 not converged, maximum delta is    0.001936011393903
 Root      2 not converged, maximum delta is    0.001552611573262
 Root      3 not converged, maximum delta is    0.001973786986004
 Root      4 not converged, maximum delta is    0.004122745582351
 Root      5 has converged.
 Excitation Energies [eV] at current iteration:
 Root      1 :     1.810421476911395   Change is   -0.002697741448174
 Root      2 :     1.981820288495961   Change is   -0.000122172899244
 Root      3 :     2.063227799193038   Change is   -0.001754434842626
 Root      4 :     2.174527836582069   Change is   -0.000398251755117
 Root      5 :     2.497717335606959   Change is   -0.000000019987244
 Iteration     7 Dimension    61 NMult    57 NNew      4
 CISAX will form     4 AO SS matrices at one time.
 NMat=     4 NSing=     4 JSym2X= 0.
 Root      1 not converged, maximum delta is    0.001404941512405
 Root      2 not converged, maximum delta is    0.001049285839145
 Root      3 not converged, maximum delta is    0.001383100601794
 Root      4 not converged, maximum delta is    0.002238257639682
 Root      5 has converged.
 Excitation Energies [eV] at current iteration:
 Root      1 :     1.809241897180168   Change is   -0.001179579731227
 Root      2 :     1.981758919629218   Change is   -0.000061368866743
 Root      3 :     2.062561647254545   Change is   -0.000666151938493
 Root      4 :     2.174362348886958   Change is   -0.000165487695111
 Root      5 :     2.497717334366367   Change is   -0.000000001240592
 Iteration     8 Dimension    65 NMult    61 NNew      4
 CISAX will form     4 AO SS matrices at one time.
 NMat=     4 NSing=     4 JSym2X= 0.
 Root      1 has converged.
 Root      2 has converged.
 Root      3 not converged, maximum delta is    0.001116243979717
 Root      4 not converged, maximum delta is    0.001041069224033
 Root      5 has converged.
 Excitation Energies [eV] at current iteration:
 Root      1 :     1.808734828402063   Change is   -0.000507068778105
 Root      2 :     1.981735898754243   Change is   -0.000023020874974
 Root      3 :     2.062281091353983   Change is   -0.000280555900562
 Root      4 :     2.174303005910146   Change is   -0.000059342976812
 Root      5 :     2.497717333932705   Change is   -0.000000000433662
 Iteration     9 Dimension    67 NMult    65 NNew      2
 CISAX will form     2 AO SS matrices at one time.
 NMat=     2 NSing=     2 JSym2X= 0.
 Root      1 has converged.
 Root      2 has converged.
 Root      3 has converged.
 Root      4 has converged.
 Root      5 has converged.
 Excitation Energies [eV] at current iteration:
 Root      1 :     1.808734188843065   Change is   -0.000000639558999
 Root      2 :     1.981735067551042   Change is   -0.000000831203201
[...]
 Alpha virt. eigenvalues --    1.11022   1.11393   1.12273   1.12541   1.12960
 Alpha virt. eigenvalues --    1.13383   1.13524   1.13737   1.14332   1.14739
 Alpha virt. eigenvalues --    1.15045   1.16358   1.16443   1.16723   1.17336
 Alpha virt. eigenvalues --    1.17713   1.18198   1.18522   1.19733   1.20171
 Alpha virt. eigenvalues --    1.20451   1.20932   1.21160   1.21627   1.21698
 Alpha virt. eigenvalues --    1.22142   1.22806   1.23323   1.23523   1.23886
 Alpha virt. eigenvalues --    1.24126   1.24417   1.24905   1.24996   1.26176
 Alpha virt. eigenvalues --    1.26396   1.26590   1.27191   1.27614   1.28023
 Alpha virt. eigenvalues --    1.28391   1.29293   1.29365   1.29713   1.30383
 Alpha virt. eigenvalues --    1.30682   1.31043   1.31084   1.31231   1.31830
 Alpha virt. eigenvalues --    1.32207   1.32626   1.32838   1.33049   1.33898
 Alpha virt. eigenvalues --    1.34491   1.34639   1.35080   1.35674   1.36556
 Alpha virt. eigenvalues --    1.36703   1.36970   1.37353   1.37392   1.38003
 Alpha virt. eigenvalues --    1.38262   1.38684   1.39101   1.39482   1.39854
 Alpha virt. eigenvalues --    1.40265   1.40299   1.40496   1.42065   1.42439
 Alpha virt. eigenvalues --    1.42578   1.43066   1.43291   1.43638   1.44264
 Alpha virt. eigenvalues --    1.44401   1.45146   1.45671   1.45955   1.46142
 Alpha virt. eigenvalues --    1.46365   1.46574   1.46782   1.47044   1.47294
 Alpha virt. eigenvalues --    1.47455   1.47678   1.47901   1.48263   1.48446
 Alpha virt. eigenvalues --    1.48690   1.48955   1.49218   1.49342   1.49479
 Alpha virt. eigenvalues --    1.49661   1.49775   1.50264   1.50488   1.50506
 Alpha virt. eigenvalues --    1.50935   1.51236   1.51567   1.52021   1.52507
 Alpha virt. eigenvalues --    1.52821   1.53312   1.53600   1.54042   1.54263
 Alpha virt. eigenvalues --    1.54442   1.54510   1.55360   1.55653   1.55768
 Alpha virt. eigenvalues --    1.56208   1.56590   1.57001   1.57090   1.57962
 Alpha virt. eigenvalues --    1.58667   1.58827   1.59170   1.59935   1.60657
 Alpha virt. eigenvalues --    1.61026   1.61459   1.61515   1.61666   1.62067
 Alpha virt. eigenvalues --    1.62416   1.62561   1.63236   1.63818   1.64008
 Alpha virt. eigenvalues --    1.64155   1.64617   1.64751   1.65101   1.65451
 Alpha virt. eigenvalues --    1.65804   1.65894   1.66078   1.66404   1.66640
 Alpha virt. eigenvalues --    1.66824   1.67160   1.67545   1.67721   1.68200
 Alpha virt. eigenvalues --    1.68409   1.68875   1.69035   1.69318   1.69373
 Alpha virt. eigenvalues --    1.69512   1.69711   1.69725   1.70330   1.70468
 Alpha virt. eigenvalues --    1.70532   1.70967   1.71061   1.71345   1.71363
 Alpha virt. eigenvalues --    1.71691   1.72166   1.72283   1.72386   1.72520
 Alpha virt. eigenvalues --    1.72562   1.72642   1.72811   1.72986   1.73232
 Alpha virt. eigenvalues --    1.73279   1.73501   1.73882   1.74180   1.74254
 Alpha virt. eigenvalues --    1.74320   1.74523   1.74675   1.74973   1.75066
 Alpha virt. eigenvalues --    1.75175   1.75346   1.75503   1.76156   1.76176
 Alpha virt. eigenvalues --    1.76373   1.76419   1.76658   1.76724   1.77070
 Alpha virt. eigenvalues --    1.77419   1.77784   1.77899   1.78042   1.78180
 Alpha virt. eigenvalues --    1.78674   1.78810   1.79201   1.79282   1.79392
 Alpha virt. eigenvalues --    1.79604   1.79979   1.80138   1.80282   1.80536
 Alpha virt. eigenvalues --    1.80924   1.80985   1.81358   1.81624   1.81690
 Alpha virt. eigenvalues --    1.82117   1.82644   1.82889   1.82972   1.83386
 Alpha virt. eigenvalues --    1.83937   1.84014   1.84181   1.84240   1.84403
 Alpha virt. eigenvalues --    1.84543   1.84770   1.85157   1.85368   1.85572
 Alpha virt. eigenvalues --    1.85711   1.85876   1.86109   1.86308   1.86883
 Alpha virt. eigenvalues --    1.87165   1.87397   1.87551   1.87613   1.87728
 Alpha virt. eigenvalues --    1.88432   1.88860   1.89033   1.89653   1.89755
 Alpha virt. eigenvalues --    1.89911   1.90400   1.90549   1.90945   1.91432
 Alpha virt. eigenvalues --    1.91499   1.91837   1.92025   1.92112   1.92148
 Alpha virt. eigenvalues --    1.92535   1.92998   1.93264   1.93632   1.93735
 Alpha virt. eigenvalues --    1.93988   1.94226   1.94852   1.95018   1.95259
 Alpha virt. eigenvalues --    1.95432   1.95649   1.95920   1.96423   1.97043
 Alpha virt. eigenvalues --    1.97140   1.97475   1.97993   1.98252   1.98653
 Alpha virt. eigenvalues --    1.98820   1.98954   1.99095   1.99782   1.99851
 Alpha virt. eigenvalues --    2.00196   2.00216   2.00969   2.01153   2.01623
 Alpha virt. eigenvalues --    2.01770   2.01887   2.02174   2.02442   2.03119
 Alpha virt. eigenvalues --    2.03374   2.03544   2.03760   2.03957   2.04307
 Alpha virt. eigenvalues --    2.04544   2.04857   2.05026   2.05504   2.05561
 Alpha virt. eigenvalues --    2.05832   2.06002   2.06396   2.06571   2.06765
 Alpha virt. eigenvalues --    2.07206   2.07998   2.08555   2.08741   2.09052
 Alpha virt. eigenvalues --    2.09466   2.09895   2.10095   2.10567   2.11068
 Alpha virt. eigenvalues --    2.11390   2.12892   2.12931   2.13121   2.13849
 Alpha virt. eigenvalues --    2.14745   2.15009   2.15232   2.15485   2.15902
 Alpha virt. eigenvalues --    2.16036   2.16380   2.16589   2.16803   2.17173
 Alpha virt. eigenvalues --    2.17407   2.18078   2.18293   2.18918   2.19071
 Alpha virt. eigenvalues --    2.19481   2.19992   2.20453   2.20785   2.21217
 Alpha virt. eigenvalues --    2.21547   2.22059   2.22481   2.23026   2.23374
 Alpha virt. eigenvalues --    2.23524   2.24022   2.24084   2.24536   2.24593
 Alpha virt. eigenvalues --    2.24947   2.25032   2.25282   2.26409   2.26517
 Alpha virt. eigenvalues --    2.26986   2.27623   2.27943   2.28015   2.28576
 Alpha virt. eigenvalues --    2.28653   2.29360   2.29493   2.30074   2.30270
 Alpha virt. eigenvalues --    2.30500   2.30866   2.31123   2.31291   2.31507
 Alpha virt. eigenvalues --    2.31948   2.32151   2.32357   2.32564   2.32753
 Alpha virt. eigenvalues --    2.33579   2.33840   2.34256   2.34339   2.34652
 Alpha virt. eigenvalues --    2.34883   2.35045   2.35303   2.35601   2.36154
 Alpha virt. eigenvalues --    2.36767   2.36982   2.37160   2.37377   2.38185
 Alpha virt. eigenvalues --    2.38463   2.39101   2.39261   2.39763   2.40050
 Alpha virt. eigenvalues --    2.40268   2.40589   2.41907   2.42037   2.42418
 Alpha virt. eigenvalues --    2.42785   2.43701   2.43870   2.44965   2.45809
 Alpha virt. eigenvalues --    2.46152   2.46441   2.47213   2.47650   2.47661
 Alpha virt. eigenvalues --    2.48195   2.48474   2.49009   2.49470   2.49637
 Alpha virt. eigenvalues --    2.50052   2.50276   2.50416   2.50819   2.51303
 Alpha virt. eigenvalues --    2.51532   2.51869   2.52374   2.53213   2.53347
 Alpha virt. eigenvalues --    2.53550   2.54503   2.55184   2.55250   2.55437
 Alpha virt. eigenvalues --    2.55679   2.55931   2.56107   2.56585   2.57016
 Alpha virt. eigenvalues --    2.57259   2.57471   2.57534   2.58072   2.58737
 Alpha virt. eigenvalues --    2.59059   2.59411   2.60398   2.60891   2.61554
 Alpha virt. eigenvalues --    2.61900   2.62594   2.62753   2.62906   2.63159
 Alpha virt. eigenvalues --    2.63276   2.63722   2.64112   2.64475   2.64516
 Alpha virt. eigenvalues --    2.64951   2.65505   2.65666   2.66844   2.66940
 Alpha virt. eigenvalues --    2.67341   2.67604   2.67915   2.68230   2.68668
 Alpha virt. eigenvalues --    2.68677   2.68849   2.69926   2.70079   2.70213
 Alpha virt. eigenvalues --    2.70796   2.71752   2.72572   2.72954   2.73959
 Alpha virt. eigenvalues --    2.74452   2.75113   2.75601   2.76132   2.76432
 Alpha virt. eigenvalues --    2.77242   2.77997   2.78059   2.78650   2.78877
 Alpha virt. eigenvalues --    2.79091   2.79358   2.80341   2.80429   2.80623
 Alpha virt. eigenvalues --    2.81044   2.81354   2.81826   2.82415   2.82698
 Alpha virt. eigenvalues --    2.82898   2.83515   2.83650   2.84193   2.84600
 Alpha virt. eigenvalues --    2.84927   2.85093   2.85564   2.85860   2.85987
 Alpha virt. eigenvalues --    2.86078   2.86311   2.86656   2.87282   2.87404
 Alpha virt. eigenvalues --    2.87622   2.88289   2.88509   2.88889   2.88990
 Alpha virt. eigenvalues --    2.89174   2.89296   2.89439   2.89514   2.89925
 Alpha virt. eigenvalues --    2.90278   2.90473   2.90598   2.90696   2.90903
 Alpha virt. eigenvalues --    2.91751   2.92112   2.92635   2.92723   2.93004
 Alpha virt. eigenvalues --    2.93154   2.93228   2.93654   2.93903   2.94754
 Alpha virt. eigenvalues --    2.95172   2.95758   2.96505   2.96635   2.96977
 Alpha virt. eigenvalues --    2.97165   2.97410   2.97838   2.98943   2.99307
 Alpha virt. eigenvalues --    2.99569   3.00024   3.00559   3.00573   3.01203
 Alpha virt. eigenvalues --    3.02453   3.03015   3.03370   3.03949   3.04944
 Alpha virt. eigenvalues --    3.05771   3.06072   3.06382   3.07348   3.07680
 Alpha virt. eigenvalues --    3.08151   3.08779   3.08858   3.09466   3.12388
 Alpha virt. eigenvalues --    3.14744   3.15773   3.22769   3.28198   3.29387
 Alpha virt. eigenvalues --    3.29649   3.32704   3.34931   3.40590   3.42218
 Alpha virt. eigenvalues --    3.44939   3.47648   3.49943   3.52294   3.53315
 Alpha virt. eigenvalues --    3.53719   3.54453
          Condensed to atoms (all electrons):
 Mulliken charges:
               1
     1  Mg   0.708216
     2  C   -0.056388
     3  C   -0.063033
     4  C   -0.063922
     5  C   -0.081260
     6  N   -0.230892
     7  C   -0.103120
     8  C    0.012691
     9  C   -0.014694
    10  C    0.083981
    11  C    0.137590
    12  C    0.096983
    13  C    0.159795
    14  C    0.074122
    15  O   -0.223936
    16  O   -0.229956
    17  N   -0.280887
    18  C    0.086212
    19  C   -0.120807
    20  C    0.032021
    21  C    0.076199
    22  C    0.182443
    23  C   -0.100093
    24  O   -0.163285
    25  C    0.155671
    26  N   -0.256677
    27  C    0.067501
    28  C    0.034250
    29  C    0.007826
    30  C    0.022131
    31  C    0.143688
    32  C    0.071755
    33  C    0.102789
    34  N   -0.219424
    35  C    0.125162
    36  C   -0.215825
    37  C    0.130531
    38  C    0.093393
    39  C    0.189132
    40  C   -0.033058
    41  O   -0.148398
    42  C    0.098891
    43  C    0.143271
    44  O   -0.192056
    45  O   -0.273608
    46  C    0.197577
    47  C    0.334990
    48  C   -0.158908
    49  C   -0.161665
    50  C    0.128345
    51  C    0.153038
    52  C    0.069821
    53  C    0.094033
    54  C   -0.075978
    55  C    0.111403
    56  C    0.102067
    57  C    0.019360
    58  C    0.127486
    59  C   -0.092687
    60  C    0.119493
    61  C    0.116941
    62  C    0.098055
    63  C    0.039109
    64  C   -0.096488
    65  C    0.113463
    66  C    0.125189
    67  H   -0.072962
    68  H   -0.052346
    69  H   -0.062362
    70  H   -0.009164
    71  H   -0.026885
    72  H   -0.020107
    73  H   -0.008476
    74  H   -0.002210
    75  H   -0.020744
    76  H   -0.009388
    77  H    0.002473
    78  H   -0.003241
    79  H   -0.002520
    80  H   -0.019872
    81  H   -0.009894
    82  H    0.003718
    83  H    0.006749
    84  H    0.007318
    85  H   -0.031676
    86  H   -0.029651
    87  H   -0.008275
    88  H    0.000676
    89  H   -0.011612
    90  H   -0.024313
    91  H   -0.017580
    92  H   -0.019647
    93  H   -0.001858
    94  H   -0.001546
    95  H   -0.023930
    96  H    0.007793
    97  H    0.019053
    98  H   -0.010965
    99  H    0.024835
   100  H    0.027086
   101  H    0.005351
   102  H    0.014389
   103  H    0.021282
   104  H   -0.039856
   105  H    0.006713
   106  H   -0.005950
   107  H   -0.008553
   108  H   -0.042797
   109  H   -0.036710
   110  H   -0.012453
   111  H   -0.018199
   112  H   -0.049993
   113  H   -0.036125
   114  H   -0.028874
   115  H   -0.036960
   116  H   -0.035556
   117  H    0.003605
   118  H   -0.025625
   119  H   -0.039262
   120  H   -0.022192
   121  H   -0.023845
   122  H   -0.038636
   123  H   -0.033716
   124  H   -0.041710
   125  H   -0.025639
   126  H   -0.015972
   127  H   -0.024101
   128  H   -0.043200
   129  H   -0.022790
   130  H   -0.022483
   131  H   -0.029122
   132  H   -0.043501
   133  H   -0.032831
   134  H   -0.029836
   135  H   -0.022715
   136  H   -0.023439
   137  H   -0.018777
   138  H   -0.021485
   139  H    0.003843
   140  H   -0.030327
 Sum of Mulliken charges =  -0.00000
 Mulliken charges with hydrogens summed into heavy atoms:
               1
     1  Mg   0.708216
     2  C   -0.056388
     3  C   -0.135995
     4  C   -0.116268
     5  C   -0.143622
     6  N   -0.230892
     7  C   -0.103120
     8  C    0.003527
     9  C   -0.041579
    10  C    0.083981
    11  C    0.106797
    12  C    0.066850
    13  C    0.159028
    14  C    0.074122
    15  O   -0.223936
    16  O   -0.229956
    17  N   -0.280887
    18  C    0.086212
    19  C   -0.120807
    20  C    0.032021
    21  C    0.076199
    22  C    0.150157
    23  C   -0.100093
    24  O   -0.163285
    25  C    0.173456
    26  N   -0.256677
    27  C    0.067501
    28  C    0.002574
    29  C   -0.021825
    30  C    0.022131
    31  C    0.124477
    32  C    0.029862
    33  C    0.079739
    34  N   -0.219424
    35  C    0.125162
    36  C   -0.215825
    37  C    0.130531
    38  C    0.093393
    39  C    0.192047
    40  C   -0.033058
    41  O   -0.148398
    42  C    0.087926
    43  C    0.143271
    44  O   -0.192056
    45  O   -0.273608
    46  C    0.254849
    47  C    0.370661
    48  C   -0.198764
    49  C   -0.161665
    50  C    0.120554
    51  C    0.073531
    52  C    0.039169
    53  C    0.007916
    54  C   -0.104852
    55  C    0.042492
    56  C    0.037180
    57  C   -0.026677
    58  C    0.055135
    59  C   -0.134397
    60  C    0.053780
    61  C    0.050952
    62  C    0.046450
    63  C   -0.037223
    64  C   -0.126324
    65  C    0.048532
    66  C    0.077220
 Electronic spatial extent (au):  <R**2>=         125195.5646
 Charge=             -0.0000 electrons
 Dipole moment (field-independent basis, Debye):
    X=             -2.5852    Y=              3.7620    Z=              0.3242  Tot=              4.5761
 Quadrupole moment (field-independent basis, Debye-Ang):
   XX=           -376.3589   YY=           -429.9723   ZZ=           -411.9814
   XY=             -8.4362   XZ=             24.1176   YZ=              7.6057
 Traceless Quadrupole moment (field-independent basis, Debye-Ang):
   XX=             29.7453   YY=            -23.8681   ZZ=             -5.8772
   XY=             -8.4362   XZ=             24.1176   YZ=              7.6057
 Octapole moment (field-independent basis, Debye-Ang**2):
  XXX=            134.4724  YYY=            123.0266  ZZZ=            -27.9288  XYY=           -169.0326
  XXY=           -196.0705  XXZ=            164.4251  XZZ=             39.2627  YZZ=              0.4438
  YYZ=            -49.3431  XYZ=            -17.0925
 Hexadecapole moment (field-independent basis, Debye-Ang**3):
 XXXX=        -141802.7267 YYYY=         -19988.1633 ZZZZ=          -7407.9393 XXXY=          -2640.8221
 XXXZ=            546.7101 YYYX=            355.3988 YYYZ=            190.9205 ZZZX=            155.7737
 ZZZY=             36.5042 XXYY=         -29568.6955 XXZZ=         -25959.8783 YYZZ=          -4455.2285
 XXYZ=            179.6859 YYXZ=            159.7362 ZZXY=             92.0155
 N-N= 9.495529541112D+03 E-N=-2.598575427206D+04  KE= 2.977621180960D+03
 Leave Link  601 at Wed May  4 18:49:49 2022, MaxMem= 10066329600 cpu:              16.1 elap:               0.8
 (Enter /sw/apps/gaussian-16.0/g16/l9999.exe)
 1\1\GINC-BP1-COMPUTE215\SP\RBLYP TD-FC\def2SVP\C55H74Mg1N4O6\OF15641\0
 4-May-2022\0\\#p blyp/Def2SVP td=(nstates=5)\\step_251_chromophore_25 
 TDDFT with blyp functional\\0,1\Mg,0,-2.512,34.32,26.71\C,0,-3.706,32.
 37,29.494\C,0,-1.096,36.452,28.856\C,0,-2.235,36.472,24.156\C,0,-4.454
 ,32.242,24.657\N,0,-2.472,34.411,28.883\C,0,-2.842,33.436,29.825\C,0,-
 2.279,33.778,31.257\C,0,-1.516,35.114,31.007\C,0,-1.649,35.323,29.475\
 C,0,-1.968,36.325,31.783\C,0,-1.395,32.574,31.888\C,0,-1.813,32.123,33
 .293\C,0,-0.669,32.237,34.368\O,0,0.054,31.28,34.759\O,0,-0.64,33.491,
 34.83\N,0,-1.637,36.158,26.505\C,0,-1.11,36.895,27.488\C,0,-0.61,38.17
 8,26.991\C,0,-1.042,38.204,25.62\C,0,-1.69,36.914,25.361\C,0,0.109,39.
 146,27.829\C,0,-0.905,39.451,24.691\O,0,-1.223,39.418,23.514\C,0,-0.35
 5,40.758,25.166\N,0,-3.223,34.331,24.763\C,0,-2.855,35.305,23.841\C,0,
 -3.393,34.958,22.414\C,0,-3.787,33.44,22.551\C,0,-3.776,33.289,24.072\
 C,0,-4.458,35.913,21.783\C,0,-2.788,32.46,21.877\C,0,-3.333,31.256,21.
 151\N,0,-3.861,32.677,26.985\C,0,-4.559,31.955,26.059\C,0,-5.216,30.76
 8,26.762\C,0,-4.866,30.866,28.087\C,0,-4.102,32.079,28.188\C,0,-5.976,
 29.695,26.016\C,0,-4.987,30.303,29.42\O,0,-5.621,29.26,29.684\C,0,-4.2
 82,31.353,30.469\C,0,-5.239,32.034,31.425\O,0,-6.237,32.649,31.\O,0,-4
 .967,31.732,32.76\C,0,-6.098,32.021,33.634\C,0,0.222,33.704,35.942\C,0
 ,-0.282,34.928,36.657\C,0,0.051,35.427,37.854\C,0,1.023,34.675,38.818\
 C,0,-0.65,36.631,38.439\C,0,-1.77,36.397,39.492\C,0,-1.729,37.395,40.7
 81\C,0,-1.454,36.6,42.108\C,0,-2.534,36.95,43.149\C,0,-0.008,36.811,42
 .638\C,0,0.502,35.633,43.537\C,0,0.883,35.946,45.025\C,0,2.176,35.252,
 45.423\C,0,2.18,34.82,46.907\C,0,3.349,36.121,44.95\C,0,4.641,35.371,4
 4.762\C,0,5.11,35.624,43.304\C,0,5.387,34.303,42.566\C,0,6.581,34.522,
 41.686\C,0,4.121,33.908,41.727\H,0,-0.519,37.13,29.488\H,0,-2.044,37.2
 03,23.368\H,0,-4.934,31.572,23.94\H,0,-3.19,33.893,31.844\H,0,-0.528,3
 4.949,31.439\H,0,-2.834,36.131,32.416\H,0,-2.36,36.923,30.961\H,0,-1.1
 89,36.745,32.42\H,0,-0.386,32.985,31.87\H,0,-1.367,31.747,31.179\H,0,-
 2.212,31.114,33.189\H,0,-2.623,32.762,33.647\H,0,-0.255,40.169,27.919\
 H,0,1.019,39.361,27.27\H,0,0.499,38.755,28.769\H,0,0.665,40.536,25.482
 \H,0,-0.917,41.023,26.062\H,0,-0.466,41.445,24.328\H,0,-2.506,35.025,2
 1.784\H,0,-4.814,33.239,22.247\H,0,-4.509,36.75,22.479\H,0,-5.42,35.44
 2,21.583\H,0,-4.086,36.406,20.884\H,0,-2.245,32.169,22.776\H,0,-2.065,
 32.93,21.21\H,0,-2.75,31.181,20.233\H,0,-4.377,31.369,20.857\H,0,-3.03
 1,30.391,21.742\H,0,-5.976,29.976,24.963\H,0,-7.017,29.734,26.336\H,0,
 -5.547,28.719,26.242\H,0,-3.482,30.828,30.991\H,0,-6.594,31.149,34.058
 \H,0,-6.868,32.642,33.176\H,0,-5.697,32.605,34.462\H,0,1.253,33.954,35
 .69\H,0,0.15,32.926,36.702\H,0,-0.976,35.538,36.08\H,0,0.748,34.711,39
 .873\H,0,1.922,35.29,38.797\H,0,1.217,33.698,38.376\H,0,-1.07,37.182,3
 7.597\H,0,0.064,37.316,38.896\H,0,-1.608,35.347,39.737\H,0,-2.763,36.5
 48,39.068\H,0,-2.663,37.952,40.845\H,0,-1.082,38.27,40.724\H,0,-1.606,
 35.542,41.892\H,0,-2.143,37.655,43.883\H,0,-2.597,36.161,43.898\H,0,-3
 .499,37.257,42.747\H,0,0.04,37.778,43.139\H,0,0.717,36.807,41.824\H,0,
 1.364,35.225,43.01\H,0,-0.297,34.897,43.617\H,0,-0.018,35.578,45.515\H
 ,0,0.966,37.031,45.095\H,0,2.269,34.324,44.859\H,0,2.955,35.289,47.513
 \H,0,2.268,33.735,46.953\H,0,1.285,35.075,47.476\H,0,3.574,36.775,45.7
 92\H,0,3.002,36.703,44.096\H,0,4.533,34.289,44.838\H,0,5.46,35.735,45.
 382\H,0,5.977,36.264,43.467\H,0,4.435,36.225,42.694\H,0,5.649,33.58,43
 .34\H,0,6.732,33.779,40.903\H,0,7.446,34.513,42.351\H,0,6.506,35.506,4
 1.225\H,0,3.936,32.964,42.239\H,0,4.224,33.82,40.645\H,0,3.228,34.454,
 42.032\\Version=ES64L-G16RevA.03\State=1-A\HF=-3007.3577124\RMSD=5.117
 e-09\PG=C01 [X(C55H74Mg1N4O6)]\\@


 DON'T WORRY CHARLIE BROWN...WE LEARN MORE FROM LOSING 
 THAN WE DO FROM WINNING.
 THEN THAT MAKES ME THE SMARTEST PERSON IN THE WORLD...
 CHARLES SCHULZ 'PEANUTS'
 Job cpu time:       0 days  6 hours 28 minutes 29.7 seconds.
 Elapsed time:       0 days  0 hours 16 minutes 19.7 seconds.
 File lengths (MBytes):  RWF=   8014 Int=      0 D2E=      0 Chk=    390 Scr=      1
 Normal termination of Gaussian 16 at Wed May  4 18:49:49 2022.
