 Entering Gaussian System, Link 0=g16
 Initial command:
 /sw/apps/gaussian-16.0/g16/l1.exe "/tmp/Gau-40035.inp" -scrdir="/tmp/"
 Entering Link 1 = /sw/apps/gaussian-16.0/g16/l1.exe PID=     40036.
  
 Copyright (c) 1988,1990,1992,1993,1995,1998,2003,2009,2016,
            Gaussian, Inc.  All Rights Reserved.
  
 This is part of the Gaussian(R) 16 program.  It is based on
 the Gaussian(R) 09 system (copyright 2009, Gaussian, Inc.),
 the Gaussian(R) 03 system (copyright 2003, Gaussian, Inc.),
 the Gaussian(R) 98 system (copyright 1998, Gaussian, Inc.),
 the Gaussian(R) 94 system (copyright 1995, Gaussian, Inc.),
 the Gaussian 92(TM) system (copyright 1992, Gaussian, Inc.),
 the Gaussian 90(TM) system (copyright 1990, Gaussian, Inc.),
 the Gaussian 88(TM) system (copyright 1988, Gaussian, Inc.),
 the Gaussian 86(TM) system (copyright 1986, Carnegie Mellon
 University), and the Gaussian 82(TM) system (copyright 1983,
 Carnegie Mellon University). Gaussian is a federally registered
 trademark of Gaussian, Inc.
  
 This software contains proprietary and confidential information,
 including trade secrets, belonging to Gaussian, Inc.
  
 This software is provided under written license and may be
 used, copied, transmitted, or stored only in accord with that
 written license.
  
 The following legend is applicable only to US Government
 contracts under FAR:
  
                    RESTRICTED RIGHTS LEGEND
  
 Use, reproduction and disclosure by the US Government is
 subject to restrictions as set forth in subparagraphs (a)
 and (c) of the Commercial Computer Software - Restricted
 Rights clause in FAR 52.227-19.
  
 Gaussian, Inc.
 340 Quinnipiac St., Bldg. 40, Wallingford CT 06492
  
  
 ---------------------------------------------------------------
 Warning -- This program may not be used in any manner that
 competes with the business of Gaussian, Inc. or will provide
 assistance to any competitor of Gaussian, Inc.  The licensee
 of this program is prohibited from giving any competitor of
 Gaussian, Inc. access to this program.  By using this program,
 the user acknowledges that Gaussian, Inc. is engaged in the
 business of creating and licensing software in the field of
 computational chemistry and represents and warrants to the
 licensee that it is not a competitor of Gaussian, Inc. and that
 it will not use this program in any manner prohibited above.
 ---------------------------------------------------------------
  

 Cite this work as:
 Gaussian 16, Revision A.03,
 M. J. Frisch, G. W. Trucks, H. B. Schlegel, G. E. Scuseria, 
 M. A. Robb, J. R. Cheeseman, G. Scalmani, V. Barone, 
 G. A. Petersson, H. Nakatsuji, X. Li, M. Caricato, A. V. Marenich, 
 J. Bloino, B. G. Janesko, R. Gomperts, B. Mennucci, H. P. Hratchian, 
 J. V. Ortiz, A. F. Izmaylov, J. L. Sonnenberg, D. Williams-Young, 
 F. Ding, F. Lipparini, F. Egidi, J. Goings, B. Peng, A. Petrone, 
 T. Henderson, D. Ranasinghe, V. G. Zakrzewski, J. Gao, N. Rega, 
 G. Zheng, W. Liang, M. Hada, M. Ehara, K. Toyota, R. Fukuda, 
 J. Hasegawa, M. Ishida, T. Nakajima, Y. Honda, O. Kitao, H. Nakai, 
 T. Vreven, K. Throssell, J. A. Montgomery, Jr., J. E. Peralta, 
 F. Ogliaro, M. J. Bearpark, J. J. Heyd, E. N. Brothers, K. N. Kudin, 
 V. N. Staroverov, T. A. Keith, R. Kobayashi, J. Normand, 
 K. Raghavachari, A. P. Rendell, J. C. Burant, S. S. Iyengar, 
 J. Tomasi, M. Cossi, J. M. Millam, M. Klene, C. Adamo, R. Cammi, 
 J. W. Ochterski, R. L. Martin, K. Morokuma, O. Farkas, 
 J. B. Foresman, and D. J. Fox, Gaussian, Inc., Wallingford CT, 2016.
 
 ******************************************
 Gaussian 16:  ES64L-G16RevA.03 25-Dec-2016
                 4-May-2022 
 ******************************************
 %nproc=24
 Will use up to   24 processors via shared memory.
 %mem=50gb
 --------------------
 #p ZINDO=(nstates=5)
 --------------------
 1/38=1,172=1/1;
 2/12=2,17=6,18=5,40=1/2;
 3/5=2,25=1,41=400000/1,2,3,8;
 4/5=3,35=1/1;
 5/5=2,35=1,38=5/2;
 8/6=1,108=5/1;
 9/41=5,42=1,49=10/14;
 6/7=2,8=2,9=2,10=2/1;
 99/5=1,9=1/99;
 Leave Link    1 at Wed May  4 18:33:11 2022, MaxMem=  6710886400 cpu:               0.5 elap:               0.0
 (Enter /sw/apps/gaussian-16.0/g16/l101.exe)
 -----------------------------
 step_301_chromophore_15 ZINDO
 -----------------------------
 Symbolic Z-matrix:
 Charge =  0 Multiplicity = 1
 Mg                    46.664    34.717    27.817 
 C                     45.204    32.745    30.407 
 C                     46.666    37.362    30.06 
 C                     47.48     36.714    25.298 
 C                     45.989    32.185    25.503 
 N                     45.998    34.986    29.953 
 C                     45.752    33.951    30.857 
 C                     45.804    34.503    32.307 
 C                     45.946    36.06     32.073 
 C                     46.234    36.17     30.609 
 C                     44.761    36.907    32.58 
 C                     47.091    33.926    33.051 
 C                     47.034    33.645    34.553 
 C                     45.988    34.576    35.367 
 O                     44.767    34.544    35.429 
 O                     46.73     35.574    35.995 
 N                     47.211    36.68     27.714 
 C                     47.099    37.658    28.749 
 C                     47.607    38.974    28.247 
 C                     47.871    38.681    26.839 
 C                     47.52     37.308    26.548 
 C                     47.96     40.132    29.17 
 C                     48.42     39.654    25.784 
 O                     48.602    39.403    24.598 
 C                     48.759    41.072    26.288 
 N                     46.634    34.521    25.703 
 C                     47.008    35.488    24.867 
 C                     46.991    35.004    23.428 
 C                     46.75     33.474    23.503 
 C                     46.429    33.367    25.024 
 C                     45.827    35.737    22.692 
 C                     47.896    32.578    22.942 
 C                     49.191    32.49     23.853 
 N                     45.773    32.836    27.902 
 C                     45.621    31.986    26.832 
 C                     45.094    30.728    27.357 
 C                     44.796    31.031    28.779 
 C                     45.248    32.343    29.056 
 C                     44.804    29.427    26.675 
 C                     44.236    30.504    30.033 
 O                     43.718    29.429    30.213 
 C                     44.35     31.686    31.088 
 C                     44.747    31.304    32.478 
 O                     45.784    30.847    32.887 
 O                     43.624    31.576    33.28 
 C                     43.88     31.449    34.743 
 C                     46.013    36.612    36.766 
 C                     46.859    37.756    37.309 
 C                     46.671    38.596    38.331 
 C                     45.353    38.91     38.916 
 C                     47.75     39.52     38.806 
 C                     47.674    41.037    38.25 
 C                     48.966    41.893    38.604 
 C                     49.052    43.291    37.75 
 C                     49.653    43.132    36.296 
 C                     49.713    44.484    38.558 
 C                     48.865    44.836    39.737 
 C                     48.514    46.398    39.961 
 C                     47.069    46.846    39.646 
 C                     47.003    48.328    39.447 
 C                     46.041    46.344    40.674 
 C                     44.719    45.771    40.044 
 C                     43.587    46.849    40.317 
 C                     42.238    46.494    39.597 
 C                     42.288    47.07     38.17 
 C                     41.058    47.133    40.423 
 H                     46.648    38.171    30.793 
 H                     47.658    37.351    24.428 
 H                     45.855    31.335    24.83 
 H                     44.789    34.328    32.663 
 H                     46.825    36.393    32.624 
 H                     45.229    37.789    33.018 
 H                     44.085    36.387    33.26 
 H                     44.157    37.204    31.723 
 H                     47.913    34.64     32.991 
 H                     47.283    32.967    32.571 
 H                     48.004    33.918    34.967 
 H                     46.86     32.614    34.862 
 H                     48.914    40.604    28.937 
 H                     47.933    39.758    30.194 
 H                     47.191    40.903    29.118 
 H                     49.551    41.171    27.031 
 H                     47.85     41.503    26.708 
 H                     49.117    41.691    25.466 
 H                     47.882    35.158    22.819 
 H                     45.892    33.236    22.874 
 H                     45.783    36.808    22.892 
 H                     44.853    35.341    22.98 
 H                     46.069    35.704    21.63 
 H                     48.196    32.953    21.963 
 H                     47.415    31.605    22.848 
 H                     50.047    32.548    23.18 
 H                     49.28     31.467    24.22 
 H                     49.136    33.371    24.491 
 H                     43.754    29.175    26.819 
 H                     45.47     28.686    27.119 
 H                     45.034    29.624    25.628 
 H                     43.402    32.195    31.264 
 H                     43.392    30.551    35.124 
 H                     43.371    32.332    35.129 
 H                     44.888    31.435    35.158 
 H                     45.332    36.143    37.476 
 H                     45.438    37.166    36.025 
 H                     47.859    37.775    36.876 
 H                     44.998    39.918    38.701 
 H                     45.318    38.724    39.989 
 H                     44.611    38.204    38.541 
 H                     48.745    39.078    38.752 
 H                     47.602    39.677    39.874 
 H                     46.781    41.48     38.693 
 H                     47.52     41.103    37.173 
 H                     49.87     41.352    38.322 
 H                     49.046    42.191    39.649 
 H                     48.009    43.545    37.559 
 H                     48.821    43.291    35.61 
 H                     50.141    42.202    36.005 
 H                     50.38     43.919    36.091 
 H                     49.833    45.356    37.916 
 H                     50.683    44.036    38.778 
 H                     49.478    44.489    40.568 
 H                     47.868    44.394    39.743 
 H                     49.308    47.044    39.587 
 H                     48.642    46.625    41.019 
 H                     46.955    46.373    38.67 
 H                     47.156    48.609    38.405 
 H                     47.884    48.669    39.991 
 H                     46.076    48.777    39.801 
 H                     45.957    47.173    41.376 
 H                     46.561    45.508    41.143 
 H                     44.429    44.867    40.581 
 H                     44.84     45.598    38.974 
 H                     43.952    47.821    39.984 
 H                     43.409    46.822    41.392 
 H                     42.142    45.41     39.664 
 H                     43.318    46.886    37.864 
 H                     42.066    48.126    38.015 
 H                     41.715    46.409    37.521 
 H                     41.476    47.843    41.137 
 H                     40.5      46.314    40.876 
 H                     40.353    47.599    39.734 
 
 ITRead=  0  0  0  0  0  0  0  0  0  0  0  0  0  0  0  0  0  0  0  0
 ITRead=  0  0  0  0  0  0  0  0  0  0  0  0  0  0  0  0  0  0  0  0
 ITRead=  0  0  0  0  0  0  0  0  0  0  0  0  0  0  0  0  0  0  0  0
 ITRead=  0  0  0  0  0  0  0  0  0  0  0  0  0  0  0  0  0  0  0  0
 ITRead=  0  0  0  0  0  0  0  0  0  0  0  0  0  0  0  0  0  0  0  0
 ITRead=  0  0  0  0  0  0  0  0  0  0  0  0  0  0  0  0  0  0  0  0
 ITRead=  0  0  0  0  0  0  0  0  0  0  0  0  0  0  0  0  0  0  0  0
 MicOpt= -1 -1 -1 -1 -1 -1 -1 -1 -1 -1 -1 -1 -1 -1 -1 -1 -1 -1 -1 -1
 MicOpt= -1 -1 -1 -1 -1 -1 -1 -1 -1 -1 -1 -1 -1 -1 -1 -1 -1 -1 -1 -1
 MicOpt= -1 -1 -1 -1 -1 -1 -1 -1 -1 -1 -1 -1 -1 -1 -1 -1 -1 -1 -1 -1
 MicOpt= -1 -1 -1 -1 -1 -1 -1 -1 -1 -1 -1 -1 -1 -1 -1 -1 -1 -1 -1 -1
 MicOpt= -1 -1 -1 -1 -1 -1 -1 -1 -1 -1 -1 -1 -1 -1 -1 -1 -1 -1 -1 -1
 MicOpt= -1 -1 -1 -1 -1 -1 -1 -1 -1 -1 -1 -1 -1 -1 -1 -1 -1 -1 -1 -1
 MicOpt= -1 -1 -1 -1 -1 -1 -1 -1 -1 -1 -1 -1 -1 -1 -1 -1 -1 -1 -1 -1
 NAtoms=    140 NQM=      140 NQMF=       0 NMMI=      0 NMMIF=      0
                NMic=       0 NMicF=      0.
                    Isotopes and Nuclear Properties:
 (Nuclear quadrupole moments (NQMom) in fm**2, nuclear magnetic moments (NMagM)
  in nuclear magnetons)

  Atom         1           2           3           4           5           6           7           8           9          10
 IAtWgt=          24          12          12          12          12          14          12          12          12          12
 AtmWgt=  23.9850450  12.0000000  12.0000000  12.0000000  12.0000000  14.0030740  12.0000000  12.0000000  12.0000000  12.0000000
 NucSpn=           0           0           0           0           0           2           0           0           0           0
 AtZEff=  -0.0000000  -0.0000000  -0.0000000  -0.0000000  -0.0000000  -0.0000000  -0.0000000  -0.0000000  -0.0000000  -0.0000000
 NQMom=    0.0000000   0.0000000   0.0000000   0.0000000   0.0000000   2.0440000   0.0000000   0.0000000   0.0000000   0.0000000
 NMagM=    0.0000000   0.0000000   0.0000000   0.0000000   0.0000000   0.4037610   0.0000000   0.0000000   0.0000000   0.0000000
 AtZNuc=  12.0000000   6.0000000   6.0000000   6.0000000   6.0000000   7.0000000   6.0000000   6.0000000   6.0000000   6.0000000

  Atom        11          12          13          14          15          16          17          18          19          20
 IAtWgt=          12          12          12          12          16          16          14          12          12          12
 AtmWgt=  12.0000000  12.0000000  12.0000000  12.0000000  15.9949146  15.9949146  14.0030740  12.0000000  12.0000000  12.0000000
 NucSpn=           0           0           0           0           0           0           2           0           0           0
 AtZEff=  -0.0000000  -0.0000000  -0.0000000  -0.0000000  -0.0000000  -0.0000000  -0.0000000  -0.0000000  -0.0000000  -0.0000000
 NQMom=    0.0000000   0.0000000   0.0000000   0.0000000   0.0000000   0.0000000   2.0440000   0.0000000   0.0000000   0.0000000
 NMagM=    0.0000000   0.0000000   0.0000000   0.0000000   0.0000000   0.0000000   0.4037610   0.0000000   0.0000000   0.0000000
 AtZNuc=   6.0000000   6.0000000   6.0000000   6.0000000   8.0000000   8.0000000   7.0000000   6.0000000   6.0000000   6.0000000

  Atom        21          22          23          24          25          26          27          28          29          30
 IAtWgt=          12          12          12          16          12          14          12          12          12          12
 AtmWgt=  12.0000000  12.0000000  12.0000000  15.9949146  12.0000000  14.0030740  12.0000000  12.0000000  12.0000000  12.0000000
 NucSpn=           0           0           0           0           0           2           0           0           0           0
 AtZEff=  -0.0000000  -0.0000000  -0.0000000  -0.0000000  -0.0000000  -0.0000000  -0.0000000  -0.0000000  -0.0000000  -0.0000000
 NQMom=    0.0000000   0.0000000   0.0000000   0.0000000   0.0000000   2.0440000   0.0000000   0.0000000   0.0000000   0.0000000
 NMagM=    0.0000000   0.0000000   0.0000000   0.0000000   0.0000000   0.4037610   0.0000000   0.0000000   0.0000000   0.0000000
 AtZNuc=   6.0000000   6.0000000   6.0000000   8.0000000   6.0000000   7.0000000   6.0000000   6.0000000   6.0000000   6.0000000

  Atom        31          32          33          34          35          36          37          38          39          40
 IAtWgt=          12          12          12          14          12          12          12          12          12          12
 AtmWgt=  12.0000000  12.0000000  12.0000000  14.0030740  12.0000000  12.0000000  12.0000000  12.0000000  12.0000000  12.0000000
 NucSpn=           0           0           0           2           0           0           0           0           0           0
 AtZEff=  -0.0000000  -0.0000000  -0.0000000  -0.0000000  -0.0000000  -0.0000000  -0.0000000  -0.0000000  -0.0000000  -0.0000000
 NQMom=    0.0000000   0.0000000   0.0000000   2.0440000   0.0000000   0.0000000   0.0000000   0.0000000   0.0000000   0.0000000
 NMagM=    0.0000000   0.0000000   0.0000000   0.4037610   0.0000000   0.0000000   0.0000000   0.0000000   0.0000000   0.0000000
 AtZNuc=   6.0000000   6.0000000   6.0000000   7.0000000   6.0000000   6.0000000   6.0000000   6.0000000   6.0000000   6.0000000

  Atom        41          42          43          44          45          46          47          48          49          50
 IAtWgt=          16          12          12          16          16          12          12          12          12          12
 AtmWgt=  15.9949146  12.0000000  12.0000000  15.9949146  15.9949146  12.0000000  12.0000000  12.0000000  12.0000000  12.0000000
 NucSpn=           0           0           0           0           0           0           0           0           0           0
 AtZEff=  -0.0000000  -0.0000000  -0.0000000  -0.0000000  -0.0000000  -0.0000000  -0.0000000  -0.0000000  -0.0000000  -0.0000000
 NQMom=    0.0000000   0.0000000   0.0000000   0.0000000   0.0000000   0.0000000   0.0000000   0.0000000   0.0000000   0.0000000
 NMagM=    0.0000000   0.0000000   0.0000000   0.0000000   0.0000000   0.0000000   0.0000000   0.0000000   0.0000000   0.0000000
 AtZNuc=   8.0000000   6.0000000   6.0000000   8.0000000   8.0000000   6.0000000   6.0000000   6.0000000   6.0000000   6.0000000

  Atom        51          52          53          54          55          56          57          58          59          60
 IAtWgt=          12          12          12          12          12          12          12          12          12          12
 AtmWgt=  12.0000000  12.0000000  12.0000000  12.0000000  12.0000000  12.0000000  12.0000000  12.0000000  12.0000000  12.0000000
 NucSpn=           0           0           0           0           0           0           0           0           0           0
 AtZEff=  -0.0000000  -0.0000000  -0.0000000  -0.0000000  -0.0000000  -0.0000000  -0.0000000  -0.0000000  -0.0000000  -0.0000000
 NQMom=    0.0000000   0.0000000   0.0000000   0.0000000   0.0000000   0.0000000   0.0000000   0.0000000   0.0000000   0.0000000
 NMagM=    0.0000000   0.0000000   0.0000000   0.0000000   0.0000000   0.0000000   0.0000000   0.0000000   0.0000000   0.0000000
 AtZNuc=   6.0000000   6.0000000   6.0000000   6.0000000   6.0000000   6.0000000   6.0000000   6.0000000   6.0000000   6.0000000

  Atom        61          62          63          64          65          66          67          68          69          70
 IAtWgt=          12          12          12          12          12          12           1           1           1           1
 AtmWgt=  12.0000000  12.0000000  12.0000000  12.0000000  12.0000000  12.0000000   1.0078250   1.0078250   1.0078250   1.0078250
 NucSpn=           0           0           0           0           0           0           1           1           1           1
 AtZEff=  -0.0000000  -0.0000000  -0.0000000  -0.0000000  -0.0000000  -0.0000000  -0.0000000  -0.0000000  -0.0000000  -0.0000000
 NQMom=    0.0000000   0.0000000   0.0000000   0.0000000   0.0000000   0.0000000   0.0000000   0.0000000   0.0000000   0.0000000
 NMagM=    0.0000000   0.0000000   0.0000000   0.0000000   0.0000000   0.0000000   2.7928460   2.7928460   2.7928460   2.7928460
 AtZNuc=   6.0000000   6.0000000   6.0000000   6.0000000   6.0000000   6.0000000   1.0000000   1.0000000   1.0000000   1.0000000

  Atom        71          72          73          74          75          76          77          78          79          80
 IAtWgt=           1           1           1           1           1           1           1           1           1           1
 AtmWgt=   1.0078250   1.0078250   1.0078250   1.0078250   1.0078250   1.0078250   1.0078250   1.0078250   1.0078250   1.0078250
 NucSpn=           1           1           1           1           1           1           1           1           1           1
 AtZEff=  -0.0000000  -0.0000000  -0.0000000  -0.0000000  -0.0000000  -0.0000000  -0.0000000  -0.0000000  -0.0000000  -0.0000000
 NQMom=    0.0000000   0.0000000   0.0000000   0.0000000   0.0000000   0.0000000   0.0000000   0.0000000   0.0000000   0.0000000
 NMagM=    2.7928460   2.7928460   2.7928460   2.7928460   2.7928460   2.7928460   2.7928460   2.7928460   2.7928460   2.7928460
 AtZNuc=   1.0000000   1.0000000   1.0000000   1.0000000   1.0000000   1.0000000   1.0000000   1.0000000   1.0000000   1.0000000

  Atom        81          82          83          84          85          86          87          88          89          90
 IAtWgt=           1           1           1           1           1           1           1           1           1           1
 AtmWgt=   1.0078250   1.0078250   1.0078250   1.0078250   1.0078250   1.0078250   1.0078250   1.0078250   1.0078250   1.0078250
 NucSpn=           1           1           1           1           1           1           1           1           1           1
 AtZEff=  -0.0000000  -0.0000000  -0.0000000  -0.0000000  -0.0000000  -0.0000000  -0.0000000  -0.0000000  -0.0000000  -0.0000000
 NQMom=    0.0000000   0.0000000   0.0000000   0.0000000   0.0000000   0.0000000   0.0000000   0.0000000   0.0000000   0.0000000
 NMagM=    2.7928460   2.7928460   2.7928460   2.7928460   2.7928460   2.7928460   2.7928460   2.7928460   2.7928460   2.7928460
 AtZNuc=   1.0000000   1.0000000   1.0000000   1.0000000   1.0000000   1.0000000   1.0000000   1.0000000   1.0000000   1.0000000

  Atom        91          92          93          94          95          96          97          98          99         100
 IAtWgt=           1           1           1           1           1           1           1           1           1           1
 AtmWgt=   1.0078250   1.0078250   1.0078250   1.0078250   1.0078250   1.0078250   1.0078250   1.0078250   1.0078250   1.0078250
 NucSpn=           1           1           1           1           1           1           1           1           1           1
 AtZEff=  -0.0000000  -0.0000000  -0.0000000  -0.0000000  -0.0000000  -0.0000000  -0.0000000  -0.0000000  -0.0000000  -0.0000000
 NQMom=    0.0000000   0.0000000   0.0000000   0.0000000   0.0000000   0.0000000   0.0000000   0.0000000   0.0000000   0.0000000
 NMagM=    2.7928460   2.7928460   2.7928460   2.7928460   2.7928460   2.7928460   2.7928460   2.7928460   2.7928460   2.7928460
 AtZNuc=   1.0000000   1.0000000   1.0000000   1.0000000   1.0000000   1.0000000   1.0000000   1.0000000   1.0000000   1.0000000

  Atom       101         102         103         104         105         106         107         108         109         110
 IAtWgt=           1           1           1           1           1           1           1           1           1           1
 AtmWgt=   1.0078250   1.0078250   1.0078250   1.0078250   1.0078250   1.0078250   1.0078250   1.0078250   1.0078250   1.0078250
 NucSpn=           1           1           1           1           1           1           1           1           1           1
 AtZEff=  -0.0000000  -0.0000000  -0.0000000  -0.0000000  -0.0000000  -0.0000000  -0.0000000  -0.0000000  -0.0000000  -0.0000000
 NQMom=    0.0000000   0.0000000   0.0000000   0.0000000   0.0000000   0.0000000   0.0000000   0.0000000   0.0000000   0.0000000
 NMagM=    2.7928460   2.7928460   2.7928460   2.7928460   2.7928460   2.7928460   2.7928460   2.7928460   2.7928460   2.7928460
 AtZNuc=   1.0000000   1.0000000   1.0000000   1.0000000   1.0000000   1.0000000   1.0000000   1.0000000   1.0000000   1.0000000

  Atom       111         112         113         114         115         116         117         118         119         120
 IAtWgt=           1           1           1           1           1           1           1           1           1           1
 AtmWgt=   1.0078250   1.0078250   1.0078250   1.0078250   1.0078250   1.0078250   1.0078250   1.0078250   1.0078250   1.0078250
 NucSpn=           1           1           1           1           1           1           1           1           1           1
 AtZEff=  -0.0000000  -0.0000000  -0.0000000  -0.0000000  -0.0000000  -0.0000000  -0.0000000  -0.0000000  -0.0000000  -0.0000000
 NQMom=    0.0000000   0.0000000   0.0000000   0.0000000   0.0000000   0.0000000   0.0000000   0.0000000   0.0000000   0.0000000
 NMagM=    2.7928460   2.7928460   2.7928460   2.7928460   2.7928460   2.7928460   2.7928460   2.7928460   2.7928460   2.7928460
 AtZNuc=   1.0000000   1.0000000   1.0000000   1.0000000   1.0000000   1.0000000   1.0000000   1.0000000   1.0000000   1.0000000

  Atom       121         122         123         124         125         126         127         128         129         130
 IAtWgt=           1           1           1           1           1           1           1           1           1           1
 AtmWgt=   1.0078250   1.0078250   1.0078250   1.0078250   1.0078250   1.0078250   1.0078250   1.0078250   1.0078250   1.0078250
 NucSpn=           1           1           1           1           1           1           1           1           1           1
 AtZEff=  -0.0000000  -0.0000000  -0.0000000  -0.0000000  -0.0000000  -0.0000000  -0.0000000  -0.0000000  -0.0000000  -0.0000000
 NQMom=    0.0000000   0.0000000   0.0000000   0.0000000   0.0000000   0.0000000   0.0000000   0.0000000   0.0000000   0.0000000
 NMagM=    2.7928460   2.7928460   2.7928460   2.7928460   2.7928460   2.7928460   2.7928460   2.7928460   2.7928460   2.7928460
 AtZNuc=   1.0000000   1.0000000   1.0000000   1.0000000   1.0000000   1.0000000   1.0000000   1.0000000   1.0000000   1.0000000

  Atom       131         132         133         134         135         136         137         138         139         140
 IAtWgt=           1           1           1           1           1           1           1           1           1           1
 AtmWgt=   1.0078250   1.0078250   1.0078250   1.0078250   1.0078250   1.0078250   1.0078250   1.0078250   1.0078250   1.0078250
 NucSpn=           1           1           1           1           1           1           1           1           1           1
 AtZEff=  -0.0000000  -0.0000000  -0.0000000  -0.0000000  -0.0000000  -0.0000000  -0.0000000  -0.0000000  -0.0000000  -0.0000000
 NQMom=    0.0000000   0.0000000   0.0000000   0.0000000   0.0000000   0.0000000   0.0000000   0.0000000   0.0000000   0.0000000
 NMagM=    2.7928460   2.7928460   2.7928460   2.7928460   2.7928460   2.7928460   2.7928460   2.7928460   2.7928460   2.7928460
 AtZNuc=   1.0000000   1.0000000   1.0000000   1.0000000   1.0000000   1.0000000   1.0000000   1.0000000   1.0000000   1.0000000
 Leave Link  101 at Wed May  4 18:33:11 2022, MaxMem=  6710886400 cpu:               2.8 elap:               0.1
 (Enter /sw/apps/gaussian-16.0/g16/l202.exe)
 Stoichiometry    C55H74MgN4O6
 Framework group  C1[X(C55H74MgN4O6)]
 Deg. of freedom   414
 Full point group                 C1      NOp   1
 Largest Abelian subgroup         C1      NOp   1
 Largest concise Abelian subgroup C1      NOp   1
                         Standard orientation:                         
 ---------------------------------------------------------------------
 Center     Atomic      Atomic             Coordinates (Angstroms)
 Number     Number       Type             X           Y           Z
 ---------------------------------------------------------------------
      1         12           0       -5.043961    0.956262   -0.026173
      2          6           0       -4.458516   -2.530995    0.447935
      3          6           0       -1.602647    1.376618    0.061776
      4          6           0       -5.553816    4.230619    0.107470
      5          6           0       -8.454316    0.468707    0.567981
      6          7           0       -3.283327   -0.425496    0.237127
      7          6           0       -3.316337   -1.812189    0.079171
      8          6           0       -1.876088   -2.344478   -0.149430
      9          6           0       -0.995586   -1.051738    0.080153
     10          6           0       -2.001340    0.055108    0.121299
     11          6           0       -0.037244   -1.120531    1.286606
     12          6           0       -1.732042   -2.864343   -1.650038
     13          6           0       -0.816396   -4.050405   -1.955100
     14          6           0        0.423352   -4.218434   -0.926380
     15          8           0        0.459479   -4.631270    0.224259
     16          8           0        1.553767   -3.706124   -1.559350
     17          7           0       -3.796223    2.567471   -0.127856
     18          6           0       -2.371328    2.557621   -0.028709
     19          6           0       -1.854855    3.958202   -0.145124
     20          6           0       -3.091997    4.737056   -0.174699
     21          6           0       -4.232192    3.853883   -0.060805
     22          6           0       -0.395150    4.281357   -0.432067
     23          6           0       -3.215102    6.264428   -0.289308
     24          8           0       -4.259623    6.905934   -0.276401
     25          6           0       -1.887575    7.038266   -0.425352
     26          7           0       -6.732048    2.175822    0.387769
     27          6           0       -6.696310    3.507183    0.395516
     28          6           0       -8.082776    4.090471    0.602287
     29          6           0       -9.061020    2.891225    0.505053
     30          6           0       -8.010960    1.740186    0.484665
     31          6           0       -8.116545    4.750720    2.015372
     32          6           0      -10.091886    2.949105   -0.663201
     33          6           0       -9.493963    2.669270   -2.105030
     34          7           0       -6.246003   -0.683984    0.425442
     35          6           0       -7.607366   -0.636719    0.612422
     36          6           0       -8.067457   -2.016615    0.754277
     37          6           0       -6.812903   -2.807200    0.815652
     38          6           0       -5.725315   -1.929138    0.595342
     39          6           0       -9.447251   -2.578608    0.903129
     40          6           0       -6.241294   -4.151078    0.992006
     41          8           0       -6.831466   -5.175972    1.232086
     42          6           0       -4.665821   -3.964831    0.912367
     43          6           0       -3.905498   -5.019699    0.174264
     44          8           0       -3.924246   -5.309836   -0.994910
     45          8           0       -3.119969   -5.667936    1.144341
     46          6           0       -2.131881   -6.630158    0.578792
     47          6           0        2.831034   -3.676364   -0.815255
     48          6           0        3.996706   -2.976062   -1.500883
     49          6           0        5.319363   -3.096861   -1.354549
     50          6           0        5.975580   -3.631031   -0.145422
     51          6           0        6.283729   -2.441313   -2.294707
     52          6           0        6.902363   -1.031187   -1.799693
     53          6           0        7.729525   -0.284405   -2.933463
     54          6           0        8.046682    1.280708   -2.558031
     55          6           0        6.863051    2.280671   -2.873767
     56          6           0        9.442385    1.791276   -3.109726
     57          6           0       10.556769    1.034719   -2.462566
     58          6           0       11.782610    1.893520   -1.851833
     59          6           0       11.868504    1.999526   -0.312567
     60          6           0       12.726058    3.156971    0.093884
     61          6           0       12.295388    0.685232    0.362690
     62          6           0       11.457013    0.308354    1.638622
     63          6           0       12.399018    0.569350    2.888640
     64          6           0       11.642270    0.397033    4.253142
     65          6           0       10.981607    1.741153    4.610173
     66          6           0       12.694495   -0.023611    5.348076
     67          1           0       -0.515346    1.469494    0.097059
     68          1           0       -5.764561    5.294461    0.242304
     69          1           0       -9.523706    0.264468    0.657848
     70          1           0       -1.722473   -2.989412    0.715468
     71          1           0       -0.373417   -0.920489   -0.804613
     72          1           0        0.877547   -0.645962    0.930608
     73          1           0        0.117854   -2.121626    1.690994
     74          1           0       -0.460817   -0.529704    2.098384
     75          1           0       -1.300996   -2.085069   -2.279331
     76          1           0       -2.736447   -3.176935   -1.933591
     77          1           0       -0.336573   -3.846907   -2.911752
     78          1           0       -1.285275   -5.028949   -2.061506
     79          1           0       -0.256568    5.039245   -1.202515
     80          1           0        0.105474    3.347183   -0.688728
     81          1           0        0.096226    4.639526    0.472792
     82          1           0       -1.281669    6.855008   -1.313276
     83          1           0       -1.277646    6.810769    0.449104
     84          1           0       -2.076977    8.109966   -0.476290
     85          1           0       -8.435555    4.848569   -0.097222
     86          1           0       -9.676481    2.883587    1.404830
     87          1           0       -7.243841    5.365955    2.236393
     88          1           0       -8.163001    4.005268    2.809462
     89          1           0       -8.922823    5.483382    1.990454
     90          1           0      -10.561438    3.933177   -0.676909
     91          1           0      -10.815006    2.184075   -0.382573
     92          1           0       -9.958485    3.390840   -2.777774
     93          1           0       -9.917364    1.734301   -2.473409
     94          1           0       -8.427458    2.863855   -2.000460
     95          1           0       -9.501428   -3.150954    1.828453
     96          1           0       -9.628818   -3.198537    0.024212
     97          1           0      -10.086656   -1.696485    0.933742
     98          1           0       -4.182255   -3.990619    1.889229
     99          1           0       -2.454603   -7.651266    0.785907
    100          1           0       -1.244945   -6.401425    1.169379
    101          1           0       -1.846005   -6.619307   -0.473179
    102          1           0        3.042786   -4.662234   -0.401680
    103          1           0        2.666530   -2.970528   -0.002018
    104          1           0        3.680961   -2.395933   -2.367835
    105          1           0        6.503333   -2.881213    0.444124
    106          1           0        6.639623   -4.466269   -0.365816
    107          1           0        5.229037   -4.100476    0.496387
    108          1           0        5.934834   -2.433554   -3.327430
    109          1           0        7.177435   -3.063235   -2.335675
    110          1           0        7.537183   -1.260482   -0.942737
    111          1           0        6.156017   -0.332394   -1.421992
    112          1           0        7.146727   -0.225325   -3.853397
    113          1           0        8.699494   -0.726395   -3.159371
    114          1           0        8.088480    1.284673   -1.468497
    115          1           0        6.474160    2.598003   -1.906211
    116          1           0        6.014415    1.951270   -3.472965
    117          1           0        7.237761    3.178056   -3.367949
    118          1           0        9.559102    2.857217   -2.917125
    119          1           0        9.291313    1.610479   -4.174853
    120          1           0       10.927268    0.427934   -3.287964
    121          1           0       10.271877    0.432467   -1.599121
    122          1           0       11.936826    2.819697   -2.405044
    123          1           0       12.713599    1.406695   -2.140863
    124          1           0       10.831173    2.263439   -0.103773
    125          1           0       12.147969    4.073166    0.214438
    126          1           0       13.348472    3.298974   -0.789753
    127          1           0       13.299784    2.979707    1.002544
    128          1           0       13.374074    0.793362    0.471526
    129          1           0       12.069356   -0.059888   -0.400830
    130          1           0       11.243055   -0.761075    1.623450
    131          1           0       10.551271    0.912515    1.702584
    132          1           0       12.808388    1.576470    2.804836
    133          1           0       13.173603   -0.195781    2.837359
    134          1           0       10.958644   -0.440157    4.109859
    135          1           0       10.621587    2.104264    3.647402
    136          1           0       11.584685    2.524252    5.070061
    137          1           0       10.062209    1.529127    5.154419
    138          1           0       13.696445    0.136585    4.949260
    139          1           0       12.478939   -1.055492    5.623924
    140          1           0       12.509975    0.549116    6.257382
 ---------------------------------------------------------------------
 Rotational constants (GHZ):           0.0400003           0.0109022           0.0093418
 Leave Link  202 at Wed May  4 18:33:11 2022, MaxMem=  6710886400 cpu:               0.2 elap:               0.0
 (Enter /sw/apps/gaussian-16.0/g16/l301.exe)
 Standard basis: VSTO-6G (5D, 7F)
 Ernie: Thresh=  0.10000D-02 Tol=  0.10000D-05 Strict=F.
 There are   338 symmetry adapted cartesian basis functions of A   symmetry.
 There are   338 symmetry adapted basis functions of A   symmetry.
   338 basis functions,  2028 primitive gaussians,   338 cartesian basis functions
   176 alpha electrons      176 beta electrons
       nuclear repulsion energy      4819.0244264124 Hartrees.
 IExCor=    0 DFT=F Ex=HF Corr=None ExCW=0 ScaHFX=  1.000000
 ScaDFX=  1.000000  1.000000  1.000000  1.000000 ScalE2=  1.000000  1.000000
 IRadAn=      5 IRanWt=     -1 IRanGd=            0 ICorTp=0 IEmpDi=  4
 Integral buffers will be    131072 words long.
 Regular integral format.
 Two-electron integral symmetry is turned off.
 Leave Link  301 at Wed May  4 18:33:11 2022, MaxMem=  6710886400 cpu:               1.2 elap:               0.1
 (Enter /sw/apps/gaussian-16.0/g16/l302.exe)
 Do NDO integrals.
 NPDir=0 NMtPBC=     1 NCelOv=     1 NCel=       1 NClECP=     1 NCelD=      1
         NCelK=      1 NCelE2=     1 NClLst=     1 CellRange=     0.0.
 One-electron integrals computed using PRISM.
 Generate ZINDO/S integrals.
 NDO Nuclear repulsion=  4337.611477743619 Hartrees.
 NBasis=   338 RedAO= F EigKep=  0.00D+00  NBF=   338
 NBsUse=   338 1.00D-04 EigRej=  0.00D+00 NBFU=   338
 Leave Link  302 at Wed May  4 18:33:12 2022, MaxMem=  6710886400 cpu:               8.9 elap:               0.4
 (Enter /sw/apps/gaussian-16.0/g16/l303.exe)
 DipDrv:  MaxL=1.
 DipDrv:  will hold  3 matrices at once.
 Leave Link  303 at Wed May  4 18:33:12 2022, MaxMem=  6710886400 cpu:               0.5 elap:               0.0
 (Enter /sw/apps/gaussian-16.0/g16/l308.exe)
 Leave Link  308 at Wed May  4 18:33:12 2022, MaxMem=  6710886400 cpu:               6.5 elap:               0.3
 (Enter /sw/apps/gaussian-16.0/g16/l401.exe)
 Simple Huckel Guess.
 JPrj=0 DoOrth=F DoCkMO=F.
 Leave Link  401 at Wed May  4 18:33:12 2022, MaxMem=  6710886400 cpu:               2.5 elap:               0.1
 (Enter /sw/apps/gaussian-16.0/g16/l502.exe)
 Two-electron integral symmetry not used.
 Closed shell SCF:
 Using DIIS extrapolation, IDIIS=  1040.
 Overlap will be assumed to be unity.
 NGot=  6710886400 LenX=  6710643598 LenY=  6710528913
 Requested convergence on RMS density matrix=1.00D-08 within 128 cycles.
 Requested convergence on MAX density matrix=1.00D-06.
 Requested convergence on             energy=1.00D-06.
 No special actions if energy rises.
 Fock matrices will be formed incrementally for  20 cycles.

 Cycle   1  Pass 1  IDiag  1:
 E= -472.012227577359    
 DIIS: error= 5.84D-02 at cycle   1 NSaved=   1.
 NSaved= 1 IEnMin= 1 EnMin= -472.012227577359     IErMin= 1 ErrMin= 5.84D-02
 ErrMax= 5.84D-02  0.00D+00 EMaxC= 1.00D-01 BMatC= 8.26D-01 BMatP= 8.26D-01
 IDIUse=3 WtCom= 4.16D-01 WtEn= 5.84D-01
 Coeff-Com:  0.100D+01
 Coeff-En:   0.100D+01
 Coeff:      0.100D+01
 GapD=    2.000 DampG=2.000 DampE=0.500 DampFc=1.0000 IDamp=-1.
 RMSDP=3.96D-03 MaxDP=1.73D-01              OVMax= 0.00D+00

 Cycle   2  Pass 1  IDiag  1:
 RMSU=  3.96D-03    CP:  9.95D-01
 E= -473.830163472812     Delta-E=       -1.817935895453 Rises=F Damp=F
 DIIS: error= 2.04D-02 at cycle   2 NSaved=   2.
 NSaved= 2 IEnMin= 2 EnMin= -473.830163472812     IErMin= 2 ErrMin= 2.04D-02
 ErrMax= 2.04D-02  0.00D+00 EMaxC= 1.00D-01 BMatC= 5.04D-02 BMatP= 8.26D-01
 IDIUse=3 WtCom= 7.96D-01 WtEn= 2.04D-01
 Coeff-Com: -0.803D-01 0.108D+01
 Coeff-En:   0.000D+00 0.100D+01
 Coeff:     -0.639D-01 0.106D+01
 RMSDP=1.10D-03 MaxDP=5.76D-02 DE=-1.82D+00 OVMax= 0.00D+00

 Cycle   3  Pass 1  IDiag  1:
 RMSU=  1.01D-03    CP:  9.93D-01  1.11D+00
 E= -473.931459691976     Delta-E=       -0.101296219163 Rises=F Damp=F
 DIIS: error= 8.63D-03 at cycle   3 NSaved=   3.
 NSaved= 3 IEnMin= 3 EnMin= -473.931459691976     IErMin= 3 ErrMin= 8.63D-03
 ErrMax= 8.63D-03  0.00D+00 EMaxC= 1.00D-01 BMatC= 6.71D-03 BMatP= 5.04D-02
 IDIUse=3 WtCom= 9.14D-01 WtEn= 8.63D-02
 Coeff-Com: -0.672D-01 0.237D+00 0.830D+00
 Coeff-En:   0.000D+00 0.000D+00 0.100D+01
 Coeff:     -0.614D-01 0.217D+00 0.845D+00
 RMSDP=3.63D-04 MaxDP=1.80D-02 DE=-1.01D-01 OVMax= 0.00D+00

 Cycle   4  Pass 1  IDiag  1:
 RMSU=  2.37D-04    CP:  9.93D-01  1.17D+00  9.30D-01
 E= -473.943614019950     Delta-E=       -0.012154327975 Rises=F Damp=F
 DIIS: error= 1.54D-03 at cycle   4 NSaved=   4.
 NSaved= 4 IEnMin= 4 EnMin= -473.943614019950     IErMin= 4 ErrMin= 1.54D-03
 ErrMax= 1.54D-03  0.00D+00 EMaxC= 1.00D-01 BMatC= 2.89D-04 BMatP= 6.71D-03
 IDIUse=3 WtCom= 9.85D-01 WtEn= 1.54D-02
 Coeff-Com:  0.148D-02-0.401D-01 0.163D-01 0.102D+01
 Coeff-En:   0.000D+00 0.000D+00 0.000D+00 0.100D+01
 Coeff:      0.146D-02-0.395D-01 0.160D-01 0.102D+01
 RMSDP=1.39D-04 MaxDP=7.32D-03 DE=-1.22D-02 OVMax= 0.00D+00

 Cycle   5  Pass 1  IDiag  1:
 RMSU=  9.41D-05    CP:  9.93D-01  1.18D+00  1.03D+00  1.06D+00
 E= -473.944645416840     Delta-E=       -0.001031396890 Rises=F Damp=F
 DIIS: error= 5.12D-04 at cycle   5 NSaved=   5.
 NSaved= 5 IEnMin= 5 EnMin= -473.944645416840     IErMin= 5 ErrMin= 5.12D-04
 ErrMax= 5.12D-04  0.00D+00 EMaxC= 1.00D-01 BMatC= 6.29D-05 BMatP= 2.89D-04
 IDIUse=3 WtCom= 9.95D-01 WtEn= 5.12D-03
 Coeff-Com:  0.642D-02-0.273D-01-0.964D-01 0.227D+00 0.890D+00
 Coeff-En:   0.000D+00 0.000D+00 0.000D+00 0.000D+00 0.100D+01
 Coeff:      0.639D-02-0.272D-01-0.959D-01 0.226D+00 0.891D+00
 RMSDP=5.67D-05 MaxDP=2.71D-03 DE=-1.03D-03 OVMax= 0.00D+00

 Cycle   6  Pass 1  IDiag  1:
 RMSU=  3.25D-05    CP:  9.93D-01  1.18D+00  1.04D+00  1.24D+00  1.09D+00
 E= -473.944848649458     Delta-E=       -0.000203232618 Rises=F Damp=F
 DIIS: error= 1.90D-04 at cycle   6 NSaved=   6.
 NSaved= 6 IEnMin= 6 EnMin= -473.944848649458     IErMin= 6 ErrMin= 1.90D-04
 ErrMax= 1.90D-04  0.00D+00 EMaxC= 1.00D-01 BMatC= 6.78D-06 BMatP= 6.29D-05
 IDIUse=3 WtCom= 9.98D-01 WtEn= 1.90D-03
 Coeff-Com: -0.140D-03 0.564D-02-0.152D-01-0.958D-01 0.107D-01 0.109D+01
 Coeff-En:   0.000D+00 0.000D+00 0.000D+00 0.000D+00 0.000D+00 0.100D+01
 Coeff:     -0.140D-03 0.563D-02-0.152D-01-0.956D-01 0.107D-01 0.109D+01
 RMSDP=3.92D-05 MaxDP=2.24D-03 DE=-2.03D-04 OVMax= 0.00D+00

 Cycle   7  Pass 1  IDiag  1:
 RMSU=  1.94D-05    CP:  9.92D-01  1.18D+00  1.06D+00  1.27D+00  1.39D+00
                    CP:  1.40D+00
 E= -473.944899104128     Delta-E=       -0.000050454670 Rises=F Damp=F
 DIIS: error= 1.24D-04 at cycle   7 NSaved=   7.
 NSaved= 7 IEnMin= 7 EnMin= -473.944899104128     IErMin= 7 ErrMin= 1.24D-04
 ErrMax= 1.24D-04  0.00D+00 EMaxC= 1.00D-01 BMatC= 2.29D-06 BMatP= 6.78D-06
 IDIUse=3 WtCom= 9.99D-01 WtEn= 1.24D-03
 Coeff-Com: -0.821D-03 0.418D-02 0.836D-02-0.279D-01-0.151D+00 0.208D+00
 Coeff-Com:  0.959D+00
 Coeff-En:   0.000D+00 0.000D+00 0.000D+00 0.000D+00 0.000D+00 0.000D+00
 Coeff-En:   0.100D+01
 Coeff:     -0.820D-03 0.418D-02 0.835D-02-0.278D-01-0.151D+00 0.208D+00
 Coeff:      0.959D+00
 RMSDP=2.33D-05 MaxDP=1.28D-03 DE=-5.05D-05 OVMax= 0.00D+00

 Cycle   8  Pass 1  IDiag  1:
 RMSU=  6.46D-06    CP:  9.92D-01  1.18D+00  1.06D+00  1.28D+00  1.52D+00
                    CP:  1.80D+00  1.67D+00
 E= -473.944920536332     Delta-E=       -0.000021432204 Rises=F Damp=F
 DIIS: error= 6.66D-05 at cycle   8 NSaved=   8.
 NSaved= 8 IEnMin= 8 EnMin= -473.944920536332     IErMin= 8 ErrMin= 6.66D-05
 ErrMax= 6.66D-05  0.00D+00 EMaxC= 1.00D-01 BMatC= 9.84D-07 BMatP= 2.29D-06
 IDIUse=1 WtCom= 1.00D+00 WtEn= 0.00D+00
 Coeff-Com:  0.216D-03-0.229D-02 0.170D-02 0.378D-01-0.187D-01-0.172D+00
 Coeff-Com: -0.523D+00 0.168D+01
 Coeff:      0.216D-03-0.229D-02 0.170D-02 0.378D-01-0.187D-01-0.172D+00
 Coeff:     -0.523D+00 0.168D+01
 RMSDP=3.35D-05 MaxDP=1.57D-03 DE=-2.14D-05 OVMax= 0.00D+00

 Cycle   9  Pass 1  IDiag  1:
 RMSU=  4.85D-06    CP:  9.92D-01  1.18D+00  1.06D+00  1.28D+00  1.69D+00
                    CP:  2.24D+00  2.87D+00  2.25D+00
 E= -473.944941878034     Delta-E=       -0.000021341702 Rises=F Damp=F
 DIIS: error= 5.20D-05 at cycle   9 NSaved=   9.
 NSaved= 9 IEnMin= 9 EnMin= -473.944941878034     IErMin= 9 ErrMin= 5.20D-05
 ErrMax= 5.20D-05  0.00D+00 EMaxC= 1.00D-01 BMatC= 6.34D-07 BMatP= 9.84D-07
 IDIUse=1 WtCom= 1.00D+00 WtEn= 0.00D+00
 Coeff-Com:  0.423D-03-0.170D-02-0.599D-02 0.732D-02 0.634D-01 0.707D-01
 Coeff-Com: -0.942D+00 0.134D+00 0.167D+01
 Coeff:      0.423D-03-0.170D-02-0.599D-02 0.732D-02 0.634D-01 0.707D-01
 Coeff:     -0.942D+00 0.134D+00 0.167D+01
 RMSDP=4.24D-05 MaxDP=1.83D-03 DE=-2.13D-05 OVMax= 0.00D+00

 Cycle  10  Pass 1  IDiag  1:
 RMSU=  2.82D-05    CP:  9.92D-01  1.18D+00  1.07D+00  1.29D+00  1.89D+00
                    CP:  2.79D+00  3.00D+00  3.00D+00  2.40D+00
 E= -473.944959418766     Delta-E=       -0.000017540732 Rises=F Damp=F
 DIIS: error= 3.01D-05 at cycle  10 NSaved=  10.
 NSaved=10 IEnMin=10 EnMin= -473.944959418766     IErMin=10 ErrMin= 3.01D-05
 ErrMax= 3.01D-05  0.00D+00 EMaxC= 1.00D-01 BMatC= 1.59D-07 BMatP= 6.34D-07
 IDIUse=1 WtCom= 1.00D+00 WtEn= 0.00D+00
 Coeff-Com: -0.141D-03 0.128D-02-0.609D-03-0.183D-01-0.147D-02 0.139D+00
 Coeff-Com:  0.143D+00-0.392D+00-0.573D+00 0.170D+01
 Coeff:     -0.141D-03 0.128D-02-0.609D-03-0.183D-01-0.147D-02 0.139D+00
 Coeff:      0.143D+00-0.392D+00-0.573D+00 0.170D+01
 RMSDP=2.87D-05 MaxDP=1.24D-03 DE=-1.75D-05 OVMax= 0.00D+00

 Cycle  11  Pass 1  IDiag  1:
 RMSU=  6.63D-06    CP:  9.92D-01  1.18D+00  1.07D+00  1.29D+00  2.02D+00
                    CP:  3.00D+00  3.00D+00  3.00D+00  3.00D+00  1.79D+00
 E= -473.944965122922     Delta-E=       -0.000005704155 Rises=F Damp=F
 DIIS: error= 1.21D-05 at cycle  11 NSaved=  11.
 NSaved=11 IEnMin=11 EnMin= -473.944965122922     IErMin=11 ErrMin= 1.21D-05
 ErrMax= 1.21D-05  0.00D+00 EMaxC= 1.00D-01 BMatC= 3.76D-08 BMatP= 1.59D-07
 IDIUse=1 WtCom= 1.00D+00 WtEn= 0.00D+00
 Coeff-Com: -0.926D-04 0.386D-03 0.145D-02-0.275D-02-0.135D-01-0.854D-02
 Coeff-Com:  0.167D+00 0.606D-01-0.592D+00 0.134D+00 0.125D+01
 Coeff:     -0.926D-04 0.386D-03 0.145D-02-0.275D-02-0.135D-01-0.854D-02
 Coeff:      0.167D+00 0.606D-01-0.592D+00 0.134D+00 0.125D+01
 RMSDP=1.52D-05 MaxDP=6.51D-04 DE=-5.70D-06 OVMax= 0.00D+00

 Cycle  12  Pass 1  IDiag  1:
 RMSU=  2.40D-06    CP:  9.92D-01  1.18D+00  1.07D+00  1.29D+00  2.09D+00
                    CP:  3.00D+00  3.00D+00  3.00D+00  3.00D+00  2.20D+00
                    CP:  2.03D+00
 E= -473.944966131499     Delta-E=       -0.000001008578 Rises=F Damp=F
 DIIS: error= 4.77D-06 at cycle  12 NSaved=  12.
 NSaved=12 IEnMin=12 EnMin= -473.944966131499     IErMin=12 ErrMin= 4.77D-06
 ErrMax= 4.77D-06  0.00D+00 EMaxC= 1.00D-01 BMatC= 4.22D-09 BMatP= 3.76D-08
 IDIUse=1 WtCom= 1.00D+00 WtEn= 0.00D+00
 Coeff-Com:  0.291D-04-0.255D-03 0.188D-03 0.341D-02 0.574D-03-0.247D-01
 Coeff-Com: -0.426D-01 0.135D+00 0.802D-01-0.332D+00-0.113D-01 0.119D+01
 Coeff:      0.291D-04-0.255D-03 0.188D-03 0.341D-02 0.574D-03-0.247D-01
 Coeff:     -0.426D-01 0.135D+00 0.802D-01-0.332D+00-0.113D-01 0.119D+01
 RMSDP=1.71D-06 MaxDP=9.02D-05 DE=-1.01D-06 OVMax= 0.00D+00

 Cycle  13  Pass 1  IDiag  1:
 RMSU=  8.82D-07    CP:  9.92D-01  1.18D+00  1.07D+00  1.29D+00  2.10D+00
                    CP:  3.00D+00  3.00D+00  3.00D+00  3.00D+00  2.24D+00
                    CP:  2.17D+00  9.90D-01
 E= -473.944966175174     Delta-E=       -0.000000043675 Rises=F Damp=F
 DIIS: error= 2.29D-06 at cycle  13 NSaved=  13.
 NSaved=13 IEnMin=13 EnMin= -473.944966175174     IErMin=13 ErrMin= 2.29D-06
 ErrMax= 2.29D-06  0.00D+00 EMaxC= 1.00D-01 BMatC= 7.00D-10 BMatP= 4.22D-09
 IDIUse=1 WtCom= 1.00D+00 WtEn= 0.00D+00
 Coeff-Com:  0.141D-04-0.746D-04-0.167D-03 0.738D-03 0.188D-02-0.110D-02
 Coeff-Com: -0.312D-01 0.141D-01 0.633D-01-0.402D-01-0.140D+00 0.891D-01
 Coeff-Com:  0.104D+01
 Coeff:      0.141D-04-0.746D-04-0.167D-03 0.738D-03 0.188D-02-0.110D-02
 Coeff:     -0.312D-01 0.141D-01 0.633D-01-0.402D-01-0.140D+00 0.891D-01
 Coeff:      0.104D+01
 RMSDP=1.03D-06 MaxDP=4.68D-05 DE=-4.37D-08 OVMax= 0.00D+00

 Cycle  14  Pass 1  IDiag  1:
 RMSU=  2.33D-07    CP:  9.92D-01  1.18D+00  1.07D+00  1.29D+00  2.10D+00
                    CP:  3.00D+00  3.00D+00  3.00D+00  3.00D+00  2.26D+00
                    CP:  2.24D+00  1.06D+00  1.35D+00
 E= -473.944966184891     Delta-E=       -0.000000009717 Rises=F Damp=F
 DIIS: error= 1.05D-06 at cycle  14 NSaved=  14.
 NSaved=14 IEnMin=14 EnMin= -473.944966184891     IErMin=14 ErrMin= 1.05D-06
 ErrMax= 1.05D-06  0.00D+00 EMaxC= 1.00D-01 BMatC= 2.66D-10 BMatP= 7.00D-10
 IDIUse=1 WtCom= 1.00D+00 WtEn= 0.00D+00
 Coeff-Com: -0.981D-05 0.725D-04-0.165D-04-0.829D-03-0.839D-03 0.673D-02
 Coeff-Com:  0.112D-01-0.253D-01-0.317D-01 0.778D-01 0.325D-01-0.305D+00
 Coeff-Com: -0.776D-01 0.131D+01
 Coeff:     -0.981D-05 0.725D-04-0.165D-04-0.829D-03-0.839D-03 0.673D-02
 Coeff:      0.112D-01-0.253D-01-0.317D-01 0.778D-01 0.325D-01-0.305D+00
 Coeff:     -0.776D-01 0.131D+01
 RMSDP=4.03D-07 MaxDP=1.78D-05 DE=-9.72D-09 OVMax= 0.00D+00

 Cycle  15  Pass 1  IDiag  1:
 RMSU=  1.06D-07    CP:  9.92D-01  1.18D+00  1.07D+00  1.29D+00  2.10D+00
                    CP:  3.00D+00  3.00D+00  3.00D+00  3.00D+00  2.27D+00
                    CP:  2.25D+00  1.08D+00  1.69D+00  1.98D+00
 E= -473.944966188725     Delta-E=       -0.000000003834 Rises=F Damp=F
 DIIS: error= 6.79D-07 at cycle  15 NSaved=  15.
 NSaved=15 IEnMin=15 EnMin= -473.944966188725     IErMin=15 ErrMin= 6.79D-07
 ErrMax= 6.79D-07  0.00D+00 EMaxC= 1.00D-01 BMatC= 9.79D-11 BMatP= 2.66D-10
 IDIUse=1 WtCom= 1.00D+00 WtEn= 0.00D+00
 Coeff-Com: -0.483D-05 0.232D-04 0.764D-04-0.169D-03-0.111D-02 0.832D-03
 Coeff-Com:  0.103D-01-0.330D-02-0.236D-01 0.658D-02 0.657D-01-0.287D-01
 Coeff-Com: -0.335D+00-0.221D+00 0.153D+01
 Coeff:     -0.483D-05 0.232D-04 0.764D-04-0.169D-03-0.111D-02 0.832D-03
 Coeff:      0.103D-01-0.330D-02-0.236D-01 0.658D-02 0.657D-01-0.287D-01
 Coeff:     -0.335D+00-0.221D+00 0.153D+01
 RMSDP=3.77D-07 MaxDP=1.77D-05 DE=-3.83D-09 OVMax= 0.00D+00

 Cycle  16  Pass 1  IDiag  1:
 RMSU=  5.21D-08    CP:  9.92D-01  1.18D+00  1.07D+00  1.29D+00  2.10D+00
                    CP:  3.00D+00  3.00D+00  3.00D+00  3.00D+00  2.27D+00
                    CP:  2.25D+00  1.09D+00  1.97D+00  3.00D+00  1.93D+00
 E= -473.944966190807     Delta-E=       -0.000000002082 Rises=F Damp=F
 DIIS: error= 3.52D-07 at cycle  16 NSaved=  16.
 NSaved=16 IEnMin=16 EnMin= -473.944966190807     IErMin=16 ErrMin= 3.52D-07
 ErrMax= 3.52D-07  0.00D+00 EMaxC= 1.00D-01 BMatC= 3.06D-11 BMatP= 9.79D-11
 IDIUse=1 WtCom= 1.00D+00 WtEn= 0.00D+00
 Coeff-Com:  0.541D-05-0.370D-04-0.349D-05 0.435D-03 0.246D-03-0.231D-02
 Coeff-Com: -0.769D-02 0.110D-01 0.205D-01-0.385D-01-0.202D-01 0.119D+00
 Coeff-Com:  0.125D+00-0.590D+00-0.200D+00 0.158D+01
 Coeff:      0.541D-05-0.370D-04-0.349D-05 0.435D-03 0.246D-03-0.231D-02
 Coeff:     -0.769D-02 0.110D-01 0.205D-01-0.385D-01-0.202D-01 0.119D+00
 Coeff:      0.125D+00-0.590D+00-0.200D+00 0.158D+01
 RMSDP=2.80D-07 MaxDP=1.23D-05 DE=-2.08D-09 OVMax= 0.00D+00

 Cycle  17  Pass 1  IDiag  1:
 RMSU=  1.68D-07    CP:  9.92D-01  1.18D+00  1.07D+00  1.29D+00  2.10D+00
                    CP:  3.00D+00  3.00D+00  3.00D+00  3.00D+00  2.27D+00
                    CP:  2.26D+00  1.10D+00  2.17D+00  3.00D+00  2.84D+00
                    CP:  2.67D+00
 E= -473.944966191399     Delta-E=       -0.000000000592 Rises=F Damp=F
 DIIS: error= 2.26D-07 at cycle  17 NSaved=  17.
 NSaved=17 IEnMin=17 EnMin= -473.944966191399     IErMin=17 ErrMin= 2.26D-07
 ErrMax= 2.26D-07  0.00D+00 EMaxC= 1.00D-01 BMatC= 3.62D-12 BMatP= 3.06D-11
 IDIUse=1 WtCom= 1.00D+00 WtEn= 0.00D+00
 Coeff-Com:  0.135D-05-0.759D-05-0.156D-04 0.833D-04 0.163D-03-0.247D-03
 Coeff-Com: -0.298D-02 0.177D-02 0.634D-02-0.596D-02-0.103D-01 0.140D-01
 Coeff-Com:  0.786D-01-0.271D-01-0.256D+00 0.171D+00 0.103D+01
 Coeff:      0.135D-05-0.759D-05-0.156D-04 0.833D-04 0.163D-03-0.247D-03
 Coeff:     -0.298D-02 0.177D-02 0.634D-02-0.596D-02-0.103D-01 0.140D-01
 Coeff:      0.786D-01-0.271D-01-0.256D+00 0.171D+00 0.103D+01
 RMSDP=4.56D-08 MaxDP=2.35D-06 DE=-5.92D-10 OVMax= 0.00D+00

 Cycle  18  Pass 1  IDiag  1:
 RMSU=  1.16D-08    CP:  9.92D-01  1.18D+00  1.07D+00  1.29D+00  2.10D+00
                    CP:  3.00D+00  3.00D+00  3.00D+00  3.00D+00  2.27D+00
                    CP:  2.26D+00  1.10D+00  2.19D+00  3.00D+00  3.00D+00
                    CP:  3.00D+00  1.15D+00
 E= -473.944966191427     Delta-E=       -0.000000000028 Rises=F Damp=F
 DIIS: error= 8.63D-08 at cycle  18 NSaved=  18.
 NSaved=18 IEnMin=18 EnMin= -473.944966191427     IErMin=18 ErrMin= 8.63D-08
 ErrMax= 8.63D-08  0.00D+00 EMaxC= 1.00D-01 BMatC= 6.14D-13 BMatP= 3.62D-12
 IDIUse=1 WtCom= 1.00D+00 WtEn= 0.00D+00
 Coeff-Com: -0.113D-05 0.775D-05-0.768D-06-0.852D-04-0.604D-04 0.512D-03
 Coeff-Com:  0.147D-02-0.212D-02-0.397D-02 0.711D-02 0.512D-02-0.266D-01
 Coeff-Com: -0.223D-01 0.110D+00 0.456D-01-0.310D+00-0.110D+00 0.131D+01
 Coeff:     -0.113D-05 0.775D-05-0.768D-06-0.852D-04-0.604D-04 0.512D-03
 Coeff:      0.147D-02-0.212D-02-0.397D-02 0.711D-02 0.512D-02-0.266D-01
 Coeff:     -0.223D-01 0.110D+00 0.456D-01-0.310D+00-0.110D+00 0.131D+01
 RMSDP=2.37D-08 MaxDP=1.63D-06 DE=-2.82D-11 OVMax= 0.00D+00

 Cycle  19  Pass 1  IDiag  1:
 RMSU=  1.14D-08    CP:  9.92D-01  1.18D+00  1.07D+00  1.29D+00  2.10D+00
                    CP:  3.00D+00  3.00D+00  3.00D+00  3.00D+00  2.27D+00
                    CP:  2.26D+00  1.10D+00  2.20D+00  3.00D+00  3.00D+00
                    CP:  3.00D+00  1.21D+00  2.18D+00
 E= -473.944966191465     Delta-E=       -0.000000000038 Rises=F Damp=F
 DIIS: error= 4.76D-08 at cycle  19 NSaved=  19.
 NSaved=19 IEnMin=19 EnMin= -473.944966191465     IErMin=19 ErrMin= 4.76D-08
 ErrMax= 4.76D-08  0.00D+00 EMaxC= 1.00D-01 BMatC= 9.53D-14 BMatP= 6.14D-13
 IDIUse=1 WtCom= 1.00D+00 WtEn= 0.00D+00
 Coeff-Com: -0.214D-06 0.127D-05 0.257D-05-0.141D-04-0.236D-04 0.390D-04
 Coeff-Com:  0.429D-03-0.316D-03-0.924D-03 0.832D-03 0.180D-02-0.257D-02
 Coeff-Com: -0.906D-02 0.330D-03 0.364D-01-0.176D-01-0.187D+00 0.344D-01
 Coeff-Com:  0.114D+01
 Coeff:     -0.214D-06 0.127D-05 0.257D-05-0.141D-04-0.236D-04 0.390D-04
 Coeff:      0.429D-03-0.316D-03-0.924D-03 0.832D-03 0.180D-02-0.257D-02
 Coeff:     -0.906D-02 0.330D-03 0.364D-01-0.176D-01-0.187D+00 0.344D-01
 Coeff:      0.114D+01
 RMSDP=7.41D-09 MaxDP=4.62D-07 DE=-3.82D-11 OVMax= 0.00D+00

 SCF Done:  E(RZINDO/S) =  -473.944966191     A.U. after   19 cycles
            NFock= 19  Conv=0.74D-08     -V/T= 0.9493
 KE=-9.349155937913D+03 PE=-4.668636393035D-07 EE= 4.537599494445D+03
 Leave Link  502 at Wed May  4 18:33:13 2022, MaxMem=  6710886400 cpu:              18.1 elap:               0.8
 (Enter /sw/apps/gaussian-16.0/g16/l801.exe)
 Range of M.O.s used for correlation:     1   338
 NBasis=   338 NAE=   176 NBE=   176 NFC=     0 NFV=     0
 NROrb=    338 NOA=   176 NOB=   176 NVA=   162 NVB=   162
 Leave Link  801 at Wed May  4 18:33:13 2022, MaxMem=  6710886400 cpu:               0.5 elap:               0.0
 (Enter /sw/apps/gaussian-16.0/g16/l914.exe)
 RHF ground state
 Two-electron integral symmetry not used.
 MDV=  6710886400 DFT=F DoStab=F Mixed=F DoRPA=F DoScal=F NonHer=F
 Making orbital integer symmetry assigments:
 Orbital symmetries:
       Occupied  (A) (A) (A) (A) (A) (A) (A) (A) (A) (A) (A) (A)
                 (A) (A) (A) (A) (A) (A) (A) (A) (A) (A) (A) (A)
                 (A) (A) (A) (A) (A) (A) (A) (A) (A) (A) (A) (A)
                 (A) (A) (A) (A) (A) (A) (A) (A) (A) (A) (A) (A)
                 (A) (A) (A) (A) (A) (A) (A) (A) (A) (A) (A) (A)
                 (A) (A) (A) (A) (A) (A) (A) (A) (A) (A) (A) (A)
                 (A) (A) (A) (A) (A) (A) (A) (A) (A) (A) (A) (A)
                 (A) (A) (A) (A) (A) (A) (A) (A) (A) (A) (A) (A)
                 (A) (A) (A) (A) (A) (A) (A) (A) (A) (A) (A) (A)
                 (A) (A) (A) (A) (A) (A) (A) (A) (A) (A) (A) (A)
                 (A) (A) (A) (A) (A) (A) (A) (A) (A) (A) (A) (A)
                 (A) (A) (A) (A) (A) (A) (A) (A) (A) (A) (A) (A)
                 (A) (A) (A) (A) (A) (A) (A) (A) (A) (A) (A) (A)
                 (A) (A) (A) (A) (A) (A) (A) (A) (A) (A) (A) (A)
                 (A) (A) (A) (A) (A) (A) (A) (A)
       Virtual   (A) (A) (A) (A) (A) (A) (A) (A) (A) (A) (A) (A)
                 (A) (A) (A) (A) (A) (A) (A) (A) (A) (A) (A) (A)
                 (A) (A) (A) (A) (A) (A) (A) (A) (A) (A) (A) (A)
                 (A) (A) (A) (A) (A) (A) (A) (A) (A) (A) (A) (A)
                 (A) (A) (A) (A) (A) (A) (A) (A) (A) (A) (A) (A)
                 (A) (A) (A) (A) (A) (A) (A) (A) (A) (A) (A) (A)
                 (A) (A) (A) (A) (A) (A) (A) (A) (A) (A) (A) (A)
                 (A) (A) (A) (A) (A) (A) (A) (A) (A) (A) (A) (A)
                 (A) (A) (A) (A) (A) (A) (A) (A) (A) (A) (A) (A)
                 (A) (A) (A) (A) (A) (A) (A) (A) (A) (A) (A) (A)
                 (A) (A) (A) (A) (A) (A) (A) (A) (A) (A) (A) (A)
                 (A) (A) (A) (A) (A) (A) (A) (A) (A) (A) (A) (A)
                 (A) (A) (A) (A) (A) (A) (A) (A) (A) (A) (A) (A)
                 (A) (A) (A) (A) (A) (A)
    20 initial guesses have been made.
 Convergence on wavefunction:    0.001000000000000
 Davidson Disk Diagonalization:  ConvIn= 1.00D-03 SkipCon=T Conv= 1.00D-03.
 Max sub-space:  2000 roots to seek:    20 dimension of matrix:        57024
 Iteration     1 Dimension    20 NMult     0 NNew     20
 CISAX will form    20 AO SS matrices at one time.
 NMat=    20 NSing=    20 JSym2X= 0.
 New state      3 was old state      5
 New state      5 was old state     13
 Excitation Energies [eV] at current iteration:
 Root      1 :     1.640179398471341
 Root      2 :     2.144516256344046
 Root      3 :     3.269401898600576
 Root      4 :     3.384889147128669
 Root      5 :     3.430147223422288
 Root      6 :     3.447531193701338
 Root      7 :     3.561517195579244
 Root      8 :     3.740829638256823
 Root      9 :     3.950669687096317
 Root     10 :     4.000836833944976
 Root     11 :     4.135973107160827
 Root     12 :     4.286157383228529
 Root     13 :     4.292533381654427
 Root     14 :     4.462845270701850
 Root     15 :     4.500076486113260
 Root     16 :     4.524936764060291
 Root     17 :     4.573381322063777
 Root     18 :     4.755255920300303
 Root     19 :     5.015279498547440
 Root     20 :     5.726743689236702
 Iteration     2 Dimension    40 NMult    20 NNew     20
 CISAX will form    20 AO SS matrices at one time.
 NMat=    20 NSing=    20 JSym2X= 0.
 Root      1 not converged, maximum delta is    0.044539129017262
 Root      2 not converged, maximum delta is    0.024797381175012
 New state      3 was old state      4
 Root      3 not converged, maximum delta is    0.318848132727974
 New state      4 was old state      3
 Root      4 not converged, maximum delta is    0.102178513794280
 Root      5 not converged, maximum delta is    0.316752924693161
 Excitation Energies [eV] at current iteration:
 Root      1 :     1.299928015962870   Change is   -0.340251382508471
 Root      2 :     1.947087658932868   Change is   -0.197428597411178
 Root      3 :     3.031324971489896   Change is   -0.353564175638773
 Root      4 :     3.089361024411401   Change is   -0.180040874189175
 Root      5 :     3.202889834253578   Change is   -0.227257389168710
 Root      6 :     3.303874042382443   Change is   -0.257643153196801
 Root      7 :     3.395463806434878   Change is   -0.052067387266460
 Root      8 :     3.529613880456150   Change is   -0.211215757800673
 Root      9 :     3.611828130596368   Change is   -0.389008703348608
 Root     10 :     3.697001890301107   Change is   -0.253667796795210
 Root     11 :     3.732705440884950   Change is   -0.559827940769477
 Root     12 :     3.777117835517772   Change is   -0.358855271643054
 Root     13 :     3.838460381522861   Change is   -0.734920940540916
 Root     14 :     4.123092376923720   Change is   -0.339752893778130
 Root     15 :     4.184595116601603   Change is   -0.101562266626926
 Root     16 :     4.231305757626085   Change is   -0.268770728487175
 Root     17 :     4.441511544046202   Change is   -0.083425220014089
 Root     18 :     4.526396649068612   Change is   -0.228859271231690
 Root     19 :     5.006360925795032   Change is   -0.008918572752409
 Root     20 :     5.708141858701681   Change is   -0.018601830535022
 Iteration     3 Dimension    45 NMult    40 NNew      5
 CISAX will form     5 AO SS matrices at one time.
 NMat=     5 NSing=     5 JSym2X= 0.
 Root      1 not converged, maximum delta is    0.007562206048426
 Root      2 not converged, maximum delta is    0.016208164571941
 Root      3 not converged, maximum delta is    0.047948249656189
 Root      4 not converged, maximum delta is    0.049571115180489
 Root      5 not converged, maximum delta is    0.019863590588706
 Excitation Energies [eV] at current iteration:
 Root      1 :     1.284474504003160   Change is   -0.015453511959710
 Root      2 :     1.922049914350415   Change is   -0.025037744582452
 Root      3 :     3.009793988374007   Change is   -0.021530983115889
 Root      4 :     3.058518621960530   Change is   -0.030842402450871
 Root      5 :     3.169645482199273   Change is   -0.033244352054305
 Iteration     4 Dimension    50 NMult    45 NNew      5
 CISAX will form     5 AO SS matrices at one time.
 NMat=     5 NSing=     5 JSym2X= 0.
 Root      1 not converged, maximum delta is    0.001730706829581
 Root      2 not converged, maximum delta is    0.001876488749600
 Root      3 not converged, maximum delta is    0.017780846112887
 Root      4 not converged, maximum delta is    0.015926098898947
 Root      5 not converged, maximum delta is    0.010230679111186
 Excitation Energies [eV] at current iteration:
 Root      1 :     1.283661446562052   Change is   -0.000813057441109
 Root      2 :     1.921387586534521   Change is   -0.000662327815895
 Root      3 :     3.006883746668247   Change is   -0.002910241705760
 Root      4 :     3.055015358635987   Change is   -0.003503263324544
 Root      5 :     3.165410149205625   Change is   -0.004235332993648
 Iteration     5 Dimension    55 NMult    50 NNew      5
 CISAX will form     5 AO SS matrices at one time.
 NMat=     5 NSing=     5 JSym2X= 0.
 Root      1 has converged.
 Root      2 has converged.
 Root      3 not converged, maximum delta is    0.007725883797047
 Root      4 not converged, maximum delta is    0.004690010699799
 Root      5 not converged, maximum delta is    0.024688682433318
 Excitation Energies [eV] at current iteration:
 Root      1 :     1.283612797663519   Change is   -0.000048648898533
 Root      2 :     1.921347383887632   Change is   -0.000040202646888
 Root      3 :     3.006140149963062   Change is   -0.000743596705185
 Root      4 :     3.054191262882751   Change is   -0.000824095753236
 Root      5 :     3.162900662399825   Change is   -0.002509486805801
 Iteration     6 Dimension    58 NMult    55 NNew      3
 CISAX will form     3 AO SS matrices at one time.
 NMat=     3 NSing=     3 JSym2X= 0.
 Root      1 has converged.
 Root      2 has converged.
 Root      3 not converged, maximum delta is    0.050818993385458
 Root      4 not converged, maximum delta is    0.014595376403231
 Root      5 not converged, maximum delta is    0.427778476909514
 Excitation Energies [eV] at current iteration:
 Root      1 :     1.283612103013199   Change is   -0.000000694650320
 Root      2 :     1.921345600614852   Change is   -0.000001783272780
 Root      3 :     3.004371155619197   Change is   -0.001768994343865
 Root      4 :     3.053459367411364   Change is   -0.000731895471387
 Root      5 :     3.083832741876788   Change is   -0.079067920523037
 Iteration     7 Dimension    61 NMult    58 NNew      3
 CISAX will form     3 AO SS matrices at one time.
 NMat=     3 NSing=     3 JSym2X= 0.
 Root      1 has converged.
 Root      2 has converged.
 Root      3 not converged, maximum delta is    0.278830249872233
 New state      4 was old state      5
 Root      4 not converged, maximum delta is    0.352742795717029
 New state      5 was old state      4
 Root      5 not converged, maximum delta is    0.031498676804034
 Excitation Energies [eV] at current iteration:
 Root      1 :     1.283612009592445   Change is   -0.000000093420754
 Root      2 :     1.921343705471483   Change is   -0.000001895143369
 Root      3 :     2.987085026572054   Change is   -0.017286129047143
 Root      4 :     3.015083121879606   Change is   -0.068749619997182
 Root      5 :     3.051694493422589   Change is   -0.001764873988775
 Iteration     8 Dimension    64 NMult    61 NNew      3
 CISAX will form     3 AO SS matrices at one time.
 NMat=     3 NSing=     3 JSym2X= 0.
 Root      1 has converged.
 Root      2 has converged.
 Root      3 not converged, maximum delta is    0.079228827622340
 Root      4 not converged, maximum delta is    0.056550391104588
 Root      5 not converged, maximum delta is    0.037299282363667
 Excitation Energies [eV] at current iteration:
 Root      1 :     1.283611938734266   Change is   -0.000000070858178
 Root      2 :     1.921343185340407   Change is   -0.000000520131076
 Root      3 :     2.977269355615860   Change is   -0.009815670956194
 Root      4 :     3.012375785425816   Change is   -0.002707336453789
 Root      5 :     3.049841221923084   Change is   -0.001853271499505
 Iteration     9 Dimension    67 NMult    64 NNew      3
 CISAX will form     3 AO SS matrices at one time.
 NMat=     3 NSing=     3 JSym2X= 0.
 Root      1 has converged.
 Root      2 has converged.
 Root      3 not converged, maximum delta is    0.009788798443129
 Root      4 not converged, maximum delta is    0.007192103640819
 Root      5 not converged, maximum delta is    0.009966257394111
 Excitation Energies [eV] at current iteration:
 Root      1 :     1.283611912941556   Change is   -0.000000025792711
 Root      2 :     1.921342947236255   Change is   -0.000000238104152
 Root      3 :     2.975650487889869   Change is   -0.001618867725990
 Root      4 :     3.012072524001002   Change is   -0.000303261424814
 Root      5 :     3.049346154414650   Change is   -0.000495067508434
 Iteration    10 Dimension    70 NMult    67 NNew      3
 CISAX will form     3 AO SS matrices at one time.
 NMat=     3 NSing=     3 JSym2X= 0.
 Root      1 has converged.
 Root      2 has converged.
 Root      3 not converged, maximum delta is    0.002607572871768
 Root      4 not converged, maximum delta is    0.001235772338900
 Root      5 not converged, maximum delta is    0.002120120938058
 Excitation Energies [eV] at current iteration:
 Root      1 :     1.283611903177776   Change is   -0.000000009763780
 Root      2 :     1.921342636816934   Change is   -0.000000310419320
 Root      3 :     2.975357690898046   Change is   -0.000292796991824
 Root      4 :     3.012024158278071   Change is   -0.000048365722931
 Root      5 :     3.049231022289137   Change is   -0.000115132125512
 Iteration    11 Dimension    73 NMult    70 NNew      3
 CISAX will form     3 AO SS matrices at one time.
 NMat=     3 NSing=     3 JSym2X= 0.
 Root      1 has converged.
 Root      2 has converged.
 Root      3 not converged, maximum delta is    0.001463047406733
 Root      4 has converged.
 Root      5 has converged.
 Excitation Energies [eV] at current iteration:
 Root      1 :     1.283611902302076   Change is   -0.000000000875700
 Root      2 :     1.921342534337482   Change is   -0.000000102479452
 Root      3 :     2.975295660211861   Change is   -0.000062030686184
 Root      4 :     3.012013017308405   Change is   -0.000011140969666
 Root      5 :     3.049209307827076   Change is   -0.000021714462061
 Iteration    12 Dimension    74 NMult    73 NNew      1
 CISAX will form     1 AO SS matrices at one time.
 NMat=     1 NSing=     1 JSym2X= 0.
 Root      1 has converged.
 Root      2 has converged.
 Root      3 has converged.
 Root      4 has converged.
 Root      5 has converged.
 Excitation Energies [eV] at current iteration:
 Root      1 :     1.283611887346610   Change is   -0.000000014955466
 Root      2 :     1.921342487238036   Change is   -0.000000047099446
 Root      3 :     2.975281846744178   Change is   -0.000013813467683
 Root      4 :     3.012010575915414   Change is   -0.000002441392991
 Root      5 :     3.049206094190062   Change is   -0.000003213637014
 Convergence achieved on expansion vectors.
 ***********************************************************************
 Excited states from <AA,BB:AA,BB> singles matrix:
 ***********************************************************************
 
 1PDM for each excited state written to RWF  633
 Ground to excited state transition densities written to RWF  633
 Ground to excited state transition electric dipole moments (Au):
       state          X           Y           Z        Dip. S.      Osc.
         1        -2.7488     -3.3381      0.3471     18.8195      0.5918
         2         0.8267     -0.7866      0.1308      1.3193      0.0621
         3         0.9330     -0.7217     -0.1018      1.4018      0.1022
         4         2.6856     -2.0270     -0.2482     11.3830      0.8400
         5        -0.1691      0.7543     -0.0981      0.6072      0.0454
 Ground to excited state transition velocity dipole moments (Au):
       state          X           Y           Z        Dip. S.      Osc.
         1        -0.0580     -0.0214      0.0157      0.0041      0.0576
         2        -0.0079      0.0130     -0.0004      0.0002      0.0022
         3        -0.0315      0.0238     -0.0011      0.0016      0.0095
         4        -0.0935      0.0646      0.0143      0.0131      0.0790
         5         0.0123     -0.0231      0.0042      0.0007      0.0042
 Ground to excited state transition magnetic dipole moments (Au):
       state          X           Y           Z
         1        -0.0170      0.1209      0.1150
         2         0.0409      0.0210      0.5596
         3         0.4847     -0.3789     -0.2879
         4        -0.2186      0.3287     -0.6138
         5         0.1646      0.4100      0.8477
 Ground to excited state transition velocity quadrupole moments (Au):
       state          XX          YY          ZZ          XY          XZ          YZ
         1         1.1005     -0.0547     -0.0085      0.2547     -0.1629     -0.0011
         2         0.1388     -0.0172     -0.0043     -0.0739      0.0385     -0.0075
         3         0.4400      0.0181      0.0092     -0.1597      0.0196     -0.1244
         4         1.2076      0.0920     -0.0254     -0.3896      0.0034     -0.0291
         5        -0.4948      0.2535     -0.0104      0.2210      0.0224     -0.1288
 <0|del|b> * <b|rxdel|0> + <0|del|b> * <b|delr+rdel|0>
 Rotatory Strengths (R) in cgs (10**-40 erg-esu-cm/Gauss)
       state          XX          YY          ZZ    R(velocity)    E-M Angle
         1        -1.9293     -8.6166     13.6742      1.0428       88.88
         2        -2.0324     -2.4853      1.9631     -0.8516       91.72
         3       -29.0771    -36.2385    -89.6148    -51.6435      153.35
         4        21.2270     63.7663    125.1049     70.0327       66.84
         5       -14.0999      9.7022    -20.1304     -8.1760       98.82
 1/2[<0|r|b>*<b|rxdel|0> + (<0|rxdel|b>*<b|r|0>)*]
 Rotatory Strengths (R) in cgs (10**-40 erg-esu-cm/Gauss)
       state          XX          YY          ZZ     R(length)
         1       -33.0975    285.5092    -28.2151     74.7322
         2       -23.9029     11.6956    -51.7466    -21.3180
         3      -319.7954   -193.4002    -20.7290   -177.9749
         4       415.1720    471.2167   -107.7332    259.5518
         5        19.6833   -218.7371     58.8076    -46.7487
  1/2[<0|del|b>*<b|r|0> + (<0|r|b>*<b|del|0>)*] (Au)
       state          X           Y           Z        Dip. S.   Osc.(frdel)
         1         0.1595      0.0714      0.0055     -0.2364     -0.1576
         2        -0.0065     -0.0102     -0.0000      0.0167      0.0112
         3        -0.0294     -0.0171      0.0001      0.0464      0.0309
         4        -0.2512     -0.1309     -0.0036      0.3856      0.2571
         5        -0.0021     -0.0174     -0.0004      0.0199      0.0133

 Excitation energies and oscillator strengths:
 
 Excited State   1:      Singlet-A      1.2836 eV  965.90 nm  f=0.5918  <S**2>=0.000
     175 ->178         0.18754
     176 ->177         0.66444
 This state for optimization and/or second-order correction.
 Total Energy, E(CIS/TDA) =  -473.897794323    
 Copying the excited state density for this state as the 1-particle RhoCI density.
 
 Excited State   2:      Singlet-A      1.9213 eV  645.30 nm  f=0.0621  <S**2>=0.000
     175 ->177         0.55675
     176 ->178        -0.40556
 
 Excited State   3:      Singlet-A      2.9753 eV  416.71 nm  f=0.1022  <S**2>=0.000
     167 ->179        -0.15257
     168 ->177         0.30398
     168 ->179        -0.39651
     168 ->180        -0.16558
     168 ->184        -0.10436
     168 ->186        -0.20679
     171 ->177        -0.13017
     175 ->177         0.11656
     176 ->178         0.18249
 
 Excited State   4:      Singlet-A      3.0120 eV  411.63 nm  f=0.8400  <S**2>=0.000
     168 ->177        -0.11267
     168 ->179         0.15937
     171 ->177        -0.13664
     175 ->177         0.32678
     176 ->178         0.47827
     176 ->179        -0.17038
     176 ->180         0.12714
 
 Excited State   5:      Singlet-A      3.0492 eV  406.61 nm  f=0.0454  <S**2>=0.000
     170 ->177         0.14692
     170 ->180        -0.10672
     172 ->177        -0.12282
     174 ->177         0.58632
     174 ->179         0.10078
     176 ->179        -0.14443
 SavETr:  write IOETrn=   770 NScale= 10 NData=  16 NLR=1 NState=    5 LETran=     100.
 Leave Link  914 at Wed May  4 18:33:17 2022, MaxMem=  6710886400 cpu:              99.9 elap:               4.2
 (Enter /sw/apps/gaussian-16.0/g16/l601.exe)
 Copying SCF densities to generalized density rwf, IOpCl= 0 IROHF=0.

 **********************************************************************

            Population analysis using the SCF density.

 **********************************************************************

 Orbital symmetries:
       Occupied  (A) (A) (A) (A) (A) (A) (A) (A) (A) (A) (A) (A)
                 (A) (A) (A) (A) (A) (A) (A) (A) (A) (A) (A) (A)
                 (A) (A) (A) (A) (A) (A) (A) (A) (A) (A) (A) (A)
                 (A) (A) (A) (A) (A) (A) (A) (A) (A) (A) (A) (A)
                 (A) (A) (A) (A) (A) (A) (A) (A) (A) (A) (A) (A)
                 (A) (A) (A) (A) (A) (A) (A) (A) (A) (A) (A) (A)
                 (A) (A) (A) (A) (A) (A) (A) (A) (A) (A) (A) (A)
                 (A) (A) (A) (A) (A) (A) (A) (A) (A) (A) (A) (A)
                 (A) (A) (A) (A) (A) (A) (A) (A) (A) (A) (A) (A)
                 (A) (A) (A) (A) (A) (A) (A) (A) (A) (A) (A) (A)
                 (A) (A) (A) (A) (A) (A) (A) (A) (A) (A) (A) (A)
                 (A) (A) (A) (A) (A) (A) (A) (A) (A) (A) (A) (A)
                 (A) (A) (A) (A) (A) (A) (A) (A) (A) (A) (A) (A)
                 (A) (A) (A) (A) (A) (A) (A) (A) (A) (A) (A) (A)
                 (A) (A) (A) (A) (A) (A) (A) (A)
       Virtual   (A) (A) (A) (A) (A) (A) (A) (A) (A) (A) (A) (A)
                 (A) (A) (A) (A) (A) (A) (A) (A) (A) (A) (A) (A)
                 (A) (A) (A) (A) (A) (A) (A) (A) (A) (A) (A) (A)
                 (A) (A) (A) (A) (A) (A) (A) (A) (A) (A) (A) (A)
                 (A) (A) (A) (A) (A) (A) (A) (A) (A) (A) (A) (A)
                 (A) (A) (A) (A) (A) (A) (A) (A) (A) (A) (A) (A)
                 (A) (A) (A) (A) (A) (A) (A) (A) (A) (A) (A) (A)
                 (A) (A) (A) (A) (A) (A) (A) (A) (A) (A) (A) (A)
                 (A) (A) (A) (A) (A) (A) (A) (A) (A) (A) (A) (A)
                 (A) (A) (A) (A) (A) (A) (A) (A) (A) (A) (A) (A)
                 (A) (A) (A) (A) (A) (A) (A) (A) (A) (A) (A) (A)
                 (A) (A) (A) (A) (A) (A) (A) (A) (A) (A) (A) (A)
                 (A) (A) (A) (A) (A) (A) (A) (A) (A) (A) (A) (A)
                 (A) (A) (A) (A) (A) (A)
 The electronic state is 1-A.
 Alpha  occ. eigenvalues --   -1.83474  -1.81103  -1.78804  -1.71091  -1.70350
 Alpha  occ. eigenvalues --   -1.68957  -1.65297  -1.58750  -1.57963  -1.57177
 Alpha  occ. eigenvalues --   -1.55385  -1.51666  -1.47790  -1.47119  -1.46005
 Alpha  occ. eigenvalues --   -1.45415  -1.42486  -1.40192  -1.39370  -1.37217
 Alpha  occ. eigenvalues --   -1.36502  -1.33166  -1.32849  -1.31697  -1.29568
 Alpha  occ. eigenvalues --   -1.27834  -1.25097  -1.22066  -1.20556  -1.18963
 Alpha  occ. eigenvalues --   -1.16899  -1.16281  -1.14829  -1.14534  -1.13918
 Alpha  occ. eigenvalues --   -1.12563  -1.11630  -1.09714  -1.04762  -1.03472
 Alpha  occ. eigenvalues --   -1.02446  -1.00264  -0.98287  -0.97955  -0.96975
 Alpha  occ. eigenvalues --   -0.94887  -0.94262  -0.93971  -0.93447  -0.92333
 Alpha  occ. eigenvalues --   -0.90928  -0.90055  -0.88033  -0.87589  -0.87202
 Alpha  occ. eigenvalues --   -0.85122  -0.83799  -0.82797  -0.81715  -0.80427
 Alpha  occ. eigenvalues --   -0.79674  -0.78240  -0.76528  -0.76460  -0.75701
 Alpha  occ. eigenvalues --   -0.75529  -0.75169  -0.74451  -0.73655  -0.73203
 Alpha  occ. eigenvalues --   -0.72621  -0.71737  -0.71679  -0.70808  -0.70562
 Alpha  occ. eigenvalues --   -0.69677  -0.68947  -0.68665  -0.68603  -0.68458
 Alpha  occ. eigenvalues --   -0.67638  -0.67003  -0.66721  -0.65909  -0.65858
 Alpha  occ. eigenvalues --   -0.64895  -0.64663  -0.64378  -0.64321  -0.63416
 Alpha  occ. eigenvalues --   -0.63003  -0.62725  -0.62431  -0.62228  -0.61952
 Alpha  occ. eigenvalues --   -0.61150  -0.61028  -0.60995  -0.60628  -0.60280
 Alpha  occ. eigenvalues --   -0.60117  -0.59891  -0.59593  -0.58835  -0.58488
 Alpha  occ. eigenvalues --   -0.58050  -0.57570  -0.57438  -0.56667  -0.56509
 Alpha  occ. eigenvalues --   -0.56184  -0.55467  -0.55349  -0.55234  -0.54717
 Alpha  occ. eigenvalues --   -0.53919  -0.53549  -0.53494  -0.53310  -0.52987
 Alpha  occ. eigenvalues --   -0.52436  -0.52247  -0.51889  -0.51814  -0.51626
 Alpha  occ. eigenvalues --   -0.51188  -0.50746  -0.50725  -0.50520  -0.50493
 Alpha  occ. eigenvalues --   -0.49975  -0.49819  -0.49629  -0.49286  -0.49066
 Alpha  occ. eigenvalues --   -0.48896  -0.48777  -0.48568  -0.48267  -0.47891
 Alpha  occ. eigenvalues --   -0.47751  -0.47286  -0.47228  -0.46908  -0.46701
 Alpha  occ. eigenvalues --   -0.46636  -0.46422  -0.46253  -0.46049  -0.45741
 Alpha  occ. eigenvalues --   -0.45432  -0.45019  -0.44812  -0.44762  -0.44501
 Alpha  occ. eigenvalues --   -0.43933  -0.43914  -0.43012  -0.42814  -0.42405
 Alpha  occ. eigenvalues --   -0.42140  -0.41739  -0.41554  -0.39637  -0.39281
 Alpha  occ. eigenvalues --   -0.38484  -0.36674  -0.35832  -0.35091  -0.34256
 Alpha  occ. eigenvalues --   -0.33448  -0.32565  -0.32406  -0.30757  -0.26591
 Alpha  occ. eigenvalues --   -0.21997
 Alpha virt. eigenvalues --   -0.08632  -0.02079  -0.00482   0.01375   0.01662
 Alpha virt. eigenvalues --    0.02074   0.02674   0.02995   0.04225   0.04854
 Alpha virt. eigenvalues --    0.06033   0.06506   0.07356   0.07869   0.08122
 Alpha virt. eigenvalues --    0.08230   0.08732   0.09166   0.09314   0.09348
 Alpha virt. eigenvalues --    0.10091   0.10142   0.10360   0.10466   0.10576
 Alpha virt. eigenvalues --    0.10790   0.10969   0.11312   0.11466   0.12070
 Alpha virt. eigenvalues --    0.12316   0.12637   0.12733   0.13136   0.13220
 Alpha virt. eigenvalues --    0.13475   0.13908   0.14066   0.14484   0.14765
 Alpha virt. eigenvalues --    0.15080   0.15139   0.15249   0.15303   0.15406
 Alpha virt. eigenvalues --    0.15694   0.16379   0.16569   0.16778   0.16862
 Alpha virt. eigenvalues --    0.17290   0.17483   0.17696   0.17894   0.18148
 Alpha virt. eigenvalues --    0.18287   0.18410   0.18633   0.18718   0.19018
 Alpha virt. eigenvalues --    0.19262   0.19469   0.20192   0.20635   0.21127
 Alpha virt. eigenvalues --    0.21975   0.22116   0.23129   0.23216   0.23611
 Alpha virt. eigenvalues --    0.23628   0.23931   0.23944   0.24101   0.24202
 Alpha virt. eigenvalues --    0.24285   0.24417   0.24614   0.24643   0.24680
 Alpha virt. eigenvalues --    0.24696   0.24697   0.24806   0.24849   0.24985
 Alpha virt. eigenvalues --    0.25047   0.25136   0.25175   0.25286   0.25435
 Alpha virt. eigenvalues --    0.25437   0.25473   0.25518   0.25648   0.25769
 Alpha virt. eigenvalues --    0.25794   0.25846   0.25891   0.25980   0.26076
 Alpha virt. eigenvalues --    0.26113   0.26121   0.26430   0.26437   0.26566
 Alpha virt. eigenvalues --    0.26587   0.26654   0.26731   0.26819   0.27020
 Alpha virt. eigenvalues --    0.27282   0.27525   0.27664   0.27728   0.27895
 Alpha virt. eigenvalues --    0.28256   0.28279   0.28654   0.28697   0.28741
 Alpha virt. eigenvalues --    0.29215   0.29516   0.29905   0.30135   0.30336
 Alpha virt. eigenvalues --    0.31327   0.31919   0.32377   0.33272   0.34483
 Alpha virt. eigenvalues --    0.34898   0.35337   0.35629   0.35658   0.35912
 Alpha virt. eigenvalues --    0.36401   0.36467   0.36866   0.37567   0.37867
 Alpha virt. eigenvalues --    0.38398   0.38964   0.39181   0.39402   0.39989
 Alpha virt. eigenvalues --    0.40695   0.40941   0.41304   0.41879   0.43259
 Alpha virt. eigenvalues --    0.43506   0.44610   0.45229   0.45731   0.47449
 Alpha virt. eigenvalues --    0.47557   0.47687   0.48575   0.51034   0.53463
 Alpha virt. eigenvalues --    0.54114   0.56987
          Condensed to atoms (all electrons):
 Mulliken charges:
               1
     1  Mg   0.418489
     2  C   -0.017343
     3  C   -0.073121
     4  C   -0.074818
     5  C   -0.054124
     6  N   -0.292080
     7  C    0.090007
     8  C   -0.005065
     9  C    0.001386
    10  C    0.159374
    11  C   -0.048852
    12  C   -0.011945
    13  C    0.011254
    14  C    0.453387
    15  O   -0.511487
    16  O   -0.283824
    17  N   -0.339884
    18  C    0.112753
    19  C    0.008596
    20  C   -0.042057
    21  C    0.168954
    22  C   -0.032444
    23  C    0.324793
    24  O   -0.508947
    25  C   -0.036174
    26  N   -0.266515
    27  C    0.174644
    28  C    0.005016
    29  C   -0.013659
    30  C    0.107098
    31  C   -0.052490
    32  C   -0.036446
    33  C   -0.065919
    34  N   -0.324110
    35  C    0.087555
    36  C   -0.000423
    37  C   -0.084612
    38  C    0.094741
    39  C   -0.036509
    40  C    0.336307
    41  O   -0.508210
    42  C    0.058759
    43  C    0.484970
    44  O   -0.507930
    45  O   -0.275689
    46  C    0.067813
    47  C    0.106977
    48  C   -0.077419
    49  C   -0.001436
    50  C   -0.039662
    51  C   -0.025082
    52  C   -0.031324
    53  C   -0.041734
    54  C   -0.030797
    55  C   -0.063373
    56  C   -0.025959
    57  C   -0.038164
    58  C   -0.049679
    59  C   -0.006091
    60  C   -0.057240
    61  C   -0.037058
    62  C   -0.041925
    63  C   -0.042409
    64  C   -0.021102
    65  C   -0.055158
    66  C   -0.065318
    67  H    0.023396
    68  H    0.037690
    69  H    0.034627
    70  H    0.052325
    71  H    0.023772
    72  H    0.019597
    73  H    0.036941
    74  H    0.019196
    75  H    0.031527
    76  H    0.040639
    77  H    0.029046
    78  H    0.054399
    79  H    0.037539
    80  H    0.027718
    81  H    0.032957
    82  H    0.037121
    83  H    0.032322
    84  H    0.031546
    85  H    0.034516
    86  H    0.023270
    87  H    0.018564
    88  H    0.028543
    89  H    0.019626
    90  H    0.021131
    91  H    0.018212
    92  H    0.011717
    93  H    0.032707
    94  H    0.040652
    95  H    0.040757
    96  H    0.041404
    97  H    0.020165
    98  H    0.059469
    99  H    0.036746
   100  H    0.035013
   101  H    0.051532
   102  H    0.058496
   103  H    0.041504
   104  H    0.021864
   105  H    0.034448
   106  H    0.024581
   107  H    0.009995
   108  H    0.024543
   109  H    0.014698
   110  H    0.021316
   111  H    0.024030
   112  H    0.020913
   113  H    0.026566
   114  H    0.011911
   115  H    0.012626
   116  H    0.022827
   117  H    0.015038
   118  H    0.022263
   119  H    0.023270
   120  H    0.017635
   121  H    0.027480
   122  H    0.018945
   123  H    0.002737
   124  H    0.011561
   125  H    0.013597
   126  H    0.019820
   127  H    0.022109
   128  H    0.030838
   129  H    0.011216
   130  H    0.021180
   131  H    0.030013
   132  H    0.025884
   133  H    0.016333
   134  H    0.027673
   135  H    0.007937
   136  H    0.034260
   137  H    0.014165
   138  H    0.028612
   139  H    0.017150
   140  H    0.016315
 Sum of Mulliken charges =  -0.00000
 Mulliken charges with hydrogens summed into heavy atoms:
               1
     1  Mg   0.418489
     2  C   -0.017343
     3  C   -0.049725
     4  C   -0.037128
     5  C   -0.019496
     6  N   -0.292080
     7  C    0.090007
     8  C    0.047259
     9  C    0.025158
    10  C    0.159374
    11  C    0.026883
    12  C    0.060221
    13  C    0.094699
    14  C    0.453387
    15  O   -0.511487
    16  O   -0.283824
    17  N   -0.339884
    18  C    0.112753
    19  C    0.008596
    20  C   -0.042057
    21  C    0.168954
    22  C    0.065771
    23  C    0.324793
    24  O   -0.508947
    25  C    0.064815
    26  N   -0.266515
    27  C    0.174644
    28  C    0.039531
    29  C    0.009611
    30  C    0.107098
    31  C    0.014243
    32  C    0.002897
    33  C    0.019157
    34  N   -0.324110
    35  C    0.087555
    36  C   -0.000423
    37  C   -0.084612
    38  C    0.094741
    39  C    0.065818
    40  C    0.336307
    41  O   -0.508210
    42  C    0.118228
    43  C    0.484970
    44  O   -0.507930
    45  O   -0.275689
    46  C    0.191104
    47  C    0.206977
    48  C   -0.055554
    49  C   -0.001436
    50  C    0.029363
    51  C    0.014159
    52  C    0.014021
    53  C    0.005745
    54  C   -0.018886
    55  C   -0.012882
    56  C    0.019574
    57  C    0.006951
    58  C   -0.027998
    59  C    0.005470
    60  C   -0.001714
    61  C    0.004996
    62  C    0.009268
    63  C   -0.000192
    64  C    0.006571
    65  C    0.001204
    66  C   -0.003242
 Charge=             -0.0000 electrons
 Dipole moment (field-independent basis, Debye):
    X=              8.7203    Y=              6.4285    Z=             -1.3910  Tot=             10.9227
 N-N= 4.337611477744D+03 E-N= 0.000000000000D+00  KE=-9.349155937913D+03
 Leave Link  601 at Wed May  4 18:33:17 2022, MaxMem=  6710886400 cpu:               0.8 elap:               0.0
 (Enter /sw/apps/gaussian-16.0/g16/l9999.exe)
 1\1\GINC-BP1-COMPUTE123\SP\RZINDO CIS\STO-3G\C55H74Mg1N4O6\OF15641\04-
 May-2022\0\\#p ZINDO=(nstates=5)\\step_301_chromophore_15 ZINDO\\0,1\M
 g,0,46.664,34.717,27.817\C,0,45.204,32.745,30.407\C,0,46.666,37.362,30
 .06\C,0,47.48,36.714,25.298\C,0,45.989,32.185,25.503\N,0,45.998,34.986
 ,29.953\C,0,45.752,33.951,30.857\C,0,45.804,34.503,32.307\C,0,45.946,3
 6.06,32.073\C,0,46.234,36.17,30.609\C,0,44.761,36.907,32.58\C,0,47.091
 ,33.926,33.051\C,0,47.034,33.645,34.553\C,0,45.988,34.576,35.367\O,0,4
 4.767,34.544,35.429\O,0,46.73,35.574,35.995\N,0,47.211,36.68,27.714\C,
 0,47.099,37.658,28.749\C,0,47.607,38.974,28.247\C,0,47.871,38.681,26.8
 39\C,0,47.52,37.308,26.548\C,0,47.96,40.132,29.17\C,0,48.42,39.654,25.
 784\O,0,48.602,39.403,24.598\C,0,48.759,41.072,26.288\N,0,46.634,34.52
 1,25.703\C,0,47.008,35.488,24.867\C,0,46.991,35.004,23.428\C,0,46.75,3
 3.474,23.503\C,0,46.429,33.367,25.024\C,0,45.827,35.737,22.692\C,0,47.
 896,32.578,22.942\C,0,49.191,32.49,23.853\N,0,45.773,32.836,27.902\C,0
 ,45.621,31.986,26.832\C,0,45.094,30.728,27.357\C,0,44.796,31.031,28.77
 9\C,0,45.248,32.343,29.056\C,0,44.804,29.427,26.675\C,0,44.236,30.504,
 30.033\O,0,43.718,29.429,30.213\C,0,44.35,31.686,31.088\C,0,44.747,31.
 304,32.478\O,0,45.784,30.847,32.887\O,0,43.624,31.576,33.28\C,0,43.88,
 31.449,34.743\C,0,46.013,36.612,36.766\C,0,46.859,37.756,37.309\C,0,46
 .671,38.596,38.331\C,0,45.353,38.91,38.916\C,0,47.75,39.52,38.806\C,0,
 47.674,41.037,38.25\C,0,48.966,41.893,38.604\C,0,49.052,43.291,37.75\C
 ,0,49.653,43.132,36.296\C,0,49.713,44.484,38.558\C,0,48.865,44.836,39.
 737\C,0,48.514,46.398,39.961\C,0,47.069,46.846,39.646\C,0,47.003,48.32
 8,39.447\C,0,46.041,46.344,40.674\C,0,44.719,45.771,40.044\C,0,43.587,
 46.849,40.317\C,0,42.238,46.494,39.597\C,0,42.288,47.07,38.17\C,0,41.0
 58,47.133,40.423\H,0,46.648,38.171,30.793\H,0,47.658,37.351,24.428\H,0
 ,45.855,31.335,24.83\H,0,44.789,34.328,32.663\H,0,46.825,36.393,32.624
 \H,0,45.229,37.789,33.018\H,0,44.085,36.387,33.26\H,0,44.157,37.204,31
 .723\H,0,47.913,34.64,32.991\H,0,47.283,32.967,32.571\H,0,48.004,33.91
 8,34.967\H,0,46.86,32.614,34.862\H,0,48.914,40.604,28.937\H,0,47.933,3
 9.758,30.194\H,0,47.191,40.903,29.118\H,0,49.551,41.171,27.031\H,0,47.
 85,41.503,26.708\H,0,49.117,41.691,25.466\H,0,47.882,35.158,22.819\H,0
 ,45.892,33.236,22.874\H,0,45.783,36.808,22.892\H,0,44.853,35.341,22.98
 \H,0,46.069,35.704,21.63\H,0,48.196,32.953,21.963\H,0,47.415,31.605,22
 .848\H,0,50.047,32.548,23.18\H,0,49.28,31.467,24.22\H,0,49.136,33.371,
 24.491\H,0,43.754,29.175,26.819\H,0,45.47,28.686,27.119\H,0,45.034,29.
 624,25.628\H,0,43.402,32.195,31.264\H,0,43.392,30.551,35.124\H,0,43.37
 1,32.332,35.129\H,0,44.888,31.435,35.158\H,0,45.332,36.143,37.476\H,0,
 45.438,37.166,36.025\H,0,47.859,37.775,36.876\H,0,44.998,39.918,38.701
 \H,0,45.318,38.724,39.989\H,0,44.611,38.204,38.541\H,0,48.745,39.078,3
 8.752\H,0,47.602,39.677,39.874\H,0,46.781,41.48,38.693\H,0,47.52,41.10
 3,37.173\H,0,49.87,41.352,38.322\H,0,49.046,42.191,39.649\H,0,48.009,4
 3.545,37.559\H,0,48.821,43.291,35.61\H,0,50.141,42.202,36.005\H,0,50.3
 8,43.919,36.091\H,0,49.833,45.356,37.916\H,0,50.683,44.036,38.778\H,0,
 49.478,44.489,40.568\H,0,47.868,44.394,39.743\H,0,49.308,47.044,39.587
 \H,0,48.642,46.625,41.019\H,0,46.955,46.373,38.67\H,0,47.156,48.609,38
 .405\H,0,47.884,48.669,39.991\H,0,46.076,48.777,39.801\H,0,45.957,47.1
 73,41.376\H,0,46.561,45.508,41.143\H,0,44.429,44.867,40.581\H,0,44.84,
 45.598,38.974\H,0,43.952,47.821,39.984\H,0,43.409,46.822,41.392\H,0,42
 .142,45.41,39.664\H,0,43.318,46.886,37.864\H,0,42.066,48.126,38.015\H,
 0,41.715,46.409,37.521\H,0,41.476,47.843,41.137\H,0,40.5,46.314,40.876
 \H,0,40.353,47.599,39.734\\Version=ES64L-G16RevA.03\State=1-A\HF=-473.
 9449662\RMSD=7.409e-09\PG=C01 [X(C55H74Mg1N4O6)]\\@


 FROM WHENCE IT HAPPENS, THAT THEY WHICH TRUST TO BOOKS, DO AS THEY THAT CAST UP MANY LITTLE SUMMS INTO GREATER,
 WITHOUT CONSIDERING WETHER THOSE LITTLE SUMMES WERE RIGHTLY CAST UP OR NOT...
 AND AT LAST FINDING THE ERROUR VISIBLE, AND NOT MISTRUSTING THEIR FIRST GROUNDS,
 KNOW NOT WHICH WAY TO CLEERE THEMSELVES...
 BUT SPEND TIME IN FLUTTERING OVER THEIR BOOKES....
 AS BIRDS THAT ENTERING BY THE CHIMNEY, AND FINDING THEMSELVES INCLOSED IN A CHAMBER,
 FLUTTER AT THE FALSE LIGHT OF A GLASSE WINDOW,
 FOR WANT OF WIT TO CONSIDER WHICH WAY THEY CAME IN....
           LEVIATHAN
 Job cpu time:       0 days  0 hours  2 minutes 23.5 seconds.
 Elapsed time:       0 days  0 hours  0 minutes  6.3 seconds.
 File lengths (MBytes):  RWF=   1263 Int=      0 D2E=      0 Chk=     38 Scr=      1
 Normal termination of Gaussian 16 at Wed May  4 18:33:18 2022.
