 Entering Gaussian System, Link 0=g16
 Initial command:
 /sw/apps/gaussian-16.0/g16/l1.exe "/tmp/Gau-94414.inp" -scrdir="/tmp/"
 Entering Link 1 = /sw/apps/gaussian-16.0/g16/l1.exe PID=     94415.
  
 Copyright (c) 1988,1990,1992,1993,1995,1998,2003,2009,2016,
            Gaussian, Inc.  All Rights Reserved.
  
 This is part of the Gaussian(R) 16 program.  It is based on
 the Gaussian(R) 09 system (copyright 2009, Gaussian, Inc.),
 the Gaussian(R) 03 system (copyright 2003, Gaussian, Inc.),
 the Gaussian(R) 98 system (copyright 1998, Gaussian, Inc.),
 the Gaussian(R) 94 system (copyright 1995, Gaussian, Inc.),
 the Gaussian 92(TM) system (copyright 1992, Gaussian, Inc.),
 the Gaussian 90(TM) system (copyright 1990, Gaussian, Inc.),
 the Gaussian 88(TM) system (copyright 1988, Gaussian, Inc.),
 the Gaussian 86(TM) system (copyright 1986, Carnegie Mellon
 University), and the Gaussian 82(TM) system (copyright 1983,
 Carnegie Mellon University). Gaussian is a federally registered
 trademark of Gaussian, Inc.
  
 This software contains proprietary and confidential information,
 including trade secrets, belonging to Gaussian, Inc.
  
 This software is provided under written license and may be
 used, copied, transmitted, or stored only in accord with that
 written license.
  
 The following legend is applicable only to US Government
 contracts under FAR:
  
                    RESTRICTED RIGHTS LEGEND
  
 Use, reproduction and disclosure by the US Government is
 subject to restrictions as set forth in subparagraphs (a)
 and (c) of the Commercial Computer Software - Restricted
 Rights clause in FAR 52.227-19.
  
 Gaussian, Inc.
 340 Quinnipiac St., Bldg. 40, Wallingford CT 06492
  
  
 ---------------------------------------------------------------
 Warning -- This program may not be used in any manner that
 competes with the business of Gaussian, Inc. or will provide
 assistance to any competitor of Gaussian, Inc.  The licensee
 of this program is prohibited from giving any competitor of
 Gaussian, Inc. access to this program.  By using this program,
 the user acknowledges that Gaussian, Inc. is engaged in the
 business of creating and licensing software in the field of
 computational chemistry and represents and warrants to the
 licensee that it is not a competitor of Gaussian, Inc. and that
 it will not use this program in any manner prohibited above.
 ---------------------------------------------------------------
  

 Cite this work as:
 Gaussian 16, Revision A.03,
 M. J. Frisch, G. W. Trucks, H. B. Schlegel, G. E. Scuseria, 
 M. A. Robb, J. R. Cheeseman, G. Scalmani, V. Barone, 
 G. A. Petersson, H. Nakatsuji, X. Li, M. Caricato, A. V. Marenich, 
 J. Bloino, B. G. Janesko, R. Gomperts, B. Mennucci, H. P. Hratchian, 
 J. V. Ortiz, A. F. Izmaylov, J. L. Sonnenberg, D. Williams-Young, 
 F. Ding, F. Lipparini, F. Egidi, J. Goings, B. Peng, A. Petrone, 
 T. Henderson, D. Ranasinghe, V. G. Zakrzewski, J. Gao, N. Rega, 
 G. Zheng, W. Liang, M. Hada, M. Ehara, K. Toyota, R. Fukuda, 
 J. Hasegawa, M. Ishida, T. Nakajima, Y. Honda, O. Kitao, H. Nakai, 
 T. Vreven, K. Throssell, J. A. Montgomery, Jr., J. E. Peralta, 
 F. Ogliaro, M. J. Bearpark, J. J. Heyd, E. N. Brothers, K. N. Kudin, 
 V. N. Staroverov, T. A. Keith, R. Kobayashi, J. Normand, 
 K. Raghavachari, A. P. Rendell, J. C. Burant, S. S. Iyengar, 
 J. Tomasi, M. Cossi, J. M. Millam, M. Klene, C. Adamo, R. Cammi, 
 J. W. Ochterski, R. L. Martin, K. Morokuma, O. Farkas, 
 J. B. Foresman, and D. J. Fox, Gaussian, Inc., Wallingford CT, 2016.
 
 ******************************************
 Gaussian 16:  ES64L-G16RevA.03 25-Dec-2016
                28-Apr-2022 
 ******************************************
 %nproc=24
 Will use up to   24 processors via shared memory.
 %mem=50gb
 --------------------
 #p ZINDO=(nstates=5)
 --------------------
 1/38=1,172=1/1;
 2/12=2,17=6,18=5,40=1/2;
 3/5=2,25=1,41=400000/1,2,3,8;
 4/5=3,35=1/1;
 5/5=2,35=1,38=5/2;
 8/6=1,108=5/1;
 9/41=5,42=1,49=10/14;
 6/7=2,8=2,9=2,10=2/1;
 99/5=1,9=1/99;
 Leave Link    1 at Thu Apr 28 10:20:35 2022, MaxMem=  6710886400 cpu:               0.9 elap:               0.0
 (Enter /sw/apps/gaussian-16.0/g16/l101.exe)
 -----------------------------
 step_151_chromophore_20 ZINDO
 -----------------------------
 Symbolic Z-matrix:
 Charge =  0 Multiplicity = 1
 Mg                    7.729     57.116    41.167 
 C                     6.553     53.77     40.99 
 C                     10.909    56.032    40.471 
 C                     8.636     60.348    40.846 
 C                     4.307     58.047    41.85 
 N                     8.56      55.105    40.728 
 C                     7.921     53.9      40.666 
 C                     8.864     52.818    40.218 
 C                     10.26     53.477    40.432 
 C                     9.936     54.987    40.582 
 C                     11.106    52.901    41.613 
 C                     8.558     52.175    38.813 
 C                     9.752     51.649    37.999 
 C                     9.322     50.91     36.714 
 O                     8.477     50.008    36.72 
 O                     9.88      51.447    35.556 
 N                     9.485     58.012    40.658 
 C                     10.675    57.378    40.46 
 C                     11.704    58.332    40.177 
 C                     11.096    59.654    40.334 
 C                     9.694     59.44     40.607 
 C                     12.955    57.935    39.475 
 C                     11.863    60.956    40.12 
 O                     13.094    60.949    39.928 
 C                     11.265    62.399    40.229 
 N                     6.57      58.95     41.062 
 C                     7.215     60.176    41.061 
 C                     6.172     61.241    41.314 
 C                     4.764     60.582    41.441 
 C                     5.211     59.089    41.498 
 C                     6.55      62.191    42.449 
 C                     3.792     60.921    40.288 
 C                     2.326     60.837    40.658 
 N                     5.827     56.202    41.439 
 C                     4.5       56.705    41.696 
 C                     3.579     55.606    41.962 
 C                     4.324     54.459    41.664 
 C                     5.693     54.882    41.373 
 C                     2.146     55.879    42.444 
 C                     4.26      53.02     41.685 
 O                     3.353     52.272    42.048 
 C                     5.635     52.539    41.048 
 C                     5.202     52.073    39.717 
 O                     4.758     52.664    38.765 
 O                     5.435     50.75     39.709 
 C                     4.944     49.988    38.569 
 C                     9.632     50.654    34.365 
 C                     9.71      51.619    33.15 
 C                     8.818     52.34     32.407 
 C                     7.39      52.381    32.758 
 C                     9.283     53.257    31.215 
 C                     9.05      54.787    31.388 
 C                     9.687     55.659    30.273 
 C                     10.854    56.595    30.79 
 C                     10.221    57.716    31.623 
 C                     11.655    57.189    29.68 
 C                     12.864    56.296    29.212 
 C                     14.205    57.137    29.288 
 C                     14.329    58.327    28.275 
 C                     14.935    57.888    26.917 
 C                     14.805    59.723    28.887 
 C                     13.803    60.837    28.942 
 C                     13.418    61.163    30.452 
 C                     14.278    62.264    31.139 
 C                     15.262    61.694    32.182 
 C                     13.333    63.399    31.777 
 H                     11.915    55.64     40.309 
 H                     8.972     61.375    41.004 
 H                     3.313     58.341    42.192 
 H                     8.627     52.017    40.918 
 H                     10.887    53.376    39.546 
 H                     10.932    53.568    42.457 
 H                     12.158    52.93     41.327 
 H                     10.587    51.978    41.872 
 H                     7.961     52.815    38.163 
 H                     7.952     51.276    38.929 
 H                     10.387    50.987    38.589 
 H                     10.31     52.532    37.687 
 H                     13.37     58.83     39.013 
 H                     12.814    57.098    38.791 
 H                     13.613    57.667    40.302 
 H                     10.975    62.575    41.265 
 H                     10.402    62.329    39.566 
 H                     11.84     63.214    39.79 
 H                     6.184     61.851    40.411 
 H                     4.242     60.809    42.371 
 H                     6.301     63.14     41.974 
 H                     7.621     62.222    42.65 
 H                     5.896     62.094    43.315 
 H                     4.085     60.261    39.471 
 H                     3.97      61.9      39.845 
 H                     1.911     61.843    40.727 
 H                     2.117     60.289    41.577 
 H                     1.786     60.261    39.907 
 H                     1.621     56.084    41.511 
 H                     2.238     56.684    43.174 
 H                     1.811     54.953    42.912 
 H                     6.017     51.827    41.78 
 H                     4.385     49.176    39.036 
 H                     5.82      49.657    38.012 
 H                     4.265     50.525    37.908 
 H                     8.768     49.992    34.317 
 H                     10.466    49.954    34.314 
 H                     10.712    51.57     32.725 
 H                     7.279     52.606    33.819 
 H                     6.865     51.447    32.555 
 H                     6.901     53.096    32.097 
 H                     8.801     52.829    30.336 
 H                     10.342    53.195    30.968 
 H                     9.408     55.156    32.349 
 H                     7.985     54.971    31.531 
 H                     8.822     56.215    29.911 
 H                     9.95      55.154    29.344 
 H                     11.481    56.006    31.46 
 H                     9.153     57.501    31.659 
 H                     10.318    58.738    31.256 
 H                     10.622    57.663    32.635 
 H                     11.947    58.213    29.912 
 H                     11.048    57.294    28.781 
 H                     12.774    55.886    28.206 
 H                     13.066    55.444    29.862 
 H                     15.072    56.492    29.148 
 H                     14.394    57.595    30.259 
 H                     13.279    58.575    28.123 
 H                     14.095    57.605    26.283 
 H                     15.675    57.094    26.809 
 H                     15.406    58.714    26.385 
 H                     15.621    60.165    28.315 
 H                     15.258    59.514    29.856 
 H                     12.876    60.717    28.381 
 H                     14.211    61.77     28.553 
 H                     13.552    60.225    30.991 
 H                     12.354    61.365    30.331 
 H                     15.016    62.64     30.431 
 H                     15.271    62.377    33.031 
 H                     16.263    61.766    31.756 
 H                     14.894    60.693    32.409 
 H                     13.373    63.503    32.861 
 H                     12.29     63.294    31.478 
 H                     13.721    64.337    31.378 
 
 ITRead=  0  0  0  0  0  0  0  0  0  0  0  0  0  0  0  0  0  0  0  0
 ITRead=  0  0  0  0  0  0  0  0  0  0  0  0  0  0  0  0  0  0  0  0
 ITRead=  0  0  0  0  0  0  0  0  0  0  0  0  0  0  0  0  0  0  0  0
 ITRead=  0  0  0  0  0  0  0  0  0  0  0  0  0  0  0  0  0  0  0  0
 ITRead=  0  0  0  0  0  0  0  0  0  0  0  0  0  0  0  0  0  0  0  0
 ITRead=  0  0  0  0  0  0  0  0  0  0  0  0  0  0  0  0  0  0  0  0
 ITRead=  0  0  0  0  0  0  0  0  0  0  0  0  0  0  0  0  0  0  0  0
 MicOpt= -1 -1 -1 -1 -1 -1 -1 -1 -1 -1 -1 -1 -1 -1 -1 -1 -1 -1 -1 -1
 MicOpt= -1 -1 -1 -1 -1 -1 -1 -1 -1 -1 -1 -1 -1 -1 -1 -1 -1 -1 -1 -1
 MicOpt= -1 -1 -1 -1 -1 -1 -1 -1 -1 -1 -1 -1 -1 -1 -1 -1 -1 -1 -1 -1
 MicOpt= -1 -1 -1 -1 -1 -1 -1 -1 -1 -1 -1 -1 -1 -1 -1 -1 -1 -1 -1 -1
 MicOpt= -1 -1 -1 -1 -1 -1 -1 -1 -1 -1 -1 -1 -1 -1 -1 -1 -1 -1 -1 -1
 MicOpt= -1 -1 -1 -1 -1 -1 -1 -1 -1 -1 -1 -1 -1 -1 -1 -1 -1 -1 -1 -1
 MicOpt= -1 -1 -1 -1 -1 -1 -1 -1 -1 -1 -1 -1 -1 -1 -1 -1 -1 -1 -1 -1
 NAtoms=    140 NQM=      140 NQMF=       0 NMMI=      0 NMMIF=      0
                NMic=       0 NMicF=      0.
                    Isotopes and Nuclear Properties:
 (Nuclear quadrupole moments (NQMom) in fm**2, nuclear magnetic moments (NMagM)
  in nuclear magnetons)

  Atom         1           2           3           4           5           6           7           8           9          10
 IAtWgt=          24          12          12          12          12          14          12          12          12          12
 AtmWgt=  23.9850450  12.0000000  12.0000000  12.0000000  12.0000000  14.0030740  12.0000000  12.0000000  12.0000000  12.0000000
 NucSpn=           0           0           0           0           0           2           0           0           0           0
 AtZEff=  -0.0000000  -0.0000000  -0.0000000  -0.0000000  -0.0000000  -0.0000000  -0.0000000  -0.0000000  -0.0000000  -0.0000000
 NQMom=    0.0000000   0.0000000   0.0000000   0.0000000   0.0000000   2.0440000   0.0000000   0.0000000   0.0000000   0.0000000
 NMagM=    0.0000000   0.0000000   0.0000000   0.0000000   0.0000000   0.4037610   0.0000000   0.0000000   0.0000000   0.0000000
 AtZNuc=  12.0000000   6.0000000   6.0000000   6.0000000   6.0000000   7.0000000   6.0000000   6.0000000   6.0000000   6.0000000

  Atom        11          12          13          14          15          16          17          18          19          20
 IAtWgt=          12          12          12          12          16          16          14          12          12          12
 AtmWgt=  12.0000000  12.0000000  12.0000000  12.0000000  15.9949146  15.9949146  14.0030740  12.0000000  12.0000000  12.0000000
 NucSpn=           0           0           0           0           0           0           2           0           0           0
 AtZEff=  -0.0000000  -0.0000000  -0.0000000  -0.0000000  -0.0000000  -0.0000000  -0.0000000  -0.0000000  -0.0000000  -0.0000000
 NQMom=    0.0000000   0.0000000   0.0000000   0.0000000   0.0000000   0.0000000   2.0440000   0.0000000   0.0000000   0.0000000
 NMagM=    0.0000000   0.0000000   0.0000000   0.0000000   0.0000000   0.0000000   0.4037610   0.0000000   0.0000000   0.0000000
 AtZNuc=   6.0000000   6.0000000   6.0000000   6.0000000   8.0000000   8.0000000   7.0000000   6.0000000   6.0000000   6.0000000

  Atom        21          22          23          24          25          26          27          28          29          30
 IAtWgt=          12          12          12          16          12          14          12          12          12          12
 AtmWgt=  12.0000000  12.0000000  12.0000000  15.9949146  12.0000000  14.0030740  12.0000000  12.0000000  12.0000000  12.0000000
 NucSpn=           0           0           0           0           0           2           0           0           0           0
 AtZEff=  -0.0000000  -0.0000000  -0.0000000  -0.0000000  -0.0000000  -0.0000000  -0.0000000  -0.0000000  -0.0000000  -0.0000000
 NQMom=    0.0000000   0.0000000   0.0000000   0.0000000   0.0000000   2.0440000   0.0000000   0.0000000   0.0000000   0.0000000
 NMagM=    0.0000000   0.0000000   0.0000000   0.0000000   0.0000000   0.4037610   0.0000000   0.0000000   0.0000000   0.0000000
 AtZNuc=   6.0000000   6.0000000   6.0000000   8.0000000   6.0000000   7.0000000   6.0000000   6.0000000   6.0000000   6.0000000

  Atom        31          32          33          34          35          36          37          38          39          40
 IAtWgt=          12          12          12          14          12          12          12          12          12          12
 AtmWgt=  12.0000000  12.0000000  12.0000000  14.0030740  12.0000000  12.0000000  12.0000000  12.0000000  12.0000000  12.0000000
 NucSpn=           0           0           0           2           0           0           0           0           0           0
 AtZEff=  -0.0000000  -0.0000000  -0.0000000  -0.0000000  -0.0000000  -0.0000000  -0.0000000  -0.0000000  -0.0000000  -0.0000000
 NQMom=    0.0000000   0.0000000   0.0000000   2.0440000   0.0000000   0.0000000   0.0000000   0.0000000   0.0000000   0.0000000
 NMagM=    0.0000000   0.0000000   0.0000000   0.4037610   0.0000000   0.0000000   0.0000000   0.0000000   0.0000000   0.0000000
 AtZNuc=   6.0000000   6.0000000   6.0000000   7.0000000   6.0000000   6.0000000   6.0000000   6.0000000   6.0000000   6.0000000

  Atom        41          42          43          44          45          46          47          48          49          50
 IAtWgt=          16          12          12          16          16          12          12          12          12          12
 AtmWgt=  15.9949146  12.0000000  12.0000000  15.9949146  15.9949146  12.0000000  12.0000000  12.0000000  12.0000000  12.0000000
 NucSpn=           0           0           0           0           0           0           0           0           0           0
 AtZEff=  -0.0000000  -0.0000000  -0.0000000  -0.0000000  -0.0000000  -0.0000000  -0.0000000  -0.0000000  -0.0000000  -0.0000000
 NQMom=    0.0000000   0.0000000   0.0000000   0.0000000   0.0000000   0.0000000   0.0000000   0.0000000   0.0000000   0.0000000
 NMagM=    0.0000000   0.0000000   0.0000000   0.0000000   0.0000000   0.0000000   0.0000000   0.0000000   0.0000000   0.0000000
 AtZNuc=   8.0000000   6.0000000   6.0000000   8.0000000   8.0000000   6.0000000   6.0000000   6.0000000   6.0000000   6.0000000

  Atom        51          52          53          54          55          56          57          58          59          60
 IAtWgt=          12          12          12          12          12          12          12          12          12          12
 AtmWgt=  12.0000000  12.0000000  12.0000000  12.0000000  12.0000000  12.0000000  12.0000000  12.0000000  12.0000000  12.0000000
 NucSpn=           0           0           0           0           0           0           0           0           0           0
 AtZEff=  -0.0000000  -0.0000000  -0.0000000  -0.0000000  -0.0000000  -0.0000000  -0.0000000  -0.0000000  -0.0000000  -0.0000000
 NQMom=    0.0000000   0.0000000   0.0000000   0.0000000   0.0000000   0.0000000   0.0000000   0.0000000   0.0000000   0.0000000
 NMagM=    0.0000000   0.0000000   0.0000000   0.0000000   0.0000000   0.0000000   0.0000000   0.0000000   0.0000000   0.0000000
 AtZNuc=   6.0000000   6.0000000   6.0000000   6.0000000   6.0000000   6.0000000   6.0000000   6.0000000   6.0000000   6.0000000

  Atom        61          62          63          64          65          66          67          68          69          70
 IAtWgt=          12          12          12          12          12          12           1           1           1           1
 AtmWgt=  12.0000000  12.0000000  12.0000000  12.0000000  12.0000000  12.0000000   1.0078250   1.0078250   1.0078250   1.0078250
 NucSpn=           0           0           0           0           0           0           1           1           1           1
 AtZEff=  -0.0000000  -0.0000000  -0.0000000  -0.0000000  -0.0000000  -0.0000000  -0.0000000  -0.0000000  -0.0000000  -0.0000000
 NQMom=    0.0000000   0.0000000   0.0000000   0.0000000   0.0000000   0.0000000   0.0000000   0.0000000   0.0000000   0.0000000
 NMagM=    0.0000000   0.0000000   0.0000000   0.0000000   0.0000000   0.0000000   2.7928460   2.7928460   2.7928460   2.7928460
 AtZNuc=   6.0000000   6.0000000   6.0000000   6.0000000   6.0000000   6.0000000   1.0000000   1.0000000   1.0000000   1.0000000

  Atom        71          72          73          74          75          76          77          78          79          80
 IAtWgt=           1           1           1           1           1           1           1           1           1           1
 AtmWgt=   1.0078250   1.0078250   1.0078250   1.0078250   1.0078250   1.0078250   1.0078250   1.0078250   1.0078250   1.0078250
 NucSpn=           1           1           1           1           1           1           1           1           1           1
 AtZEff=  -0.0000000  -0.0000000  -0.0000000  -0.0000000  -0.0000000  -0.0000000  -0.0000000  -0.0000000  -0.0000000  -0.0000000
 NQMom=    0.0000000   0.0000000   0.0000000   0.0000000   0.0000000   0.0000000   0.0000000   0.0000000   0.0000000   0.0000000
 NMagM=    2.7928460   2.7928460   2.7928460   2.7928460   2.7928460   2.7928460   2.7928460   2.7928460   2.7928460   2.7928460
 AtZNuc=   1.0000000   1.0000000   1.0000000   1.0000000   1.0000000   1.0000000   1.0000000   1.0000000   1.0000000   1.0000000

  Atom        81          82          83          84          85          86          87          88          89          90
 IAtWgt=           1           1           1           1           1           1           1           1           1           1
 AtmWgt=   1.0078250   1.0078250   1.0078250   1.0078250   1.0078250   1.0078250   1.0078250   1.0078250   1.0078250   1.0078250
 NucSpn=           1           1           1           1           1           1           1           1           1           1
 AtZEff=  -0.0000000  -0.0000000  -0.0000000  -0.0000000  -0.0000000  -0.0000000  -0.0000000  -0.0000000  -0.0000000  -0.0000000
 NQMom=    0.0000000   0.0000000   0.0000000   0.0000000   0.0000000   0.0000000   0.0000000   0.0000000   0.0000000   0.0000000
 NMagM=    2.7928460   2.7928460   2.7928460   2.7928460   2.7928460   2.7928460   2.7928460   2.7928460   2.7928460   2.7928460
 AtZNuc=   1.0000000   1.0000000   1.0000000   1.0000000   1.0000000   1.0000000   1.0000000   1.0000000   1.0000000   1.0000000

  Atom        91          92          93          94          95          96          97          98          99         100
 IAtWgt=           1           1           1           1           1           1           1           1           1           1
 AtmWgt=   1.0078250   1.0078250   1.0078250   1.0078250   1.0078250   1.0078250   1.0078250   1.0078250   1.0078250   1.0078250
 NucSpn=           1           1           1           1           1           1           1           1           1           1
 AtZEff=  -0.0000000  -0.0000000  -0.0000000  -0.0000000  -0.0000000  -0.0000000  -0.0000000  -0.0000000  -0.0000000  -0.0000000
 NQMom=    0.0000000   0.0000000   0.0000000   0.0000000   0.0000000   0.0000000   0.0000000   0.0000000   0.0000000   0.0000000
 NMagM=    2.7928460   2.7928460   2.7928460   2.7928460   2.7928460   2.7928460   2.7928460   2.7928460   2.7928460   2.7928460
 AtZNuc=   1.0000000   1.0000000   1.0000000   1.0000000   1.0000000   1.0000000   1.0000000   1.0000000   1.0000000   1.0000000

  Atom       101         102         103         104         105         106         107         108         109         110
 IAtWgt=           1           1           1           1           1           1           1           1           1           1
 AtmWgt=   1.0078250   1.0078250   1.0078250   1.0078250   1.0078250   1.0078250   1.0078250   1.0078250   1.0078250   1.0078250
 NucSpn=           1           1           1           1           1           1           1           1           1           1
 AtZEff=  -0.0000000  -0.0000000  -0.0000000  -0.0000000  -0.0000000  -0.0000000  -0.0000000  -0.0000000  -0.0000000  -0.0000000
 NQMom=    0.0000000   0.0000000   0.0000000   0.0000000   0.0000000   0.0000000   0.0000000   0.0000000   0.0000000   0.0000000
 NMagM=    2.7928460   2.7928460   2.7928460   2.7928460   2.7928460   2.7928460   2.7928460   2.7928460   2.7928460   2.7928460
 AtZNuc=   1.0000000   1.0000000   1.0000000   1.0000000   1.0000000   1.0000000   1.0000000   1.0000000   1.0000000   1.0000000

  Atom       111         112         113         114         115         116         117         118         119         120
 IAtWgt=           1           1           1           1           1           1           1           1           1           1
 AtmWgt=   1.0078250   1.0078250   1.0078250   1.0078250   1.0078250   1.0078250   1.0078250   1.0078250   1.0078250   1.0078250
 NucSpn=           1           1           1           1           1           1           1           1           1           1
 AtZEff=  -0.0000000  -0.0000000  -0.0000000  -0.0000000  -0.0000000  -0.0000000  -0.0000000  -0.0000000  -0.0000000  -0.0000000
 NQMom=    0.0000000   0.0000000   0.0000000   0.0000000   0.0000000   0.0000000   0.0000000   0.0000000   0.0000000   0.0000000
 NMagM=    2.7928460   2.7928460   2.7928460   2.7928460   2.7928460   2.7928460   2.7928460   2.7928460   2.7928460   2.7928460
 AtZNuc=   1.0000000   1.0000000   1.0000000   1.0000000   1.0000000   1.0000000   1.0000000   1.0000000   1.0000000   1.0000000

  Atom       121         122         123         124         125         126         127         128         129         130
 IAtWgt=           1           1           1           1           1           1           1           1           1           1
 AtmWgt=   1.0078250   1.0078250   1.0078250   1.0078250   1.0078250   1.0078250   1.0078250   1.0078250   1.0078250   1.0078250
 NucSpn=           1           1           1           1           1           1           1           1           1           1
 AtZEff=  -0.0000000  -0.0000000  -0.0000000  -0.0000000  -0.0000000  -0.0000000  -0.0000000  -0.0000000  -0.0000000  -0.0000000
 NQMom=    0.0000000   0.0000000   0.0000000   0.0000000   0.0000000   0.0000000   0.0000000   0.0000000   0.0000000   0.0000000
 NMagM=    2.7928460   2.7928460   2.7928460   2.7928460   2.7928460   2.7928460   2.7928460   2.7928460   2.7928460   2.7928460
 AtZNuc=   1.0000000   1.0000000   1.0000000   1.0000000   1.0000000   1.0000000   1.0000000   1.0000000   1.0000000   1.0000000

  Atom       131         132         133         134         135         136         137         138         139         140
 IAtWgt=           1           1           1           1           1           1           1           1           1           1
 AtmWgt=   1.0078250   1.0078250   1.0078250   1.0078250   1.0078250   1.0078250   1.0078250   1.0078250   1.0078250   1.0078250
 NucSpn=           1           1           1           1           1           1           1           1           1           1
 AtZEff=  -0.0000000  -0.0000000  -0.0000000  -0.0000000  -0.0000000  -0.0000000  -0.0000000  -0.0000000  -0.0000000  -0.0000000
 NQMom=    0.0000000   0.0000000   0.0000000   0.0000000   0.0000000   0.0000000   0.0000000   0.0000000   0.0000000   0.0000000
 NMagM=    2.7928460   2.7928460   2.7928460   2.7928460   2.7928460   2.7928460   2.7928460   2.7928460   2.7928460   2.7928460
 AtZNuc=   1.0000000   1.0000000   1.0000000   1.0000000   1.0000000   1.0000000   1.0000000   1.0000000   1.0000000   1.0000000
 Leave Link  101 at Thu Apr 28 10:20:35 2022, MaxMem=  6710886400 cpu:               2.9 elap:               0.1
 (Enter /sw/apps/gaussian-16.0/g16/l202.exe)
 Stoichiometry    C55H74MgN4O6
 Framework group  C1[X(C55H74MgN4O6)]
 Deg. of freedom   414
 Full point group                 C1      NOp   1
 Largest Abelian subgroup         C1      NOp   1
 Largest concise Abelian subgroup C1      NOp   1
                         Standard orientation:                         
 ---------------------------------------------------------------------
 Center     Atomic      Atomic             Coordinates (Angstroms)
 Number     Number       Type             X           Y           Z
 ---------------------------------------------------------------------
      1         12           0       -3.701504    1.703643    0.710654
      2          6           0       -4.852603   -1.653809    0.598837
      3          6           0       -1.618921    0.899709    3.316112
      4          6           0       -2.312339    4.759747    0.391340
      5          6           0       -5.934951    2.326816   -2.058228
      6          7           0       -3.286551   -0.209677    1.756800
      7          6           0       -3.819561   -1.447654    1.538849
      8          6           0       -3.154054   -2.476470    2.410236
      9          6           0       -2.441160   -1.599623    3.483463
     10          6           0       -2.443162   -0.178892    2.859689
     11          6           0       -3.058869   -1.651070    4.918051
     12          6           0       -2.299486   -3.566535    1.660181
     13          6           0       -1.089710   -4.155019    2.405189
     14          6           0       -0.419303   -5.314139    1.637570
     15          8           0       -1.060230   -6.274272    1.195955
     16          8           0        0.934545   -5.100435    1.388325
     17          7           0       -2.156319    2.623246    1.665727
     18          6           0       -1.472800    2.127812    2.735591
     19          6           0       -0.495592    3.074190    3.181102
     20          6           0       -0.694468    4.281904    2.378685
     21          6           0       -1.720833    3.976114    1.409667
     22          6           0        0.679034    2.650029    3.990889
     23          6           0        0.152424    5.541044    2.541873
     24          8           0        0.976401    5.641680    3.470963
     25          6           0        0.021919    6.848514    1.690273
     26          7           0       -3.885251    3.233865   -0.819876
     27          6           0       -3.293429    4.472433   -0.633336
     28          6           0       -3.857395    5.409923   -1.676954
     29          6           0       -4.855188    4.639373   -2.595395
     30          6           0       -4.952031    3.316904   -1.774540
     31          6           0       -4.392169    6.712539   -1.084655
     32          6           0       -4.375300    4.460012   -4.053699
     33          6           0       -5.490093    4.298226   -5.065714
     34          7           0       -5.136043    0.672205   -0.474765
     35          6           0       -5.967855    1.044647   -1.592514
     36          6           0       -6.900990   -0.028488   -1.915681
     37          6           0       -6.478241   -1.097861   -1.117456
     38          6           0       -5.414076   -0.606080   -0.243686
     39          6           0       -8.019210    0.184801   -2.947395
     40          6           0       -6.812639   -2.450764   -0.752642
     41          8           0       -7.748453   -3.161796   -1.116797
     42          6           0       -5.640218   -2.916283    0.215074
     43          6           0       -4.880294   -3.834102   -0.654597
     44          8           0       -4.228245   -3.641235   -1.649764
     45          8           0       -5.006931   -5.046765   -0.090599
     46          6           0       -4.492544   -6.189904   -0.832194
     47          6           0        1.616465   -6.255658    0.832196
     48          6           0        2.840160   -5.723724    0.036487
     49          6           0        3.103780   -5.403804   -1.265707
     50          6           0        2.049676   -5.449079   -2.290832
     51          6           0        4.509471   -4.856839   -1.716085
     52          6           0        4.542045   -3.397635   -2.259023
     53          6           0        5.969462   -2.845070   -2.516957
     54          6           0        6.364995   -1.643541   -1.565560
     55          6           0        5.561216   -0.413952   -2.005187
     56          6           0        7.822830   -1.327978   -1.606447
     57          6           0        8.686243   -2.149408   -0.577892
     58          6           0        9.517652   -1.152900    0.331541
     59          6           0       10.645595   -0.339539   -0.392224
     60          6           0       11.997187   -1.098780   -0.421799
     61          6           0       10.678565    1.229577   -0.097739
     62          6           0       10.308128    2.155988   -1.216919
     63          6           0        8.930299    2.887422   -0.898809
     64          6           0        9.052696    4.255755   -0.166380
     65          6           0        8.623778    4.185092    1.314174
     66          6           0        8.241398    5.394189   -0.962657
     67          1           0       -1.017223    0.617732    4.182363
     68          1           0       -2.057216    5.819672    0.455068
     69          1           0       -6.696317    2.575411   -2.799820
     70          1           0       -4.011483   -3.039160    2.778972
     71          1           0       -1.397135   -1.889313    3.603533
     72          1           0       -3.711451   -0.781544    4.992634
     73          1           0       -2.248309   -1.570819    5.643235
     74          1           0       -3.733396   -2.506351    4.874686
     75          1           0       -1.967463   -3.252959    0.670262
     76          1           0       -2.899814   -4.456421    1.468861
     77          1           0       -1.356431   -4.503053    3.403839
     78          1           0       -0.358586   -3.348741    2.466594
     79          1           0        1.457300    3.400580    3.857961
     80          1           0        0.996533    1.628580    3.780790
     81          1           0        0.308673    2.750005    5.011455
     82          1           0       -0.946799    7.302072    1.900611
     83          1           0        0.080697    6.455187    0.674853
     84          1           0        0.852606    7.553081    1.723677
     85          1           0       -2.993946    5.698360   -2.276047
     86          1           0       -5.853369    5.075596   -2.642919
     87          1           0       -3.953336    7.419058   -1.789271
     88          1           0       -3.968468    6.951407   -0.109041
     89          1           0       -5.473402    6.806347   -1.180660
     90          1           0       -3.678752    3.621842   -4.018635
     91          1           0       -3.724780    5.263089   -4.397597
     92          1           0       -5.574337    5.207787   -5.661216
     93          1           0       -6.461432    4.046171   -4.639667
     94          1           0       -5.283373    3.446129   -5.712687
     95          1           0       -7.502443    0.010284   -3.891130
     96          1           0       -8.407158    1.184085   -2.746604
     97          1           0       -8.765008   -0.582034   -2.736508
     98          1           0       -6.170094   -3.300830    1.086881
     99          1           0       -5.336810   -6.880608   -0.839667
    100          1           0       -3.627013   -6.557385   -0.281740
    101          1           0       -4.216298   -5.987687   -1.866181
    102          1           0        1.056417   -7.010183    0.280759
    103          1           0        1.973662   -6.815098    1.696831
    104          1           0        3.721726   -5.767512    0.675200
    105          1           0        1.167390   -4.917185   -1.934002
    106          1           0        1.746893   -6.461737   -2.559228
    107          1           0        2.464062   -5.053843   -3.217838
    108          1           0        4.881243   -5.602605   -2.418770
    109          1           0        5.274130   -4.848711   -0.940479
    110          1           0        4.024399   -2.698219   -1.602741
    111          1           0        3.882979   -3.324976   -3.124403
    112          1           0        5.904319   -2.555759   -3.565985
    113          1           0        6.771577   -3.577283   -2.604765
    114          1           0        6.042950   -1.898818   -0.555575
    115          1           0        4.909544   -0.750119   -2.811698
    116          1           0        6.114140    0.442492   -2.391660
    117          1           0        4.942447   -0.088665   -1.169085
    118          1           0        7.993054   -0.253451   -1.542575
    119          1           0        8.247671   -1.596795   -2.573361
    120          1           0        9.378139   -2.864985   -1.022264
    121          1           0        8.098060   -2.715893    0.144841
    122          1           0        9.976227   -1.684377    1.164940
    123          1           0        8.917523   -0.389834    0.827425
    124          1           0       10.248069   -0.298129   -1.405815
    125          1           0       12.002968   -1.679736   -1.343808
    126          1           0       12.331408   -1.777328    0.364056
    127          1           0       12.849469   -0.427515   -0.522599
    128          1           0       11.675502    1.574791    0.176757
    129          1           0       10.092518    1.401910    0.804869
    130          1           0       10.239060    1.739277   -2.221922
    131          1           0       11.030456    2.964361   -1.331148
    132          1           0        8.378916    2.195794   -0.261668
    133          1           0        8.490831    2.893553   -1.895991
    134          1           0       10.105337    4.485322   -0.003504
    135          1           0        8.069650    5.096192    1.538252
    136          1           0        9.529371    4.254436    1.917294
    137          1           0        8.042077    3.267068    1.402551
    138          1           0        7.398596    5.840384   -0.435335
    139          1           0        7.898381    5.058658   -1.941449
    140          1           0        8.962009    6.201361   -1.099703
 ---------------------------------------------------------------------
 Rotational constants (GHZ):           0.0304305           0.0161770           0.0125653
 Leave Link  202 at Thu Apr 28 10:20:35 2022, MaxMem=  6710886400 cpu:               0.3 elap:               0.0
 (Enter /sw/apps/gaussian-16.0/g16/l301.exe)
 Standard basis: VSTO-6G (5D, 7F)
 Ernie: Thresh=  0.10000D-02 Tol=  0.10000D-05 Strict=F.
 There are   338 symmetry adapted cartesian basis functions of A   symmetry.
 There are   338 symmetry adapted basis functions of A   symmetry.
   338 basis functions,  2028 primitive gaussians,   338 cartesian basis functions
   176 alpha electrons      176 beta electrons
       nuclear repulsion energy      4934.4631103742 Hartrees.
 IExCor=    0 DFT=F Ex=HF Corr=None ExCW=0 ScaHFX=  1.000000
 ScaDFX=  1.000000  1.000000  1.000000  1.000000 ScalE2=  1.000000  1.000000
 IRadAn=      5 IRanWt=     -1 IRanGd=            0 ICorTp=0 IEmpDi=  4
 Integral buffers will be    131072 words long.
 Regular integral format.
 Two-electron integral symmetry is turned off.
 Leave Link  301 at Thu Apr 28 10:20:35 2022, MaxMem=  6710886400 cpu:               1.2 elap:               0.1
 (Enter /sw/apps/gaussian-16.0/g16/l302.exe)
 Do NDO integrals.
 NPDir=0 NMtPBC=     1 NCelOv=     1 NCel=       1 NClECP=     1 NCelD=      1
         NCelK=      1 NCelE2=     1 NClLst=     1 CellRange=     0.0.
 One-electron integrals computed using PRISM.
 Generate ZINDO/S integrals.
 NDO Nuclear repulsion=  4458.083415560914 Hartrees.
 NBasis=   338 RedAO= F EigKep=  0.00D+00  NBF=   338
 NBsUse=   338 1.00D-04 EigRej=  0.00D+00 NBFU=   338
 Leave Link  302 at Thu Apr 28 10:20:35 2022, MaxMem=  6710886400 cpu:               9.1 elap:               0.4
 (Enter /sw/apps/gaussian-16.0/g16/l303.exe)
 DipDrv:  MaxL=1.
 DipDrv:  will hold  3 matrices at once.
 Leave Link  303 at Thu Apr 28 10:20:35 2022, MaxMem=  6710886400 cpu:               0.5 elap:               0.0
 (Enter /sw/apps/gaussian-16.0/g16/l308.exe)
 Leave Link  308 at Thu Apr 28 10:20:36 2022, MaxMem=  6710886400 cpu:               5.8 elap:               0.3
 (Enter /sw/apps/gaussian-16.0/g16/l401.exe)
 Simple Huckel Guess.
 JPrj=0 DoOrth=F DoCkMO=F.
 Leave Link  401 at Thu Apr 28 10:20:36 2022, MaxMem=  6710886400 cpu:               2.6 elap:               0.1
 (Enter /sw/apps/gaussian-16.0/g16/l502.exe)
 Two-electron integral symmetry not used.
 Closed shell SCF:
 Using DIIS extrapolation, IDIIS=  1040.
 Overlap will be assumed to be unity.
 NGot=  6710886400 LenX=  6710643598 LenY=  6710528913
 Requested convergence on RMS density matrix=1.00D-08 within 128 cycles.
 Requested convergence on MAX density matrix=1.00D-06.
 Requested convergence on             energy=1.00D-06.
 No special actions if energy rises.
 Fock matrices will be formed incrementally for  20 cycles.

 Cycle   1  Pass 1  IDiag  1:
 E= -471.952218123040    
 DIIS: error= 4.94D-02 at cycle   1 NSaved=   1.
 NSaved= 1 IEnMin= 1 EnMin= -471.952218123040     IErMin= 1 ErrMin= 4.94D-02
 ErrMax= 4.94D-02  0.00D+00 EMaxC= 1.00D-01 BMatC= 8.24D-01 BMatP= 8.24D-01
 IDIUse=3 WtCom= 5.06D-01 WtEn= 4.94D-01
 Coeff-Com:  0.100D+01
 Coeff-En:   0.100D+01
 Coeff:      0.100D+01
 GapD=    2.000 DampG=2.000 DampE=0.500 DampFc=1.0000 IDamp=-1.
 RMSDP=4.00D-03 MaxDP=1.58D-01              OVMax= 0.00D+00

 Cycle   2  Pass 1  IDiag  1:
 RMSU=  3.99D-03    CP:  9.95D-01
 E= -473.777971951851     Delta-E=       -1.825753828811 Rises=F Damp=F
 DIIS: error= 1.82D-02 at cycle   2 NSaved=   2.
 NSaved= 2 IEnMin= 2 EnMin= -473.777971951851     IErMin= 2 ErrMin= 1.82D-02
 ErrMax= 1.82D-02  0.00D+00 EMaxC= 1.00D-01 BMatC= 5.16D-02 BMatP= 8.24D-01
 IDIUse=3 WtCom= 8.18D-01 WtEn= 1.82D-01
 Coeff-Com: -0.743D-01 0.107D+01
 Coeff-En:   0.000D+00 0.100D+01
 Coeff:     -0.608D-01 0.106D+01
 RMSDP=1.11D-03 MaxDP=5.81D-02 DE=-1.83D+00 OVMax= 0.00D+00

 Cycle   3  Pass 1  IDiag  1:
 RMSU=  1.03D-03    CP:  9.93D-01  1.10D+00
 E= -473.880269701448     Delta-E=       -0.102297749597 Rises=F Damp=F
 DIIS: error= 7.14D-03 at cycle   3 NSaved=   3.
 NSaved= 3 IEnMin= 3 EnMin= -473.880269701448     IErMin= 3 ErrMin= 7.14D-03
 ErrMax= 7.14D-03  0.00D+00 EMaxC= 1.00D-01 BMatC= 7.08D-03 BMatP= 5.16D-02
 IDIUse=3 WtCom= 9.29D-01 WtEn= 7.14D-02
 Coeff-Com: -0.681D-01 0.240D+00 0.828D+00
 Coeff-En:   0.000D+00 0.000D+00 0.100D+01
 Coeff:     -0.633D-01 0.223D+00 0.840D+00
 RMSDP=3.63D-04 MaxDP=1.48D-02 DE=-1.02D-01 OVMax= 0.00D+00

 Cycle   4  Pass 1  IDiag  1:
 RMSU=  2.36D-04    CP:  9.93D-01  1.17D+00  9.36D-01
 E= -473.892863377161     Delta-E=       -0.012593675713 Rises=F Damp=F
 DIIS: error= 1.19D-03 at cycle   4 NSaved=   4.
 NSaved= 4 IEnMin= 4 EnMin= -473.892863377161     IErMin= 4 ErrMin= 1.19D-03
 ErrMax= 1.19D-03  0.00D+00 EMaxC= 1.00D-01 BMatC= 2.85D-04 BMatP= 7.08D-03
 IDIUse=3 WtCom= 9.88D-01 WtEn= 1.19D-02
 Coeff-Com:  0.104D-02-0.365D-01 0.910D-02 0.103D+01
 Coeff-En:   0.000D+00 0.000D+00 0.000D+00 0.100D+01
 Coeff:      0.103D-02-0.361D-01 0.899D-02 0.103D+01
 RMSDP=1.33D-04 MaxDP=4.83D-03 DE=-1.26D-02 OVMax= 0.00D+00

 Cycle   5  Pass 1  IDiag  1:
 RMSU=  8.94D-05    CP:  9.92D-01  1.17D+00  1.03D+00  1.07D+00
 E= -473.893878936662     Delta-E=       -0.001015559501 Rises=F Damp=F
 DIIS: error= 5.18D-04 at cycle   5 NSaved=   5.
 NSaved= 5 IEnMin= 5 EnMin= -473.893878936662     IErMin= 5 ErrMin= 5.18D-04
 ErrMax= 5.18D-04  0.00D+00 EMaxC= 1.00D-01 BMatC= 6.17D-05 BMatP= 2.85D-04
 IDIUse=3 WtCom= 9.95D-01 WtEn= 5.18D-03
 Coeff-Com:  0.639D-02-0.262D-01-0.990D-01 0.214D+00 0.905D+00
 Coeff-En:   0.000D+00 0.000D+00 0.000D+00 0.000D+00 0.100D+01
 Coeff:      0.636D-02-0.260D-01-0.985D-01 0.213D+00 0.905D+00
 RMSDP=5.87D-05 MaxDP=2.00D-03 DE=-1.02D-03 OVMax= 0.00D+00

 Cycle   6  Pass 1  IDiag  1:
 RMSU=  3.32D-05    CP:  9.92D-01  1.17D+00  1.04D+00  1.26D+00  1.05D+00
 E= -473.894074391961     Delta-E=       -0.000195455299 Rises=F Damp=F
 DIIS: error= 1.72D-04 at cycle   6 NSaved=   6.
 NSaved= 6 IEnMin= 6 EnMin= -473.894074391961     IErMin= 6 ErrMin= 1.72D-04
 ErrMax= 1.72D-04  0.00D+00 EMaxC= 1.00D-01 BMatC= 7.11D-06 BMatP= 6.17D-05
 IDIUse=3 WtCom= 9.98D-01 WtEn= 1.72D-03
 Coeff-Com:  0.790D-04 0.471D-02-0.176D-01-0.971D-01 0.626D-01 0.105D+01
 Coeff-En:   0.000D+00 0.000D+00 0.000D+00 0.000D+00 0.000D+00 0.100D+01
 Coeff:      0.788D-04 0.471D-02-0.176D-01-0.969D-01 0.625D-01 0.105D+01
 RMSDP=3.03D-05 MaxDP=1.23D-03 DE=-1.95D-04 OVMax= 0.00D+00

 Cycle   7  Pass 1  IDiag  1:
 RMSU=  1.52D-05    CP:  9.92D-01  1.17D+00  1.05D+00  1.29D+00  1.30D+00
                    CP:  1.22D+00
 E= -473.894110565398     Delta-E=       -0.000036173436 Rises=F Damp=F
 DIIS: error= 9.89D-05 at cycle   7 NSaved=   7.
 NSaved= 7 IEnMin= 7 EnMin= -473.894110565398     IErMin= 7 ErrMin= 9.89D-05
 ErrMax= 9.89D-05  0.00D+00 EMaxC= 1.00D-01 BMatC= 1.31D-06 BMatP= 7.11D-06
 IDIUse=1 WtCom= 1.00D+00 WtEn= 0.00D+00
 Coeff-Com: -0.756D-03 0.385D-02 0.791D-02-0.294D-01-0.121D+00 0.149D+00
 Coeff-Com:  0.990D+00
 Coeff:     -0.756D-03 0.385D-02 0.791D-02-0.294D-01-0.121D+00 0.149D+00
 Coeff:      0.990D+00
 RMSDP=1.59D-05 MaxDP=6.50D-04 DE=-3.62D-05 OVMax= 0.00D+00

 Cycle   8  Pass 1  IDiag  1:
 RMSU=  6.31D-06    CP:  9.92D-01  1.17D+00  1.06D+00  1.31D+00  1.37D+00
                    CP:  1.52D+00  1.49D+00
 E= -473.894120650511     Delta-E=       -0.000010085114 Rises=F Damp=F
 DIIS: error= 4.57D-05 at cycle   8 NSaved=   8.
 NSaved= 8 IEnMin= 8 EnMin= -473.894120650511     IErMin= 8 ErrMin= 4.57D-05
 ErrMax= 4.57D-05  0.00D+00 EMaxC= 1.00D-01 BMatC= 3.87D-07 BMatP= 1.31D-06
 IDIUse=1 WtCom= 1.00D+00 WtEn= 0.00D+00
 Coeff-Com: -0.958D-05-0.933D-03 0.346D-02 0.222D-01-0.315D-01-0.158D+00
 Coeff-Com: -0.503D-01 0.121D+01
 Coeff:     -0.958D-05-0.933D-03 0.346D-02 0.222D-01-0.315D-01-0.158D+00
 Coeff:     -0.503D-01 0.121D+01
 RMSDP=1.43D-05 MaxDP=5.14D-04 DE=-1.01D-05 OVMax= 0.00D+00

 Cycle   9  Pass 1  IDiag  1:
 RMSU=  3.71D-06    CP:  9.92D-01  1.17D+00  1.06D+00  1.31D+00  1.43D+00
                    CP:  1.68D+00  2.18D+00  1.66D+00
 E= -473.894126147984     Delta-E=       -0.000005497473 Rises=F Damp=F
 DIIS: error= 2.83D-05 at cycle   9 NSaved=   9.
 NSaved= 9 IEnMin= 9 EnMin= -473.894126147984     IErMin= 9 ErrMin= 2.83D-05
 ErrMax= 2.83D-05  0.00D+00 EMaxC= 1.00D-01 BMatC= 1.99D-07 BMatP= 3.87D-07
 IDIUse=1 WtCom= 1.00D+00 WtEn= 0.00D+00
 Coeff-Com:  0.267D-03-0.122D-02-0.312D-02 0.715D-02 0.379D-01 0.118D-01
 Coeff-Com: -0.504D+00 0.372D-01 0.141D+01
 Coeff:      0.267D-03-0.122D-02-0.312D-02 0.715D-02 0.379D-01 0.118D-01
 Coeff:     -0.504D+00 0.372D-01 0.141D+01
 RMSDP=1.47D-05 MaxDP=4.87D-04 DE=-5.50D-06 OVMax= 0.00D+00

 Cycle  10  Pass 1  IDiag  1:
 RMSU=  1.79D-06    CP:  9.92D-01  1.17D+00  1.06D+00  1.32D+00  1.48D+00
                    CP:  1.83D+00  2.85D+00  2.68D+00  2.14D+00
 E= -473.894129841457     Delta-E=       -0.000003693473 Rises=F Damp=F
 DIIS: error= 1.65D-05 at cycle  10 NSaved=  10.
 NSaved=10 IEnMin=10 EnMin= -473.894129841457     IErMin=10 ErrMin= 1.65D-05
 ErrMax= 1.65D-05  0.00D+00 EMaxC= 1.00D-01 BMatC= 6.75D-08 BMatP= 1.99D-07
 IDIUse=1 WtCom= 1.00D+00 WtEn= 0.00D+00
 Coeff-Com: -0.424D-04 0.578D-03-0.861D-03-0.107D-01 0.717D-02 0.899D-01
 Coeff-Com: -0.265D-01-0.214D+00-0.458D+00 0.161D+01
 Coeff:     -0.424D-04 0.578D-03-0.861D-03-0.107D-01 0.717D-02 0.899D-01
 Coeff:     -0.265D-01-0.214D+00-0.458D+00 0.161D+01
 RMSDP=1.14D-05 MaxDP=3.22D-04 DE=-3.69D-06 OVMax= 0.00D+00

 Cycle  11  Pass 1  IDiag  1:
 RMSU=  6.42D-06    CP:  9.92D-01  1.17D+00  1.06D+00  1.32D+00  1.52D+00
                    CP:  1.91D+00  3.00D+00  3.00D+00  3.00D+00  2.14D+00
 E= -473.894131441170     Delta-E=       -0.000001599714 Rises=F Damp=F
 DIIS: error= 9.79D-06 at cycle  11 NSaved=  11.
 NSaved=11 IEnMin=11 EnMin= -473.894131441170     IErMin=11 ErrMin= 9.79D-06
 ErrMax= 9.79D-06  0.00D+00 EMaxC= 1.00D-01 BMatC= 2.46D-08 BMatP= 6.75D-08
 IDIUse=1 WtCom= 1.00D+00 WtEn= 0.00D+00
 Coeff-Com: -0.787D-04 0.361D-03 0.106D-02-0.289D-02-0.113D-01 0.566D-02
 Coeff-Com:  0.941D-01 0.151D+00-0.672D+00 0.486D-01 0.139D+01
 Coeff:     -0.787D-04 0.361D-03 0.106D-02-0.289D-02-0.113D-01 0.566D-02
 Coeff:      0.941D-01 0.151D+00-0.672D+00 0.486D-01 0.139D+01
 RMSDP=7.67D-06 MaxDP=2.28D-04 DE=-1.60D-06 OVMax= 0.00D+00

 Cycle  12  Pass 1  IDiag  1:
 RMSU=  2.16D-06    CP:  9.92D-01  1.17D+00  1.06D+00  1.32D+00  1.54D+00
                    CP:  1.95D+00  3.00D+00  3.00D+00  3.00D+00  3.00D+00
                    CP:  2.03D+00
 E= -473.894131972896     Delta-E=       -0.000000531725 Rises=F Damp=F
 DIIS: error= 4.41D-06 at cycle  12 NSaved=  12.
 NSaved=12 IEnMin=12 EnMin= -473.894131972896     IErMin=12 ErrMin= 4.41D-06
 ErrMax= 4.41D-06  0.00D+00 EMaxC= 1.00D-01 BMatC= 6.43D-09 BMatP= 2.46D-08
 IDIUse=1 WtCom= 1.00D+00 WtEn= 0.00D+00
 Coeff-Com:  0.265D-04-0.214D-03 0.772D-04 0.309D-02-0.298D-03-0.154D-01
 Coeff-Com: -0.493D-01 0.134D+00 0.113D+00-0.343D+00-0.289D+00 0.145D+01
 Coeff:      0.265D-04-0.214D-03 0.772D-04 0.309D-02-0.298D-03-0.154D-01
 Coeff:     -0.493D-01 0.134D+00 0.113D+00-0.343D+00-0.289D+00 0.145D+01
 RMSDP=3.21D-06 MaxDP=1.04D-04 DE=-5.32D-07 OVMax= 0.00D+00

 Cycle  13  Pass 1  IDiag  1:
 RMSU=  1.25D-06    CP:  9.92D-01  1.17D+00  1.06D+00  1.32D+00  1.55D+00
                    CP:  1.96D+00  3.00D+00  3.00D+00  3.00D+00  3.00D+00
                    CP:  2.41D+00  1.67D+00
 E= -473.894132092653     Delta-E=       -0.000000119758 Rises=F Damp=F
 DIIS: error= 3.19D-06 at cycle  13 NSaved=  13.
 NSaved=13 IEnMin=13 EnMin= -473.894132092653     IErMin=13 ErrMin= 3.19D-06
 ErrMax= 3.19D-06  0.00D+00 EMaxC= 1.00D-01 BMatC= 2.66D-09 BMatP= 6.43D-09
 IDIUse=1 WtCom= 1.00D+00 WtEn= 0.00D+00
 Coeff-Com:  0.146D-04-0.623D-04-0.247D-03 0.693D-03 0.127D-02 0.506D-02
 Coeff-Com: -0.402D-01 0.136D-01 0.751D-01 0.639D-01-0.346D+00 0.611D-01
 Coeff-Com:  0.117D+01
 Coeff:      0.146D-04-0.623D-04-0.247D-03 0.693D-03 0.127D-02 0.506D-02
 Coeff:     -0.402D-01 0.136D-01 0.751D-01 0.639D-01-0.346D+00 0.611D-01
 Coeff:      0.117D+01
 RMSDP=1.38D-06 MaxDP=3.72D-05 DE=-1.20D-07 OVMax= 0.00D+00

 Cycle  14  Pass 1  IDiag  1:
 RMSU=  4.07D-07    CP:  9.92D-01  1.17D+00  1.06D+00  1.32D+00  1.56D+00
                    CP:  1.95D+00  3.00D+00  3.00D+00  3.00D+00  3.00D+00
                    CP:  2.52D+00  1.95D+00  1.68D+00
 E= -473.894132132626     Delta-E=       -0.000000039972 Rises=F Damp=F
 DIIS: error= 2.87D-06 at cycle  14 NSaved=  14.
 NSaved=14 IEnMin=14 EnMin= -473.894132132626     IErMin=14 ErrMin= 2.87D-06
 ErrMax= 2.87D-06  0.00D+00 EMaxC= 1.00D-01 BMatC= 1.64D-09 BMatP= 2.66D-09
 IDIUse=1 WtCom= 1.00D+00 WtEn= 0.00D+00
 Coeff-Com: -0.233D-04 0.162D-03 0.169D-04-0.179D-02-0.269D-02 0.155D-01
 Coeff-Com:  0.218D-01-0.368D-01-0.160D+00 0.251D+00 0.193D+00-0.697D+00
 Coeff-Com: -0.796D+00 0.221D+01
 Coeff:     -0.233D-04 0.162D-03 0.169D-04-0.179D-02-0.269D-02 0.155D-01
 Coeff:      0.218D-01-0.368D-01-0.160D+00 0.251D+00 0.193D+00-0.697D+00
 Coeff:     -0.796D+00 0.221D+01
 RMSDP=2.17D-06 MaxDP=5.44D-05 DE=-4.00D-08 OVMax= 0.00D+00

 Cycle  15  Pass 1  IDiag  1:
 RMSU=  2.56D-07    CP:  9.92D-01  1.17D+00  1.06D+00  1.32D+00  1.56D+00
                    CP:  1.95D+00  3.00D+00  3.00D+00  3.00D+00  3.00D+00
                    CP:  2.66D+00  2.33D+00  2.82D+00  3.00D+00
 E= -473.894132177565     Delta-E=       -0.000000044939 Rises=F Damp=F
 DIIS: error= 1.64D-06 at cycle  15 NSaved=  15.
 NSaved=15 IEnMin=15 EnMin= -473.894132177565     IErMin=15 ErrMin= 1.64D-06
 ErrMax= 1.64D-06  0.00D+00 EMaxC= 1.00D-01 BMatC= 6.11D-10 BMatP= 1.64D-09
 IDIUse=1 WtCom= 1.00D+00 WtEn= 0.00D+00
 Coeff-Com: -0.660D-05 0.264D-04 0.140D-03-0.579D-04-0.216D-02 0.102D-02
 Coeff-Com:  0.127D-01 0.120D-01-0.526D-01-0.248D-01 0.115D+00 0.160D+00
 Coeff-Com: -0.830D+00-0.366D-01 0.165D+01
 Coeff:     -0.660D-05 0.264D-04 0.140D-03-0.579D-04-0.216D-02 0.102D-02
 Coeff:      0.127D-01 0.120D-01-0.526D-01-0.248D-01 0.115D+00 0.160D+00
 Coeff:     -0.830D+00-0.366D-01 0.165D+01
 RMSDP=1.84D-06 MaxDP=4.63D-05 DE=-4.49D-08 OVMax= 0.00D+00

 Cycle  16  Pass 1  IDiag  1:
 RMSU=  1.26D-06    CP:  9.92D-01  1.17D+00  1.06D+00  1.31D+00  1.57D+00
                    CP:  1.94D+00  3.00D+00  3.00D+00  3.00D+00  3.00D+00
                    CP:  2.77D+00  2.63D+00  3.00D+00  3.00D+00  2.51D+00
 E= -473.894132196838     Delta-E=       -0.000000019273 Rises=F Damp=F
 DIIS: error= 8.71D-07 at cycle  16 NSaved=  16.
 NSaved=16 IEnMin=16 EnMin= -473.894132196838     IErMin=16 ErrMin= 8.71D-07
 ErrMax= 8.71D-07  0.00D+00 EMaxC= 1.00D-01 BMatC= 1.08D-10 BMatP= 6.11D-10
 IDIUse=1 WtCom= 1.00D+00 WtEn= 0.00D+00
 Coeff-Com:  0.876D-05-0.584D-04-0.117D-04 0.714D-03 0.379D-03-0.377D-02
 Coeff-Com: -0.109D-01 0.140D-01 0.569D-01-0.774D-01-0.941D-01 0.286D+00
 Coeff-Com:  0.178D+00-0.693D+00-0.237D-01 0.137D+01
 Coeff:      0.876D-05-0.584D-04-0.117D-04 0.714D-03 0.379D-03-0.377D-02
 Coeff:     -0.109D-01 0.140D-01 0.569D-01-0.774D-01-0.941D-01 0.286D+00
 Coeff:      0.178D+00-0.693D+00-0.237D-01 0.137D+01
 RMSDP=8.72D-07 MaxDP=2.19D-05 DE=-1.93D-08 OVMax= 0.00D+00

 Cycle  17  Pass 1  IDiag  1:
 RMSU=  1.36D-07    CP:  9.92D-01  1.17D+00  1.06D+00  1.31D+00  1.57D+00
                    CP:  1.93D+00  3.00D+00  3.00D+00  3.00D+00  3.00D+00
                    CP:  2.81D+00  2.76D+00  3.00D+00  3.00D+00  3.00D+00
                    CP:  1.54D+00
 E= -473.894132199697     Delta-E=       -0.000000002859 Rises=F Damp=F
 DIIS: error= 1.76D-07 at cycle  17 NSaved=  17.
 NSaved=17 IEnMin=17 EnMin= -473.894132199697     IErMin=17 ErrMin= 1.76D-07
 ErrMax= 1.76D-07  0.00D+00 EMaxC= 1.00D-01 BMatC= 7.64D-12 BMatP= 1.08D-10
 IDIUse=1 WtCom= 1.00D+00 WtEn= 0.00D+00
 Coeff-Com:  0.125D-05-0.572D-05-0.265D-04 0.612D-04 0.223D-03-0.183D-04
 Coeff-Com: -0.265D-02-0.911D-03 0.100D-01-0.444D-03-0.222D-01-0.539D-03
 Coeff-Com:  0.899D-01 0.903D-02-0.200D+00 0.243D-01 0.109D+01
 Coeff:      0.125D-05-0.572D-05-0.265D-04 0.612D-04 0.223D-03-0.183D-04
 Coeff:     -0.265D-02-0.911D-03 0.100D-01-0.444D-03-0.222D-01-0.539D-03
 Coeff:      0.899D-01 0.903D-02-0.200D+00 0.243D-01 0.109D+01
 RMSDP=9.48D-08 MaxDP=2.75D-06 DE=-2.86D-09 OVMax= 0.00D+00

 Cycle  18  Pass 1  IDiag  1:
 RMSU=  2.70D-08    CP:  9.92D-01  1.17D+00  1.06D+00  1.31D+00  1.57D+00
                    CP:  1.93D+00  3.00D+00  3.00D+00  3.00D+00  3.00D+00
                    CP:  2.82D+00  2.77D+00  3.00D+00  3.00D+00  3.00D+00
                    CP:  1.59D+00  1.27D+00
 E= -473.894132199823     Delta-E=       -0.000000000126 Rises=F Damp=F
 DIIS: error= 7.70D-08 at cycle  18 NSaved=  18.
 NSaved=18 IEnMin=18 EnMin= -473.894132199823     IErMin=18 ErrMin= 7.70D-08
 ErrMax= 7.70D-08  0.00D+00 EMaxC= 1.00D-01 BMatC= 1.31D-12 BMatP= 7.64D-12
 IDIUse=1 WtCom= 1.00D+00 WtEn= 0.00D+00
 Coeff-Com: -0.171D-05 0.115D-04 0.140D-06-0.129D-03-0.876D-04 0.745D-03
 Coeff-Com:  0.194D-02-0.258D-02-0.985D-02 0.135D-01 0.167D-01-0.490D-01
 Coeff-Com: -0.373D-01 0.122D+00 0.102D-01-0.252D+00-0.470D-01 0.123D+01
 Coeff:     -0.171D-05 0.115D-04 0.140D-06-0.129D-03-0.876D-04 0.745D-03
 Coeff:      0.194D-02-0.258D-02-0.985D-02 0.135D-01 0.167D-01-0.490D-01
 Coeff:     -0.373D-01 0.122D+00 0.102D-01-0.252D+00-0.470D-01 0.123D+01
 RMSDP=4.62D-08 MaxDP=1.41D-06 DE=-1.26D-10 OVMax= 0.00D+00

 Cycle  19  Pass 1  IDiag  1:
 RMSU=  7.05D-09    CP:  9.92D-01  1.17D+00  1.06D+00  1.31D+00  1.57D+00
                    CP:  1.93D+00  3.00D+00  3.00D+00  3.00D+00  3.00D+00
                    CP:  2.82D+00  2.77D+00  3.00D+00  3.00D+00  3.00D+00
                    CP:  1.62D+00  1.42D+00  1.51D+00
 E= -473.894132199819     Delta-E=        0.000000000004 Rises=F Damp=F
 DIIS: error= 3.79D-08 at cycle  19 NSaved=  19.
 NSaved=19 IEnMin=18 EnMin= -473.894132199823     IErMin=19 ErrMin= 3.79D-08
 ErrMax= 3.79D-08  0.00D+00 EMaxC= 1.00D-01 BMatC= 1.42D-13 BMatP= 1.31D-12
 IDIUse=1 WtCom= 1.00D+00 WtEn= 0.00D+00
 Coeff-Com: -0.189D-06 0.109D-05 0.287D-05-0.113D-04-0.280D-04 0.386D-04
 Coeff-Com:  0.305D-03-0.247D-04-0.134D-02 0.662D-03 0.261D-02-0.933D-03
 Coeff-Com: -0.885D-02-0.202D-02 0.274D-01-0.955D-02-0.136D+00 0.629D-01
 Coeff-Com:  0.106D+01
 Coeff:     -0.189D-06 0.109D-05 0.287D-05-0.113D-04-0.280D-04 0.386D-04
 Coeff:      0.305D-03-0.247D-04-0.134D-02 0.662D-03 0.261D-02-0.933D-03
 Coeff:     -0.885D-02-0.202D-02 0.274D-01-0.955D-02-0.136D+00 0.629D-01
 Coeff:      0.106D+01
 RMSDP=6.39D-09 MaxDP=2.93D-07 DE= 3.64D-12 OVMax= 0.00D+00

 SCF Done:  E(RZINDO/S) =  -473.894132200     A.U. after   19 cycles
            NFock= 19  Conv=0.64D-08     -V/T= 0.9506
 KE=-9.590381940671D+03 PE=-9.007217158796D-07 EE= 4.658404393811D+03
 Leave Link  502 at Thu Apr 28 10:20:37 2022, MaxMem=  6710886400 cpu:              21.0 elap:               0.9
 (Enter /sw/apps/gaussian-16.0/g16/l801.exe)
 Range of M.O.s used for correlation:     1   338
 NBasis=   338 NAE=   176 NBE=   176 NFC=     0 NFV=     0
 NROrb=    338 NOA=   176 NOB=   176 NVA=   162 NVB=   162
 Leave Link  801 at Thu Apr 28 10:20:37 2022, MaxMem=  6710886400 cpu:               0.5 elap:               0.0
 (Enter /sw/apps/gaussian-16.0/g16/l914.exe)
 RHF ground state
 Two-electron integral symmetry not used.
 MDV=  6710886400 DFT=F DoStab=F Mixed=F DoRPA=F DoScal=F NonHer=F
 Making orbital integer symmetry assigments:
 Orbital symmetries:
       Occupied  (A) (A) (A) (A) (A) (A) (A) (A) (A) (A) (A) (A)
                 (A) (A) (A) (A) (A) (A) (A) (A) (A) (A) (A) (A)
                 (A) (A) (A) (A) (A) (A) (A) (A) (A) (A) (A) (A)
                 (A) (A) (A) (A) (A) (A) (A) (A) (A) (A) (A) (A)
                 (A) (A) (A) (A) (A) (A) (A) (A) (A) (A) (A) (A)
                 (A) (A) (A) (A) (A) (A) (A) (A) (A) (A) (A) (A)
                 (A) (A) (A) (A) (A) (A) (A) (A) (A) (A) (A) (A)
                 (A) (A) (A) (A) (A) (A) (A) (A) (A) (A) (A) (A)
                 (A) (A) (A) (A) (A) (A) (A) (A) (A) (A) (A) (A)
                 (A) (A) (A) (A) (A) (A) (A) (A) (A) (A) (A) (A)
                 (A) (A) (A) (A) (A) (A) (A) (A) (A) (A) (A) (A)
                 (A) (A) (A) (A) (A) (A) (A) (A) (A) (A) (A) (A)
                 (A) (A) (A) (A) (A) (A) (A) (A) (A) (A) (A) (A)
                 (A) (A) (A) (A) (A) (A) (A) (A) (A) (A) (A) (A)
                 (A) (A) (A) (A) (A) (A) (A) (A)
       Virtual   (A) (A) (A) (A) (A) (A) (A) (A) (A) (A) (A) (A)
                 (A) (A) (A) (A) (A) (A) (A) (A) (A) (A) (A) (A)
                 (A) (A) (A) (A) (A) (A) (A) (A) (A) (A) (A) (A)
                 (A) (A) (A) (A) (A) (A) (A) (A) (A) (A) (A) (A)
                 (A) (A) (A) (A) (A) (A) (A) (A) (A) (A) (A) (A)
                 (A) (A) (A) (A) (A) (A) (A) (A) (A) (A) (A) (A)
                 (A) (A) (A) (A) (A) (A) (A) (A) (A) (A) (A) (A)
                 (A) (A) (A) (A) (A) (A) (A) (A) (A) (A) (A) (A)
                 (A) (A) (A) (A) (A) (A) (A) (A) (A) (A) (A) (A)
                 (A) (A) (A) (A) (A) (A) (A) (A) (A) (A) (A) (A)
                 (A) (A) (A) (A) (A) (A) (A) (A) (A) (A) (A) (A)
                 (A) (A) (A) (A) (A) (A) (A) (A) (A) (A) (A) (A)
                 (A) (A) (A) (A) (A) (A) (A) (A) (A) (A) (A) (A)
                 (A) (A) (A) (A) (A) (A)
    20 initial guesses have been made.
 Convergence on wavefunction:    0.001000000000000
 Davidson Disk Diagonalization:  ConvIn= 1.00D-03 SkipCon=T Conv= 1.00D-03.
 Max sub-space:  2000 roots to seek:    20 dimension of matrix:        57024
 Iteration     1 Dimension    20 NMult     0 NNew     20
 CISAX will form    20 AO SS matrices at one time.
 NMat=    20 NSing=    20 JSym2X= 0.
 New state      3 was old state      4
 New state      4 was old state      3
 New state      5 was old state     10
 Excitation Energies [eV] at current iteration:
 Root      1 :     1.575630439281529
 Root      2 :     2.106517056522395
 Root      3 :     3.180354889229288
 Root      4 :     3.314122201071442
 Root      5 :     3.364624804149619
 Root      6 :     3.440087712162301
 Root      7 :     3.600372607757166
 Root      8 :     3.707208544519598
 Root      9 :     3.725504205021585
 Root     10 :     3.944406941009746
 Root     11 :     4.120686020398092
 Root     12 :     4.342659264584245
 Root     13 :     4.459599475943095
 Root     14 :     4.464765034171174
 Root     15 :     4.509413375884042
 Root     16 :     4.529550834360384
 Root     17 :     4.613066065212138
 Root     18 :     4.657178398755405
 Root     19 :     4.963997680334519
 Root     20 :     5.667357155070245
 Iteration     2 Dimension    40 NMult    20 NNew     20
 CISAX will form    20 AO SS matrices at one time.
 NMat=    20 NSing=    20 JSym2X= 0.
 Root      1 not converged, maximum delta is    0.043456630279639
 Root      2 not converged, maximum delta is    0.025059753109656
 New state      3 was old state      4
 Root      3 not converged, maximum delta is    0.447629343493754
 New state      4 was old state      3
 Root      4 not converged, maximum delta is    0.340615137420231
 New state      5 was old state      6
 Root      5 not converged, maximum delta is    0.167472635510117
 Excitation Energies [eV] at current iteration:
 Root      1 :     1.212518357678299   Change is   -0.363112081603230
 Root      2 :     1.915600094962007   Change is   -0.190916961560388
 Root      3 :     2.947860795978621   Change is   -0.366261405092821
 Root      4 :     2.972638588484394   Change is   -0.207716300744893
 Root      5 :     3.216311943941121   Change is   -0.223775768221181
 Root      6 :     3.286864511049473   Change is   -0.313508096707693
 Root      7 :     3.338927259436813   Change is   -0.025697544712806
 Root      8 :     3.435578782340077   Change is   -0.289925422681509
 Root      9 :     3.503903646068174   Change is   -0.203304898451424
 Root     10 :     3.624052602765006   Change is   -0.320354338244740
 Root     11 :     3.688866603144450   Change is   -0.924199462067688
 Root     12 :     3.740748974754496   Change is   -0.379937045643596
 Root     13 :     3.764281869459665   Change is   -0.700483164711509
 Root     14 :     4.140933045020330   Change is   -0.201726219563915
 Root     15 :     4.220442911614255   Change is   -0.309107922746129
 Root     16 :     4.295597258547379   Change is   -0.361581140208025
 Root     17 :     4.356965519545638   Change is   -0.152447856338403
 Root     18 :     4.412607461733860   Change is   -0.046992014209235
 Root     19 :     4.959317244717689   Change is   -0.004680435616831
 Root     20 :     5.641213756344555   Change is   -0.026143398725689
 Iteration     3 Dimension    45 NMult    40 NNew      5
 CISAX will form     5 AO SS matrices at one time.
 NMat=     5 NSing=     5 JSym2X= 0.
 Root      1 not converged, maximum delta is    0.009332871599501
 Root      2 not converged, maximum delta is    0.018822451150835
 Root      3 not converged, maximum delta is    0.139111666180842
 Root      4 not converged, maximum delta is    0.181107995850224
 Root      5 not converged, maximum delta is    0.034809169977894
 Excitation Energies [eV] at current iteration:
 Root      1 :     1.195562189661710   Change is   -0.016956168016589
 Root      2 :     1.887578529494278   Change is   -0.028021565467728
 Root      3 :     2.923340016651562   Change is   -0.024520779327059
 Root      4 :     2.947181544977052   Change is   -0.025457043507343
 Root      5 :     3.177115167655761   Change is   -0.039196776285359
 Iteration     4 Dimension    50 NMult    45 NNew      5
 CISAX will form     5 AO SS matrices at one time.
 NMat=     5 NSing=     5 JSym2X= 0.
 Root      1 not converged, maximum delta is    0.001821751110647
 Root      2 not converged, maximum delta is    0.002722831215957
 Root      3 not converged, maximum delta is    0.005139884711532
 Root      4 not converged, maximum delta is    0.010632439856483
 Root      5 not converged, maximum delta is    0.049929809051588
 Excitation Energies [eV] at current iteration:
 Root      1 :     1.194814409427326   Change is   -0.000747780234384
 Root      2 :     1.886768014490393   Change is   -0.000810515003885
 Root      3 :     2.920952280105439   Change is   -0.002387736546124
 Root      4 :     2.943562388929025   Change is   -0.003619156048027
 Root      5 :     3.164679814811395   Change is   -0.012435352844366
 Iteration     5 Dimension    55 NMult    50 NNew      5
 CISAX will form     5 AO SS matrices at one time.
 NMat=     5 NSing=     5 JSym2X= 0.
 Root      1 has converged.
 Root      2 has converged.
 Root      3 not converged, maximum delta is    0.017390333364892
 Root      4 not converged, maximum delta is    0.076362321918566
 Root      5 not converged, maximum delta is    0.329541241797372
 Excitation Energies [eV] at current iteration:
 Root      1 :     1.194772484173583   Change is   -0.000041925253743
 Root      2 :     1.886720654621892   Change is   -0.000047359868501
 Root      3 :     2.920228606135389   Change is   -0.000723673970049
 Root      4 :     2.938795460826085   Change is   -0.004766928102940
 Root      5 :     3.008457506742118   Change is   -0.156222308069277
 Iteration     6 Dimension    58 NMult    55 NNew      3
 CISAX will form     3 AO SS matrices at one time.
 NMat=     3 NSing=     3 JSym2X= 0.
 Root      1 has converged.
 Root      2 has converged.
 New state      3 was old state      5
 Root      3 not converged, maximum delta is    0.259352857612260
 New state      4 was old state      3
 Root      4 not converged, maximum delta is    0.050808172511721
 New state      5 was old state      4
 Root      5 not converged, maximum delta is    0.187270925224381
 Excitation Energies [eV] at current iteration:
 Root      1 :     1.194772361067312   Change is   -0.000000123106271
 Root      2 :     1.886719470931602   Change is   -0.000001183690290
 Root      3 :     2.885456064703231   Change is   -0.123001442038887
 Root      4 :     2.920408050292583   Change is    0.000179444157193
 Root      5 :     2.947989638754470   Change is    0.009194177928385
 Iteration     7 Dimension    61 NMult    58 NNew      3
 CISAX will form     3 AO SS matrices at one time.
 NMat=     3 NSing=     3 JSym2X= 0.
 Root      1 has converged.
 Root      2 has converged.
 Root      3 not converged, maximum delta is    0.042769666105278
 Root      4 not converged, maximum delta is    0.015520120940076
 Root      5 not converged, maximum delta is    0.026434989137472
 Excitation Energies [eV] at current iteration:
 Root      1 :     1.194772319683550   Change is   -0.000000041383761
 Root      2 :     1.886719376706186   Change is   -0.000000094225416
 Root      3 :     2.866601913082259   Change is   -0.018854151620972
 Root      4 :     2.919905639979684   Change is   -0.000502410312899
 Root      5 :     2.946153551676029   Change is   -0.001836087078440
 Iteration     8 Dimension    64 NMult    61 NNew      3
 CISAX will form     3 AO SS matrices at one time.
 NMat=     3 NSing=     3 JSym2X= 0.
 Root      1 has converged.
 Root      2 has converged.
 Root      3 not converged, maximum delta is    0.006886965712077
 Root      4 not converged, maximum delta is    0.006985302775076
 Root      5 not converged, maximum delta is    0.009221647590532
 Excitation Energies [eV] at current iteration:
 Root      1 :     1.194772303143696   Change is   -0.000000016539854
 Root      2 :     1.886719362189343   Change is   -0.000000014516842
 Root      3 :     2.864468752103273   Change is   -0.002133160978986
 Root      4 :     2.919747740933061   Change is   -0.000157899046623
 Root      5 :     2.945853795068513   Change is   -0.000299756607516
 Iteration     9 Dimension    67 NMult    64 NNew      3
 CISAX will form     3 AO SS matrices at one time.
 NMat=     3 NSing=     3 JSym2X= 0.
 Root      1 has converged.
 Root      2 has converged.
 Root      3 not converged, maximum delta is    0.002718633987905
 Root      4 not converged, maximum delta is    0.001875492709827
 Root      5 not converged, maximum delta is    0.002604134681241
 Excitation Energies [eV] at current iteration:
 Root      1 :     1.194772290670348   Change is   -0.000000012473348
 Root      2 :     1.886719306523386   Change is   -0.000000055665957
 Root      3 :     2.864149585705563   Change is   -0.000319166397711
 Root      4 :     2.919710071325497   Change is   -0.000037669607564
 Root      5 :     2.945791025565932   Change is   -0.000062769502581
 Iteration    10 Dimension    70 NMult    67 NNew      3
 CISAX will form     3 AO SS matrices at one time.
 NMat=     3 NSing=     3 JSym2X= 0.
 Root      1 has converged.
 Root      2 has converged.
 Root      3 has converged.
 Root      4 has converged.
 Root      5 not converged, maximum delta is    0.001029337159476
 Excitation Energies [eV] at current iteration:
 Root      1 :     1.194772274235549   Change is   -0.000000016434799
 Root      2 :     1.886719179700134   Change is   -0.000000126823252
 Root      3 :     2.864106676556211   Change is   -0.000042909149351
 Root      4 :     2.919697025462929   Change is   -0.000013045862568
 Root      5 :     2.945773179925220   Change is   -0.000017845640713
 Iteration    11 Dimension    71 NMult    70 NNew      1
 CISAX will form     1 AO SS matrices at one time.
 NMat=     1 NSing=     1 JSym2X= 0.
 Root      1 has converged.
 Root      2 has converged.
 Root      3 has converged.
 Root      4 has converged.
 Root      5 has converged.
 Excitation Energies [eV] at current iteration:
 Root      1 :     1.194772273097898   Change is   -0.000000001137651
 Root      2 :     1.886719173996456   Change is   -0.000000005703679
 Root      3 :     2.864106674253461   Change is   -0.000000002302751
 Root      4 :     2.919691774373347   Change is   -0.000005251089583
 Root      5 :     2.945766631688025   Change is   -0.000006548237194
 Convergence achieved on expansion vectors.
 ***********************************************************************
 Excited states from <AA,BB:AA,BB> singles matrix:
 ***********************************************************************
 
 1PDM for each excited state written to RWF  633
 Ground to excited state transition densities written to RWF  633
 Ground to excited state transition electric dipole moments (Au):
       state          X           Y           Z        Dip. S.      Osc.
         1         3.1460      1.6494      2.6721     19.7583      0.5784
         2        -0.0732     -0.2667     -0.0469      0.0787      0.0036
         3         0.0839      0.4838     -0.1929      0.2783      0.0195
         4         0.2741     -1.6731      0.9802      3.8352      0.2743
         5        -0.3268     -3.2733      1.2690     12.4312      0.8972
 Ground to excited state transition velocity dipole moments (Au):
       state          X           Y           Z        Dip. S.      Osc.
         1         0.0638      0.0062      0.0559      0.0072      0.1097
         2        -0.0023      0.0133      0.0037      0.0002      0.0019
         3         0.0020     -0.0091     -0.0028      0.0001      0.0006
         4        -0.0156      0.0500     -0.0066      0.0028      0.0173
         5        -0.0005      0.1002     -0.0214      0.0105      0.0647
 Ground to excited state transition magnetic dipole moments (Au):
       state          X           Y           Z
         1        -0.1643      0.4325      0.1890
         2        -0.3363      0.1921      0.1657
         3         0.4572      0.1809      0.6041
         4        -0.6381      0.1199      0.0105
         5        -0.3163     -0.0262     -0.6365
 Ground to excited state transition velocity quadrupole moments (Au):
       state          XX          YY          ZZ          XY          XZ          YZ
         1        -1.0188      0.0621      0.0775      0.1228     -0.3243      0.0856
         2         0.1096      0.1218     -0.0505     -0.0550     -0.0037      0.0494
         3         0.0386     -0.0166     -0.0635      0.1874     -0.0339      0.0062
         4         0.2386      0.0561     -0.1324      0.0361      0.1409      0.2199
         5        -0.1929      0.3362      0.1456     -0.9170      0.2637     -0.3286
 <0|del|b> * <b|rxdel|0> + <0|del|b> * <b|delr+rdel|0>
 Rotatory Strengths (R) in cgs (10**-40 erg-esu-cm/Gauss)
       state          XX          YY          ZZ    R(velocity)    E-M Angle
         1       178.1619    -10.6435   -122.8838     14.8782       86.26
         2        15.3319      7.6078     17.3327     13.4241       47.83
         3       -13.9791     -0.7532     -1.4463     -5.3929      108.49
         4        -4.4809     22.0517     87.0446     34.8718       62.41
         5        13.4533    -18.5689     77.7270     24.2038       81.23
 1/2[<0|r|b>*<b|rxdel|0> + (<0|rxdel|b>*<b|r|0>)*]
 Rotatory Strengths (R) in cgs (10**-40 erg-esu-cm/Gauss)
       state          XX          YY          ZZ     R(length)
         1       365.4306   -504.5046   -357.0682   -165.3808
         2       -17.4086     36.2306      5.4951      8.1057
         3       -27.1216    -61.8930     82.3823     -2.2108
         4       123.6724    141.8486     -7.2462     86.0916
         5       -73.0988    -60.6026    571.1786    145.8257
  1/2[<0|del|b>*<b|r|0> + (<0|r|b>*<b|del|0>)*] (Au)
       state          X           Y           Z        Dip. S.   Osc.(frdel)
         1         0.2006      0.0102      0.1493     -0.3602     -0.2401
         2         0.0002     -0.0035     -0.0002      0.0035      0.0024
         3         0.0002     -0.0044      0.0005      0.0037      0.0025
         4        -0.0043     -0.0836     -0.0065      0.0944      0.0630
         5         0.0002     -0.3280     -0.0271      0.3550      0.2367

 Excitation energies and oscillator strengths:
 
 Excited State   1:      Singlet-A      1.1948 eV 1037.72 nm  f=0.5784  <S**2>=0.000
     175 ->178         0.19352
     176 ->177         0.66186
 This state for optimization and/or second-order correction.
 Total Energy, E(CIS/TDA) =  -473.850225127    
 Copying the excited state density for this state as the 1-particle RhoCI density.
 
 Excited State   2:      Singlet-A      1.8867 eV  657.14 nm  f=0.0036  <S**2>=0.000
     175 ->177         0.49497
     176 ->178        -0.48461
 
 Excited State   3:      Singlet-A      2.8641 eV  432.89 nm  f=0.0195  <S**2>=0.000
     169 ->177         0.28775
     169 ->178         0.16415
     169 ->179        -0.34765
     169 ->180         0.35010
     169 ->184        -0.16468
     169 ->185        -0.24039
     169 ->193        -0.11964
 
 Excited State   4:      Singlet-A      2.9197 eV  424.65 nm  f=0.2743  <S**2>=0.000
     175 ->177         0.24901
     176 ->178         0.26367
     176 ->179         0.54799
     176 ->180         0.10759
 
 Excited State   5:      Singlet-A      2.9458 eV  420.89 nm  f=0.8972  <S**2>=0.000
     175 ->177         0.36331
     176 ->178         0.38837
     176 ->179        -0.36905
 SavETr:  write IOETrn=   770 NScale= 10 NData=  16 NLR=1 NState=    5 LETran=     100.
 Leave Link  914 at Thu Apr 28 10:20:41 2022, MaxMem=  6710886400 cpu:              95.4 elap:               4.0
 (Enter /sw/apps/gaussian-16.0/g16/l601.exe)
 Copying SCF densities to generalized density rwf, IOpCl= 0 IROHF=0.

 **********************************************************************

            Population analysis using the SCF density.

 **********************************************************************

 Orbital symmetries:
       Occupied  (A) (A) (A) (A) (A) (A) (A) (A) (A) (A) (A) (A)
                 (A) (A) (A) (A) (A) (A) (A) (A) (A) (A) (A) (A)
                 (A) (A) (A) (A) (A) (A) (A) (A) (A) (A) (A) (A)
                 (A) (A) (A) (A) (A) (A) (A) (A) (A) (A) (A) (A)
                 (A) (A) (A) (A) (A) (A) (A) (A) (A) (A) (A) (A)
                 (A) (A) (A) (A) (A) (A) (A) (A) (A) (A) (A) (A)
                 (A) (A) (A) (A) (A) (A) (A) (A) (A) (A) (A) (A)
                 (A) (A) (A) (A) (A) (A) (A) (A) (A) (A) (A) (A)
                 (A) (A) (A) (A) (A) (A) (A) (A) (A) (A) (A) (A)
                 (A) (A) (A) (A) (A) (A) (A) (A) (A) (A) (A) (A)
                 (A) (A) (A) (A) (A) (A) (A) (A) (A) (A) (A) (A)
                 (A) (A) (A) (A) (A) (A) (A) (A) (A) (A) (A) (A)
                 (A) (A) (A) (A) (A) (A) (A) (A) (A) (A) (A) (A)
                 (A) (A) (A) (A) (A) (A) (A) (A) (A) (A) (A) (A)
                 (A) (A) (A) (A) (A) (A) (A) (A)
       Virtual   (A) (A) (A) (A) (A) (A) (A) (A) (A) (A) (A) (A)
                 (A) (A) (A) (A) (A) (A) (A) (A) (A) (A) (A) (A)
                 (A) (A) (A) (A) (A) (A) (A) (A) (A) (A) (A) (A)
                 (A) (A) (A) (A) (A) (A) (A) (A) (A) (A) (A) (A)
                 (A) (A) (A) (A) (A) (A) (A) (A) (A) (A) (A) (A)
                 (A) (A) (A) (A) (A) (A) (A) (A) (A) (A) (A) (A)
                 (A) (A) (A) (A) (A) (A) (A) (A) (A) (A) (A) (A)
                 (A) (A) (A) (A) (A) (A) (A) (A) (A) (A) (A) (A)
                 (A) (A) (A) (A) (A) (A) (A) (A) (A) (A) (A) (A)
                 (A) (A) (A) (A) (A) (A) (A) (A) (A) (A) (A) (A)
                 (A) (A) (A) (A) (A) (A) (A) (A) (A) (A) (A) (A)
                 (A) (A) (A) (A) (A) (A) (A) (A) (A) (A) (A) (A)
                 (A) (A) (A) (A) (A) (A) (A) (A) (A) (A) (A) (A)
                 (A) (A) (A) (A) (A) (A)
 The electronic state is 1-A.
 Alpha  occ. eigenvalues --   -1.81818  -1.79220  -1.77611  -1.74304  -1.71707
 Alpha  occ. eigenvalues --   -1.69455  -1.64547  -1.59813  -1.57568  -1.56931
 Alpha  occ. eigenvalues --   -1.53055  -1.50860  -1.47925  -1.47392  -1.46911
 Alpha  occ. eigenvalues --   -1.43599  -1.42372  -1.39512  -1.39366  -1.37635
 Alpha  occ. eigenvalues --   -1.35650  -1.34025  -1.32276  -1.31555  -1.28366
 Alpha  occ. eigenvalues --   -1.26466  -1.26238  -1.22023  -1.20824  -1.18075
 Alpha  occ. eigenvalues --   -1.17228  -1.15459  -1.15160  -1.13094  -1.12405
 Alpha  occ. eigenvalues --   -1.11891  -1.11103  -1.09345  -1.03857  -1.03457
 Alpha  occ. eigenvalues --   -1.02184  -1.00514  -0.99741  -0.98546  -0.97463
 Alpha  occ. eigenvalues --   -0.97006  -0.94380  -0.93179  -0.91966  -0.91667
 Alpha  occ. eigenvalues --   -0.90369  -0.90242  -0.88439  -0.88285  -0.86982
 Alpha  occ. eigenvalues --   -0.85774  -0.83966  -0.83153  -0.81746  -0.80187
 Alpha  occ. eigenvalues --   -0.79552  -0.78789  -0.76751  -0.76528  -0.76105
 Alpha  occ. eigenvalues --   -0.75811  -0.75102  -0.74815  -0.74180  -0.73834
 Alpha  occ. eigenvalues --   -0.72501  -0.72450  -0.71876  -0.71761  -0.71278
 Alpha  occ. eigenvalues --   -0.69792  -0.69275  -0.69094  -0.68255  -0.67422
 Alpha  occ. eigenvalues --   -0.67248  -0.66783  -0.66080  -0.65807  -0.65284
 Alpha  occ. eigenvalues --   -0.65121  -0.64789  -0.64356  -0.63880  -0.63804
 Alpha  occ. eigenvalues --   -0.63146  -0.62910  -0.62730  -0.62282  -0.61921
 Alpha  occ. eigenvalues --   -0.61665  -0.61393  -0.60997  -0.60626  -0.60349
 Alpha  occ. eigenvalues --   -0.59572  -0.59225  -0.59059  -0.58976  -0.58736
 Alpha  occ. eigenvalues --   -0.58276  -0.57848  -0.56969  -0.56929  -0.56746
 Alpha  occ. eigenvalues --   -0.56272  -0.56113  -0.55399  -0.55361  -0.54995
 Alpha  occ. eigenvalues --   -0.53952  -0.53773  -0.53546  -0.53280  -0.53185
 Alpha  occ. eigenvalues --   -0.52766  -0.52500  -0.52391  -0.51773  -0.51656
 Alpha  occ. eigenvalues --   -0.51418  -0.50888  -0.50561  -0.50255  -0.50167
 Alpha  occ. eigenvalues --   -0.49708  -0.49327  -0.49112  -0.48929  -0.48628
 Alpha  occ. eigenvalues --   -0.48502  -0.48330  -0.48289  -0.48068  -0.47738
 Alpha  occ. eigenvalues --   -0.47519  -0.47060  -0.46983  -0.46396  -0.46340
 Alpha  occ. eigenvalues --   -0.45768  -0.45391  -0.45092  -0.44927  -0.44734
 Alpha  occ. eigenvalues --   -0.44601  -0.44415  -0.44295  -0.44177  -0.43553
 Alpha  occ. eigenvalues --   -0.43141  -0.43015  -0.42623  -0.42522  -0.42431
 Alpha  occ. eigenvalues --   -0.42075  -0.41819  -0.40865  -0.39223  -0.39102
 Alpha  occ. eigenvalues --   -0.38114  -0.37334  -0.35491  -0.35243  -0.34547
 Alpha  occ. eigenvalues --   -0.33063  -0.32639  -0.32203  -0.31935  -0.27068
 Alpha  occ. eigenvalues --   -0.21509
 Alpha virt. eigenvalues --   -0.08576  -0.02756  -0.00828   0.00827   0.01356
 Alpha virt. eigenvalues --    0.02175   0.02258   0.03771   0.04627   0.04668
 Alpha virt. eigenvalues --    0.05966   0.06673   0.06903   0.07641   0.08170
 Alpha virt. eigenvalues --    0.08304   0.08455   0.08957   0.09024   0.09146
 Alpha virt. eigenvalues --    0.09462   0.09645   0.09804   0.10046   0.10580
 Alpha virt. eigenvalues --    0.10909   0.11060   0.11261   0.11832   0.12526
 Alpha virt. eigenvalues --    0.12591   0.12834   0.13141   0.13333   0.13420
 Alpha virt. eigenvalues --    0.13915   0.14074   0.14265   0.14396   0.14582
 Alpha virt. eigenvalues --    0.14840   0.15075   0.15752   0.15807   0.15818
 Alpha virt. eigenvalues --    0.16001   0.16113   0.16130   0.16449   0.17062
 Alpha virt. eigenvalues --    0.17336   0.17467   0.17792   0.17957   0.18160
 Alpha virt. eigenvalues --    0.18381   0.18516   0.18946   0.19227   0.19478
 Alpha virt. eigenvalues --    0.19858   0.20247   0.20293   0.20499   0.20736
 Alpha virt. eigenvalues --    0.21042   0.22450   0.22867   0.23028   0.23601
 Alpha virt. eigenvalues --    0.23834   0.23881   0.23997   0.24037   0.24137
 Alpha virt. eigenvalues --    0.24146   0.24415   0.24500   0.24583   0.24703
 Alpha virt. eigenvalues --    0.24759   0.24810   0.25053   0.25145   0.25253
 Alpha virt. eigenvalues --    0.25328   0.25466   0.25505   0.25506   0.25547
 Alpha virt. eigenvalues --    0.25666   0.25703   0.25811   0.25896   0.25912
 Alpha virt. eigenvalues --    0.25941   0.26034   0.26053   0.26097   0.26258
 Alpha virt. eigenvalues --    0.26318   0.26411   0.26414   0.26452   0.26635
 Alpha virt. eigenvalues --    0.26672   0.26727   0.26887   0.26911   0.26926
 Alpha virt. eigenvalues --    0.26991   0.27350   0.27522   0.27603   0.27923
 Alpha virt. eigenvalues --    0.28378   0.28408   0.28541   0.28580   0.29361
 Alpha virt. eigenvalues --    0.29865   0.30289   0.30679   0.30749   0.31820
 Alpha virt. eigenvalues --    0.31984   0.32746   0.33061   0.33192   0.34300
 Alpha virt. eigenvalues --    0.34819   0.35232   0.35411   0.35738   0.36094
 Alpha virt. eigenvalues --    0.36345   0.37012   0.37360   0.37497   0.38112
 Alpha virt. eigenvalues --    0.39311   0.39324   0.39691   0.40241   0.40594
 Alpha virt. eigenvalues --    0.40652   0.41022   0.41249   0.41758   0.42802
 Alpha virt. eigenvalues --    0.43466   0.43876   0.44983   0.45099   0.46791
 Alpha virt. eigenvalues --    0.46983   0.47776   0.48866   0.50075   0.52166
 Alpha virt. eigenvalues --    0.53533   0.55905
          Condensed to atoms (all electrons):
 Mulliken charges:
               1
     1  Mg   0.426050
     2  C   -0.062331
     3  C   -0.080926
     4  C   -0.078517
     5  C   -0.037545
     6  N   -0.293477
     7  C    0.131618
     8  C    0.008662
     9  C   -0.000013
    10  C    0.134875
    11  C   -0.055688
    12  C   -0.020650
    13  C    0.009180
    14  C    0.460545
    15  O   -0.517534
    16  O   -0.257140
    17  N   -0.345512
    18  C    0.143731
    19  C    0.036301
    20  C   -0.043691
    21  C    0.118808
    22  C   -0.035569
    23  C    0.314314
    24  O   -0.532915
    25  C   -0.026919
    26  N   -0.276829
    27  C    0.142338
    28  C    0.016898
    29  C    0.004362
    30  C    0.080015
    31  C   -0.055863
    32  C   -0.022673
    33  C   -0.053622
    34  N   -0.321522
    35  C    0.065093
    36  C    0.040296
    37  C   -0.058333
    38  C    0.129582
    39  C   -0.039709
    40  C    0.330652
    41  O   -0.530869
    42  C    0.059446
    43  C    0.507617
    44  O   -0.526958
    45  O   -0.273865
    46  C    0.072144
    47  C    0.109607
    48  C   -0.103654
    49  C    0.007503
    50  C   -0.038751
    51  C   -0.018838
    52  C   -0.030104
    53  C   -0.037153
    54  C   -0.000525
    55  C   -0.060492
    56  C   -0.025711
    57  C   -0.037682
    58  C   -0.039989
    59  C   -0.018945
    60  C   -0.055328
    61  C   -0.027626
    62  C   -0.037414
    63  C   -0.044787
    64  C   -0.018773
    65  C   -0.063820
    66  C   -0.061201
    67  H    0.029405
    68  H    0.022445
    69  H    0.027801
    70  H    0.026658
    71  H    0.024894
    72  H    0.021259
    73  H    0.035371
    74  H    0.032506
    75  H    0.036411
    76  H    0.031847
    77  H    0.045485
    78  H    0.027926
    79  H    0.045477
    80  H    0.033670
    81  H    0.034949
    82  H    0.043054
    83  H    0.022117
    84  H    0.045840
    85  H    0.027043
    86  H    0.028579
    87  H    0.010330
    88  H    0.030090
    89  H    0.030082
    90  H    0.021852
    91  H    0.016813
    92  H    0.021167
    93  H    0.020033
    94  H    0.017787
    95  H    0.046578
    96  H    0.035595
    97  H    0.036903
    98  H    0.056824
    99  H    0.033589
   100  H    0.044690
   101  H    0.052940
   102  H    0.059874
   103  H    0.029295
   104  H    0.012181
   105  H    0.037577
   106  H    0.028937
   107  H    0.017135
   108  H    0.025353
   109  H    0.017881
   110  H    0.020290
   111  H    0.017270
   112  H    0.012012
   113  H    0.018624
   114  H    0.024899
   115  H    0.015553
   116  H    0.022923
   117  H    0.015166
   118  H    0.025331
   119  H    0.013383
   120  H    0.024834
   121  H    0.017154
   122  H    0.008968
   123  H    0.016603
   124  H    0.014739
   125  H    0.011928
   126  H    0.026985
   127  H    0.010679
   128  H    0.010214
   129  H    0.020413
   130  H    0.020891
   131  H    0.013084
   132  H    0.019808
   133  H    0.017357
   134  H    0.026350
   135  H    0.019014
   136  H    0.019497
   137  H    0.030227
   138  H    0.025057
   139  H    0.021374
   140  H    0.012953
 Sum of Mulliken charges =  -0.00000
 Mulliken charges with hydrogens summed into heavy atoms:
               1
     1  Mg   0.426050
     2  C   -0.062331
     3  C   -0.051521
     4  C   -0.056071
     5  C   -0.009744
     6  N   -0.293477
     7  C    0.131618
     8  C    0.035320
     9  C    0.024881
    10  C    0.134875
    11  C    0.033448
    12  C    0.047607
    13  C    0.082591
    14  C    0.460545
    15  O   -0.517534
    16  O   -0.257140
    17  N   -0.345512
    18  C    0.143731
    19  C    0.036301
    20  C   -0.043691
    21  C    0.118808
    22  C    0.078528
    23  C    0.314314
    24  O   -0.532915
    25  C    0.084091
    26  N   -0.276829
    27  C    0.142338
    28  C    0.043941
    29  C    0.032941
    30  C    0.080015
    31  C    0.014640
    32  C    0.015992
    33  C    0.005365
    34  N   -0.321522
    35  C    0.065093
    36  C    0.040296
    37  C   -0.058333
    38  C    0.129582
    39  C    0.079367
    40  C    0.330652
    41  O   -0.530869
    42  C    0.116270
    43  C    0.507617
    44  O   -0.526958
    45  O   -0.273865
    46  C    0.203363
    47  C    0.198776
    48  C   -0.091473
    49  C    0.007503
    50  C    0.044898
    51  C    0.024396
    52  C    0.007456
    53  C   -0.006517
    54  C    0.024373
    55  C   -0.006850
    56  C    0.013004
    57  C    0.004306
    58  C   -0.014418
    59  C   -0.004206
    60  C   -0.005736
    61  C    0.003001
    62  C   -0.003438
    63  C   -0.007622
    64  C    0.007577
    65  C    0.004919
    66  C   -0.001817
 Charge=             -0.0000 electrons
 Dipole moment (field-independent basis, Debye):
    X=              0.8950    Y=              4.3606    Z=              0.6296  Tot=              4.4958
 N-N= 4.458083415561D+03 E-N= 0.000000000000D+00  KE=-9.590381940671D+03
 Leave Link  601 at Thu Apr 28 10:20:41 2022, MaxMem=  6710886400 cpu:               0.8 elap:               0.0
 (Enter /sw/apps/gaussian-16.0/g16/l9999.exe)
 1\1\GINC-BP1-COMPUTE070\SP\RZINDO CIS\STO-3G\C55H74Mg1N4O6\OF15641\28-
 Apr-2022\0\\#p ZINDO=(nstates=5)\\step_151_chromophore_20 ZINDO\\0,1\M
 g,0,7.729,57.116,41.167\C,0,6.553,53.77,40.99\C,0,10.909,56.032,40.471
 \C,0,8.636,60.348,40.846\C,0,4.307,58.047,41.85\N,0,8.56,55.105,40.728
 \C,0,7.921,53.9,40.666\C,0,8.864,52.818,40.218\C,0,10.26,53.477,40.432
 \C,0,9.936,54.987,40.582\C,0,11.106,52.901,41.613\C,0,8.558,52.175,38.
 813\C,0,9.752,51.649,37.999\C,0,9.322,50.91,36.714\O,0,8.477,50.008,36
 .72\O,0,9.88,51.447,35.556\N,0,9.485,58.012,40.658\C,0,10.675,57.378,4
 0.46\C,0,11.704,58.332,40.177\C,0,11.096,59.654,40.334\C,0,9.694,59.44
 ,40.607\C,0,12.955,57.935,39.475\C,0,11.863,60.956,40.12\O,0,13.094,60
 .949,39.928\C,0,11.265,62.399,40.229\N,0,6.57,58.95,41.062\C,0,7.215,6
 0.176,41.061\C,0,6.172,61.241,41.314\C,0,4.764,60.582,41.441\C,0,5.211
 ,59.089,41.498\C,0,6.55,62.191,42.449\C,0,3.792,60.921,40.288\C,0,2.32
 6,60.837,40.658\N,0,5.827,56.202,41.439\C,0,4.5,56.705,41.696\C,0,3.57
 9,55.606,41.962\C,0,4.324,54.459,41.664\C,0,5.693,54.882,41.373\C,0,2.
 146,55.879,42.444\C,0,4.26,53.02,41.685\O,0,3.353,52.272,42.048\C,0,5.
 635,52.539,41.048\C,0,5.202,52.073,39.717\O,0,4.758,52.664,38.765\O,0,
 5.435,50.75,39.709\C,0,4.944,49.988,38.569\C,0,9.632,50.654,34.365\C,0
 ,9.71,51.619,33.15\C,0,8.818,52.34,32.407\C,0,7.39,52.381,32.758\C,0,9
 .283,53.257,31.215\C,0,9.05,54.787,31.388\C,0,9.687,55.659,30.273\C,0,
 10.854,56.595,30.79\C,0,10.221,57.716,31.623\C,0,11.655,57.189,29.68\C
 ,0,12.864,56.296,29.212\C,0,14.205,57.137,29.288\C,0,14.329,58.327,28.
 275\C,0,14.935,57.888,26.917\C,0,14.805,59.723,28.887\C,0,13.803,60.83
 7,28.942\C,0,13.418,61.163,30.452\C,0,14.278,62.264,31.139\C,0,15.262,
 61.694,32.182\C,0,13.333,63.399,31.777\H,0,11.915,55.64,40.309\H,0,8.9
 72,61.375,41.004\H,0,3.313,58.341,42.192\H,0,8.627,52.017,40.918\H,0,1
 0.887,53.376,39.546\H,0,10.932,53.568,42.457\H,0,12.158,52.93,41.327\H
 ,0,10.587,51.978,41.872\H,0,7.961,52.815,38.163\H,0,7.952,51.276,38.92
 9\H,0,10.387,50.987,38.589\H,0,10.31,52.532,37.687\H,0,13.37,58.83,39.
 013\H,0,12.814,57.098,38.791\H,0,13.613,57.667,40.302\H,0,10.975,62.57
 5,41.265\H,0,10.402,62.329,39.566\H,0,11.84,63.214,39.79\H,0,6.184,61.
 851,40.411\H,0,4.242,60.809,42.371\H,0,6.301,63.14,41.974\H,0,7.621,62
 .222,42.65\H,0,5.896,62.094,43.315\H,0,4.085,60.261,39.471\H,0,3.97,61
 .9,39.845\H,0,1.911,61.843,40.727\H,0,2.117,60.289,41.577\H,0,1.786,60
 .261,39.907\H,0,1.621,56.084,41.511\H,0,2.238,56.684,43.174\H,0,1.811,
 54.953,42.912\H,0,6.017,51.827,41.78\H,0,4.385,49.176,39.036\H,0,5.82,
 49.657,38.012\H,0,4.265,50.525,37.908\H,0,8.768,49.992,34.317\H,0,10.4
 66,49.954,34.314\H,0,10.712,51.57,32.725\H,0,7.279,52.606,33.819\H,0,6
 .865,51.447,32.555\H,0,6.901,53.096,32.097\H,0,8.801,52.829,30.336\H,0
 ,10.342,53.195,30.968\H,0,9.408,55.156,32.349\H,0,7.985,54.971,31.531\
 H,0,8.822,56.215,29.911\H,0,9.95,55.154,29.344\H,0,11.481,56.006,31.46
 \H,0,9.153,57.501,31.659\H,0,10.318,58.738,31.256\H,0,10.622,57.663,32
 .635\H,0,11.947,58.213,29.912\H,0,11.048,57.294,28.781\H,0,12.774,55.8
 86,28.206\H,0,13.066,55.444,29.862\H,0,15.072,56.492,29.148\H,0,14.394
 ,57.595,30.259\H,0,13.279,58.575,28.123\H,0,14.095,57.605,26.283\H,0,1
 5.675,57.094,26.809\H,0,15.406,58.714,26.385\H,0,15.621,60.165,28.315\
 H,0,15.258,59.514,29.856\H,0,12.876,60.717,28.381\H,0,14.211,61.77,28.
 553\H,0,13.552,60.225,30.991\H,0,12.354,61.365,30.331\H,0,15.016,62.64
 ,30.431\H,0,15.271,62.377,33.031\H,0,16.263,61.766,31.756\H,0,14.894,6
 0.693,32.409\H,0,13.373,63.503,32.861\H,0,12.29,63.294,31.478\H,0,13.7
 21,64.337,31.378\\Version=ES64L-G16RevA.03\State=1-A\HF=-473.8941322\R
 MSD=6.391e-09\PG=C01 [X(C55H74Mg1N4O6)]\\@


 I take a simple view of life: keep your eyes open and get on with it.
 -- Laurence Olivier
 Job cpu time:       0 days  0 hours  2 minutes 22.2 seconds.
 Elapsed time:       0 days  0 hours  0 minutes  6.2 seconds.
 File lengths (MBytes):  RWF=   1263 Int=      0 D2E=      0 Chk=     38 Scr=      1
 Normal termination of Gaussian 16 at Thu Apr 28 10:20:41 2022.
