 Entering Gaussian System, Link 0=g16
 Initial command:
 /sw/apps/gaussian-16.0/g16/l1.exe "/tmp/Gau-85793.inp" -scrdir="/tmp/"
 Entering Link 1 = /sw/apps/gaussian-16.0/g16/l1.exe PID=     85794.
  
 Copyright (c) 1988,1990,1992,1993,1995,1998,2003,2009,2016,
            Gaussian, Inc.  All Rights Reserved.
  
 This is part of the Gaussian(R) 16 program.  It is based on
 the Gaussian(R) 09 system (copyright 2009, Gaussian, Inc.),
 the Gaussian(R) 03 system (copyright 2003, Gaussian, Inc.),
 the Gaussian(R) 98 system (copyright 1998, Gaussian, Inc.),
 the Gaussian(R) 94 system (copyright 1995, Gaussian, Inc.),
 the Gaussian 92(TM) system (copyright 1992, Gaussian, Inc.),
 the Gaussian 90(TM) system (copyright 1990, Gaussian, Inc.),
 the Gaussian 88(TM) system (copyright 1988, Gaussian, Inc.),
 the Gaussian 86(TM) system (copyright 1986, Carnegie Mellon
 University), and the Gaussian 82(TM) system (copyright 1983,
 Carnegie Mellon University). Gaussian is a federally registered
 trademark of Gaussian, Inc.
  
 This software contains proprietary and confidential information,
 including trade secrets, belonging to Gaussian, Inc.
  
 This software is provided under written license and may be
 used, copied, transmitted, or stored only in accord with that
 written license.
  
 The following legend is applicable only to US Government
 contracts under FAR:
  
                    RESTRICTED RIGHTS LEGEND
  
 Use, reproduction and disclosure by the US Government is
 subject to restrictions as set forth in subparagraphs (a)
 and (c) of the Commercial Computer Software - Restricted
 Rights clause in FAR 52.227-19.
  
 Gaussian, Inc.
 340 Quinnipiac St., Bldg. 40, Wallingford CT 06492
  
  
 ---------------------------------------------------------------
 Warning -- This program may not be used in any manner that
 competes with the business of Gaussian, Inc. or will provide
 assistance to any competitor of Gaussian, Inc.  The licensee
 of this program is prohibited from giving any competitor of
 Gaussian, Inc. access to this program.  By using this program,
 the user acknowledges that Gaussian, Inc. is engaged in the
 business of creating and licensing software in the field of
 computational chemistry and represents and warrants to the
 licensee that it is not a competitor of Gaussian, Inc. and that
 it will not use this program in any manner prohibited above.
 ---------------------------------------------------------------
  

 Cite this work as:
 Gaussian 16, Revision A.03,
 M. J. Frisch, G. W. Trucks, H. B. Schlegel, G. E. Scuseria, 
 M. A. Robb, J. R. Cheeseman, G. Scalmani, V. Barone, 
 G. A. Petersson, H. Nakatsuji, X. Li, M. Caricato, A. V. Marenich, 
 J. Bloino, B. G. Janesko, R. Gomperts, B. Mennucci, H. P. Hratchian, 
 J. V. Ortiz, A. F. Izmaylov, J. L. Sonnenberg, D. Williams-Young, 
 F. Ding, F. Lipparini, F. Egidi, J. Goings, B. Peng, A. Petrone, 
 T. Henderson, D. Ranasinghe, V. G. Zakrzewski, J. Gao, N. Rega, 
 G. Zheng, W. Liang, M. Hada, M. Ehara, K. Toyota, R. Fukuda, 
 J. Hasegawa, M. Ishida, T. Nakajima, Y. Honda, O. Kitao, H. Nakai, 
 T. Vreven, K. Throssell, J. A. Montgomery, Jr., J. E. Peralta, 
 F. Ogliaro, M. J. Bearpark, J. J. Heyd, E. N. Brothers, K. N. Kudin, 
 V. N. Staroverov, T. A. Keith, R. Kobayashi, J. Normand, 
 K. Raghavachari, A. P. Rendell, J. C. Burant, S. S. Iyengar, 
 J. Tomasi, M. Cossi, J. M. Millam, M. Klene, C. Adamo, R. Cammi, 
 J. W. Ochterski, R. L. Martin, K. Morokuma, O. Farkas, 
 J. B. Foresman, and D. J. Fox, Gaussian, Inc., Wallingford CT, 2016.
 
 ******************************************
 Gaussian 16:  ES64L-G16RevA.03 25-Dec-2016
                30-Apr-2022 
 ******************************************
 %nproc=24
 Will use up to   24 processors via shared memory.
 %mem=75GB
 ------------------------------
 #p blyp/Def2SVP td=(nstates=5)
 ------------------------------
 1/38=1,172=1/1;
 2/12=2,17=6,18=5,40=1/2;
 3/5=43,7=101,11=9,25=1,30=1,74=402/1,2,3,8;
 4//1;
 5/5=2,38=5/2;
 8/6=1,10=1,108=5/1;
 9/41=5,42=1,70=2/14;
 6/7=2,8=2,9=2,10=2/1;
 99/5=1,9=1/99;
 Leave Link    1 at Sat Apr 30 08:38:04 2022, MaxMem= 10066329600 cpu:               1.8 elap:               0.1
 (Enter /sw/apps/gaussian-16.0/g16/l101.exe)
 --------------------------------------------------
 step_651_chromophore_26 TDDFT with blyp functional
 --------------------------------------------------
 Symbolic Z-matrix:
 Charge =  0 Multiplicity = 1
 Mg                   -9.555     18.356    42.544 
 C                    -5.881     17.97     42.459 
 C                    -8.824     21.842    41.764 
 C                    -12.667    18.798    42.22 
 C                    -9.855     14.864    42.301 
 N                    -7.61      19.636    42.006 
 C                    -6.272     19.285    42.114 
 C                    -5.327     20.456    41.949 
 C                    -6.322     21.692    41.794 
 C                    -7.699     20.99     41.874 
 C                    -6.112     22.953    42.7 
 C                    -4.239     20.309    40.831 
 C                    -4.829     19.691    39.476 
 C                    -4.239     20.132    38.17 
 O                    -3.019     20.026    37.857 
 O                    -5.195     20.777    37.406 
 N                    -10.699    20.121    42.254 
 C                    -10.191    21.392    41.845 
 C                    -11.286    22.198    41.641 
 C                    -12.481    21.413    41.831 
 C                    -12.02     20.086    42.148 
 C                    -11.11     23.656    41.283 
 C                    -13.923    21.847    41.789 
 O                    -14.195    23.073    41.618 
 C                    -15.111    20.808    41.983 
 N                    -11.013    16.921    42.341 
 C                    -12.286    17.44     42.205 
 C                    -13.273    16.205    41.953 
 C                    -12.365    14.971    41.811 
 C                    -11.024    15.541    42.144 
 C                    -14.278    16.155    43.131 
 C                    -12.244    14.346    40.407 
 C                    -13.039    13.09     40.212 
 N                    -8.227     16.719    42.415 
 C                    -8.56      15.355    42.484 
 C                    -7.3       14.594    42.568 
 C                    -6.243     15.583    42.592 
 C                    -6.861     16.85     42.462 
 C                    -7.177     13.       42.695 
 C                    -4.775     15.763    42.749 
 O                    -3.915     14.908    42.966 
 C                    -4.544     17.276    42.651 
 C                    -3.746     17.798    43.795 
 O                    -2.808     18.595    43.676 
 O                    -4.297     17.305    44.977 
 C                    -3.658     17.897    46.145 
 C                    -4.953     21.149    36.018 
 C                    -6.101     20.761    35.103 
 C                    -6.408     19.577    34.564 
 C                    -5.771     18.237    34.96 
 C                    -7.489     19.404    33.549 
 C                    -8.944     19.279    34.091 
 C                    -9.826     19.525    32.867 
 C                    -10.688    20.787    32.756 
 C                    -12.16     20.46     32.51 
 C                    -10.159    21.79     31.594 
 C                    -10.151    23.234    32.163 
 C                    -9.625     24.136    31.099 
 C                    -10.501    25.364    30.697 
 C                    -10.116    26.65     31.469 
 C                    -10.417    25.615    29.176 
 C                    -11.611    25.095    28.298 
 C                    -11.033    24.423    26.957 
 C                    -11.525    25.077    25.655 
 C                    -13.023    24.924    25.565 
 C                    -10.638    24.592    24.439 
 H                    -8.574     22.847    41.418 
 H                    -13.749    18.737    42.083 
 H                    -9.967     13.781    42.375 
 H                    -4.775     20.436    42.888 
 H                    -6.209     21.963    40.744 
 H                    -5.387     22.677    43.466 
 H                    -6.956     23.162    43.357 
 H                    -5.757     23.766    42.067 
 H                    -3.473     19.639    41.222 
 H                    -3.975     21.33     40.555 
 H                    -5.915     19.781    39.49 
 H                    -4.512     18.657    39.614 
 H                    -10.273    24.063    41.851 
 H                    -12.05     24.154    41.522 
 H                    -10.864    23.68     40.222 
 H                    -15.016    20.216    42.894 
 H                    -15.218    20.275    41.038 
 H                    -15.976    21.464    42.083 
 H                    -13.798    16.386    41.015 
 H                    -12.586    14.262    42.609 
 H                    -13.947    16.492    44.113 
 H                    -14.594    15.129    43.321 
 H                    -15.173    16.699    42.828 
 H                    -11.197    14.248    40.122 
 H                    -12.783    15.009    39.73 
 H                    -13.208    12.57     41.155 
 H                    -12.404    12.45     39.6 
 H                    -13.931    13.401    39.668 
 H                    -7.066     12.582    41.694 
 H                    -8.089     12.634    43.166 
 H                    -6.329     12.728    43.323 
 H                    -4.017     17.406    41.706 
 H                    -2.733     17.343    46.302 
 H                    -4.27      17.682    47.021 
 H                    -3.377     18.947    46.057 
 H                    -3.982     20.891    35.596 
 H                    -4.978     22.236    36.09 
 H                    -6.508     21.676    34.673 
 H                    -4.96      18.327    35.682 
 H                    -5.378     17.777    34.053 
 H                    -6.437     17.611    35.553 
 H                    -7.223     18.624    32.836 
 H                    -7.52      20.275    32.895 
 H                    -9.15      20.002    34.881 
 H                    -9.156     18.275    34.459 
 H                    -10.394    18.595    32.841 
 H                    -9.236     19.439    31.954 
 H                    -10.628    21.418    33.643 
 H                    -12.228    19.467    32.067 
 H                    -12.663    21.257    31.962 
 H                    -12.73     20.441    33.439 
 H                    -10.825    21.68     30.738 
 H                    -9.17      21.5      31.24 
 H                    -9.402     23.359    32.944 
 H                    -11.171    23.362    32.525 
 H                    -9.462     23.476    30.247 
 H                    -8.649     24.513    31.403 
 H                    -11.564    25.269    30.919 
 H                    -9.328     27.221    30.978 
 H                    -9.829     26.431    32.497 
 H                    -10.913    27.389    31.385 
 H                    -9.435     25.311    28.813 
 H                    -10.394    26.686    28.972 
 H                    -12.225    25.927    27.953 
 H                    -12.139    24.422    28.973 
 H                    -11.336    23.376    26.948 
 H                    -9.943     24.412    26.971 
 H                    -11.232    26.111    25.836 
 H                    -13.38     24.5      24.627 
 H                    -13.419    25.93     25.429 
 H                    -13.656    24.543    26.366 
 H                    -9.965     25.331    24.004 
 H                    -11.298    24.305    23.621 
 H                    -10.035    23.705    24.64 
 
 ITRead=  0  0  0  0  0  0  0  0  0  0  0  0  0  0  0  0  0  0  0  0
 ITRead=  0  0  0  0  0  0  0  0  0  0  0  0  0  0  0  0  0  0  0  0
 ITRead=  0  0  0  0  0  0  0  0  0  0  0  0  0  0  0  0  0  0  0  0
 ITRead=  0  0  0  0  0  0  0  0  0  0  0  0  0  0  0  0  0  0  0  0
 ITRead=  0  0  0  0  0  0  0  0  0  0  0  0  0  0  0  0  0  0  0  0
 ITRead=  0  0  0  0  0  0  0  0  0  0  0  0  0  0  0  0  0  0  0  0
 ITRead=  0  0  0  0  0  0  0  0  0  0  0  0  0  0  0  0  0  0  0  0
 MicOpt= -1 -1 -1 -1 -1 -1 -1 -1 -1 -1 -1 -1 -1 -1 -1 -1 -1 -1 -1 -1
 MicOpt= -1 -1 -1 -1 -1 -1 -1 -1 -1 -1 -1 -1 -1 -1 -1 -1 -1 -1 -1 -1
 MicOpt= -1 -1 -1 -1 -1 -1 -1 -1 -1 -1 -1 -1 -1 -1 -1 -1 -1 -1 -1 -1
 MicOpt= -1 -1 -1 -1 -1 -1 -1 -1 -1 -1 -1 -1 -1 -1 -1 -1 -1 -1 -1 -1
 MicOpt= -1 -1 -1 -1 -1 -1 -1 -1 -1 -1 -1 -1 -1 -1 -1 -1 -1 -1 -1 -1
 MicOpt= -1 -1 -1 -1 -1 -1 -1 -1 -1 -1 -1 -1 -1 -1 -1 -1 -1 -1 -1 -1
 MicOpt= -1 -1 -1 -1 -1 -1 -1 -1 -1 -1 -1 -1 -1 -1 -1 -1 -1 -1 -1 -1
 NAtoms=    140 NQM=      140 NQMF=       0 NMMI=      0 NMMIF=      0
                NMic=       0 NMicF=      0.
                    Isotopes and Nuclear Properties:
 (Nuclear quadrupole moments (NQMom) in fm**2, nuclear magnetic moments (NMagM)
  in nuclear magnetons)

  Atom         1           2           3           4           5           6           7           8           9          10
 IAtWgt=          24          12          12          12          12          14          12          12          12          12
 AtmWgt=  23.9850450  12.0000000  12.0000000  12.0000000  12.0000000  14.0030740  12.0000000  12.0000000  12.0000000  12.0000000
 NucSpn=           0           0           0           0           0           2           0           0           0           0
 AtZEff=  -0.0000000  -0.0000000  -0.0000000  -0.0000000  -0.0000000  -0.0000000  -0.0000000  -0.0000000  -0.0000000  -0.0000000
 NQMom=    0.0000000   0.0000000   0.0000000   0.0000000   0.0000000   2.0440000   0.0000000   0.0000000   0.0000000   0.0000000
 NMagM=    0.0000000   0.0000000   0.0000000   0.0000000   0.0000000   0.4037610   0.0000000   0.0000000   0.0000000   0.0000000
 AtZNuc=  12.0000000   6.0000000   6.0000000   6.0000000   6.0000000   7.0000000   6.0000000   6.0000000   6.0000000   6.0000000

  Atom        11          12          13          14          15          16          17          18          19          20
 IAtWgt=          12          12          12          12          16          16          14          12          12          12
 AtmWgt=  12.0000000  12.0000000  12.0000000  12.0000000  15.9949146  15.9949146  14.0030740  12.0000000  12.0000000  12.0000000
 NucSpn=           0           0           0           0           0           0           2           0           0           0
 AtZEff=  -0.0000000  -0.0000000  -0.0000000  -0.0000000  -0.0000000  -0.0000000  -0.0000000  -0.0000000  -0.0000000  -0.0000000
 NQMom=    0.0000000   0.0000000   0.0000000   0.0000000   0.0000000   0.0000000   2.0440000   0.0000000   0.0000000   0.0000000
 NMagM=    0.0000000   0.0000000   0.0000000   0.0000000   0.0000000   0.0000000   0.4037610   0.0000000   0.0000000   0.0000000
 AtZNuc=   6.0000000   6.0000000   6.0000000   6.0000000   8.0000000   8.0000000   7.0000000   6.0000000   6.0000000   6.0000000

  Atom        21          22          23          24          25          26          27          28          29          30
 IAtWgt=          12          12          12          16          12          14          12          12          12          12
 AtmWgt=  12.0000000  12.0000000  12.0000000  15.9949146  12.0000000  14.0030740  12.0000000  12.0000000  12.0000000  12.0000000
 NucSpn=           0           0           0           0           0           2           0           0           0           0
 AtZEff=  -0.0000000  -0.0000000  -0.0000000  -0.0000000  -0.0000000  -0.0000000  -0.0000000  -0.0000000  -0.0000000  -0.0000000
 NQMom=    0.0000000   0.0000000   0.0000000   0.0000000   0.0000000   2.0440000   0.0000000   0.0000000   0.0000000   0.0000000
 NMagM=    0.0000000   0.0000000   0.0000000   0.0000000   0.0000000   0.4037610   0.0000000   0.0000000   0.0000000   0.0000000
 AtZNuc=   6.0000000   6.0000000   6.0000000   8.0000000   6.0000000   7.0000000   6.0000000   6.0000000   6.0000000   6.0000000

  Atom        31          32          33          34          35          36          37          38          39          40
 IAtWgt=          12          12          12          14          12          12          12          12          12          12
 AtmWgt=  12.0000000  12.0000000  12.0000000  14.0030740  12.0000000  12.0000000  12.0000000  12.0000000  12.0000000  12.0000000
 NucSpn=           0           0           0           2           0           0           0           0           0           0
 AtZEff=  -0.0000000  -0.0000000  -0.0000000  -0.0000000  -0.0000000  -0.0000000  -0.0000000  -0.0000000  -0.0000000  -0.0000000
 NQMom=    0.0000000   0.0000000   0.0000000   2.0440000   0.0000000   0.0000000   0.0000000   0.0000000   0.0000000   0.0000000
 NMagM=    0.0000000   0.0000000   0.0000000   0.4037610   0.0000000   0.0000000   0.0000000   0.0000000   0.0000000   0.0000000
 AtZNuc=   6.0000000   6.0000000   6.0000000   7.0000000   6.0000000   6.0000000   6.0000000   6.0000000   6.0000000   6.0000000

  Atom        41          42          43          44          45          46          47          48          49          50
 IAtWgt=          16          12          12          16          16          12          12          12          12          12
 AtmWgt=  15.9949146  12.0000000  12.0000000  15.9949146  15.9949146  12.0000000  12.0000000  12.0000000  12.0000000  12.0000000
 NucSpn=           0           0           0           0           0           0           0           0           0           0
 AtZEff=  -0.0000000  -0.0000000  -0.0000000  -0.0000000  -0.0000000  -0.0000000  -0.0000000  -0.0000000  -0.0000000  -0.0000000
 NQMom=    0.0000000   0.0000000   0.0000000   0.0000000   0.0000000   0.0000000   0.0000000   0.0000000   0.0000000   0.0000000
 NMagM=    0.0000000   0.0000000   0.0000000   0.0000000   0.0000000   0.0000000   0.0000000   0.0000000   0.0000000   0.0000000
 AtZNuc=   8.0000000   6.0000000   6.0000000   8.0000000   8.0000000   6.0000000   6.0000000   6.0000000   6.0000000   6.0000000

  Atom        51          52          53          54          55          56          57          58          59          60
 IAtWgt=          12          12          12          12          12          12          12          12          12          12
 AtmWgt=  12.0000000  12.0000000  12.0000000  12.0000000  12.0000000  12.0000000  12.0000000  12.0000000  12.0000000  12.0000000
 NucSpn=           0           0           0           0           0           0           0           0           0           0
 AtZEff=  -0.0000000  -0.0000000  -0.0000000  -0.0000000  -0.0000000  -0.0000000  -0.0000000  -0.0000000  -0.0000000  -0.0000000
 NQMom=    0.0000000   0.0000000   0.0000000   0.0000000   0.0000000   0.0000000   0.0000000   0.0000000   0.0000000   0.0000000
 NMagM=    0.0000000   0.0000000   0.0000000   0.0000000   0.0000000   0.0000000   0.0000000   0.0000000   0.0000000   0.0000000
 AtZNuc=   6.0000000   6.0000000   6.0000000   6.0000000   6.0000000   6.0000000   6.0000000   6.0000000   6.0000000   6.0000000

  Atom        61          62          63          64          65          66          67          68          69          70
 IAtWgt=          12          12          12          12          12          12           1           1           1           1
 AtmWgt=  12.0000000  12.0000000  12.0000000  12.0000000  12.0000000  12.0000000   1.0078250   1.0078250   1.0078250   1.0078250
 NucSpn=           0           0           0           0           0           0           1           1           1           1
 AtZEff=  -0.0000000  -0.0000000  -0.0000000  -0.0000000  -0.0000000  -0.0000000  -0.0000000  -0.0000000  -0.0000000  -0.0000000
 NQMom=    0.0000000   0.0000000   0.0000000   0.0000000   0.0000000   0.0000000   0.0000000   0.0000000   0.0000000   0.0000000
 NMagM=    0.0000000   0.0000000   0.0000000   0.0000000   0.0000000   0.0000000   2.7928460   2.7928460   2.7928460   2.7928460
 AtZNuc=   6.0000000   6.0000000   6.0000000   6.0000000   6.0000000   6.0000000   1.0000000   1.0000000   1.0000000   1.0000000

  Atom        71          72          73          74          75          76          77          78          79          80
 IAtWgt=           1           1           1           1           1           1           1           1           1           1
 AtmWgt=   1.0078250   1.0078250   1.0078250   1.0078250   1.0078250   1.0078250   1.0078250   1.0078250   1.0078250   1.0078250
 NucSpn=           1           1           1           1           1           1           1           1           1           1
 AtZEff=  -0.0000000  -0.0000000  -0.0000000  -0.0000000  -0.0000000  -0.0000000  -0.0000000  -0.0000000  -0.0000000  -0.0000000
 NQMom=    0.0000000   0.0000000   0.0000000   0.0000000   0.0000000   0.0000000   0.0000000   0.0000000   0.0000000   0.0000000
 NMagM=    2.7928460   2.7928460   2.7928460   2.7928460   2.7928460   2.7928460   2.7928460   2.7928460   2.7928460   2.7928460
 AtZNuc=   1.0000000   1.0000000   1.0000000   1.0000000   1.0000000   1.0000000   1.0000000   1.0000000   1.0000000   1.0000000

  Atom        81          82          83          84          85          86          87          88          89          90
 IAtWgt=           1           1           1           1           1           1           1           1           1           1
 AtmWgt=   1.0078250   1.0078250   1.0078250   1.0078250   1.0078250   1.0078250   1.0078250   1.0078250   1.0078250   1.0078250
 NucSpn=           1           1           1           1           1           1           1           1           1           1
 AtZEff=  -0.0000000  -0.0000000  -0.0000000  -0.0000000  -0.0000000  -0.0000000  -0.0000000  -0.0000000  -0.0000000  -0.0000000
 NQMom=    0.0000000   0.0000000   0.0000000   0.0000000   0.0000000   0.0000000   0.0000000   0.0000000   0.0000000   0.0000000
 NMagM=    2.7928460   2.7928460   2.7928460   2.7928460   2.7928460   2.7928460   2.7928460   2.7928460   2.7928460   2.7928460
 AtZNuc=   1.0000000   1.0000000   1.0000000   1.0000000   1.0000000   1.0000000   1.0000000   1.0000000   1.0000000   1.0000000

  Atom        91          92          93          94          95          96          97          98          99         100
 IAtWgt=           1           1           1           1           1           1           1           1           1           1
 AtmWgt=   1.0078250   1.0078250   1.0078250   1.0078250   1.0078250   1.0078250   1.0078250   1.0078250   1.0078250   1.0078250
 NucSpn=           1           1           1           1           1           1           1           1           1           1
 AtZEff=  -0.0000000  -0.0000000  -0.0000000  -0.0000000  -0.0000000  -0.0000000  -0.0000000  -0.0000000  -0.0000000  -0.0000000
 NQMom=    0.0000000   0.0000000   0.0000000   0.0000000   0.0000000   0.0000000   0.0000000   0.0000000   0.0000000   0.0000000
 NMagM=    2.7928460   2.7928460   2.7928460   2.7928460   2.7928460   2.7928460   2.7928460   2.7928460   2.7928460   2.7928460
 AtZNuc=   1.0000000   1.0000000   1.0000000   1.0000000   1.0000000   1.0000000   1.0000000   1.0000000   1.0000000   1.0000000

  Atom       101         102         103         104         105         106         107         108         109         110
 IAtWgt=           1           1           1           1           1           1           1           1           1           1
 AtmWgt=   1.0078250   1.0078250   1.0078250   1.0078250   1.0078250   1.0078250   1.0078250   1.0078250   1.0078250   1.0078250
 NucSpn=           1           1           1           1           1           1           1           1           1           1
 AtZEff=  -0.0000000  -0.0000000  -0.0000000  -0.0000000  -0.0000000  -0.0000000  -0.0000000  -0.0000000  -0.0000000  -0.0000000
 NQMom=    0.0000000   0.0000000   0.0000000   0.0000000   0.0000000   0.0000000   0.0000000   0.0000000   0.0000000   0.0000000
 NMagM=    2.7928460   2.7928460   2.7928460   2.7928460   2.7928460   2.7928460   2.7928460   2.7928460   2.7928460   2.7928460
 AtZNuc=   1.0000000   1.0000000   1.0000000   1.0000000   1.0000000   1.0000000   1.0000000   1.0000000   1.0000000   1.0000000

  Atom       111         112         113         114         115         116         117         118         119         120
 IAtWgt=           1           1           1           1           1           1           1           1           1           1
 AtmWgt=   1.0078250   1.0078250   1.0078250   1.0078250   1.0078250   1.0078250   1.0078250   1.0078250   1.0078250   1.0078250
 NucSpn=           1           1           1           1           1           1           1           1           1           1
 AtZEff=  -0.0000000  -0.0000000  -0.0000000  -0.0000000  -0.0000000  -0.0000000  -0.0000000  -0.0000000  -0.0000000  -0.0000000
 NQMom=    0.0000000   0.0000000   0.0000000   0.0000000   0.0000000   0.0000000   0.0000000   0.0000000   0.0000000   0.0000000
 NMagM=    2.7928460   2.7928460   2.7928460   2.7928460   2.7928460   2.7928460   2.7928460   2.7928460   2.7928460   2.7928460
 AtZNuc=   1.0000000   1.0000000   1.0000000   1.0000000   1.0000000   1.0000000   1.0000000   1.0000000   1.0000000   1.0000000

  Atom       121         122         123         124         125         126         127         128         129         130
 IAtWgt=           1           1           1           1           1           1           1           1           1           1
 AtmWgt=   1.0078250   1.0078250   1.0078250   1.0078250   1.0078250   1.0078250   1.0078250   1.0078250   1.0078250   1.0078250
 NucSpn=           1           1           1           1           1           1           1           1           1           1
 AtZEff=  -0.0000000  -0.0000000  -0.0000000  -0.0000000  -0.0000000  -0.0000000  -0.0000000  -0.0000000  -0.0000000  -0.0000000
 NQMom=    0.0000000   0.0000000   0.0000000   0.0000000   0.0000000   0.0000000   0.0000000   0.0000000   0.0000000   0.0000000
 NMagM=    2.7928460   2.7928460   2.7928460   2.7928460   2.7928460   2.7928460   2.7928460   2.7928460   2.7928460   2.7928460
 AtZNuc=   1.0000000   1.0000000   1.0000000   1.0000000   1.0000000   1.0000000   1.0000000   1.0000000   1.0000000   1.0000000

  Atom       131         132         133         134         135         136         137         138         139         140
 IAtWgt=           1           1           1           1           1           1           1           1           1           1
 AtmWgt=   1.0078250   1.0078250   1.0078250   1.0078250   1.0078250   1.0078250   1.0078250   1.0078250   1.0078250   1.0078250
 NucSpn=           1           1           1           1           1           1           1           1           1           1
 AtZEff=  -0.0000000  -0.0000000  -0.0000000  -0.0000000  -0.0000000  -0.0000000  -0.0000000  -0.0000000  -0.0000000  -0.0000000
 NQMom=    0.0000000   0.0000000   0.0000000   0.0000000   0.0000000   0.0000000   0.0000000   0.0000000   0.0000000   0.0000000
 NMagM=    2.7928460   2.7928460   2.7928460   2.7928460   2.7928460   2.7928460   2.7928460   2.7928460   2.7928460   2.7928460
 AtZNuc=   1.0000000   1.0000000   1.0000000   1.0000000   1.0000000   1.0000000   1.0000000   1.0000000   1.0000000   1.0000000
 Leave Link  101 at Sat Apr 30 08:38:04 2022, MaxMem= 10066329600 cpu:               2.7 elap:               0.1
 (Enter /sw/apps/gaussian-16.0/g16/l202.exe)
 Stoichiometry    C55H74MgN4O6
 Framework group  C1[X(C55H74MgN4O6)]
 Deg. of freedom   414
 Full point group                 C1      NOp   1
 Largest Abelian subgroup         C1      NOp   1
 Largest concise Abelian subgroup C1      NOp   1
                         Standard orientation:                         
 ---------------------------------------------------------------------
 Center     Atomic      Atomic             Coordinates (Angstroms)
 Number     Number       Type             X           Y           Z
 ---------------------------------------------------------------------
      1         12           0       -4.101018    1.461566    0.544024
      2          6           0       -4.868512   -2.122585    0.075714
      3          6           0       -2.053762    0.268667    3.315430
      4          6           0       -3.051319    4.424114    0.870096
      5          6           0       -5.325194    2.072205   -2.691966
      6          7           0       -3.435863   -0.663031    1.412659
      7          6           0       -3.928371   -1.925346    1.114157
      8          6           0       -3.455483   -2.998209    2.071671
      9          6           0       -2.605881   -2.169887    3.136474
     10          6           0       -2.723179   -0.733298    2.572748
     11          6           0       -2.906534   -2.362816    4.662070
     12          6           0       -2.729846   -4.226542    1.423655
     13          6           0       -1.686665   -3.795315    0.287053
     14          6           0       -0.451207   -4.623172    0.095975
     15          8           0       -0.444610   -5.859948   -0.164691
     16          8           0        0.677099   -3.868183    0.361634
     17          7           0       -2.878095    2.361675    2.028046
     18          6           0       -2.065939    1.670059    2.978233
     19          6           0       -1.338572    2.632562    3.637629
     20          6           0       -1.622279    3.915865    3.043496
     21          6           0       -2.555690    3.646698    1.980372
     22          6           0       -0.430286    2.256166    4.785778
     23          6           0       -1.133466    5.282244    3.447915
     24          8           0       -0.407311    5.398678    4.480117
     25          6           0       -1.530709    6.585021    2.627262
     26          7           0       -4.266695    3.007904   -0.800442
     27          6           0       -3.689499    4.184972   -0.364849
     28          6           0       -3.813081    5.240621   -1.562025
     29          6           0       -4.383005    4.451312   -2.753478
     30          6           0       -4.680975    3.127809   -2.126083
     31          6           0       -4.691421    6.416703   -1.066486
     32          6           0       -3.430577    4.176998   -3.934204
     33          6           0       -3.648984    5.054999   -5.129612
     34          7           0       -4.932370    0.302419   -1.013291
     35          6           0       -5.515774    0.778535   -2.200345
     36          6           0       -6.148135   -0.369347   -2.875818
     37          6           0       -5.941015   -1.504379   -2.001318
     38          6           0       -5.169785   -1.045736   -0.906345
     39          6           0       -6.965379   -0.308955   -4.254425
     40          6           0       -6.273594   -2.940584   -1.804394
     41          8           0       -6.990099   -3.665191   -2.496694
     42          6           0       -5.581953   -3.336088   -0.493919
     43          6           0       -6.517888   -3.994840    0.459021
     44          8           0       -6.244473   -5.015773    1.101012
     45          8           0       -7.673081   -3.219354    0.548042
     46          6           0       -8.570972   -3.725227    1.578038
     47          6           0        2.019751   -4.359887    0.080559
     48          6           0        2.874963   -3.335128   -0.643427
     49          6           0        2.901744   -2.997514   -1.936456
     50          6           0        1.860417   -3.425990   -2.980598
     51          6           0        3.925093   -2.075945   -2.512810
     52          6           0        3.660355   -0.549187   -2.353634
     53          6           0        5.011249    0.101844   -2.650046
     54          6           0        5.808523    0.803703   -1.545620
     55          6           0        6.157672    2.244864   -1.913560
     56          6           0        7.168345    0.001289   -1.167323
     57          6           0        7.281431   -0.064196    0.379248
     58          6           0        8.511873   -0.838164    0.709948
     59          6           0        9.554648   -0.164440    1.656352
     60          6           0        9.350984   -0.552729    3.141531
     61          6           0       10.992326   -0.509360    1.211819
     62          6           0       11.766791    0.579733    0.386591
     63          6           0       12.559090   -0.129045   -0.819164
     64          6           0       14.081694    0.085299   -0.792360
     65          6           0       14.372081    1.558685   -0.934920
     66          6           0       14.786448   -0.926565   -1.782362
     67          1           0       -1.363613   -0.132684    4.060314
     68          1           0       -2.756687    5.472104    0.779972
     69          1           0       -5.833513    2.303486   -3.629531
     70          1           0       -4.396639   -3.392281    2.453453
     71          1           0       -1.581720   -2.471950    2.916102
     72          1           0       -3.836088   -2.927895    4.733987
     73          1           0       -3.242748   -1.452332    5.157696
     74          1           0       -2.063988   -2.892601    5.106060
     75          1           0       -3.503793   -4.850419    0.976081
     76          1           0       -2.097366   -4.632364    2.213332
     77          1           0       -1.460272   -2.735165    0.398952
     78          1           0       -2.309749   -3.980555   -0.588242
     79          1           0       -0.912998    1.481006    5.381562
     80          1           0       -0.255275    3.166583    5.359570
     81          1           0        0.473371    1.846726    4.335693
     82          1           0       -2.607622    6.693567    2.493523
     83          1           0       -0.902976    6.596925    1.735987
     84          1           0       -1.178925    7.384084    3.280183
     85          1           0       -2.808884    5.592011   -1.799393
     86          1           0       -5.351740    4.864602   -3.034672
     87          1           0       -5.477081    6.210318   -0.340127
     88          1           0       -5.240362    6.860728   -1.897231
     89          1           0       -4.025472    7.193805   -0.690462
     90          1           0       -3.413428    3.113761   -4.171417
     91          1           0       -2.448440    4.533981   -3.623738
     92          1           0       -4.674713    5.420639   -5.178575
     93          1           0       -3.498503    4.400543   -5.987757
     94          1           0       -2.870076    5.815209   -5.068760
     95          1           0       -6.279081   -0.531627   -5.072018
     96          1           0       -7.370573    0.697611   -4.355335
     97          1           0       -7.793804   -1.016797   -4.242348
     98          1           0       -4.787383   -4.014299   -0.804307
     99          1           0       -9.117555   -4.553539    1.128221
    100          1           0       -9.325197   -2.965635    1.783734
    101          1           0       -8.095553   -4.121402    2.475940
    102          1           0        2.103653   -5.353584   -0.358776
    103          1           0        2.425869   -4.434213    1.088985
    104          1           0        3.722069   -3.094892   -0.001187
    105          1           0        1.110575   -4.119500   -2.601276
    106          1           0        2.393570   -3.906852   -3.801097
    107          1           0        1.190644   -2.615796   -3.267075
    108          1           0        4.173066   -2.369381   -3.532580
    109          1           0        4.882223   -2.235600   -2.017096
    110          1           0        3.308796   -0.296937   -1.352614
    111          1           0        2.944161   -0.181849   -3.088830
    112          1           0        4.740975    0.750105   -3.483659
    113          1           0        5.673446   -0.611405   -3.141813
    114          1           0        5.282715    0.819018   -0.590726
    115          1           0        6.137186    2.343250   -2.998375
    116          1           0        7.076383    2.572997   -1.426918
    117          1           0        5.432693    2.951590   -1.509524
    118          1           0        8.001450    0.533475   -1.626787
    119          1           0        7.175067   -0.996259   -1.605945
    120          1           0        6.505799   -0.691140    0.817339
    121          1           0        7.204015    0.981468    0.676603
    122          1           0        8.953181   -1.064204   -0.260736
    123          1           0        8.224270   -1.787993    1.159649
    124          1           0        9.513591    0.924254    1.692930
    125          1           0        9.884474   -1.461337    3.420612
    126          1           0        8.294782   -0.652394    3.389762
    127          1           0        9.888550    0.142446    3.786620
    128          1           0       11.002311   -1.500014    0.756833
    129          1           0       11.626943   -0.672227    2.083554
    130          1           0       12.541340    1.045013    0.996371
    131          1           0       10.978903    1.271867    0.090751
    132          1           0       12.174835    0.273331   -1.756469
    133          1           0       12.340995   -1.196765   -0.847908
    134          1           0       14.310048   -0.279139    0.209042
    135          1           0       15.086371    1.806284   -1.719492
    136          1           0       14.995980    1.824697   -0.082081
    137          1           0       13.617042    2.344041   -0.910767
    138          1           0       15.363497   -1.730469   -1.325167
    139          1           0       15.509072   -0.376426   -2.384237
    140          1           0       14.117796   -1.397900   -2.504530
 ---------------------------------------------------------------------
 Rotational constants (GHZ):           0.0363197           0.0131062           0.0117779
 Leave Link  202 at Sat Apr 30 08:38:04 2022, MaxMem= 10066329600 cpu:               2.3 elap:               0.1
 (Enter /sw/apps/gaussian-16.0/g16/l301.exe)
 Standard basis: def2SVP (5D, 7F)
 Ernie: Thresh=  0.10000D-02 Tol=  0.10000D-05 Strict=F.
 There are  1364 symmetry adapted cartesian basis functions of A   symmetry.
 There are  1298 symmetry adapted basis functions of A   symmetry.
  1298 basis functions,  2180 primitive gaussians,  1364 cartesian basis functions
   246 alpha electrons      246 beta electrons
       nuclear repulsion energy      9802.6292220540 Hartrees.
 IExCor=  402 DFT=T Ex=B Corr=LYP ExCW=0 ScaHFX=  0.000000
 ScaDFX=  1.000000  1.000000  1.000000  1.000000 ScalE2=  1.000000  1.000000
 IRadAn=      5 IRanWt=     -1 IRanGd=            0 ICorTp=0 IEmpDi=  4
 NAtoms=  140 NActive=  140 NUniq=  140 SFac= 1.00D+00 NAtFMM=   60 NAOKFM=T Big=T
 Integral buffers will be    131072 words long.
 Regular integral format.
 Two-electron integral symmetry is turned on.
 Leave Link  301 at Sat Apr 30 08:38:04 2022, MaxMem= 10066329600 cpu:               1.5 elap:               0.1
 (Enter /sw/apps/gaussian-16.0/g16/l302.exe)
 NPDir=0 NMtPBC=     1 NCelOv=     1 NCel=       1 NClECP=     1 NCelD=      1
         NCelK=      1 NCelE2=     1 NClLst=     1 CellRange=     0.0.
 One-electron integrals computed using PRISM.
 One-electron integral symmetry used in STVInt
   1 Symmetry operations used in ECPInt.
 ECPInt:  NShTT=  192510 NPrTT=  683786 LenC2=  104258 LenP2D=  223852.
 LDataN:  DoStor=T MaxTD1= 4 Len=   56
 NBasis=  1298 RedAO= T EigKep=  3.05D-04  NBF=  1298
 NBsUse=  1298 1.00D-06 EigRej= -1.00D+00 NBFU=  1298
 Precomputing XC quadrature grid using
 IXCGrd= 4 IRadAn=           5 IRanWt=          -1 IRanGd=           0 AccXCQ= 0.00D+00.
 Generated NRdTot=       0 NPtTot=           0 NUsed=           0 NTot=          32
 NSgBfM=   988   981   984   987   988 MxSgAt=   140 MxSgA2=   140.
 Leave Link  302 at Sat Apr 30 08:38:07 2022, MaxMem= 10066329600 cpu:              82.6 elap:               3.5
 (Enter /sw/apps/gaussian-16.0/g16/l303.exe)
 DipDrv:  MaxL=1.
 Leave Link  303 at Sat Apr 30 08:38:08 2022, MaxMem= 10066329600 cpu:               5.9 elap:               0.3
 (Enter /sw/apps/gaussian-16.0/g16/l308.exe)
 Leave Link  308 at Sat Apr 30 08:38:08 2022, MaxMem= 10066329600 cpu:               8.7 elap:               0.4
 (Enter /sw/apps/gaussian-16.0/g16/l401.exe)
 ExpMin= 3.36D-02 ExpMax= 4.95D+03 ExpMxC= 7.45D+02 IAcc=3 IRadAn=         5 AccDes= 0.00D+00
 Harris functional with IExCor=  402 and IRadAn=       5 diagonalized for initial guess.
 HarFok:  IExCor=  402 AccDes= 0.00D+00 IRadAn=         5 IDoV= 1 UseB2=F ITyADJ=14
 ICtDFT=  3500011 ScaDFX=  1.000000  1.000000  1.000000  1.000000
 FoFCou: FMM=F IPFlag=           0 FMFlag=      100000 FMFlg1=        2001
         NFxFlg=           0 DoJE=T BraDBF=F KetDBF=T FulRan=T
         wScrn=  0.000000 ICntrl=       500 IOpCl=  0 I1Cent=   200000004 NGrid=           0
         NMat0=    1 NMatS0=      1 NMatT0=    0 NMatD0=    1 NMtDS0=    0 NMtDT0=    0
 Petite list used in FoFCou.
 Harris En= -3008.73328683605    
 JPrj=0 DoOrth=F DoCkMO=F.
 Leave Link  401 at Sat Apr 30 08:38:14 2022, MaxMem= 10066329600 cpu:             136.3 elap:               5.7
 (Enter /sw/apps/gaussian-16.0/g16/l502.exe)
 Integral symmetry usage will be decided dynamically.
 Closed shell SCF:
 Using DIIS extrapolation, IDIIS=  1040.
 NGot= 10066329600 LenX= 10062561258 LenY= 10060699398
 Requested convergence on RMS density matrix=1.00D-08 within 128 cycles.
 Requested convergence on MAX density matrix=1.00D-06.
 Requested convergence on             energy=1.00D-06.
 No special actions if energy rises.
 Fock matrices will be formed incrementally for  20 cycles.

 Cycle   1  Pass 1  IDiag  1:
 FoFJK:  IHMeth= 1 ICntrl=     500 DoSepK=F KAlg= 0 I1Cent=           0 FoldK=F
 IRaf= 550000000 NMat=       1 IRICut=       1 DoRegI=T DoRafI=F ISym2E= 0 IDoP0=0 IntGTp=1.
 FoFCou: FMM=T IPFlag=           0 FMFlag=      100000 FMFlg1=        2001
         NFxFlg=           0 DoJE=T BraDBF=F KetDBF=F FulRan=T
         wScrn=  0.000000 ICntrl=       500 IOpCl=  0 I1Cent=           0 NGrid=           0
         NMat0=    1 NMatS0=      1 NMatT0=    0 NMatD0=    1 NMtDS0=    0 NMtDT0=    0
 Symmetry not used in FoFCou.
 FMM levels:  10  Number of levels for PrismC:   9
 E= -3005.66362981221    
 DIIS: error= 2.61D-02 at cycle   1 NSaved=   1.
 NSaved= 1 IEnMin= 1 EnMin= -3005.66362981221     IErMin= 1 ErrMin= 2.61D-02
 ErrMax= 2.61D-02  0.00D+00 EMaxC= 1.00D-01 BMatC= 1.54D+00 BMatP= 1.54D+00
 IDIUse=3 WtCom= 7.39D-01 WtEn= 2.61D-01
 Coeff-Com:  0.100D+01
 Coeff-En:   0.100D+01
 Coeff:      0.100D+01
 Gap=     0.048 Goal=   None    Shift=    0.000
 GapD=    0.048 DampG=0.250 DampE=0.500 DampFc=0.2500 IDamp=-1.
 Damping current iteration by 2.50D-01
 RMSDP=4.12D-03 MaxDP=1.43D+00              OVMax= 9.15D-01

 Cycle   2  Pass 1  IDiag  1:
 RMSU=  1.03D-03    CP:  9.91D-01
 E= -3006.13589562121     Delta-E=       -0.472265808994 Rises=F Damp=T
 DIIS: error= 1.07D-02 at cycle   2 NSaved=   2.
 NSaved= 2 IEnMin= 2 EnMin= -3006.13589562121     IErMin= 2 ErrMin= 1.07D-02
 ErrMax= 1.07D-02  0.00D+00 EMaxC= 1.00D-01 BMatC= 2.63D-01 BMatP= 1.54D+00
 IDIUse=3 WtCom= 8.93D-01 WtEn= 1.07D-01
 Coeff-Com: -0.235D+00 0.124D+01
 Coeff-En:   0.140D+00 0.860D+00
 Coeff:     -0.195D+00 0.119D+01
 Gap=     0.159 Goal=   None    Shift=    0.000
 RMSDP=1.69D-03 MaxDP=2.10D-01 DE=-4.72D-01 OVMax= 5.97D-01

 Cycle   3  Pass 1  IDiag  1:
 RMSU=  1.67D-03    CP:  9.66D-01  1.14D+00
 E= -3004.40844570003     Delta-E=        1.727449921174 Rises=F Damp=F
 DIIS: error= 4.42D-02 at cycle   3 NSaved=   3.
 NSaved= 3 IEnMin= 2 EnMin= -3006.13589562121     IErMin= 2 ErrMin= 1.07D-02
 ErrMax= 4.42D-02  0.00D+00 EMaxC= 1.00D-01 BMatC= 2.00D+00 BMatP= 2.63D-01
 IDIUse=2 WtCom= 0.00D+00 WtEn= 1.00D+00
 Coeff-En:   0.000D+00 0.743D+00 0.257D+00
 Coeff:      0.000D+00 0.743D+00 0.257D+00
 Gap=    -0.081 Goal=   None    Shift=    0.000
 RMSDP=2.16D-03 MaxDP=4.63D-01 DE= 1.73D+00 OVMax= 7.18D-01

 Cycle   4  Pass 1  IDiag  1:
 RMSU=  1.10D-03    CP:  9.71D-01  1.87D+00 -2.40D-02
 E= -3004.95517312676     Delta-E=       -0.546727426725 Rises=F Damp=F
 DIIS: error= 3.21D-02 at cycle   4 NSaved=   4.
 NSaved= 4 IEnMin= 2 EnMin= -3006.13589562121     IErMin= 2 ErrMin= 1.07D-02
 ErrMax= 3.21D-02  0.00D+00 EMaxC= 1.00D-01 BMatC= 1.36D+00 BMatP= 2.63D-01
 IDIUse=2 WtCom= 0.00D+00 WtEn= 1.00D+00
 EnCoef did     2 forward-backward iterations
 Coeff-En:   0.148D+00 0.000D+00 0.388D+00 0.464D+00
 Coeff:      0.148D+00 0.000D+00 0.388D+00 0.464D+00
 Gap=     0.095 Goal=   None    Shift=    0.000
 RMSDP=1.60D-03 MaxDP=3.49D-01 DE=-5.47D-01 OVMax= 6.71D-01

 Cycle   5  Pass 1  IDiag  1:
 RMSU=  9.03D-04    CP:  9.80D-01  1.18D+00  1.42D-01  2.56D-02
 E= -3006.80246433001     Delta-E=       -1.847291203254 Rises=F Damp=F
 DIIS: error= 1.85D-02 at cycle   5 NSaved=   5.
 NSaved= 5 IEnMin= 5 EnMin= -3006.80246433001     IErMin= 2 ErrMin= 1.07D-02
 ErrMax= 1.85D-02  0.00D+00 EMaxC= 1.00D-01 BMatC= 4.74D-01 BMatP= 2.63D-01
 IDIUse=2 WtCom= 0.00D+00 WtEn= 1.00D+00
 EnCoef did     8 forward-backward iterations
 Coeff-En:   0.000D+00 0.000D+00 0.187D+00 0.284D+00 0.529D+00
 Coeff:      0.000D+00 0.000D+00 0.187D+00 0.284D+00 0.529D+00
 Gap=     0.131 Goal=   None    Shift=    0.000
 RMSDP=1.56D-03 MaxDP=3.29D-01 DE=-1.85D+00 OVMax= 6.93D-01

 Cycle   6  Pass 1  IDiag  1:
 RMSU=  1.06D-03    CP:  9.75D-01  6.99D-01  3.16D-01  3.46D-01 -1.31D-02
 E= -3006.26061705574     Delta-E=        0.541847274268 Rises=F Damp=F
 DIIS: error= 3.49D-02 at cycle   6 NSaved=   6.
 NSaved= 6 IEnMin= 5 EnMin= -3006.80246433001     IErMin= 2 ErrMin= 1.07D-02
 ErrMax= 3.49D-02  0.00D+00 EMaxC= 1.00D-01 BMatC= 9.69D-01 BMatP= 2.63D-01
 IDIUse=2 WtCom= 0.00D+00 WtEn= 1.00D+00
 EnCoef did     3 forward-backward iterations
 Coeff-En:   0.000D+00 0.000D+00 0.000D+00 0.627D-01 0.587D+00 0.350D+00
 Coeff:      0.000D+00 0.000D+00 0.000D+00 0.627D-01 0.587D+00 0.350D+00
 Gap=     0.075 Goal=   None    Shift=    0.000
 RMSDP=1.14D-03 MaxDP=1.22D-01 DE= 5.42D-01 OVMax= 7.03D-01

 Cycle   7  Pass 1  IDiag  1:
 RMSU=  7.70D-04    CP:  9.76D-01  1.09D+00  2.46D-01  1.46D-01  3.48D-01
                    CP:  4.17D-01
 E= -3007.16062946850     Delta-E=       -0.900012412754 Rises=F Damp=F
 DIIS: error= 1.05D-02 at cycle   7 NSaved=   7.
 NSaved= 7 IEnMin= 7 EnMin= -3007.16062946850     IErMin= 7 ErrMin= 1.05D-02
 ErrMax= 1.05D-02  0.00D+00 EMaxC= 1.00D-01 BMatC= 1.90D-01 BMatP= 2.63D-01
 IDIUse=3 WtCom= 8.95D-01 WtEn= 1.05D-01
 EnCoef did     2 forward-backward iterations
 Coeff-Com: -0.428D-01 0.184D+00 0.596D-01 0.631D-01 0.308D+00 0.167D+00
 Coeff-Com:  0.261D+00
 Coeff-En:   0.000D+00 0.000D+00 0.000D+00 0.000D+00 0.324D+00 0.138D+00
 Coeff-En:   0.538D+00
 Coeff:     -0.383D-01 0.165D+00 0.534D-01 0.565D-01 0.309D+00 0.164D+00
 Coeff:      0.290D+00
 Gap=     0.088 Goal=   None    Shift=    0.000
 RMSDP=7.50D-04 MaxDP=1.01D-01 DE=-9.00D-01 OVMax= 4.18D-01

 Cycle   8  Pass 1  IDiag  1:
 RMSU=  4.65D-04    CP:  9.78D-01  1.12D+00  1.90D-01  1.87D-01  3.01D-01
                    CP:  3.83D-01  2.52D-01
 E= -3007.23067852000     Delta-E=       -0.070049051506 Rises=F Damp=F
 DIIS: error= 9.94D-03 at cycle   8 NSaved=   8.
 NSaved= 8 IEnMin= 8 EnMin= -3007.23067852000     IErMin= 8 ErrMin= 9.94D-03
 ErrMax= 9.94D-03  0.00D+00 EMaxC= 1.00D-01 BMatC= 9.51D-02 BMatP= 1.90D-01
 IDIUse=3 WtCom= 9.01D-01 WtEn= 9.94D-02
 EnCoef did     3 forward-backward iterations
 Coeff-Com: -0.209D-01 0.131D+00 0.132D-01-0.490D-02 0.143D+00 0.269D-01
 Coeff-Com:  0.333D+00 0.379D+00
 Coeff-En:   0.000D+00 0.000D+00 0.000D+00 0.000D+00 0.864D-01 0.000D+00
 Coeff-En:   0.390D+00 0.524D+00
 Coeff:     -0.188D-01 0.118D+00 0.119D-01-0.442D-02 0.137D+00 0.243D-01
 Coeff:      0.338D+00 0.394D+00
 Gap=     0.027 Goal=   None    Shift=    0.000
 RMSDP=5.27D-04 MaxDP=4.58D-02 DE=-7.00D-02 OVMax= 4.40D-01

 Cycle   9  Pass 1  IDiag  1:
 RMSU=  2.67D-04    CP:  9.79D-01  1.09D+00  2.19D-01  7.01D-02  4.31D-01
                    CP:  2.79D-01  5.91D-01  3.45D-01
 E= -3007.31878945470     Delta-E=       -0.088110934696 Rises=F Damp=F
 DIIS: error= 6.14D-03 at cycle   9 NSaved=   9.
 NSaved= 9 IEnMin= 9 EnMin= -3007.31878945470     IErMin= 9 ErrMin= 6.14D-03
 ErrMax= 6.14D-03  0.00D+00 EMaxC= 1.00D-01 BMatC= 2.71D-02 BMatP= 9.51D-02
 IDIUse=3 WtCom= 9.39D-01 WtEn= 6.14D-02
 EnCoef did     4 forward-backward iterations
 Coeff-Com: -0.698D-02 0.702D-01-0.379D-02-0.387D-02 0.463D-01-0.107D-01
 Coeff-Com:  0.224D+00 0.351D+00 0.334D+00
 Coeff-En:   0.000D+00 0.000D+00 0.000D+00 0.000D+00 0.000D+00 0.000D+00
 Coeff-En:   0.257D-01 0.306D+00 0.668D+00
 Coeff:     -0.655D-02 0.659D-01-0.356D-02-0.363D-02 0.435D-01-0.100D-01
 Coeff:      0.212D+00 0.348D+00 0.354D+00
 Gap=     0.038 Goal=   None    Shift=    0.000
 RMSDP=2.67D-04 MaxDP=2.24D-02 DE=-8.81D-02 OVMax= 2.18D-01

 Cycle  10  Pass 1  IDiag  1:
 RMSU=  1.18D-04    CP:  9.79D-01  1.10D+00  1.90D-01  1.05D-01  4.01D-01
                    CP:  3.08D-01  5.54D-01  6.31D-01  3.16D-01
 E= -3007.35177198796     Delta-E=       -0.032982533259 Rises=F Damp=F
 DIIS: error= 2.55D-03 at cycle  10 NSaved=  10.
 NSaved=10 IEnMin=10 EnMin= -3007.35177198796     IErMin=10 ErrMin= 2.55D-03
 ErrMax= 2.55D-03  0.00D+00 EMaxC= 1.00D-01 BMatC= 5.44D-03 BMatP= 2.71D-02
 IDIUse=3 WtCom= 9.75D-01 WtEn= 2.55D-02
 Coeff-Com:  0.503D-02 0.183D-01-0.506D-02 0.465D-02 0.196D-01-0.121D-01
 Coeff-Com:  0.130D+00 0.218D+00 0.294D+00 0.328D+00
 Coeff-En:   0.000D+00 0.000D+00 0.000D+00 0.000D+00 0.000D+00 0.000D+00
 Coeff-En:   0.000D+00 0.000D+00 0.210D+00 0.790D+00
 Coeff:      0.490D-02 0.179D-01-0.493D-02 0.453D-02 0.191D-01-0.118D-01
 Coeff:      0.127D+00 0.212D+00 0.292D+00 0.339D+00
 Gap=     0.039 Goal=   None    Shift=    0.000
 RMSDP=1.21D-04 MaxDP=1.06D-02 DE=-3.30D-02 OVMax= 8.86D-02

 Cycle  11  Pass 1  IDiag  1:
 RMSU=  6.25D-05    CP:  9.79D-01  1.11D+00  1.88D-01  1.10D-01  3.93D-01
                    CP:  2.99D-01  5.62D-01  5.53D-01  4.95D-01  3.02D-01
 E= -3007.35732826699     Delta-E=       -0.005556279028 Rises=F Damp=F
 DIIS: error= 1.10D-03 at cycle  11 NSaved=  11.
 NSaved=11 IEnMin=11 EnMin= -3007.35732826699     IErMin=11 ErrMin= 1.10D-03
 ErrMax= 1.10D-03  0.00D+00 EMaxC= 1.00D-01 BMatC= 1.46D-03 BMatP= 5.44D-03
 IDIUse=3 WtCom= 9.89D-01 WtEn= 1.10D-02
 Coeff-Com:  0.266D-02 0.599D-02-0.366D-02 0.369D-02 0.258D-02-0.586D-02
 Coeff-Com:  0.509D-01 0.867D-01 0.158D+00 0.315D+00 0.384D+00
 Coeff-En:   0.000D+00 0.000D+00 0.000D+00 0.000D+00 0.000D+00 0.000D+00
 Coeff-En:   0.000D+00 0.000D+00 0.000D+00 0.271D+00 0.729D+00
 Coeff:      0.263D-02 0.592D-02-0.362D-02 0.365D-02 0.256D-02-0.580D-02
 Coeff:      0.504D-01 0.858D-01 0.156D+00 0.315D+00 0.387D+00
 Gap=     0.040 Goal=   None    Shift=    0.000
 RMSDP=6.00D-05 MaxDP=5.37D-03 DE=-5.56D-03 OVMax= 4.49D-02

 Cycle  12  Pass 1  IDiag  1:
 RMSU=  2.80D-05    CP:  9.79D-01  1.11D+00  1.91D-01  1.04D-01  3.98D-01
                    CP:  3.02D-01  5.71D-01  5.74D-01  4.68D-01  5.46D-01
                    CP:  3.44D-01
 E= -3007.35878565032     Delta-E=       -0.001457383332 Rises=F Damp=F
 DIIS: error= 5.40D-04 at cycle  12 NSaved=  12.
 NSaved=12 IEnMin=12 EnMin= -3007.35878565032     IErMin=12 ErrMin= 5.40D-04
 ErrMax= 5.40D-04  0.00D+00 EMaxC= 1.00D-01 BMatC= 3.00D-04 BMatP= 1.46D-03
 IDIUse=3 WtCom= 9.95D-01 WtEn= 5.40D-03
 Coeff-Com: -0.228D-02 0.706D-02-0.248D-02 0.198D-02-0.161D-02 0.902D-03
 Coeff-Com:  0.103D-01 0.149D-01 0.524D-01 0.172D+00 0.321D+00 0.426D+00
 Coeff-En:   0.000D+00 0.000D+00 0.000D+00 0.000D+00 0.000D+00 0.000D+00
 Coeff-En:   0.000D+00 0.000D+00 0.000D+00 0.000D+00 0.220D+00 0.780D+00
 Coeff:     -0.227D-02 0.702D-02-0.247D-02 0.197D-02-0.160D-02 0.897D-03
 Coeff:      0.102D-01 0.148D-01 0.521D-01 0.171D+00 0.321D+00 0.427D+00
 Gap=     0.040 Goal=   None    Shift=    0.000
 RMSDP=2.68D-05 MaxDP=2.15D-03 DE=-1.46D-03 OVMax= 1.88D-02

 Cycle  13  Pass 1  IDiag  1:
 RMSU=  1.23D-05    CP:  9.79D-01  1.11D+00  1.89D-01  1.08D-01  3.94D-01
                    CP:  3.07D-01  5.71D-01  5.74D-01  4.57D-01  4.89D-01
                    CP:  5.40D-01  3.94D-01
 E= -3007.35913148825     Delta-E=       -0.000345837936 Rises=F Damp=F
 DIIS: error= 1.73D-04 at cycle  13 NSaved=  13.
 NSaved=13 IEnMin=13 EnMin= -3007.35913148825     IErMin=13 ErrMin= 1.73D-04
 ErrMax= 1.73D-04  0.00D+00 EMaxC= 1.00D-01 BMatC= 5.88D-05 BMatP= 3.00D-04
 IDIUse=3 WtCom= 9.98D-01 WtEn= 1.73D-03
 Coeff-Com: -0.379D-02 0.853D-02-0.127D-02 0.466D-03-0.144D-02 0.158D-02
 Coeff-Com:  0.122D-02-0.179D-02 0.164D-01 0.751D-01 0.161D+00 0.327D+00
 Coeff-Com:  0.417D+00
 Coeff-En:   0.000D+00 0.000D+00 0.000D+00 0.000D+00 0.000D+00 0.000D+00
 Coeff-En:   0.000D+00 0.000D+00 0.000D+00 0.000D+00 0.000D+00 0.169D+00
 Coeff-En:   0.831D+00
 Coeff:     -0.378D-02 0.851D-02-0.127D-02 0.466D-03-0.144D-02 0.158D-02
 Coeff:      0.122D-02-0.178D-02 0.164D-01 0.749D-01 0.161D+00 0.327D+00
 Coeff:      0.417D+00
 Gap=     0.040 Goal=   None    Shift=    0.000
 RMSDP=8.89D-06 MaxDP=9.34D-04 DE=-3.46D-04 OVMax= 4.76D-03

 Cycle  14  Pass 1  IDiag  1:
 RMSU=  5.17D-06    CP:  9.79D-01  1.11D+00  1.89D-01  1.07D-01  3.95D-01
                    CP:  3.07D-01  5.71D-01  5.74D-01  4.60D-01  5.00D-01
                    CP:  5.05D-01  5.15D-01  5.41D-01
 E= -3007.35918396767     Delta-E=       -0.000052479416 Rises=F Damp=F
 DIIS: error= 1.16D-04 at cycle  14 NSaved=  14.
 NSaved=14 IEnMin=14 EnMin= -3007.35918396767     IErMin=14 ErrMin= 1.16D-04
 ErrMax= 1.16D-04  0.00D+00 EMaxC= 1.00D-01 BMatC= 1.35D-05 BMatP= 5.88D-05
 IDIUse=3 WtCom= 9.99D-01 WtEn= 1.16D-03
 Coeff-Com: -0.260D-02 0.553D-02-0.506D-03 0.116D-03-0.466D-03 0.725D-03
 Coeff-Com: -0.537D-04-0.447D-02 0.264D-02 0.164D-01 0.326D-01 0.147D+00
 Coeff-Com:  0.323D+00 0.480D+00
 Coeff-En:   0.000D+00 0.000D+00 0.000D+00 0.000D+00 0.000D+00 0.000D+00
 Coeff-En:   0.000D+00 0.000D+00 0.000D+00 0.000D+00 0.000D+00 0.000D+00
 Coeff-En:   0.116D+00 0.884D+00
 Coeff:     -0.260D-02 0.553D-02-0.505D-03 0.116D-03-0.465D-03 0.725D-03
 Coeff:     -0.537D-04-0.447D-02 0.264D-02 0.164D-01 0.326D-01 0.147D+00
 Coeff:      0.323D+00 0.480D+00
 Gap=     0.040 Goal=   None    Shift=    0.000
 RMSDP=3.72D-06 MaxDP=4.30D-04 DE=-5.25D-05 OVMax= 1.36D-03

 Cycle  15  Pass 1  IDiag  1:
 RMSU=  2.67D-06    CP:  9.79D-01  1.11D+00  1.89D-01  1.07D-01  3.95D-01
                    CP:  3.07D-01  5.73D-01  5.73D-01  4.60D-01  5.00D-01
                    CP:  5.09D-01  5.20D-01  6.27D-01  6.09D-01
 E= -3007.35919404470     Delta-E=       -0.000010077027 Rises=F Damp=F
 DIIS: error= 6.50D-05 at cycle  15 NSaved=  15.
 NSaved=15 IEnMin=15 EnMin= -3007.35919404470     IErMin=15 ErrMin= 6.50D-05
 ErrMax= 6.50D-05  0.00D+00 EMaxC= 1.00D-01 BMatC= 4.07D-06 BMatP= 1.35D-05
 IDIUse=1 WtCom= 1.00D+00 WtEn= 0.00D+00
 Coeff-Com: -0.127D-02 0.260D-02-0.142D-03-0.686D-05 0.134D-03 0.770D-04
 Coeff-Com:  0.209D-03-0.344D-02-0.174D-02-0.827D-02-0.268D-01 0.270D-01
 Coeff-Com:  0.150D+00 0.390D+00 0.473D+00
 Coeff:     -0.127D-02 0.260D-02-0.142D-03-0.686D-05 0.134D-03 0.770D-04
 Coeff:      0.209D-03-0.344D-02-0.174D-02-0.827D-02-0.268D-01 0.270D-01
 Coeff:      0.150D+00 0.390D+00 0.473D+00
 Gap=     0.040 Goal=   None    Shift=    0.000
 RMSDP=2.22D-06 MaxDP=2.60D-04 DE=-1.01D-05 OVMax= 7.57D-04

 Cycle  16  Pass 1  IDiag  1:
 RMSU=  1.34D-06    CP:  9.79D-01  1.11D+00  1.89D-01  1.07D-01  3.96D-01
                    CP:  3.07D-01  5.74D-01  5.72D-01  4.59D-01  5.03D-01
                    CP:  5.01D-01  5.30D-01  6.56D-01  7.27D-01  6.48D-01
 E= -3007.35919740735     Delta-E=       -0.000003362653 Rises=F Damp=F
 DIIS: error= 2.76D-05 at cycle  16 NSaved=  16.
 NSaved=16 IEnMin=16 EnMin= -3007.35919740735     IErMin=16 ErrMin= 2.76D-05
 ErrMax= 2.76D-05  0.00D+00 EMaxC= 1.00D-01 BMatC= 8.45D-07 BMatP= 4.07D-06
 IDIUse=1 WtCom= 1.00D+00 WtEn= 0.00D+00
 Coeff-Com: -0.459D-03 0.903D-03-0.489D-04 0.140D-04 0.190D-03-0.152D-03
 Coeff-Com:  0.372D-03-0.176D-02-0.158D-02-0.108D-01-0.321D-01-0.140D-01
 Coeff-Com:  0.443D-01 0.201D+00 0.365D+00 0.449D+00
 Coeff:     -0.459D-03 0.903D-03-0.489D-04 0.140D-04 0.190D-03-0.152D-03
 Coeff:      0.372D-03-0.176D-02-0.158D-02-0.108D-01-0.321D-01-0.140D-01
 Coeff:      0.443D-01 0.201D+00 0.365D+00 0.449D+00
 Gap=     0.040 Goal=   None    Shift=    0.000
 RMSDP=1.06D-06 MaxDP=1.36D-04 DE=-3.36D-06 OVMax= 3.43D-04

 Cycle  17  Pass 1  IDiag  1:
 RMSU=  6.17D-07    CP:  9.79D-01  1.11D+00  1.89D-01  1.07D-01  3.96D-01
                    CP:  3.07D-01  5.74D-01  5.72D-01  4.60D-01  5.03D-01
                    CP:  4.98D-01  5.36D-01  6.84D-01  7.45D-01  7.21D-01
                    CP:  5.57D-01
 E= -3007.35919813918     Delta-E=       -0.000000731834 Rises=F Damp=F
 DIIS: error= 1.02D-05 at cycle  17 NSaved=  17.
 NSaved=17 IEnMin=17 EnMin= -3007.35919813918     IErMin=17 ErrMin= 1.02D-05
 ErrMax= 1.02D-05  0.00D+00 EMaxC= 1.00D-01 BMatC= 1.36D-07 BMatP= 8.45D-07
 IDIUse=1 WtCom= 1.00D+00 WtEn= 0.00D+00
 Coeff-Com: -0.135D-03 0.251D-03-0.217D-04 0.138D-04 0.968D-04-0.875D-04
 Coeff-Com:  0.244D-03-0.764D-03-0.772D-03-0.620D-02-0.180D-01-0.148D-01
 Coeff-Com:  0.221D-02 0.644D-01 0.157D+00 0.324D+00 0.493D+00
 Coeff:     -0.135D-03 0.251D-03-0.217D-04 0.138D-04 0.968D-04-0.875D-04
 Coeff:      0.244D-03-0.764D-03-0.772D-03-0.620D-02-0.180D-01-0.148D-01
 Coeff:      0.221D-02 0.644D-01 0.157D+00 0.324D+00 0.493D+00
 Gap=     0.040 Goal=   None    Shift=    0.000
 RMSDP=4.38D-07 MaxDP=4.48D-05 DE=-7.32D-07 OVMax= 1.61D-04

 Cycle  18  Pass 1  IDiag  1:
 RMSU=  2.85D-07    CP:  9.79D-01  1.11D+00  1.88D-01  1.07D-01  3.96D-01
                    CP:  3.07D-01  5.74D-01  5.72D-01  4.60D-01  5.04D-01
                    CP:  4.98D-01  5.38D-01  6.88D-01  7.58D-01  7.08D-01
                    CP:  6.37D-01  6.78D-01
 E= -3007.35919824595     Delta-E=       -0.000000106769 Rises=F Damp=F
 DIIS: error= 3.64D-06 at cycle  18 NSaved=  18.
 NSaved=18 IEnMin=18 EnMin= -3007.35919824595     IErMin=18 ErrMin= 3.64D-06
 ErrMax= 3.64D-06  0.00D+00 EMaxC= 1.00D-01 BMatC= 3.33D-08 BMatP= 1.36D-07
 IDIUse=1 WtCom= 1.00D+00 WtEn= 0.00D+00
 Coeff-Com: -0.115D-04 0.189D-04-0.617D-05 0.408D-05 0.288D-04-0.325D-04
 Coeff-Com:  0.125D-03-0.196D-03-0.259D-03-0.273D-02-0.739D-02-0.954D-02
 Coeff-Com: -0.100D-01 0.214D-02 0.364D-01 0.153D+00 0.395D+00 0.444D+00
 Coeff:     -0.115D-04 0.189D-04-0.617D-05 0.408D-05 0.288D-04-0.325D-04
 Coeff:      0.125D-03-0.196D-03-0.259D-03-0.273D-02-0.739D-02-0.954D-02
 Coeff:     -0.100D-01 0.214D-02 0.364D-01 0.153D+00 0.395D+00 0.444D+00
 Gap=     0.040 Goal=   None    Shift=    0.000
 RMSDP=2.29D-07 MaxDP=1.93D-05 DE=-1.07D-07 OVMax= 8.43D-05

 Cycle  19  Pass 1  IDiag  1:
 RMSU=  1.14D-07    CP:  9.79D-01  1.11D+00  1.88D-01  1.07D-01  3.96D-01
                    CP:  3.07D-01  5.74D-01  5.72D-01  4.60D-01  5.03D-01
                    CP:  4.98D-01  5.38D-01  6.90D-01  7.63D-01  7.38D-01
                    CP:  6.49D-01  7.69D-01  4.91D-01
 E= -3007.35919827838     Delta-E=       -0.000000032427 Rises=F Damp=F
 DIIS: error= 1.88D-06 at cycle  19 NSaved=  19.
 NSaved=19 IEnMin=19 EnMin= -3007.35919827838     IErMin=19 ErrMin= 1.88D-06
 ErrMax= 1.88D-06  0.00D+00 EMaxC= 1.00D-01 BMatC= 4.56D-09 BMatP= 3.33D-08
 IDIUse=1 WtCom= 1.00D+00 WtEn= 0.00D+00
 Coeff-Com:  0.425D-05-0.900D-05-0.262D-05 0.373D-05 0.104D-04-0.127D-04
 Coeff-Com:  0.676D-04-0.646D-04-0.837D-04-0.124D-02-0.320D-02-0.495D-02
 Coeff-Com: -0.718D-02-0.586D-02 0.791D-02 0.729D-01 0.229D+00 0.330D+00
 Coeff-Com:  0.382D+00
 Coeff:      0.425D-05-0.900D-05-0.262D-05 0.373D-05 0.104D-04-0.127D-04
 Coeff:      0.676D-04-0.646D-04-0.837D-04-0.124D-02-0.320D-02-0.495D-02
 Coeff:     -0.718D-02-0.586D-02 0.791D-02 0.729D-01 0.229D+00 0.330D+00
 Coeff:      0.382D+00
 Gap=     0.040 Goal=   None    Shift=    0.000
 RMSDP=8.21D-08 MaxDP=8.67D-06 DE=-3.24D-08 OVMax= 2.73D-05

 Cycle  20  Pass 1  IDiag  1:
 RMSU=  4.18D-08    CP:  9.79D-01  1.11D+00  1.88D-01  1.07D-01  3.96D-01
                    CP:  3.07D-01  5.74D-01  5.72D-01  4.60D-01  5.03D-01
                    CP:  4.98D-01  5.38D-01  6.90D-01  7.65D-01  7.37D-01
                    CP:  6.59D-01  7.50D-01  5.58D-01  4.73D-01
 E= -3007.35919828330     Delta-E=       -0.000000004920 Rises=F Damp=F
 DIIS: error= 5.03D-07 at cycle  20 NSaved=  20.
 NSaved=20 IEnMin=20 EnMin= -3007.35919828330     IErMin=20 ErrMin= 5.03D-07
 ErrMax= 5.03D-07  0.00D+00 EMaxC= 1.00D-01 BMatC= 4.01D-10 BMatP= 4.56D-09
 IDIUse=1 WtCom= 1.00D+00 WtEn= 0.00D+00
 Coeff-Com:  0.456D-05-0.911D-05-0.931D-06 0.184D-05 0.143D-05-0.370D-05
 Coeff-Com:  0.248D-04-0.174D-04-0.175D-04-0.442D-03-0.108D-02-0.196D-02
 Coeff-Com: -0.353D-02-0.469D-02-0.407D-03 0.260D-01 0.971D-01 0.157D+00
 Coeff-Com:  0.259D+00 0.473D+00
 Coeff:      0.456D-05-0.911D-05-0.931D-06 0.184D-05 0.143D-05-0.370D-05
 Coeff:      0.248D-04-0.174D-04-0.175D-04-0.442D-03-0.108D-02-0.196D-02
 Coeff:     -0.353D-02-0.469D-02-0.407D-03 0.260D-01 0.971D-01 0.157D+00
 Coeff:      0.259D+00 0.473D+00
 Gap=     0.040 Goal=   None    Shift=    0.000
 RMSDP=2.66D-08 MaxDP=2.25D-06 DE=-4.92D-09 OVMax= 8.72D-06

 Cycle  21  Pass 1  IDiag  1:
 Restarting incremental Fock formation.
 E= -3007.35919828362     Delta-E=       -0.000000000315 Rises=F Damp=F
 DIIS: error= 2.32D-07 at cycle  21 NSaved=  20.
 NSaved=20 IEnMin=20 EnMin= -3007.35919828362     IErMin=20 ErrMin= 2.32D-07
 ErrMax= 2.32D-07  0.00D+00 EMaxC= 1.00D-01 BMatC= 9.75D-11 BMatP= 4.01D-10
 IDIUse=1 WtCom= 1.00D+00 WtEn= 0.00D+00
 Coeff-Com:  0.220D-05-0.430D-05 0.515D-06 0.229D-06-0.810D-06 0.906D-05
 Coeff-Com: -0.632D-05-0.568D-05-0.184D-03-0.419D-03-0.856D-03-0.178D-02
 Coeff-Com: -0.288D-02-0.139D-02 0.101D-01 0.442D-01 0.762D-01 0.147D+00
 Coeff-Com:  0.362D+00 0.368D+00
 Coeff:      0.220D-05-0.430D-05 0.515D-06 0.229D-06-0.810D-06 0.906D-05
 Coeff:     -0.632D-05-0.568D-05-0.184D-03-0.419D-03-0.856D-03-0.178D-02
 Coeff:     -0.288D-02-0.139D-02 0.101D-01 0.442D-01 0.762D-01 0.147D+00
 Coeff:      0.362D+00 0.368D+00
 Gap=     0.040 Goal=   None    Shift=    0.000
 RMSDP=1.14D-08 MaxDP=1.59D-06 DE=-3.15D-10 OVMax= 3.20D-06

 Cycle  22  Pass 1  IDiag  1:
 RMSU=  1.14D-08    CP:  1.00D+00
 E= -3007.35919828368     Delta-E=       -0.000000000060 Rises=F Damp=F
 DIIS: error= 5.52D-08 at cycle  22 NSaved=  20.
 NSaved=20 IEnMin=20 EnMin= -3007.35919828368     IErMin=20 ErrMin= 5.52D-08
 ErrMax= 5.52D-08  0.00D+00 EMaxC= 1.00D-01 BMatC= 7.98D-12 BMatP= 9.75D-11
 IDIUse=1 WtCom= 1.00D+00 WtEn= 0.00D+00
 Coeff-Com:  0.352D-06-0.667D-06-0.134D-06-0.287D-06 0.336D-05-0.256D-05
 Coeff-Com:  0.629D-06-0.685D-04-0.151D-03-0.316D-03-0.722D-03-0.128D-02
 Coeff-Com: -0.760D-03 0.372D-02 0.184D-01 0.324D-01 0.686D-01 0.191D+00
 Coeff-Com:  0.253D+00 0.437D+00
 Coeff:      0.352D-06-0.667D-06-0.134D-06-0.287D-06 0.336D-05-0.256D-05
 Coeff:      0.629D-06-0.685D-04-0.151D-03-0.316D-03-0.722D-03-0.128D-02
 Coeff:     -0.760D-03 0.372D-02 0.184D-01 0.324D-01 0.686D-01 0.191D+00
 Coeff:      0.253D+00 0.437D+00
 Gap=     0.040 Goal=   None    Shift=    0.000
 RMSDP=3.68D-09 MaxDP=7.21D-07 DE=-6.00D-11 OVMax= 1.18D-06

 SCF Done:  E(RB-LYP) =  -3007.35919828     A.U. after   22 cycles
            NFock= 22  Conv=0.37D-08     -V/T= 2.0102
 KE= 2.976931592956D+03 PE=-2.659940316506D+04 EE= 1.081248315176D+04
 Leave Link  502 at Sat Apr 30 08:42:44 2022, MaxMem= 10066329600 cpu:            6466.6 elap:             270.4
 (Enter /sw/apps/gaussian-16.0/g16/l801.exe)
 DoSCS=F DFT=T ScalE2(SS,OS)=  1.000000  1.000000
 ExpMin= 3.36D-02 ExpMax= 4.95D+03 ExpMxC= 7.45D+02 IAcc=3 IRadAn=         5 AccDes= 0.00D+00
 HarFok:  IExCor=  205 AccDes= 0.00D+00 IRadAn=         5 IDoV=-2 UseB2=F ITyADJ=14
 ICtDFT= 12500011 ScaDFX=  1.000000  1.000000  1.000000  1.000000
 GSVD:  LWork=       -5460 too small for GESVD, short by       25550 words or       25550 for optimal perf.
 Largest valence mixing into a core orbital is  1.23D-04
 Largest core mixing into a valence orbital is  4.49D-05
 Range of M.O.s used for correlation:    71  1298
 NBasis=  1298 NAE=   246 NBE=   246 NFC=    70 NFV=     0
 NROrb=   1228 NOA=   176 NOB=   176 NVA=  1052 NVB=  1052

 **** Warning!!: The smallest alpha delta epsilon is  0.39976208D-01

 Leave Link  801 at Sat Apr 30 08:42:44 2022, MaxMem= 10066329600 cpu:               6.1 elap:               0.3
 (Enter /sw/apps/gaussian-16.0/g16/l914.exe)
 RHF ground state
 Two-electron integrals replicated using symmetry.
 MDV= 10066329600 DFT=T DoStab=F Mixed=F DoRPA=T DoScal=T NonHer=F
 Making orbital integer symmetry assigments:
 Orbital symmetries:
       Occupied  (A) (A) (A) (A) (A) (A) (A) (A) (A) (A) (A) (A)
                 (A) (A) (A) (A) (A) (A) (A) (A) (A) (A) (A) (A)
                 (A) (A) (A) (A) (A) (A) (A) (A) (A) (A) (A) (A)
                 (A) (A) (A) (A) (A) (A) (A) (A) (A) (A) (A) (A)
                 (A) (A) (A) (A) (A) (A) (A) (A) (A) (A) (A) (A)
                 (A) (A) (A) (A) (A) (A) (A) (A) (A) (A) (A) (A)
                 (A) (A) (A) (A) (A) (A) (A) (A) (A) (A) (A) (A)
                 (A) (A) (A) (A) (A) (A) (A) (A) (A) (A) (A) (A)
                 (A) (A) (A) (A) (A) (A) (A) (A) (A) (A) (A) (A)
                 (A) (A) (A) (A) (A) (A) (A) (A) (A) (A) (A) (A)
                 (A) (A) (A) (A) (A) (A) (A) (A) (A) (A) (A) (A)
                 (A) (A) (A) (A) (A) (A) (A) (A) (A) (A) (A) (A)
                 (A) (A) (A) (A) (A) (A) (A) (A) (A) (A) (A) (A)
                 (A) (A) (A) (A) (A) (A) (A) (A) (A) (A) (A) (A)
                 (A) (A) (A) (A) (A) (A) (A) (A) (A) (A) (A) (A)
                 (A) (A) (A) (A) (A) (A) (A) (A) (A) (A) (A) (A)
                 (A) (A) (A) (A) (A) (A) (A) (A) (A) (A) (A) (A)
                 (A) (A) (A) (A) (A) (A) (A) (A) (A) (A) (A) (A)
                 (A) (A) (A) (A) (A) (A) (A) (A) (A) (A) (A) (A)
                 (A) (A) (A) (A) (A) (A) (A) (A) (A) (A) (A) (A)
                 (A) (A) (A) (A) (A) (A)
       Virtual   (A) (A) (A) (A) (A) (A) (A) (A) (A) (A) (A) (A)
                 (A) (A) (A) (A) (A) (A) (A) (A) (A) (A) (A) (A)
                 (A) (A) (A) (A) (A) (A) (A) (A) (A) (A) (A) (A)
                 (A) (A) (A) (A) (A) (A) (A) (A) (A) (A) (A) (A)
                 (A) (A) (A) (A) (A) (A) (A) (A) (A) (A) (A) (A)
                 (A) (A) (A) (A) (A) (A) (A) (A) (A) (A) (A) (A)
                 (A) (A) (A) (A) (A) (A) (A) (A) (A) (A) (A) (A)
                 (A) (A) (A) (A) (A) (A) (A) (A) (A) (A) (A) (A)
                 (A) (A) (A) (A) (A) (A) (A) (A) (A) (A) (A) (A)
                 (A) (A) (A) (A) (A) (A) (A) (A) (A) (A) (A) (A)
                 (A) (A) (A) (A) (A) (A) (A) (A) (A) (A) (A) (A)
                 (A) (A) (A) (A) (A) (A) (A) (A) (A) (A) (A) (A)
                 (A) (A) (A) (A) (A) (A) (A) (A) (A) (A) (A) (A)
                 (A) (A) (A) (A) (A) (A) (A) (A) (A) (A) (A) (A)
                 (A) (A) (A) (A) (A) (A) (A) (A) (A) (A) (A) (A)
                 (A) (A) (A) (A) (A) (A) (A) (A) (A) (A) (A) (A)
                 (A) (A) (A) (A) (A) (A) (A) (A) (A) (A) (A) (A)
                 (A) (A) (A) (A) (A) (A) (A) (A) (A) (A) (A) (A)
                 (A) (A) (A) (A) (A) (A) (A) (A) (A) (A) (A) (A)
                 (A) (A) (A) (A) (A) (A) (A) (A) (A) (A) (A) (A)
                 (A) (A) (A) (A) (A) (A) (A) (A) (A) (A) (A) (A)
                 (A) (A) (A) (A) (A) (A) (A) (A) (A) (A) (A) (A)
                 (A) (A) (A) (A) (A) (A) (A) (A) (A) (A) (A) (A)
                 (A) (A) (A) (A) (A) (A) (A) (A) (A) (A) (A) (A)
                 (A) (A) (A) (A) (A) (A) (A) (A) (A) (A) (A) (A)
                 (A) (A) (A) (A) (A) (A) (A) (A) (A) (A) (A) (A)
                 (A) (A) (A) (A) (A) (A) (A) (A) (A) (A) (A) (A)
                 (A) (A) (A) (A) (A) (A) (A) (A) (A) (A) (A) (A)
                 (A) (A) (A) (A) (A) (A) (A) (A) (A) (A) (A) (A)
                 (A) (A) (A) (A) (A) (A) (A) (A) (A) (A) (A) (A)
                 (A) (A) (A) (A) (A) (A) (A) (A) (A) (A) (A) (A)
                 (A) (A) (A) (A) (A) (A) (A) (A) (A) (A) (A) (A)
                 (A) (A) (A) (A) (A) (A) (A) (A) (A) (A) (A) (A)
                 (A) (A) (A) (A) (A) (A) (A) (A) (A) (A) (A) (A)
                 (A) (A) (A) (A) (A) (A) (A) (A) (A) (A) (A) (A)
                 (A) (A) (A) (A) (A) (A) (A) (A) (A) (A) (A) (A)
                 (A) (A) (A) (A) (A) (A) (A) (A) (A) (A) (A) (A)
                 (A) (A) (A) (A) (A) (A) (A) (A) (A) (A) (A) (A)
                 (A) (A) (A) (A) (A) (A) (A) (A) (A) (A) (A) (A)
                 (A) (A) (A) (A) (A) (A) (A) (A) (A) (A) (A) (A)
                 (A) (A) (A) (A) (A) (A) (A) (A) (A) (A) (A) (A)
                 (A) (A) (A) (A) (A) (A) (A) (A) (A) (A) (A) (A)
                 (A) (A) (A) (A) (A) (A) (A) (A) (A) (A) (A) (A)
                 (A) (A) (A) (A) (A) (A) (A) (A) (A) (A) (A) (A)
                 (A) (A) (A) (A) (A) (A) (A) (A) (A) (A) (A) (A)
                 (A) (A) (A) (A) (A) (A) (A) (A) (A) (A) (A) (A)
                 (A) (A) (A) (A) (A) (A) (A) (A) (A) (A) (A) (A)
                 (A) (A) (A) (A) (A) (A) (A) (A) (A) (A) (A) (A)
                 (A) (A) (A) (A) (A) (A) (A) (A) (A) (A) (A) (A)
                 (A) (A) (A) (A) (A) (A) (A) (A) (A) (A) (A) (A)
                 (A) (A) (A) (A) (A) (A) (A) (A) (A) (A) (A) (A)
                 (A) (A) (A) (A) (A) (A) (A) (A) (A) (A) (A) (A)
                 (A) (A) (A) (A) (A) (A) (A) (A) (A) (A) (A) (A)
                 (A) (A) (A) (A) (A) (A) (A) (A) (A) (A) (A) (A)
                 (A) (A) (A) (A) (A) (A) (A) (A) (A) (A) (A) (A)
                 (A) (A) (A) (A) (A) (A) (A) (A) (A) (A) (A) (A)
                 (A) (A) (A) (A) (A) (A) (A) (A) (A) (A) (A) (A)
                 (A) (A) (A) (A) (A) (A) (A) (A) (A) (A) (A) (A)
                 (A) (A) (A) (A) (A) (A) (A) (A) (A) (A) (A) (A)
                 (A) (A) (A) (A) (A) (A) (A) (A) (A) (A) (A) (A)
                 (A) (A) (A) (A) (A) (A) (A) (A) (A) (A) (A) (A)
                 (A) (A) (A) (A) (A) (A) (A) (A) (A) (A) (A) (A)
                 (A) (A) (A) (A) (A) (A) (A) (A) (A) (A) (A) (A)
                 (A) (A) (A) (A) (A) (A) (A) (A) (A) (A) (A) (A)
                 (A) (A) (A) (A) (A) (A) (A) (A) (A) (A) (A) (A)
                 (A) (A) (A) (A) (A) (A) (A) (A) (A) (A) (A) (A)
                 (A) (A) (A) (A) (A) (A) (A) (A) (A) (A) (A) (A)
                 (A) (A) (A) (A) (A) (A) (A) (A) (A) (A) (A) (A)
                 (A) (A) (A) (A) (A) (A) (A) (A) (A) (A) (A) (A)
                 (A) (A) (A) (A) (A) (A) (A) (A) (A) (A) (A) (A)
                 (A) (A) (A) (A) (A) (A) (A) (A) (A) (A) (A) (A)
                 (A) (A) (A) (A) (A) (A) (A) (A) (A) (A) (A) (A)
                 (A) (A) (A) (A) (A) (A) (A) (A) (A) (A) (A) (A)
                 (A) (A) (A) (A) (A) (A) (A) (A) (A) (A) (A) (A)
                 (A) (A) (A) (A) (A) (A) (A) (A) (A) (A) (A) (A)
                 (A) (A) (A) (A) (A) (A) (A) (A) (A) (A) (A) (A)
                 (A) (A) (A) (A) (A) (A) (A) (A) (A) (A) (A) (A)
                 (A) (A) (A) (A) (A) (A) (A) (A) (A) (A) (A) (A)
                 (A) (A) (A) (A) (A) (A) (A) (A) (A) (A) (A) (A)
                 (A) (A) (A) (A) (A) (A) (A) (A) (A) (A) (A) (A)
                 (A) (A) (A) (A) (A) (A) (A) (A) (A) (A) (A) (A)
                 (A) (A) (A) (A) (A) (A) (A) (A) (A) (A) (A) (A)
                 (A) (A) (A) (A) (A) (A) (A) (A) (A) (A) (A) (A)
                 (A) (A) (A) (A) (A) (A) (A) (A) (A) (A) (A) (A)
                 (A) (A) (A) (A) (A) (A) (A) (A) (A) (A) (A) (A)
                 (A) (A) (A) (A) (A) (A) (A) (A) (A) (A) (A) (A)
                 (A) (A) (A) (A) (A) (A) (A) (A) (A) (A) (A) (A)
                 (A) (A) (A) (A) (A) (A) (A) (A)
    20 initial guesses have been made.
 Convergence on wavefunction:    0.001000000000000
 Davidson Disk Diagonalization:  ConvIn= 1.00D-03 SkipCon=T Conv= 1.00D-03.
 Max sub-space:  2000 roots to seek:    20 dimension of matrix:       370304
 Iteration     1 Dimension    20 NMult     0 NNew     20
 CISAX will form    20 AO SS matrices at one time.
 NMat=    20 NSing=    20 JSym2X= 0.
 FoFJK:  IHMeth= 1 ICntrl=     500 DoSepK=F KAlg= 0 I1Cent=           0 FoldK=F
 IRaf= 550000000 NMat=      20 IRICut=       1 DoRegI=T DoRafI=F ISym2E= 0 IDoP0=0 IntGTp=1.
 FoFCou: FMM=T IPFlag=           0 FMFlag=      100000 FMFlg1=        2001
         NFxFlg=           0 DoJE=F BraDBF=F KetDBF=F FulRan=T
         wScrn=  0.000000 ICntrl=       500 IOpCl=  0 I1Cent=           0 NGrid=           0
         NMat0=   20 NMatS0=     20 NMatT0=    0 NMatD0=   20 NMtDS0=    0 NMtDT0=    0
 Symmetry not used in FoFCou.
 FMM levels:  10  Number of levels for PrismC:   9
 New state      1 was old state      3
 New state      2 was old state      4
 New state      3 was old state      1
 New state      4 was old state      6
 New state      5 was old state      2
 Excitation Energies [eV] at current iteration:
 Root      1 :     1.617488561085474
 Root      2 :     1.836971269855282
 Root      3 :     2.085575507253942
 Root      4 :     2.128943342781236
 Root      5 :     2.286572770487945
 Root      6 :     2.457995830083568
 Root      7 :     2.530767292378766
 Root      8 :     2.725409244972924
 Root      9 :     2.923670702774648
 Root     10 :     2.977126036889199
 Root     11 :     3.043275104879891
 Root     12 :     3.101306519457519
 Root     13 :     3.122697198864976
 Root     14 :     3.138941908834105
 Root     15 :     3.172583502820961
 Root     16 :     3.484529489074869
 Root     17 :     3.654379176859121
 Root     18 :     3.869565525451377
 Root     19 :     4.026050942695801
 Root     20 :     4.380105792939627
 Iteration     2 Dimension    40 NMult    20 NNew     20
 CISAX will form    20 AO SS matrices at one time.
 NMat=    20 NSing=    20 JSym2X= 0.
 Root      1 not converged, maximum delta is    0.007715921940344
 Root      2 not converged, maximum delta is    0.407156500676048
 Root      3 not converged, maximum delta is    0.428341117991179
 New state      4 was old state      5
 Root      4 not converged, maximum delta is    0.102882130769360
 New state      5 was old state      4
 Root      5 not converged, maximum delta is    0.098334859581713
 Excitation Energies [eV] at current iteration:
 Root      1 :     1.613231766585445   Change is   -0.004256794500029
 Root      2 :     1.816291853027177   Change is   -0.020679416828105
 Root      3 :     1.847539409195676   Change is   -0.238036098058266
 Root      4 :     2.039167990896165   Change is   -0.247404779591780
 Root      5 :     2.127742391462484   Change is   -0.001200951318752
 Root      6 :     2.281517414277944   Change is   -0.249249878100822
 Root      7 :     2.383879502607984   Change is   -0.341529742364940
 Root      8 :     2.457763303632651   Change is   -0.000232526450916
 Root      9 :     2.842655775423712   Change is   -0.081014927350936
 Root     10 :     2.948252605696838   Change is   -0.095022499183053
 Root     11 :     2.977125575586706   Change is   -0.000000461302492
 Root     12 :     3.049733439048166   Change is   -0.072963759816810
 Root     13 :     3.092787717352201   Change is   -0.008518802105319
 Root     14 :     3.133211845743753   Change is   -0.005730063090352
 Root     15 :     3.172053737880615   Change is   -0.000529764940346
 Root     16 :     3.177865614617661   Change is   -0.306663874457208
 Root     17 :     3.315931453022787   Change is   -0.338447723836334
 Root     18 :     3.451962964405938   Change is   -0.417602561045439
 Root     19 :     3.605817578554053   Change is   -0.420233364141748
 Root     20 :     3.795571805559788   Change is   -0.584533987379840
 Iteration     3 Dimension    45 NMult    40 NNew      5
 CISAX will form     5 AO SS matrices at one time.
 NMat=     5 NSing=     5 JSym2X= 0.
 Root      1 not converged, maximum delta is    0.005625611740219
 Root      2 not converged, maximum delta is    0.301166153039224
 Root      3 not converged, maximum delta is    0.284893723141933
 Root      4 not converged, maximum delta is    0.015889741567385
 Root      5 not converged, maximum delta is    0.006327682897139
 Excitation Energies [eV] at current iteration:
 Root      1 :     1.611806360068373   Change is   -0.001425406517072
 Root      2 :     1.781490446213940   Change is   -0.034801406813237
 Root      3 :     1.833453063206624   Change is   -0.014086345989052
 Root      4 :     2.004628310171096   Change is   -0.034539680725069
 Root      5 :     2.127658321469309   Change is   -0.000084069993175
 Iteration     4 Dimension    50 NMult    45 NNew      5
 CISAX will form     5 AO SS matrices at one time.
 NMat=     5 NSing=     5 JSym2X= 0.
 Root      1 not converged, maximum delta is    0.001995346373731
 Root      2 not converged, maximum delta is    0.053782197412342
 Root      3 not converged, maximum delta is    0.050546705423665
 Root      4 not converged, maximum delta is    0.013699262860319
 Root      5 not converged, maximum delta is    0.001603006117049
 Excitation Energies [eV] at current iteration:
 Root      1 :     1.611384176495217   Change is   -0.000422183573156
 Root      2 :     1.763810351529493   Change is   -0.017680094684447
 Root      3 :     1.831004223501570   Change is   -0.002448839705054
 Root      4 :     1.988879852444331   Change is   -0.015748457726765
 Root      5 :     2.127634479744637   Change is   -0.000023841724672
 Iteration     5 Dimension    55 NMult    50 NNew      5
 CISAX will form     5 AO SS matrices at one time.
 NMat=     5 NSing=     5 JSym2X= 0.
 Root      1 has converged.
 Root      2 not converged, maximum delta is    0.011265388851759
 Root      3 not converged, maximum delta is    0.010611403296922
 Root      4 not converged, maximum delta is    0.004981576623396
 Root      5 has converged.
 Excitation Energies [eV] at current iteration:
 Root      1 :     1.611262527814616   Change is   -0.000121648680601
 Root      2 :     1.758430110620281   Change is   -0.005380240909212
 Root      3 :     1.830232798639644   Change is   -0.000771424861926
 Root      4 :     1.984167716715567   Change is   -0.004712135728763
 Root      5 :     2.127625811034493   Change is   -0.000008668710144
 Iteration     6 Dimension    58 NMult    55 NNew      3
 CISAX will form     3 AO SS matrices at one time.
 NMat=     3 NSing=     3 JSym2X= 0.
 Root      1 has converged.
 Root      2 not converged, maximum delta is    0.004705886829925
 Root      3 not converged, maximum delta is    0.004454747325621
 Root      4 not converged, maximum delta is    0.001761685968708
 Root      5 has converged.
 Excitation Energies [eV] at current iteration:
 Root      1 :     1.611257475123431   Change is   -0.000005052691185
 Root      2 :     1.755916904742688   Change is   -0.002513205877593
 Root      3 :     1.829812441229478   Change is   -0.000420357410166
 Root      4 :     1.982405854827248   Change is   -0.001761861888319
 Root      5 :     2.127623454200971   Change is   -0.000002356833522
 Iteration     7 Dimension    61 NMult    58 NNew      3
 CISAX will form     3 AO SS matrices at one time.
 NMat=     3 NSing=     3 JSym2X= 0.
 Root      1 has converged.
 Root      2 not converged, maximum delta is    0.002105733163207
 Root      3 not converged, maximum delta is    0.002050889423969
 Root      4 not converged, maximum delta is    0.001089871614446
 Root      5 has converged.
 Excitation Energies [eV] at current iteration:
 Root      1 :     1.611254877626298   Change is   -0.000002597497133
 Root      2 :     1.754787892725808   Change is   -0.001129012016879
 Root      3 :     1.829612587923173   Change is   -0.000199853306305
 Root      4 :     1.981670308391048   Change is   -0.000735546436201
 Root      5 :     2.127622803007373   Change is   -0.000000651193599
 Iteration     8 Dimension    64 NMult    61 NNew      3
 CISAX will form     3 AO SS matrices at one time.
[...]
 Alpha virt. eigenvalues --    1.19204   1.19589   1.20183   1.21105   1.21564
 Alpha virt. eigenvalues --    1.21717   1.22202   1.22553   1.22664   1.23461
 Alpha virt. eigenvalues --    1.23525   1.24031   1.24247   1.24564   1.24639
 Alpha virt. eigenvalues --    1.25531   1.26579   1.26783   1.26863   1.27091
 Alpha virt. eigenvalues --    1.27625   1.28184   1.28688   1.29073   1.29579
 Alpha virt. eigenvalues --    1.30418   1.30490   1.30749   1.31230   1.31474
 Alpha virt. eigenvalues --    1.31555   1.32293   1.33024   1.33297   1.33507
 Alpha virt. eigenvalues --    1.34056   1.34629   1.34853   1.35053   1.35571
 Alpha virt. eigenvalues --    1.35648   1.35719   1.35918   1.36458   1.36670
 Alpha virt. eigenvalues --    1.37666   1.38045   1.38177   1.38609   1.39464
 Alpha virt. eigenvalues --    1.39529   1.39958   1.41017   1.41436   1.42136
 Alpha virt. eigenvalues --    1.42542   1.42851   1.42882   1.43519   1.44496
 Alpha virt. eigenvalues --    1.44661   1.45071   1.45083   1.45390   1.45439
 Alpha virt. eigenvalues --    1.45527   1.45807   1.46381   1.46532   1.46850
 Alpha virt. eigenvalues --    1.47408   1.47611   1.47660   1.47724   1.48065
 Alpha virt. eigenvalues --    1.48556   1.48843   1.49046   1.49265   1.49301
 Alpha virt. eigenvalues --    1.49700   1.49816   1.50408   1.50518   1.50912
 Alpha virt. eigenvalues --    1.51103   1.51256   1.51540   1.51973   1.52345
 Alpha virt. eigenvalues --    1.52698   1.53098   1.53123   1.53315   1.54400
 Alpha virt. eigenvalues --    1.54481   1.55149   1.55380   1.55873   1.56034
 Alpha virt. eigenvalues --    1.56416   1.56572   1.56622   1.58035   1.58640
 Alpha virt. eigenvalues --    1.58831   1.59364   1.59690   1.60243   1.60473
 Alpha virt. eigenvalues --    1.61242   1.61443   1.61861   1.62332   1.62404
 Alpha virt. eigenvalues --    1.62932   1.63302   1.63362   1.63815   1.64112
 Alpha virt. eigenvalues --    1.64272   1.64745   1.65148   1.65293   1.65790
 Alpha virt. eigenvalues --    1.66370   1.66628   1.66673   1.66822   1.67154
 Alpha virt. eigenvalues --    1.67484   1.67698   1.68064   1.68167   1.68213
 Alpha virt. eigenvalues --    1.68392   1.68765   1.69071   1.69210   1.69268
 Alpha virt. eigenvalues --    1.69369   1.69557   1.69860   1.69874   1.70307
 Alpha virt. eigenvalues --    1.70588   1.70649   1.70698   1.70787   1.70872
 Alpha virt. eigenvalues --    1.70955   1.71166   1.71316   1.71544   1.71619
 Alpha virt. eigenvalues --    1.71827   1.72041   1.72332   1.72518   1.72663
 Alpha virt. eigenvalues --    1.73111   1.73279   1.73426   1.73608   1.73670
 Alpha virt. eigenvalues --    1.74115   1.74375   1.74529   1.74629   1.74943
 Alpha virt. eigenvalues --    1.75016   1.75357   1.75526   1.75883   1.76092
 Alpha virt. eigenvalues --    1.76354   1.76486   1.76648   1.77027   1.77175
 Alpha virt. eigenvalues --    1.77497   1.77749   1.77786   1.77977   1.78113
 Alpha virt. eigenvalues --    1.78585   1.78993   1.79295   1.79345   1.79503
 Alpha virt. eigenvalues --    1.79828   1.80062   1.80130   1.80435   1.80732
 Alpha virt. eigenvalues --    1.80931   1.81079   1.81211   1.81409   1.81838
 Alpha virt. eigenvalues --    1.81905   1.82138   1.82356   1.82634   1.82984
 Alpha virt. eigenvalues --    1.83087   1.83380   1.83521   1.83775   1.84392
 Alpha virt. eigenvalues --    1.84464   1.84555   1.84802   1.85029   1.85182
 Alpha virt. eigenvalues --    1.85647   1.85729   1.85876   1.86226   1.86398
 Alpha virt. eigenvalues --    1.86516   1.86785   1.87210   1.87506   1.87667
 Alpha virt. eigenvalues --    1.88027   1.88097   1.88648   1.89026   1.89697
 Alpha virt. eigenvalues --    1.89740   1.89824   1.90279   1.90474   1.90800
 Alpha virt. eigenvalues --    1.90910   1.91298   1.91636   1.91938   1.92376
 Alpha virt. eigenvalues --    1.92573   1.93143   1.93366   1.93496   1.93694
 Alpha virt. eigenvalues --    1.93996   1.94087   1.94418   1.95183   1.95698
 Alpha virt. eigenvalues --    1.95864   1.95900   1.96331   1.96429   1.96664
 Alpha virt. eigenvalues --    1.96944   1.97162   1.97368   1.97879   1.98138
 Alpha virt. eigenvalues --    1.98233   1.98470   1.98762   1.99026   1.99330
 Alpha virt. eigenvalues --    2.00182   2.00201   2.00727   2.00970   2.01058
 Alpha virt. eigenvalues --    2.01181   2.01583   2.01640   2.01763   2.02387
 Alpha virt. eigenvalues --    2.02798   2.02833   2.03220   2.03639   2.03921
 Alpha virt. eigenvalues --    2.04019   2.04592   2.04861   2.04939   2.05128
 Alpha virt. eigenvalues --    2.05413   2.05844   2.06304   2.06667   2.06766
 Alpha virt. eigenvalues --    2.07258   2.07536   2.07718   2.08849   2.09067
 Alpha virt. eigenvalues --    2.09380   2.09908   2.09946   2.10121   2.10990
 Alpha virt. eigenvalues --    2.11226   2.12211   2.12244   2.12449   2.12915
 Alpha virt. eigenvalues --    2.13269   2.13299   2.13564   2.14130   2.14418
 Alpha virt. eigenvalues --    2.14935   2.15473   2.15693   2.16220   2.16878
 Alpha virt. eigenvalues --    2.16895   2.17340   2.17447   2.18067   2.18426
 Alpha virt. eigenvalues --    2.18544   2.18965   2.19486   2.19988   2.20134
 Alpha virt. eigenvalues --    2.20485   2.20899   2.21618   2.22179   2.22475
 Alpha virt. eigenvalues --    2.22648   2.23437   2.23832   2.24272   2.24888
 Alpha virt. eigenvalues --    2.25240   2.25564   2.25788   2.25831   2.26026
 Alpha virt. eigenvalues --    2.26986   2.27412   2.27637   2.27720   2.28013
 Alpha virt. eigenvalues --    2.28205   2.28671   2.28726   2.28988   2.29647
 Alpha virt. eigenvalues --    2.29744   2.30023   2.30581   2.30864   2.30951
 Alpha virt. eigenvalues --    2.31477   2.31621   2.31876   2.32903   2.33238
 Alpha virt. eigenvalues --    2.33506   2.33827   2.34219   2.34502   2.34686
 Alpha virt. eigenvalues --    2.35626   2.36322   2.36578   2.36902   2.37224
 Alpha virt. eigenvalues --    2.37493   2.38444   2.38888   2.39042   2.39302
 Alpha virt. eigenvalues --    2.39737   2.39951   2.40594   2.40803   2.40900
 Alpha virt. eigenvalues --    2.41174   2.41438   2.41678   2.41923   2.42018
 Alpha virt. eigenvalues --    2.42307   2.43169   2.43800   2.43967   2.44237
 Alpha virt. eigenvalues --    2.45150   2.45809   2.45827   2.46114   2.46520
 Alpha virt. eigenvalues --    2.46784   2.47224   2.47520   2.47998   2.48472
 Alpha virt. eigenvalues --    2.48778   2.49164   2.49457   2.49787   2.50411
 Alpha virt. eigenvalues --    2.51075   2.51719   2.51859   2.52848   2.52859
 Alpha virt. eigenvalues --    2.53169   2.53516   2.54264   2.54626   2.55708
 Alpha virt. eigenvalues --    2.55733   2.56128   2.56325   2.57008   2.57038
 Alpha virt. eigenvalues --    2.57482   2.57746   2.57931   2.58089   2.58350
 Alpha virt. eigenvalues --    2.58592   2.59371   2.59626   2.60061   2.60897
 Alpha virt. eigenvalues --    2.61129   2.61498   2.61808   2.62054   2.62502
 Alpha virt. eigenvalues --    2.62898   2.63566   2.63870   2.64003   2.64530
 Alpha virt. eigenvalues --    2.64941   2.65365   2.65564   2.65877   2.66253
 Alpha virt. eigenvalues --    2.66327   2.66923   2.67078   2.67204   2.67499
 Alpha virt. eigenvalues --    2.68527   2.68770   2.69782   2.70025   2.70804
 Alpha virt. eigenvalues --    2.71088   2.71324   2.71434   2.73095   2.73571
 Alpha virt. eigenvalues --    2.74124   2.74476   2.75552   2.75726   2.76503
 Alpha virt. eigenvalues --    2.76638   2.77064   2.77175   2.77459   2.78957
 Alpha virt. eigenvalues --    2.79014   2.79357   2.79565   2.80429   2.80456
 Alpha virt. eigenvalues --    2.80845   2.80954   2.81235   2.81726   2.81972
 Alpha virt. eigenvalues --    2.82233   2.82730   2.82932   2.83317   2.83653
 Alpha virt. eigenvalues --    2.83890   2.84121   2.84543   2.85014   2.85804
 Alpha virt. eigenvalues --    2.86058   2.86377   2.86490   2.86639   2.86741
 Alpha virt. eigenvalues --    2.86970   2.87198   2.87387   2.87471   2.87535
 Alpha virt. eigenvalues --    2.87615   2.88214   2.88720   2.89309   2.89924
 Alpha virt. eigenvalues --    2.90096   2.90176   2.90780   2.91199   2.91360
 Alpha virt. eigenvalues --    2.91393   2.92009   2.92440   2.92467   2.92754
 Alpha virt. eigenvalues --    2.92987   2.93813   2.94015   2.94421   2.94542
 Alpha virt. eigenvalues --    2.94729   2.95616   2.95863   2.96219   2.96351
 Alpha virt. eigenvalues --    2.96710   2.97317   2.97663   2.98004   2.98109
 Alpha virt. eigenvalues --    2.98490   2.99096   2.99533   3.01486   3.01709
 Alpha virt. eigenvalues --    3.01964   3.02352   3.03297   3.04218   3.04291
 Alpha virt. eigenvalues --    3.05019   3.05220   3.05991   3.07739   3.07818
 Alpha virt. eigenvalues --    3.08343   3.09822   3.10405   3.10518   3.12777
 Alpha virt. eigenvalues --    3.15439   3.17540   3.24414   3.24530   3.27221
 Alpha virt. eigenvalues --    3.31223   3.31540   3.32809   3.35916   3.39972
 Alpha virt. eigenvalues --    3.42119   3.46317   3.48978   3.49673   3.52653
 Alpha virt. eigenvalues --    3.53843   3.55811
          Condensed to atoms (all electrons):
 Mulliken charges:
               1
     1  Mg   0.684766
     2  C   -0.031676
     3  C   -0.098996
     4  C    0.010369
     5  C   -0.069324
     6  N   -0.164669
     7  C   -0.098184
     8  C    0.013225
     9  C   -0.007314
    10  C    0.008077
    11  C    0.154698
    12  C    0.105650
    13  C    0.100459
    14  C    0.098841
    15  O   -0.229203
    16  O   -0.276804
    17  N   -0.310708
    18  C    0.171383
    19  C   -0.171009
    20  C    0.067362
    21  C    0.131567
    22  C    0.193836
    23  C   -0.102504
    24  O   -0.199447
    25  C    0.125411
    26  N   -0.285755
    27  C   -0.033323
    28  C    0.014907
    29  C    0.108802
    30  C   -0.024807
    31  C    0.116085
    32  C    0.075612
    33  C    0.090153
    34  N   -0.275442
    35  C    0.135080
    36  C   -0.179537
    37  C    0.023625
    38  C    0.071987
    39  C    0.152651
    40  C   -0.017299
    41  O   -0.127976
    42  C    0.103998
    43  C    0.135394
    44  O   -0.182055
    45  O   -0.277082
    46  C    0.227142
    47  C    0.327292
    48  C   -0.107455
    49  C   -0.099448
    50  C    0.129541
    51  C    0.090976
    52  C    0.113840
    53  C    0.103694
    54  C   -0.043798
    55  C    0.117124
    56  C    0.023890
    57  C    0.077964
    58  C    0.128678
    59  C   -0.047326
    60  C    0.095436
    61  C    0.069129
    62  C    0.082353
    63  C    0.052201
    64  C   -0.068937
    65  C    0.127008
    66  C    0.101898
    67  H   -0.034012
    68  H   -0.082607
    69  H   -0.067953
    70  H   -0.012963
    71  H   -0.017054
    72  H   -0.017519
    73  H   -0.006325
    74  H    0.007411
    75  H    0.017306
    76  H   -0.006231
    77  H    0.006682
    78  H    0.000128
    79  H   -0.005125
    80  H    0.011733
    81  H    0.000260
    82  H    0.024210
    83  H    0.016680
    84  H   -0.012518
    85  H   -0.023824
    86  H   -0.029401
    87  H    0.001543
    88  H   -0.017404
    89  H    0.000689
    90  H    0.000423
    91  H   -0.027381
    92  H   -0.008872
    93  H   -0.008931
    94  H   -0.002816
    95  H    0.010808
    96  H   -0.007299
    97  H    0.017072
    98  H    0.005754
    99  H    0.008553
   100  H    0.012323
   101  H    0.020334
   102  H    0.012601
   103  H   -0.031460
   104  H   -0.043377
   105  H   -0.018192
   106  H    0.004533
   107  H    0.003799
   108  H   -0.030906
   109  H   -0.030706
   110  H   -0.023378
   111  H   -0.032933
   112  H   -0.051512
   113  H   -0.037276
   114  H   -0.034926
   115  H   -0.011054
   116  H   -0.021933
   117  H   -0.025113
   118  H   -0.025996
   119  H   -0.027663
   120  H   -0.027974
   121  H   -0.019619
   122  H   -0.030385
   123  H   -0.038745
   124  H   -0.041960
   125  H   -0.025947
   126  H   -0.014546
   127  H   -0.024204
   128  H   -0.034511
   129  H   -0.055719
   130  H   -0.021949
   131  H   -0.023887
   132  H   -0.036283
   133  H   -0.031863
   134  H   -0.031944
   135  H   -0.028714
   136  H   -0.033121
   137  H   -0.002146
   138  H   -0.012893
   139  H   -0.029470
   140  H   -0.014329
 Sum of Mulliken charges =  -0.00000
 Mulliken charges with hydrogens summed into heavy atoms:
               1
     1  Mg   0.684766
     2  C   -0.031676
     3  C   -0.133008
     4  C   -0.072238
     5  C   -0.137277
     6  N   -0.164669
     7  C   -0.098184
     8  C    0.000262
     9  C   -0.024369
    10  C    0.008077
    11  C    0.138265
    12  C    0.116725
    13  C    0.107269
    14  C    0.098841
    15  O   -0.229203
    16  O   -0.276804
    17  N   -0.310708
    18  C    0.171383
    19  C   -0.171009
    20  C    0.067362
    21  C    0.131567
    22  C    0.200703
    23  C   -0.102504
    24  O   -0.199447
    25  C    0.153784
    26  N   -0.285755
    27  C   -0.033323
    28  C   -0.008917
    29  C    0.079401
    30  C   -0.024807
    31  C    0.100914
    32  C    0.048654
    33  C    0.069535
    34  N   -0.275442
    35  C    0.135080
    36  C   -0.179537
    37  C    0.023625
    38  C    0.071987
    39  C    0.173232
    40  C   -0.017299
    41  O   -0.127976
    42  C    0.109752
    43  C    0.135394
    44  O   -0.182055
    45  O   -0.277082
    46  C    0.268352
    47  C    0.308432
    48  C   -0.150832
    49  C   -0.099448
    50  C    0.119681
    51  C    0.029364
    52  C    0.057529
    53  C    0.014906
    54  C   -0.078724
    55  C    0.059024
    56  C   -0.029769
    57  C    0.030371
    58  C    0.059549
    59  C   -0.089286
    60  C    0.030739
    61  C   -0.021102
    62  C    0.036518
    63  C   -0.015945
    64  C   -0.100881
    65  C    0.063027
    66  C    0.045206
 Electronic spatial extent (au):  <R**2>=          95901.5027
 Charge=             -0.0000 electrons
 Dipole moment (field-independent basis, Debye):
    X=             -0.1473    Y=              5.3471    Z=             -1.7588  Tot=              5.6308
 Quadrupole moment (field-independent basis, Debye-Ang):
   XX=           -383.8746   YY=           -439.4860   ZZ=           -407.0515
   XY=            -39.1393   XZ=            -15.2263   YZ=            -40.1343
 Traceless Quadrupole moment (field-independent basis, Debye-Ang):
   XX=             26.2628   YY=            -29.3486   ZZ=              3.0858
   XY=            -39.1393   XZ=            -15.2263   YZ=            -40.1343
 Octapole moment (field-independent basis, Debye-Ang**2):
  XXX=            -89.5445  YYY=            263.3165  ZZZ=            -84.4268  XYY=             17.9281
  XXY=            136.6280  XXZ=            155.7792  XZZ=            -78.5951  YZZ=           -117.1037
  YYZ=            -98.5769  XYZ=            121.4523
 Hexadecapole moment (field-independent basis, Debye-Ang**3):
 XXXX=         -91270.4895 YYYY=         -26091.9212 ZZZZ=         -13980.8175 XXXY=           -287.0477
 XXXZ=           -866.7108 YYYX=          -1058.0717 YYYZ=           -737.4431 ZZZX=            -28.1917
 ZZZY=           -650.0897 XXYY=         -19954.6636 XXZZ=         -17939.2889 YYZZ=          -6939.0796
 XXYZ=           -748.2302 YYXZ=           -171.1009 ZZXY=           -144.9788
 N-N= 9.802629222054D+03 E-N=-2.659940317109D+04  KE= 2.976931592956D+03
 Leave Link  601 at Sat Apr 30 08:50:49 2022, MaxMem= 10066329600 cpu:              10.0 elap:               0.5
 (Enter /sw/apps/gaussian-16.0/g16/l9999.exe)
 1\1\GINC-BP1-COMPUTE154\SP\RBLYP TD-FC\def2SVP\C55H74Mg1N4O6\OF15641\3
 0-Apr-2022\0\\#p blyp/Def2SVP td=(nstates=5)\\step_651_chromophore_26 
 TDDFT with blyp functional\\0,1\Mg,0,-9.555,18.356,42.544\C,0,-5.881,1
 7.97,42.459\C,0,-8.824,21.842,41.764\C,0,-12.667,18.798,42.22\C,0,-9.8
 55,14.864,42.301\N,0,-7.61,19.636,42.006\C,0,-6.272,19.285,42.114\C,0,
 -5.327,20.456,41.949\C,0,-6.322,21.692,41.794\C,0,-7.699,20.99,41.874\
 C,0,-6.112,22.953,42.7\C,0,-4.239,20.309,40.831\C,0,-4.829,19.691,39.4
 76\C,0,-4.239,20.132,38.17\O,0,-3.019,20.026,37.857\O,0,-5.195,20.777,
 37.406\N,0,-10.699,20.121,42.254\C,0,-10.191,21.392,41.845\C,0,-11.286
 ,22.198,41.641\C,0,-12.481,21.413,41.831\C,0,-12.02,20.086,42.148\C,0,
 -11.11,23.656,41.283\C,0,-13.923,21.847,41.789\O,0,-14.195,23.073,41.6
 18\C,0,-15.111,20.808,41.983\N,0,-11.013,16.921,42.341\C,0,-12.286,17.
 44,42.205\C,0,-13.273,16.205,41.953\C,0,-12.365,14.971,41.811\C,0,-11.
 024,15.541,42.144\C,0,-14.278,16.155,43.131\C,0,-12.244,14.346,40.407\
 C,0,-13.039,13.09,40.212\N,0,-8.227,16.719,42.415\C,0,-8.56,15.355,42.
 484\C,0,-7.3,14.594,42.568\C,0,-6.243,15.583,42.592\C,0,-6.861,16.85,4
 2.462\C,0,-7.177,13.,42.695\C,0,-4.775,15.763,42.749\O,0,-3.915,14.908
 ,42.966\C,0,-4.544,17.276,42.651\C,0,-3.746,17.798,43.795\O,0,-2.808,1
 8.595,43.676\O,0,-4.297,17.305,44.977\C,0,-3.658,17.897,46.145\C,0,-4.
 953,21.149,36.018\C,0,-6.101,20.761,35.103\C,0,-6.408,19.577,34.564\C,
 0,-5.771,18.237,34.96\C,0,-7.489,19.404,33.549\C,0,-8.944,19.279,34.09
 1\C,0,-9.826,19.525,32.867\C,0,-10.688,20.787,32.756\C,0,-12.16,20.46,
 32.51\C,0,-10.159,21.79,31.594\C,0,-10.151,23.234,32.163\C,0,-9.625,24
 .136,31.099\C,0,-10.501,25.364,30.697\C,0,-10.116,26.65,31.469\C,0,-10
 .417,25.615,29.176\C,0,-11.611,25.095,28.298\C,0,-11.033,24.423,26.957
 \C,0,-11.525,25.077,25.655\C,0,-13.023,24.924,25.565\C,0,-10.638,24.59
 2,24.439\H,0,-8.574,22.847,41.418\H,0,-13.749,18.737,42.083\H,0,-9.967
 ,13.781,42.375\H,0,-4.775,20.436,42.888\H,0,-6.209,21.963,40.744\H,0,-
 5.387,22.677,43.466\H,0,-6.956,23.162,43.357\H,0,-5.757,23.766,42.067\
 H,0,-3.473,19.639,41.222\H,0,-3.975,21.33,40.555\H,0,-5.915,19.781,39.
 49\H,0,-4.512,18.657,39.614\H,0,-10.273,24.063,41.851\H,0,-12.05,24.15
 4,41.522\H,0,-10.864,23.68,40.222\H,0,-15.016,20.216,42.894\H,0,-15.21
 8,20.275,41.038\H,0,-15.976,21.464,42.083\H,0,-13.798,16.386,41.015\H,
 0,-12.586,14.262,42.609\H,0,-13.947,16.492,44.113\H,0,-14.594,15.129,4
 3.321\H,0,-15.173,16.699,42.828\H,0,-11.197,14.248,40.122\H,0,-12.783,
 15.009,39.73\H,0,-13.208,12.57,41.155\H,0,-12.404,12.45,39.6\H,0,-13.9
 31,13.401,39.668\H,0,-7.066,12.582,41.694\H,0,-8.089,12.634,43.166\H,0
 ,-6.329,12.728,43.323\H,0,-4.017,17.406,41.706\H,0,-2.733,17.343,46.30
 2\H,0,-4.27,17.682,47.021\H,0,-3.377,18.947,46.057\H,0,-3.982,20.891,3
 5.596\H,0,-4.978,22.236,36.09\H,0,-6.508,21.676,34.673\H,0,-4.96,18.32
 7,35.682\H,0,-5.378,17.777,34.053\H,0,-6.437,17.611,35.553\H,0,-7.223,
 18.624,32.836\H,0,-7.52,20.275,32.895\H,0,-9.15,20.002,34.881\H,0,-9.1
 56,18.275,34.459\H,0,-10.394,18.595,32.841\H,0,-9.236,19.439,31.954\H,
 0,-10.628,21.418,33.643\H,0,-12.228,19.467,32.067\H,0,-12.663,21.257,3
 1.962\H,0,-12.73,20.441,33.439\H,0,-10.825,21.68,30.738\H,0,-9.17,21.5
 ,31.24\H,0,-9.402,23.359,32.944\H,0,-11.171,23.362,32.525\H,0,-9.462,2
 3.476,30.247\H,0,-8.649,24.513,31.403\H,0,-11.564,25.269,30.919\H,0,-9
 .328,27.221,30.978\H,0,-9.829,26.431,32.497\H,0,-10.913,27.389,31.385\
 H,0,-9.435,25.311,28.813\H,0,-10.394,26.686,28.972\H,0,-12.225,25.927,
 27.953\H,0,-12.139,24.422,28.973\H,0,-11.336,23.376,26.948\H,0,-9.943,
 24.412,26.971\H,0,-11.232,26.111,25.836\H,0,-13.38,24.5,24.627\H,0,-13
 .419,25.93,25.429\H,0,-13.656,24.543,26.366\H,0,-9.965,25.331,24.004\H
 ,0,-11.298,24.305,23.621\H,0,-10.035,23.705,24.64\\Version=ES64L-G16Re
 vA.03\State=1-A\HF=-3007.3591983\RMSD=3.678e-09\PG=C01 [X(C55H74Mg1N4O
 6)]\\@


 IF YOU BELIEVE CERTAIN WORDS, YOU BELIEVE THEIR HIDDEN ARGUMENTS.
 WHEN YOU BELIEVE SOMETHING IS RIGHT OR WRONG, TRUE OR FALSE, 
 YOU BELIEVE THE ASSUMPTIONS IN THE WORDS WHICH EXPRESS THE ARGUMENTS.
 SUCH ASSUMPTIONS ARE OFTEN FULL OF HOLES, BUT REMAIN MOST PRECIOUS 
 TO THE CONVINCED.

                 -- THE OPEN-ENDED PROOF FROM THE PANOPLIA PROPHETICA
                    CHILDREN OF DUNE BY FRANK HERBERT
 Job cpu time:       0 days  5 hours  4 minutes 21.9 seconds.
 Elapsed time:       0 days  0 hours 12 minutes 45.5 seconds.
 File lengths (MBytes):  RWF=   8008 Int=      0 D2E=      0 Chk=    390 Scr=      1
 Normal termination of Gaussian 16 at Sat Apr 30 08:50:49 2022.
