 Entering Gaussian System, Link 0=g16
 Initial command:
 /sw/apps/gaussian-16.0/g16/l1.exe "/tmp/Gau-294363.inp" -scrdir="/tmp/"
 Entering Link 1 = /sw/apps/gaussian-16.0/g16/l1.exe PID=    294364.
  
 Copyright (c) 1988,1990,1992,1993,1995,1998,2003,2009,2016,
            Gaussian, Inc.  All Rights Reserved.
  
 This is part of the Gaussian(R) 16 program.  It is based on
 the Gaussian(R) 09 system (copyright 2009, Gaussian, Inc.),
 the Gaussian(R) 03 system (copyright 2003, Gaussian, Inc.),
 the Gaussian(R) 98 system (copyright 1998, Gaussian, Inc.),
 the Gaussian(R) 94 system (copyright 1995, Gaussian, Inc.),
 the Gaussian 92(TM) system (copyright 1992, Gaussian, Inc.),
 the Gaussian 90(TM) system (copyright 1990, Gaussian, Inc.),
 the Gaussian 88(TM) system (copyright 1988, Gaussian, Inc.),
 the Gaussian 86(TM) system (copyright 1986, Carnegie Mellon
 University), and the Gaussian 82(TM) system (copyright 1983,
 Carnegie Mellon University). Gaussian is a federally registered
 trademark of Gaussian, Inc.
  
 This software contains proprietary and confidential information,
 including trade secrets, belonging to Gaussian, Inc.
  
 This software is provided under written license and may be
 used, copied, transmitted, or stored only in accord with that
 written license.
  
 The following legend is applicable only to US Government
 contracts under FAR:
  
                    RESTRICTED RIGHTS LEGEND
  
 Use, reproduction and disclosure by the US Government is
 subject to restrictions as set forth in subparagraphs (a)
 and (c) of the Commercial Computer Software - Restricted
 Rights clause in FAR 52.227-19.
  
 Gaussian, Inc.
 340 Quinnipiac St., Bldg. 40, Wallingford CT 06492
  
  
 ---------------------------------------------------------------
 Warning -- This program may not be used in any manner that
 competes with the business of Gaussian, Inc. or will provide
 assistance to any competitor of Gaussian, Inc.  The licensee
 of this program is prohibited from giving any competitor of
 Gaussian, Inc. access to this program.  By using this program,
 the user acknowledges that Gaussian, Inc. is engaged in the
 business of creating and licensing software in the field of
 computational chemistry and represents and warrants to the
 licensee that it is not a competitor of Gaussian, Inc. and that
 it will not use this program in any manner prohibited above.
 ---------------------------------------------------------------
  

 Cite this work as:
 Gaussian 16, Revision A.03,
 M. J. Frisch, G. W. Trucks, H. B. Schlegel, G. E. Scuseria, 
 M. A. Robb, J. R. Cheeseman, G. Scalmani, V. Barone, 
 G. A. Petersson, H. Nakatsuji, X. Li, M. Caricato, A. V. Marenich, 
 J. Bloino, B. G. Janesko, R. Gomperts, B. Mennucci, H. P. Hratchian, 
 J. V. Ortiz, A. F. Izmaylov, J. L. Sonnenberg, D. Williams-Young, 
 F. Ding, F. Lipparini, F. Egidi, J. Goings, B. Peng, A. Petrone, 
 T. Henderson, D. Ranasinghe, V. G. Zakrzewski, J. Gao, N. Rega, 
 G. Zheng, W. Liang, M. Hada, M. Ehara, K. Toyota, R. Fukuda, 
 J. Hasegawa, M. Ishida, T. Nakajima, Y. Honda, O. Kitao, H. Nakai, 
 T. Vreven, K. Throssell, J. A. Montgomery, Jr., J. E. Peralta, 
 F. Ogliaro, M. J. Bearpark, J. J. Heyd, E. N. Brothers, K. N. Kudin, 
 V. N. Staroverov, T. A. Keith, R. Kobayashi, J. Normand, 
 K. Raghavachari, A. P. Rendell, J. C. Burant, S. S. Iyengar, 
 J. Tomasi, M. Cossi, J. M. Millam, M. Klene, C. Adamo, R. Cammi, 
 J. W. Ochterski, R. L. Martin, K. Morokuma, O. Farkas, 
 J. B. Foresman, and D. J. Fox, Gaussian, Inc., Wallingford CT, 2016.
 
 ******************************************
 Gaussian 16:  ES64L-G16RevA.03 25-Dec-2016
                28-Apr-2022 
 ******************************************
 %nproc=24
 Will use up to   24 processors via shared memory.
 %mem=75GB
 --------------------------------
 #p wB97XD/Def2SVP td=(nstates=5)
 --------------------------------
 1/38=1,172=1/1;
 2/12=2,17=6,18=5,40=1/2;
 3/5=43,7=101,11=9,25=1,30=1,74=-58/1,2,3,8;
 4//1;
 5/5=2,38=5/2;
 8/6=1,10=1,108=5/1;
 9/41=5,42=1,70=2/14;
 6/7=2,8=2,9=2,10=2/1;
 99/5=1,9=1/99;
 Leave Link    1 at Thu Apr 28 15:05:36 2022, MaxMem= 10066329600 cpu:               0.6 elap:               0.0
 (Enter /sw/apps/gaussian-16.0/g16/l101.exe)
 ----------------------------------------------------
 step_1601_chromophore_3 TDDFT with wB97XD functional
 ----------------------------------------------------
 Symbolic Z-matrix:
 Charge =  0 Multiplicity = 1
 Mg                    1.657     8.184     25.97 
 C                     2.152     10.269    28.814 
 C                     2.095     5.448     28.233 
 C                     1.644     6.09      23.322 
 C                     1.526     10.92     23.976 
 N                     2.127     7.902     28.424 
 C                     2.21      8.972     29.28 
 C                     2.042     8.389     30.692 
 C                     2.246     6.838     30.477 
 C                     2.063     6.662     28.941 
 C                     3.7       6.316     30.921 
 C                     0.625     8.666     31.369 
 C                     0.622     9.019     32.858 
 C                     1.63      8.534     33.821 
 O                     2.64      9.135     34.061 
 O                     1.393     7.304     34.364 
 N                     1.814     6.109     25.806 
 C                     1.965     5.186     26.83 
 C                     2.138     3.886     26.259 
 C                     1.987     4.005     24.868 
 C                     1.8       5.466     24.601 
 C                     2.445     2.641     27.139 
 C                     2.019     2.787     23.891 
 O                     1.938     3.022     22.688 
 C                     2.075     1.329     24.226 
 N                     1.664     8.491     23.938 
 C                     1.54      7.462     23.024 
 C                     1.175     7.996     21.627 
 C                     1.185     9.528     21.788 
 C                     1.387     9.718     23.345 
 C                     2.052     7.464     20.452 
 C                    -0.078     10.254    21.28 
 C                     0.18      11.454    20.335 
 N                     1.841     10.199    26.288 
 C                     1.78      11.213    25.362 
 C                     2.013     12.536    26.014 
 C                     2.134     12.163    27.335 
 C                     2.117     10.729    27.479 
 C                     1.882     13.938    25.406 
 C                     2.328     12.763    28.706 
 O                     2.56      13.922    28.981 
 C                     2.13      11.512    29.673 
 C                     3.309     11.627    30.672 
 O                     4.494     11.323    30.441 
 O                     2.879     12.034    31.869 
 C                     3.999     12.149    32.86 
 C                     2.273     7.003     35.488 
 C                     1.809     5.767     36.179 
 C                     2.258     5.206     37.323 
 C                     3.41      5.632     38.156 
 C                     1.466     4.067     38. 
 C                     1.974     2.606     37.695 
 C                     0.841     1.573     37.34 
 C                     0.564     0.573     38.435 
 C                    -0.978     0.292     38.325 
 C                     1.333    -0.737     38.333 
 C                     2.258    -0.818     39.58 
 C                     3.475    -1.784     39.286 
 C                     3.48     -2.987     40.264 
 C                     4.695    -3.04      41.184 
 C                     3.417    -4.276     39.439 
 C                     2.04     -4.616     38.717 
 C                     1.576    -6.06      38.867 
 C                     2.035    -7.005     37.779 
 C                     0.707    -7.454     37.072 
 C                     2.831    -8.14      38.285 
 H                     2.178     4.638     28.961 
 H                     1.441     5.492     22.432 
 H                     1.504     11.828    23.37 
 H                     2.833     8.8       31.319 
 H                     1.542     6.302     31.114 
 H                     4.472     7.079     31.026 
 H                     4.14      5.74      30.107 
 H                     3.841     5.603     31.734 
 H                    -0.018     7.788     31.311 
 H                     0.14      9.41      30.737 
 H                    -0.24      8.534     33.317 
 H                     0.452     10.078    33.054 
 H                     3.        1.889     26.578 
 H                     1.47      2.265     27.45 
 H                     3.127     2.989     27.914 
 H                     3.09      1.287     24.62 
 H                     2.028     0.674     23.356 
 H                     1.34      0.889     24.9 
 H                     0.18      7.582     21.463 
 H                     2.082     9.982     21.367 
 H                     1.664     6.492     20.146 
 H                     3.081     7.38      20.8 
 H                     2.094     8.12      19.583 
 H                    -0.787     10.528    22.061 
 H                    -0.585     9.528     20.644 
 H                     0.007     11.019    19.35 
 H                     1.192     11.85     20.42 
 H                    -0.562     12.227    20.532 
 H                     1.013     14.424    25.849 
 H                     1.677     13.742    24.353 
 H                     2.815     14.48     25.555 
 H                     1.117     11.532    30.074 
 H                     4.792     12.826    32.544 
 H                     4.397     11.147    33.024 
 H                     3.728     12.495    33.858 
 H                     2.214     7.725     36.303 
 H                     3.332     6.86      35.272 
 H                     0.929     5.298     35.74 
 H                     3.927     6.501     37.748 
 H                     4.074     4.768     38.136 
 H                     3.151     5.941     39.169 
 H                     0.397     4.092     37.788 
 H                     1.322     4.276     39.06 
 H                     2.58      2.298     38.547 
 H                     2.616     2.72      36.822 
 H                     1.183     1.121     36.409 
 H                    -0.007     2.175     37.011 
 H                     0.666     1.073     39.399 
 H                    -1.474     0.782     37.487 
 H                    -1.458     0.584     39.259 
 H                    -1.169    -0.761     38.118 
 H                     1.911    -0.74      37.409 
 H                     0.67     -1.601     38.285 
 H                     1.683    -1.074     40.47 
 H                     2.696     0.135     39.876 
 H                     4.351    -1.135     39.278 
 H                     3.367    -2.174     38.274 
 H                     2.654    -2.861     40.963 
 H                     5.376    -3.884     41.075 
 H                     4.266    -3.192     42.174 
 H                     5.345    -2.171     41.082 
 H                     3.519    -5.052     40.197 
 H                     4.226    -4.411     38.722 
 H                     2.099    -4.405     37.649 
 H                     1.35     -3.887     39.141 
 H                     0.491    -5.956     38.862 
 H                     1.883    -6.576     39.777 
 H                     2.595    -6.53      36.974 
 H                     0.856    -8.207     36.298 
 H                     0.226    -6.653     36.51 
 H                     0.09     -8.039     37.755 
 H                     2.282    -8.872     38.877 
 H                     3.653    -7.715     38.861 
 H                     3.256    -8.675     37.435 
 
 ITRead=  0  0  0  0  0  0  0  0  0  0  0  0  0  0  0  0  0  0  0  0
 ITRead=  0  0  0  0  0  0  0  0  0  0  0  0  0  0  0  0  0  0  0  0
 ITRead=  0  0  0  0  0  0  0  0  0  0  0  0  0  0  0  0  0  0  0  0
 ITRead=  0  0  0  0  0  0  0  0  0  0  0  0  0  0  0  0  0  0  0  0
 ITRead=  0  0  0  0  0  0  0  0  0  0  0  0  0  0  0  0  0  0  0  0
 ITRead=  0  0  0  0  0  0  0  0  0  0  0  0  0  0  0  0  0  0  0  0
 ITRead=  0  0  0  0  0  0  0  0  0  0  0  0  0  0  0  0  0  0  0  0
 MicOpt= -1 -1 -1 -1 -1 -1 -1 -1 -1 -1 -1 -1 -1 -1 -1 -1 -1 -1 -1 -1
 MicOpt= -1 -1 -1 -1 -1 -1 -1 -1 -1 -1 -1 -1 -1 -1 -1 -1 -1 -1 -1 -1
 MicOpt= -1 -1 -1 -1 -1 -1 -1 -1 -1 -1 -1 -1 -1 -1 -1 -1 -1 -1 -1 -1
 MicOpt= -1 -1 -1 -1 -1 -1 -1 -1 -1 -1 -1 -1 -1 -1 -1 -1 -1 -1 -1 -1
 MicOpt= -1 -1 -1 -1 -1 -1 -1 -1 -1 -1 -1 -1 -1 -1 -1 -1 -1 -1 -1 -1
 MicOpt= -1 -1 -1 -1 -1 -1 -1 -1 -1 -1 -1 -1 -1 -1 -1 -1 -1 -1 -1 -1
 MicOpt= -1 -1 -1 -1 -1 -1 -1 -1 -1 -1 -1 -1 -1 -1 -1 -1 -1 -1 -1 -1
 NAtoms=    140 NQM=      140 NQMF=       0 NMMI=      0 NMMIF=      0
                NMic=       0 NMicF=      0.
                    Isotopes and Nuclear Properties:
 (Nuclear quadrupole moments (NQMom) in fm**2, nuclear magnetic moments (NMagM)
  in nuclear magnetons)

  Atom         1           2           3           4           5           6           7           8           9          10
 IAtWgt=          24          12          12          12          12          14          12          12          12          12
 AtmWgt=  23.9850450  12.0000000  12.0000000  12.0000000  12.0000000  14.0030740  12.0000000  12.0000000  12.0000000  12.0000000
 NucSpn=           0           0           0           0           0           2           0           0           0           0
 AtZEff=  -0.0000000  -0.0000000  -0.0000000  -0.0000000  -0.0000000  -0.0000000  -0.0000000  -0.0000000  -0.0000000  -0.0000000
 NQMom=    0.0000000   0.0000000   0.0000000   0.0000000   0.0000000   2.0440000   0.0000000   0.0000000   0.0000000   0.0000000
 NMagM=    0.0000000   0.0000000   0.0000000   0.0000000   0.0000000   0.4037610   0.0000000   0.0000000   0.0000000   0.0000000
 AtZNuc=  12.0000000   6.0000000   6.0000000   6.0000000   6.0000000   7.0000000   6.0000000   6.0000000   6.0000000   6.0000000

  Atom        11          12          13          14          15          16          17          18          19          20
 IAtWgt=          12          12          12          12          16          16          14          12          12          12
 AtmWgt=  12.0000000  12.0000000  12.0000000  12.0000000  15.9949146  15.9949146  14.0030740  12.0000000  12.0000000  12.0000000
 NucSpn=           0           0           0           0           0           0           2           0           0           0
 AtZEff=  -0.0000000  -0.0000000  -0.0000000  -0.0000000  -0.0000000  -0.0000000  -0.0000000  -0.0000000  -0.0000000  -0.0000000
 NQMom=    0.0000000   0.0000000   0.0000000   0.0000000   0.0000000   0.0000000   2.0440000   0.0000000   0.0000000   0.0000000
 NMagM=    0.0000000   0.0000000   0.0000000   0.0000000   0.0000000   0.0000000   0.4037610   0.0000000   0.0000000   0.0000000
 AtZNuc=   6.0000000   6.0000000   6.0000000   6.0000000   8.0000000   8.0000000   7.0000000   6.0000000   6.0000000   6.0000000

  Atom        21          22          23          24          25          26          27          28          29          30
 IAtWgt=          12          12          12          16          12          14          12          12          12          12
 AtmWgt=  12.0000000  12.0000000  12.0000000  15.9949146  12.0000000  14.0030740  12.0000000  12.0000000  12.0000000  12.0000000
 NucSpn=           0           0           0           0           0           2           0           0           0           0
 AtZEff=  -0.0000000  -0.0000000  -0.0000000  -0.0000000  -0.0000000  -0.0000000  -0.0000000  -0.0000000  -0.0000000  -0.0000000
 NQMom=    0.0000000   0.0000000   0.0000000   0.0000000   0.0000000   2.0440000   0.0000000   0.0000000   0.0000000   0.0000000
 NMagM=    0.0000000   0.0000000   0.0000000   0.0000000   0.0000000   0.4037610   0.0000000   0.0000000   0.0000000   0.0000000
 AtZNuc=   6.0000000   6.0000000   6.0000000   8.0000000   6.0000000   7.0000000   6.0000000   6.0000000   6.0000000   6.0000000

  Atom        31          32          33          34          35          36          37          38          39          40
 IAtWgt=          12          12          12          14          12          12          12          12          12          12
 AtmWgt=  12.0000000  12.0000000  12.0000000  14.0030740  12.0000000  12.0000000  12.0000000  12.0000000  12.0000000  12.0000000
 NucSpn=           0           0           0           2           0           0           0           0           0           0
 AtZEff=  -0.0000000  -0.0000000  -0.0000000  -0.0000000  -0.0000000  -0.0000000  -0.0000000  -0.0000000  -0.0000000  -0.0000000
 NQMom=    0.0000000   0.0000000   0.0000000   2.0440000   0.0000000   0.0000000   0.0000000   0.0000000   0.0000000   0.0000000
 NMagM=    0.0000000   0.0000000   0.0000000   0.4037610   0.0000000   0.0000000   0.0000000   0.0000000   0.0000000   0.0000000
 AtZNuc=   6.0000000   6.0000000   6.0000000   7.0000000   6.0000000   6.0000000   6.0000000   6.0000000   6.0000000   6.0000000

  Atom        41          42          43          44          45          46          47          48          49          50
 IAtWgt=          16          12          12          16          16          12          12          12          12          12
 AtmWgt=  15.9949146  12.0000000  12.0000000  15.9949146  15.9949146  12.0000000  12.0000000  12.0000000  12.0000000  12.0000000
 NucSpn=           0           0           0           0           0           0           0           0           0           0
 AtZEff=  -0.0000000  -0.0000000  -0.0000000  -0.0000000  -0.0000000  -0.0000000  -0.0000000  -0.0000000  -0.0000000  -0.0000000
 NQMom=    0.0000000   0.0000000   0.0000000   0.0000000   0.0000000   0.0000000   0.0000000   0.0000000   0.0000000   0.0000000
 NMagM=    0.0000000   0.0000000   0.0000000   0.0000000   0.0000000   0.0000000   0.0000000   0.0000000   0.0000000   0.0000000
 AtZNuc=   8.0000000   6.0000000   6.0000000   8.0000000   8.0000000   6.0000000   6.0000000   6.0000000   6.0000000   6.0000000

  Atom        51          52          53          54          55          56          57          58          59          60
 IAtWgt=          12          12          12          12          12          12          12          12          12          12
 AtmWgt=  12.0000000  12.0000000  12.0000000  12.0000000  12.0000000  12.0000000  12.0000000  12.0000000  12.0000000  12.0000000
 NucSpn=           0           0           0           0           0           0           0           0           0           0
 AtZEff=  -0.0000000  -0.0000000  -0.0000000  -0.0000000  -0.0000000  -0.0000000  -0.0000000  -0.0000000  -0.0000000  -0.0000000
 NQMom=    0.0000000   0.0000000   0.0000000   0.0000000   0.0000000   0.0000000   0.0000000   0.0000000   0.0000000   0.0000000
 NMagM=    0.0000000   0.0000000   0.0000000   0.0000000   0.0000000   0.0000000   0.0000000   0.0000000   0.0000000   0.0000000
 AtZNuc=   6.0000000   6.0000000   6.0000000   6.0000000   6.0000000   6.0000000   6.0000000   6.0000000   6.0000000   6.0000000

  Atom        61          62          63          64          65          66          67          68          69          70
 IAtWgt=          12          12          12          12          12          12           1           1           1           1
 AtmWgt=  12.0000000  12.0000000  12.0000000  12.0000000  12.0000000  12.0000000   1.0078250   1.0078250   1.0078250   1.0078250
 NucSpn=           0           0           0           0           0           0           1           1           1           1
 AtZEff=  -0.0000000  -0.0000000  -0.0000000  -0.0000000  -0.0000000  -0.0000000  -0.0000000  -0.0000000  -0.0000000  -0.0000000
 NQMom=    0.0000000   0.0000000   0.0000000   0.0000000   0.0000000   0.0000000   0.0000000   0.0000000   0.0000000   0.0000000
 NMagM=    0.0000000   0.0000000   0.0000000   0.0000000   0.0000000   0.0000000   2.7928460   2.7928460   2.7928460   2.7928460
 AtZNuc=   6.0000000   6.0000000   6.0000000   6.0000000   6.0000000   6.0000000   1.0000000   1.0000000   1.0000000   1.0000000

  Atom        71          72          73          74          75          76          77          78          79          80
 IAtWgt=           1           1           1           1           1           1           1           1           1           1
 AtmWgt=   1.0078250   1.0078250   1.0078250   1.0078250   1.0078250   1.0078250   1.0078250   1.0078250   1.0078250   1.0078250
 NucSpn=           1           1           1           1           1           1           1           1           1           1
 AtZEff=  -0.0000000  -0.0000000  -0.0000000  -0.0000000  -0.0000000  -0.0000000  -0.0000000  -0.0000000  -0.0000000  -0.0000000
 NQMom=    0.0000000   0.0000000   0.0000000   0.0000000   0.0000000   0.0000000   0.0000000   0.0000000   0.0000000   0.0000000
 NMagM=    2.7928460   2.7928460   2.7928460   2.7928460   2.7928460   2.7928460   2.7928460   2.7928460   2.7928460   2.7928460
 AtZNuc=   1.0000000   1.0000000   1.0000000   1.0000000   1.0000000   1.0000000   1.0000000   1.0000000   1.0000000   1.0000000

  Atom        81          82          83          84          85          86          87          88          89          90
 IAtWgt=           1           1           1           1           1           1           1           1           1           1
 AtmWgt=   1.0078250   1.0078250   1.0078250   1.0078250   1.0078250   1.0078250   1.0078250   1.0078250   1.0078250   1.0078250
 NucSpn=           1           1           1           1           1           1           1           1           1           1
 AtZEff=  -0.0000000  -0.0000000  -0.0000000  -0.0000000  -0.0000000  -0.0000000  -0.0000000  -0.0000000  -0.0000000  -0.0000000
 NQMom=    0.0000000   0.0000000   0.0000000   0.0000000   0.0000000   0.0000000   0.0000000   0.0000000   0.0000000   0.0000000
 NMagM=    2.7928460   2.7928460   2.7928460   2.7928460   2.7928460   2.7928460   2.7928460   2.7928460   2.7928460   2.7928460
 AtZNuc=   1.0000000   1.0000000   1.0000000   1.0000000   1.0000000   1.0000000   1.0000000   1.0000000   1.0000000   1.0000000

  Atom        91          92          93          94          95          96          97          98          99         100
 IAtWgt=           1           1           1           1           1           1           1           1           1           1
 AtmWgt=   1.0078250   1.0078250   1.0078250   1.0078250   1.0078250   1.0078250   1.0078250   1.0078250   1.0078250   1.0078250
 NucSpn=           1           1           1           1           1           1           1           1           1           1
 AtZEff=  -0.0000000  -0.0000000  -0.0000000  -0.0000000  -0.0000000  -0.0000000  -0.0000000  -0.0000000  -0.0000000  -0.0000000
 NQMom=    0.0000000   0.0000000   0.0000000   0.0000000   0.0000000   0.0000000   0.0000000   0.0000000   0.0000000   0.0000000
 NMagM=    2.7928460   2.7928460   2.7928460   2.7928460   2.7928460   2.7928460   2.7928460   2.7928460   2.7928460   2.7928460
 AtZNuc=   1.0000000   1.0000000   1.0000000   1.0000000   1.0000000   1.0000000   1.0000000   1.0000000   1.0000000   1.0000000

  Atom       101         102         103         104         105         106         107         108         109         110
 IAtWgt=           1           1           1           1           1           1           1           1           1           1
 AtmWgt=   1.0078250   1.0078250   1.0078250   1.0078250   1.0078250   1.0078250   1.0078250   1.0078250   1.0078250   1.0078250
 NucSpn=           1           1           1           1           1           1           1           1           1           1
 AtZEff=  -0.0000000  -0.0000000  -0.0000000  -0.0000000  -0.0000000  -0.0000000  -0.0000000  -0.0000000  -0.0000000  -0.0000000
 NQMom=    0.0000000   0.0000000   0.0000000   0.0000000   0.0000000   0.0000000   0.0000000   0.0000000   0.0000000   0.0000000
 NMagM=    2.7928460   2.7928460   2.7928460   2.7928460   2.7928460   2.7928460   2.7928460   2.7928460   2.7928460   2.7928460
 AtZNuc=   1.0000000   1.0000000   1.0000000   1.0000000   1.0000000   1.0000000   1.0000000   1.0000000   1.0000000   1.0000000

  Atom       111         112         113         114         115         116         117         118         119         120
 IAtWgt=           1           1           1           1           1           1           1           1           1           1
 AtmWgt=   1.0078250   1.0078250   1.0078250   1.0078250   1.0078250   1.0078250   1.0078250   1.0078250   1.0078250   1.0078250
 NucSpn=           1           1           1           1           1           1           1           1           1           1
 AtZEff=  -0.0000000  -0.0000000  -0.0000000  -0.0000000  -0.0000000  -0.0000000  -0.0000000  -0.0000000  -0.0000000  -0.0000000
 NQMom=    0.0000000   0.0000000   0.0000000   0.0000000   0.0000000   0.0000000   0.0000000   0.0000000   0.0000000   0.0000000
 NMagM=    2.7928460   2.7928460   2.7928460   2.7928460   2.7928460   2.7928460   2.7928460   2.7928460   2.7928460   2.7928460
 AtZNuc=   1.0000000   1.0000000   1.0000000   1.0000000   1.0000000   1.0000000   1.0000000   1.0000000   1.0000000   1.0000000

  Atom       121         122         123         124         125         126         127         128         129         130
 IAtWgt=           1           1           1           1           1           1           1           1           1           1
 AtmWgt=   1.0078250   1.0078250   1.0078250   1.0078250   1.0078250   1.0078250   1.0078250   1.0078250   1.0078250   1.0078250
 NucSpn=           1           1           1           1           1           1           1           1           1           1
 AtZEff=  -0.0000000  -0.0000000  -0.0000000  -0.0000000  -0.0000000  -0.0000000  -0.0000000  -0.0000000  -0.0000000  -0.0000000
 NQMom=    0.0000000   0.0000000   0.0000000   0.0000000   0.0000000   0.0000000   0.0000000   0.0000000   0.0000000   0.0000000
 NMagM=    2.7928460   2.7928460   2.7928460   2.7928460   2.7928460   2.7928460   2.7928460   2.7928460   2.7928460   2.7928460
 AtZNuc=   1.0000000   1.0000000   1.0000000   1.0000000   1.0000000   1.0000000   1.0000000   1.0000000   1.0000000   1.0000000

  Atom       131         132         133         134         135         136         137         138         139         140
 IAtWgt=           1           1           1           1           1           1           1           1           1           1
 AtmWgt=   1.0078250   1.0078250   1.0078250   1.0078250   1.0078250   1.0078250   1.0078250   1.0078250   1.0078250   1.0078250
 NucSpn=           1           1           1           1           1           1           1           1           1           1
 AtZEff=  -0.0000000  -0.0000000  -0.0000000  -0.0000000  -0.0000000  -0.0000000  -0.0000000  -0.0000000  -0.0000000  -0.0000000
 NQMom=    0.0000000   0.0000000   0.0000000   0.0000000   0.0000000   0.0000000   0.0000000   0.0000000   0.0000000   0.0000000
 NMagM=    2.7928460   2.7928460   2.7928460   2.7928460   2.7928460   2.7928460   2.7928460   2.7928460   2.7928460   2.7928460
 AtZNuc=   1.0000000   1.0000000   1.0000000   1.0000000   1.0000000   1.0000000   1.0000000   1.0000000   1.0000000   1.0000000
 Leave Link  101 at Thu Apr 28 15:05:36 2022, MaxMem= 10066329600 cpu:               2.8 elap:               0.1
 (Enter /sw/apps/gaussian-16.0/g16/l202.exe)
 Stoichiometry    C55H74MgN4O6
 Framework group  C1[X(C55H74MgN4O6)]
 Deg. of freedom   414
 Full point group                 C1      NOp   1
 Largest Abelian subgroup         C1      NOp   1
 Largest concise Abelian subgroup C1      NOp   1
                         Standard orientation:                         
 ---------------------------------------------------------------------
 Center     Atomic      Atomic             Coordinates (Angstroms)
 Number     Number       Type             X           Y           Z
 ---------------------------------------------------------------------
      1         12           0        5.382730    1.178359    0.145184
      2          6           0        4.630714   -2.294683   -0.085113
      3          6           0        1.864336    1.693238   -0.247899
      4          6           0        5.970977    4.494117   -0.092773
      5          6           0        8.692899    0.463676    0.249598
      6          7           0        3.350683   -0.267643   -0.174814
      7          6           0        3.419740   -1.638622   -0.161635
      8          6           0        1.981402   -2.125223    0.075561
      9          6           0        1.107165   -0.839521   -0.200343
     10          6           0        2.142326    0.320828   -0.124219
     11          6           0        0.394515   -0.847113   -1.641110
     12          6           0        1.692820   -2.678754    1.542963
     13          6           0        0.814708   -3.926911    1.655941
     14          6           0       -0.250693   -4.273583    0.695005
     15          8           0       -0.054627   -4.953076   -0.273886
     16          8           0       -1.467768   -3.697438    0.920177
     17          7           0        4.123476    2.824926   -0.100313
     18          6           0        2.741752    2.826054   -0.219235
     19          6           0        2.300959    4.162011   -0.477868
     20          6           0        3.422942    5.003916   -0.413109
     21          6           0        4.597171    4.102989   -0.188844
     22          6           0        0.809312    4.487676   -0.773848
     23          6           0        3.343302    6.557226   -0.554403
     24          8           0        4.400200    7.183187   -0.542864
     25          6           0        2.123334    7.420281   -0.643510
     26          7           0        7.104832    2.292575    0.017869
     27          6           0        7.107309    3.674226    0.043356
     28          6           0        8.514429    4.225500    0.336780
     29          6           0        9.411365    2.974439    0.395066
     30          6           0        8.369364    1.788393    0.301887
     31          6           0        9.018474    5.337306   -0.634099
     32          6           0       10.302832    2.858423    1.648914
     33          6           0       11.799876    2.569057    1.375571
     34          7           0        6.479042   -0.549578    0.058379
     35          6           0        7.845859   -0.689886    0.097350
     36          6           0        8.231853   -2.125541   -0.042744
     37          6           0        6.994188   -2.729361   -0.091717
     38          6           0        5.934598   -1.752695   -0.119524
     39          6           0        9.620386   -2.760877    0.101315
     40          6           0        6.363661   -4.097944   -0.173524
     41          8           0        6.922465   -5.161734   -0.343284
     42          6           0        4.814896   -3.789328    0.039493
     43          6           0        4.117063   -4.619993   -1.066984
     44          8           0        4.059904   -4.324736   -2.275106
     45          8           0        3.503048   -5.684894   -0.545131
     46          6           0        2.812580   -6.506061   -1.593294
     47          6           0       -2.528259   -4.278848    0.104275
     48          6           0       -3.854571   -3.779921    0.565188
     49          6           0       -5.092549   -4.149695    0.170557
     50          6           0       -5.459158   -5.100853   -0.908038
     51          6           0       -6.336264   -3.690543    0.961296
     52          6           0       -7.090626   -2.434193    0.379803
     53          6           0       -7.484779   -1.347318    1.447580
     54          6           0       -8.960631   -1.305134    1.757154
     55          6           0       -9.028797   -0.912612    3.277057
     56          6           0       -9.772532   -0.314403    0.934274
     57          6           0      -10.779879   -1.144635    0.089785
     58          6           0      -11.230381   -0.315712   -1.179315
     59          6           0      -12.760261   -0.064686   -1.166200
     60          6           0      -13.511486   -0.720232   -2.320043
     61          6           0      -12.998401    1.447879   -1.205574
     62          6           0      -12.652327    2.277456    0.107837
     63          6           0      -13.712530    3.289496    0.525780
     64          6           0      -13.537957    4.681935   -0.038215
     65          6           0      -13.276637    5.579481    1.223196
     66          6           0      -14.688584    5.137955   -0.841943
     67          1           0        0.780440    1.810615   -0.313965
     68          1           0        6.243626    5.543723    0.029311
     69          1           0        9.749285    0.188088    0.266455
     70          1           0        1.767251   -2.903191   -0.656993
     71          1           0        0.291752   -0.810417    0.522799
     72          1           0        0.804646   -1.541303   -2.375324
     73          1           0        0.609864    0.089947   -2.154447
     74          1           0       -0.689837   -0.862515   -1.755835
     75          1           0        1.168159   -1.938984    2.147254
     76          1           0        2.670602   -2.781678    2.013637
     77          1           0        0.169889   -3.806892    2.527006
     78          1           0        1.375582   -4.835120    1.878144
     79          1           0        0.716017    5.380615   -1.392076
     80          1           0        0.350132    4.632253    0.204403
     81          1           0        0.445293    3.666634   -1.390478
     82          1           0        1.777161    7.118673   -1.631651
     83          1           0        2.339513    8.488093   -0.677838
     84          1           0        1.344760    7.355446    0.116569
     85          1           0        8.385418    4.714035    1.302703
     86          1           0       10.006378    2.849938   -0.509603
     87          1           0        8.610699    6.293100   -0.303735
     88          1           0        8.678450    5.096482   -1.640771
     89          1           0       10.102511    5.419254   -0.707644
     90          1           0        9.917896    2.187859    2.416954
     91          1           0       10.307823    3.857286    2.085800
     92          1           0       12.251063    3.557651    1.467723
     93          1           0       11.975565    2.144999    0.386889
     94          1           0       12.183508    1.914518    2.157433
     95          1           0        9.632576   -3.354772    1.014959
     96          1           0       10.281868   -1.903476    0.229979
     97          1           0        9.847076   -3.330640   -0.798927
     98          1           0        4.552363   -3.997238    1.076420
     99          1           0        3.479684   -6.859093   -2.379025
    100          1           0        2.015198   -5.894768   -2.017331
    101          1           0        2.303012   -7.405139   -1.245213
    102          1           0       -2.656350   -5.352750    0.243261
    103          1           0       -2.486735   -4.104737   -0.971154
    104          1           0       -3.817327   -3.076640    1.396508
    105          1           0       -4.589301   -5.516712   -1.417277
    106          1           0       -6.033653   -4.489872   -1.604062
    107          1           0       -6.004790   -5.983081   -0.572345
    108          1           0       -6.136107   -3.492763    2.014458
    109          1           0       -6.986135   -4.537393    1.181591
    110          1           0       -7.946076   -2.810941   -0.180796
    111          1           0       -6.377679   -1.987703   -0.312759
    112          1           0       -7.097345   -0.418471    1.029050
    113          1           0       -6.819180   -1.518732    2.294542
    114          1           0       -9.351286   -2.323308    1.736891
    115          1           0       -8.065521   -0.688857    3.735742
    116          1           0       -9.521491   -1.714138    3.827355
    117          1           0       -9.568977    0.024136    3.414347
    118          1           0       -9.097677    0.257740    0.297806
    119          1           0      -10.294897    0.409727    1.559686
    120          1           0      -11.601414   -1.501123    0.711282
    121          1           0      -10.378426   -2.083196   -0.291803
    122          1           0      -10.813972   -0.857464   -2.028873
    123          1           0      -10.730661    0.652505   -1.152035
    124          1           0      -13.179467   -0.562169   -0.292399
    125          1           0      -14.006595   -0.066533   -3.038043
    126          1           0      -14.342107   -1.230921   -1.833718
    127          1           0      -12.873410   -1.347961   -2.942041
    128          1           0      -14.082580    1.518674   -1.287356
    129          1           0      -12.571322    1.965199   -2.063932
    130          1           0      -11.715537    2.822066   -0.012370
    131          1           0      -12.468762    1.501927    0.850922
    132          1           0      -13.614206    3.292525    1.611316
    133          1           0      -14.742430    3.051013    0.259255
    134          1           0      -12.634136    4.819758   -0.630972
    135          1           0      -13.201888    6.642994    0.995956
    136          1           0      -12.313398    5.387416    1.696576
    137          1           0      -14.161012    5.608543    1.860721
    138          1           0      -15.604190    5.332111   -0.283680
    139          1           0      -14.856057    4.381053   -1.608192
    140          1           0      -14.418752    6.069282   -1.341113
 ---------------------------------------------------------------------
 Rotational constants (GHZ):           0.0389723           0.0097885           0.0080501
 Leave Link  202 at Thu Apr 28 15:05:36 2022, MaxMem= 10066329600 cpu:               0.3 elap:               0.0
 (Enter /sw/apps/gaussian-16.0/g16/l301.exe)
 Standard basis: def2SVP (5D, 7F)
 Ernie: Thresh=  0.10000D-02 Tol=  0.10000D-05 Strict=F.
 There are  1364 symmetry adapted cartesian basis functions of A   symmetry.
 There are  1298 symmetry adapted basis functions of A   symmetry.
  1298 basis functions,  2180 primitive gaussians,  1364 cartesian basis functions
   246 alpha electrons      246 beta electrons
       nuclear repulsion energy      9393.9196252340 Hartrees.
 IExCor= 4639 DFT=T Ex+Corr=wB97XD ExCW=0 ScaHFX=  1.000000
 ScaDFX=  1.000000  1.000000  1.000000  1.000000 ScalE2=  1.000000  1.000000
 IRadAn=      5 IRanWt=     -1 IRanGd=            0 ICorTp=0 IEmpDi=121
 HFx  wShort=  0.000000 wLong=  0.200000 cFull=  0.222036 cShort=  0.000000 cLong=  0.777964
 DFx  wShort=  0.000000 wLong=  0.200000 cFull=  0.000000 cShort=  0.000000 cLong=  1.000000
 NAtoms=  140 NActive=  140 NUniq=  140 SFac= 1.00D+00 NAtFMM=   60 NAOKFM=T Big=T
 Integral buffers will be    131072 words long.
 Raffenetti 1 integral format.
 Two-electron integral symmetry is turned on.
 R6Disp:  Grimme-D2 Dispersion energy=       -0.1322777682 Hartrees.
 Nuclear repulsion after empirical dispersion term =     9393.7873474658 Hartrees.
 Leave Link  301 at Thu Apr 28 15:05:36 2022, MaxMem= 10066329600 cpu:               1.3 elap:               0.1
 (Enter /sw/apps/gaussian-16.0/g16/l302.exe)
 NPDir=0 NMtPBC=     1 NCelOv=     1 NCel=       1 NClECP=     1 NCelD=      1
         NCelK=      1 NCelE2=     1 NClLst=     1 CellRange=     0.0.
 One-electron integrals computed using PRISM.
 One-electron integral symmetry used in STVInt
   1 Symmetry operations used in ECPInt.
 ECPInt:  NShTT=  192510 NPrTT=  683786 LenC2=   90622 LenP2D=  199483.
 LDataN:  DoStor=T MaxTD1= 4 Len=   56
 NBasis=  1298 RedAO= T EigKep=  3.35D-04  NBF=  1298
 NBsUse=  1298 1.00D-06 EigRej= -1.00D+00 NBFU=  1298
 Precomputing XC quadrature grid using
 IXCGrd= 4 IRadAn=           5 IRanWt=          -1 IRanGd=           0 AccXCQ= 0.00D+00.
 Generated NRdTot=       0 NPtTot=           0 NUsed=           0 NTot=          32
 NSgBfM=  1057  1047  1050  1051  1057 MxSgAt=   140 MxSgA2=   140.
 Leave Link  302 at Thu Apr 28 15:05:39 2022, MaxMem= 10066329600 cpu:              75.8 elap:               3.2
 (Enter /sw/apps/gaussian-16.0/g16/l303.exe)
 DipDrv:  MaxL=1.
 Leave Link  303 at Thu Apr 28 15:05:39 2022, MaxMem= 10066329600 cpu:               5.6 elap:               0.3
 (Enter /sw/apps/gaussian-16.0/g16/l308.exe)
 Leave Link  308 at Thu Apr 28 15:05:40 2022, MaxMem= 10066329600 cpu:              11.1 elap:               0.5
 (Enter /sw/apps/gaussian-16.0/g16/l401.exe)
 ExpMin= 3.36D-02 ExpMax= 4.95D+03 ExpMxC= 7.45D+02 IAcc=3 IRadAn=         5 AccDes= 0.00D+00
 Harris functional with IExCor= 4639 and IRadAn=       5 diagonalized for initial guess.
 HarFok:  IExCor= 4639 AccDes= 0.00D+00 IRadAn=         5 IDoV= 1 UseB2=F ITyADJ=14
 ICtDFT=  3500011 ScaDFX=  1.000000  1.000000  1.000000  1.000000
 FoFCou: FMM=F IPFlag=           0 FMFlag=      100000 FMFlg1=        2001
         NFxFlg=           0 DoJE=T BraDBF=F KetDBF=T FulRan=T
         wScrn=  0.000000 ICntrl=       500 IOpCl=  0 I1Cent=   200000004 NGrid=           0
         NMat0=    1 NMatS0=      1 NMatT0=    0 NMatD0=    1 NMtDS0=    0 NMtDT0=    0
 Petite list used in FoFCou.
 Harris En= -2878.01061497997    
 JPrj=0 DoOrth=F DoCkMO=F.
 Leave Link  401 at Thu Apr 28 15:05:45 2022, MaxMem= 10066329600 cpu:             129.2 elap:               5.4
 (Enter /sw/apps/gaussian-16.0/g16/l502.exe)
 Integral symmetry usage will be decided dynamically.
 Closed shell SCF:
 Using DIIS extrapolation, IDIIS=  1040.
 NGot= 10066329600 LenX= 10062561258 LenY= 10060699398
 Requested convergence on RMS density matrix=1.00D-08 within 128 cycles.
 Requested convergence on MAX density matrix=1.00D-06.
 Requested convergence on             energy=1.00D-06.
 No special actions if energy rises.
 Fock matrices will be formed incrementally for  20 cycles.

 Cycle   1  Pass 1  IDiag  1:
 FoFJK:  IHMeth= 1 ICntrl=       0 DoSepK=T KAlg= 0 I1Cent=           0 FoldK=F
 IRaf=         1 NMat=       1 IRICut=       1 DoRegI=T DoRafI=F ISym2E= 0 IDoP0=0 IntGTp=1.
 FoFCou: FMM=T IPFlag=           0 FMFlag=      100000 FMFlg1=        2001
         NFxFlg=           0 DoJE=T BraDBF=F KetDBF=F FulRan=T
         wScrn=  0.000000 ICntrl=       500 IOpCl=  0 I1Cent=           0 NGrid=           0
         NMat0=    1 NMatS0=      1 NMatT0=    0 NMatD0=    1 NMtDS0=    0 NMtDT0=    0
 Symmetry not used in FoFCou.
 FMM levels:  10  Number of levels for PrismC:   9
 E= -3007.18817241772    
 DIIS: error= 2.69D-02 at cycle   1 NSaved=   1.
 NSaved= 1 IEnMin= 1 EnMin= -3007.18817241772     IErMin= 1 ErrMin= 2.69D-02
 ErrMax= 2.69D-02  0.00D+00 EMaxC= 1.00D-01 BMatC= 1.48D+00 BMatP= 1.48D+00
 IDIUse=3 WtCom= 7.31D-01 WtEn= 2.69D-01
 Coeff-Com:  0.100D+01
 Coeff-En:   0.100D+01
 Coeff:      0.100D+01
 Gap=     0.160 Goal=   None    Shift=    0.000
 GapD=    0.160 DampG=1.000 DampE=0.500 DampFc=0.5000 IDamp=-1.
 Damping current iteration by 5.00D-01
 RMSDP=1.49D-03 MaxDP=1.79D-01              OVMax= 1.32D-01

 Cycle   2  Pass 1  IDiag  1:
 RMSU=  7.36D-04    CP:  9.88D-01
 E= -3007.50968947208     Delta-E=       -0.321517054357 Rises=F Damp=T
 DIIS: error= 1.34D-02 at cycle   2 NSaved=   2.
 NSaved= 2 IEnMin= 2 EnMin= -3007.50968947208     IErMin= 2 ErrMin= 1.34D-02
 ErrMax= 1.34D-02  0.00D+00 EMaxC= 1.00D-01 BMatC= 2.88D-01 BMatP= 1.48D+00
 IDIUse=3 WtCom= 8.66D-01 WtEn= 1.34D-01
 Coeff-Com: -0.360D+00 0.136D+01
 Coeff-En:   0.000D+00 0.100D+01
 Coeff:     -0.312D+00 0.131D+01
 Gap=     0.176 Goal=   None    Shift=    0.000
 RMSDP=6.77D-04 MaxDP=9.78D-02 DE=-3.22D-01 OVMax= 1.24D-01

 Cycle   3  Pass 1  IDiag  1:
 RMSU=  6.21D-04    CP:  9.79D-01  1.35D+00
 E= -3007.74987193935     Delta-E=       -0.240182467271 Rises=F Damp=F
 DIIS: error= 1.62D-02 at cycle   3 NSaved=   3.
 NSaved= 3 IEnMin= 3 EnMin= -3007.74987193935     IErMin= 2 ErrMin= 1.34D-02
 ErrMax= 1.62D-02  0.00D+00 EMaxC= 1.00D-01 BMatC= 1.30D-01 BMatP= 2.88D-01
 IDIUse=3 WtCom= 8.38D-01 WtEn= 1.62D-01
 Coeff-Com: -0.308D+00 0.681D+00 0.628D+00
 Coeff-En:   0.000D+00 0.000D+00 0.100D+01
 Coeff:     -0.258D+00 0.570D+00 0.688D+00
 Gap=     0.164 Goal=   None    Shift=    0.000
 RMSDP=3.94D-04 MaxDP=4.46D-02 DE=-2.40D-01 OVMax= 7.51D-02

 Cycle   4  Pass 1  IDiag  1:
 RMSU=  2.11D-04    CP:  9.76D-01  1.63D+00  5.80D-01
 E= -3007.83991386705     Delta-E=       -0.090041927708 Rises=F Damp=F
 DIIS: error= 7.01D-03 at cycle   4 NSaved=   4.
 NSaved= 4 IEnMin= 4 EnMin= -3007.83991386705     IErMin= 4 ErrMin= 7.01D-03
 ErrMax= 7.01D-03  0.00D+00 EMaxC= 1.00D-01 BMatC= 2.24D-02 BMatP= 1.30D-01
 IDIUse=3 WtCom= 9.30D-01 WtEn= 7.01D-02
 Coeff-Com: -0.112D+00 0.224D+00 0.382D+00 0.506D+00
 Coeff-En:   0.000D+00 0.000D+00 0.124D+00 0.876D+00
 Coeff:     -0.104D+00 0.208D+00 0.363D+00 0.532D+00
 Gap=     0.164 Goal=   None    Shift=    0.000
 RMSDP=1.31D-04 MaxDP=1.73D-02 DE=-9.00D-02 OVMax= 2.69D-02

 Cycle   5  Pass 1  IDiag  1:
 RMSU=  5.89D-05    CP:  9.76D-01  1.59D+00  7.17D-01  6.42D-01
 E= -3007.85776905706     Delta-E=       -0.017855190006 Rises=F Damp=F
 DIIS: error= 9.17D-04 at cycle   5 NSaved=   5.
 NSaved= 5 IEnMin= 5 EnMin= -3007.85776905706     IErMin= 5 ErrMin= 9.17D-04
 ErrMax= 9.17D-04  0.00D+00 EMaxC= 1.00D-01 BMatC= 4.45D-04 BMatP= 2.24D-02
 IDIUse=3 WtCom= 9.91D-01 WtEn= 9.17D-03
 Coeff-Com: -0.268D-01 0.508D-01 0.120D+00 0.229D+00 0.627D+00
 Coeff-En:   0.000D+00 0.000D+00 0.000D+00 0.000D+00 0.100D+01
 Coeff:     -0.266D-01 0.504D-01 0.119D+00 0.227D+00 0.630D+00
 Gap=     0.163 Goal=   None    Shift=    0.000
 RMSDP=2.35D-05 MaxDP=3.50D-03 DE=-1.79D-02 OVMax= 5.45D-03

 Cycle   6  Pass 1  IDiag  1:
 RMSU=  1.95D-05    CP:  9.76D-01  1.60D+00  7.17D-01  6.94D-01  9.01D-01
 E= -3007.85811607794     Delta-E=       -0.000347020883 Rises=F Damp=F
 DIIS: error= 2.58D-04 at cycle   6 NSaved=   6.
 NSaved= 6 IEnMin= 6 EnMin= -3007.85811607794     IErMin= 6 ErrMin= 2.58D-04
 ErrMax= 2.58D-04  0.00D+00 EMaxC= 1.00D-01 BMatC= 6.01D-05 BMatP= 4.45D-04
 IDIUse=3 WtCom= 9.97D-01 WtEn= 2.58D-03
 Coeff-Com:  0.985D-02-0.211D-01-0.177D-01 0.327D-02 0.289D+00 0.737D+00
 Coeff-En:   0.000D+00 0.000D+00 0.000D+00 0.000D+00 0.000D+00 0.100D+01
 Coeff:      0.983D-02-0.211D-01-0.176D-01 0.326D-02 0.288D+00 0.738D+00
 Gap=     0.164 Goal=   None    Shift=    0.000
 RMSDP=1.09D-05 MaxDP=1.27D-03 DE=-3.47D-04 OVMax= 3.84D-03

 Cycle   7  Pass 1  IDiag  1:
 RMSU=  7.12D-06    CP:  9.76D-01  1.60D+00  7.22D-01  7.09D-01  1.01D+00
                    CP:  9.31D-01
 E= -3007.85818545307     Delta-E=       -0.000069375132 Rises=F Damp=F
 DIIS: error= 9.65D-05 at cycle   7 NSaved=   7.
 NSaved= 7 IEnMin= 7 EnMin= -3007.85818545307     IErMin= 7 ErrMin= 9.65D-05
 ErrMax= 9.65D-05  0.00D+00 EMaxC= 1.00D-01 BMatC= 5.64D-06 BMatP= 6.01D-05
 IDIUse=1 WtCom= 1.00D+00 WtEn= 0.00D+00
 Coeff-Com:  0.609D-02-0.123D-01-0.167D-01-0.203D-01 0.486D-01 0.282D+00
 Coeff-Com:  0.713D+00
 Coeff:      0.609D-02-0.123D-01-0.167D-01-0.203D-01 0.486D-01 0.282D+00
 Coeff:      0.713D+00
 Gap=     0.164 Goal=   None    Shift=    0.000
 RMSDP=4.14D-06 MaxDP=5.82D-04 DE=-6.94D-05 OVMax= 1.37D-03

 Cycle   8  Pass 1  IDiag  1:
 RMSU=  2.82D-06    CP:  9.76D-01  1.60D+00  7.24D-01  7.13D-01  1.03D+00
                    CP:  1.05D+00  1.07D+00
 E= -3007.85819540501     Delta-E=       -0.000009951935 Rises=F Damp=F
 DIIS: error= 3.52D-05 at cycle   8 NSaved=   8.
 NSaved= 8 IEnMin= 8 EnMin= -3007.85819540501     IErMin= 8 ErrMin= 3.52D-05
 ErrMax= 3.52D-05  0.00D+00 EMaxC= 1.00D-01 BMatC= 1.27D-06 BMatP= 5.64D-06
 IDIUse=1 WtCom= 1.00D+00 WtEn= 0.00D+00
 Coeff-Com:  0.111D-02-0.203D-02-0.477D-02-0.109D-01-0.320D-01-0.236D-02
 Coeff-Com:  0.324D+00 0.727D+00
 Coeff:      0.111D-02-0.203D-02-0.477D-02-0.109D-01-0.320D-01-0.236D-02
 Coeff:      0.324D+00 0.727D+00
 Gap=     0.164 Goal=   None    Shift=    0.000
 RMSDP=2.42D-06 MaxDP=1.81D-04 DE=-9.95D-06 OVMax= 1.66D-03

 Cycle   9  Pass 1  IDiag  1:
 RMSU=  1.57D-06    CP:  9.76D-01  1.60D+00  7.24D-01  7.14D-01  1.04D+00
                    CP:  1.09D+00  1.26D+00  1.21D+00
 E= -3007.85819943184     Delta-E=       -0.000004026835 Rises=F Damp=F
 DIIS: error= 1.98D-05 at cycle   9 NSaved=   9.
 NSaved= 9 IEnMin= 9 EnMin= -3007.85819943184     IErMin= 9 ErrMin= 1.98D-05
 ErrMax= 1.98D-05  0.00D+00 EMaxC= 1.00D-01 BMatC= 2.84D-07 BMatP= 1.27D-06
 IDIUse=1 WtCom= 1.00D+00 WtEn= 0.00D+00
 Coeff-Com: -0.835D-03 0.173D-02 0.179D-02 0.669D-03-0.176D-01-0.519D-01
 Coeff-Com: -0.542D-01 0.224D+00 0.896D+00
 Coeff:     -0.835D-03 0.173D-02 0.179D-02 0.669D-03-0.176D-01-0.519D-01
 Coeff:     -0.542D-01 0.224D+00 0.896D+00
 Gap=     0.164 Goal=   None    Shift=    0.000
 RMSDP=1.87D-06 MaxDP=1.57D-04 DE=-4.03D-06 OVMax= 1.19D-03

 Cycle  10  Pass 1  IDiag  1:
 RMSU=  8.35D-07    CP:  9.76D-01  1.60D+00  7.25D-01  7.14D-01  1.05D+00
                    CP:  1.11D+00  1.37D+00  1.59D+00  1.50D+00
 E= -3007.85820142956     Delta-E=       -0.000001997718 Rises=F Damp=F
 DIIS: error= 1.44D-05 at cycle  10 NSaved=  10.
 NSaved=10 IEnMin=10 EnMin= -3007.85820142956     IErMin=10 ErrMin= 1.44D-05
 ErrMax= 1.44D-05  0.00D+00 EMaxC= 1.00D-01 BMatC= 1.07D-07 BMatP= 2.84D-07
 IDIUse=1 WtCom= 1.00D+00 WtEn= 0.00D+00
 Coeff-Com: -0.759D-03 0.147D-02 0.246D-02 0.436D-02 0.494D-02-0.196D-01
 Coeff-Com: -0.152D+00-0.161D+00 0.328D+00 0.993D+00
 Coeff:     -0.759D-03 0.147D-02 0.246D-02 0.436D-02 0.494D-02-0.196D-01
 Coeff:     -0.152D+00-0.161D+00 0.328D+00 0.993D+00
 Gap=     0.164 Goal=   None    Shift=    0.000
 RMSDP=1.77D-06 MaxDP=1.51D-04 DE=-2.00D-06 OVMax= 1.36D-03

 Cycle  11  Pass 1  IDiag  1:
 RMSU=  5.29D-07    CP:  9.76D-01  1.60D+00  7.25D-01  7.13D-01  1.05D+00
                    CP:  1.13D+00  1.47D+00  1.90D+00  2.21D+00  1.58D+00
 E= -3007.85820267575     Delta-E=       -0.000001246184 Rises=F Damp=F
 DIIS: error= 7.51D-06 at cycle  11 NSaved=  11.
 NSaved=11 IEnMin=11 EnMin= -3007.85820267575     IErMin=11 ErrMin= 7.51D-06
 ErrMax= 7.51D-06  0.00D+00 EMaxC= 1.00D-01 BMatC= 5.02D-08 BMatP= 1.07D-07
 IDIUse=1 WtCom= 1.00D+00 WtEn= 0.00D+00
 Coeff-Com: -0.445D-04 0.543D-04 0.413D-03 0.171D-02 0.801D-02 0.991D-02
 Coeff-Com: -0.526D-01-0.132D+00-0.189D+00 0.429D+00 0.925D+00
 Coeff:     -0.445D-04 0.543D-04 0.413D-03 0.171D-02 0.801D-02 0.991D-02
 Coeff:     -0.526D-01-0.132D+00-0.189D+00 0.429D+00 0.925D+00
 Gap=     0.164 Goal=   None    Shift=    0.000
 RMSDP=1.25D-06 MaxDP=1.03D-04 DE=-1.25D-06 OVMax= 8.76D-04

 Cycle  12  Pass 1  IDiag  1:
 RMSU=  2.89D-07    CP:  9.76D-01  1.60D+00  7.25D-01  7.13D-01  1.05D+00
                    CP:  1.14D+00  1.52D+00  2.13D+00  2.66D+00  2.27D+00
                    CP:  1.49D+00
 E= -3007.85820320456     Delta-E=       -0.000000528813 Rises=F Damp=F
 DIIS: error= 5.03D-06 at cycle  12 NSaved=  12.
 NSaved=12 IEnMin=12 EnMin= -3007.85820320456     IErMin=12 ErrMin= 5.03D-06
 ErrMax= 5.03D-06  0.00D+00 EMaxC= 1.00D-01 BMatC= 1.56D-08 BMatP= 5.02D-08
 IDIUse=1 WtCom= 1.00D+00 WtEn= 0.00D+00
 Coeff-Com:  0.373D-03-0.739D-03-0.112D-02-0.148D-02 0.485D-03 0.144D-01
 Coeff-Com:  0.564D-01 0.467D-01-0.253D+00-0.360D+00 0.347D+00 0.115D+01
 Coeff:      0.373D-03-0.739D-03-0.112D-02-0.148D-02 0.485D-03 0.144D-01
 Coeff:      0.564D-01 0.467D-01-0.253D+00-0.360D+00 0.347D+00 0.115D+01
 Gap=     0.164 Goal=   None    Shift=    0.000
 RMSDP=1.10D-06 MaxDP=8.39D-05 DE=-5.29D-07 OVMax= 8.25D-04

 Cycle  13  Pass 1  IDiag  1:
 RMSU=  2.11D-07    CP:  9.76D-01  1.60D+00  7.25D-01  7.13D-01  1.05D+00
                    CP:  1.14D+00  1.56D+00  2.28D+00  3.00D+00  2.86D+00
                    CP:  2.34D+00  1.54D+00
 E= -3007.85820342940     Delta-E=       -0.000000224840 Rises=F Damp=F
 DIIS: error= 1.69D-06 at cycle  13 NSaved=  13.
 NSaved=13 IEnMin=13 EnMin= -3007.85820342940     IErMin=13 ErrMin= 1.69D-06
 ErrMax= 1.69D-06  0.00D+00 EMaxC= 1.00D-01 BMatC= 4.29D-09 BMatP= 1.56D-08
 IDIUse=1 WtCom= 1.00D+00 WtEn= 0.00D+00
 Coeff-Com:  0.195D-03-0.381D-03-0.652D-03-0.108D-02-0.154D-02 0.461D-02
 Coeff-Com:  0.382D-01 0.533D-01-0.792D-01-0.273D+00-0.517D-01 0.553D+00
 Coeff-Com:  0.758D+00
 Coeff:      0.195D-03-0.381D-03-0.652D-03-0.108D-02-0.154D-02 0.461D-02
 Coeff:      0.382D-01 0.533D-01-0.792D-01-0.273D+00-0.517D-01 0.553D+00
 Coeff:      0.758D+00
 Gap=     0.164 Goal=   None    Shift=    0.000
 RMSDP=3.75D-07 MaxDP=2.69D-05 DE=-2.25D-07 OVMax= 2.67D-04

 Cycle  14  Pass 1  IDiag  1:
 RMSU=  1.78D-07    CP:  9.76D-01  1.60D+00  7.25D-01  7.13D-01  1.05D+00
                    CP:  1.14D+00  1.58D+00  2.33D+00  3.00D+00  3.00D+00
                    CP:  2.62D+00  1.90D+00  1.63D+00
 E= -3007.85820345644     Delta-E=       -0.000000027039 Rises=F Damp=F
 DIIS: error= 7.33D-07 at cycle  14 NSaved=  14.
 NSaved=14 IEnMin=14 EnMin= -3007.85820345644     IErMin=14 ErrMin= 7.33D-07
 ErrMax= 7.33D-07  0.00D+00 EMaxC= 1.00D-01 BMatC= 7.12D-10 BMatP= 4.29D-09
 IDIUse=1 WtCom= 1.00D+00 WtEn= 0.00D+00
 Coeff-Com:  0.585D-06 0.169D-05-0.223D-04-0.108D-03-0.713D-03-0.139D-02
 Coeff-Com:  0.291D-02 0.115D-01 0.237D-01-0.296D-01-0.967D-01-0.286D-01
 Coeff-Com:  0.296D+00 0.823D+00
 Coeff:      0.585D-06 0.169D-05-0.223D-04-0.108D-03-0.713D-03-0.139D-02
 Coeff:      0.291D-02 0.115D-01 0.237D-01-0.296D-01-0.967D-01-0.286D-01
 Coeff:      0.296D+00 0.823D+00
 Gap=     0.164 Goal=   None    Shift=    0.000
 RMSDP=1.22D-07 MaxDP=2.03D-05 DE=-2.70D-08 OVMax= 8.34D-05

 Cycle  15  Pass 1  IDiag  1:
 RMSU=  5.14D-08    CP:  9.76D-01  1.60D+00  7.25D-01  7.13D-01  1.05D+00
                    CP:  1.14D+00  1.58D+00  2.34D+00  3.00D+00  3.00D+00
                    CP:  2.74D+00  2.02D+00  1.95D+00  1.20D+00
 E= -3007.85820345983     Delta-E=       -0.000000003394 Rises=F Damp=F
 DIIS: error= 4.20D-07 at cycle  15 NSaved=  15.
 NSaved=15 IEnMin=15 EnMin= -3007.85820345983     IErMin=15 ErrMin= 4.20D-07
 ErrMax= 4.20D-07  0.00D+00 EMaxC= 1.00D-01 BMatC= 2.24D-10 BMatP= 7.12D-10
 IDIUse=1 WtCom= 1.00D+00 WtEn= 0.00D+00
 Coeff-Com: -0.445D-04 0.884D-04 0.141D-03 0.194D-03-0.262D-04-0.176D-02
 Coeff-Com: -0.716D-02-0.675D-02 0.280D-01 0.476D-01-0.338D-01-0.136D+00
 Coeff-Com: -0.237D-01 0.426D+00 0.707D+00
 Coeff:     -0.445D-04 0.884D-04 0.141D-03 0.194D-03-0.262D-04-0.176D-02
 Coeff:     -0.716D-02-0.675D-02 0.280D-01 0.476D-01-0.338D-01-0.136D+00
 Coeff:     -0.237D-01 0.426D+00 0.707D+00
 Gap=     0.164 Goal=   None    Shift=    0.000
 RMSDP=4.04D-08 MaxDP=3.25D-06 DE=-3.39D-09 OVMax= 2.65D-05

 Cycle  16  Pass 1  IDiag  1:
 RMSU=  2.32D-08    CP:  9.76D-01  1.60D+00  7.25D-01  7.13D-01  1.05D+00
                    CP:  1.14D+00  1.58D+00  2.34D+00  3.00D+00  3.00D+00
                    CP:  2.76D+00  2.07D+00  2.04D+00  1.28D+00  1.12D+00
 E= -3007.85820346041     Delta-E=       -0.000000000580 Rises=F Damp=F
 DIIS: error= 1.92D-07 at cycle  16 NSaved=  16.
 NSaved=16 IEnMin=16 EnMin= -3007.85820346041     IErMin=16 ErrMin= 1.92D-07
 ErrMax= 1.92D-07  0.00D+00 EMaxC= 1.00D-01 BMatC= 3.26D-11 BMatP= 2.24D-10
 IDIUse=1 WtCom= 1.00D+00 WtEn= 0.00D+00
 Coeff-Com: -0.147D-04 0.286D-04 0.531D-04 0.847D-04 0.114D-03-0.357D-03
 Coeff-Com: -0.290D-02-0.451D-02 0.592D-02 0.243D-01 0.232D-02-0.441D-01
 Coeff-Com: -0.641D-01-0.240D-02 0.218D+00 0.867D+00
 Coeff:     -0.147D-04 0.286D-04 0.531D-04 0.847D-04 0.114D-03-0.357D-03
 Coeff:     -0.290D-02-0.451D-02 0.592D-02 0.243D-01 0.232D-02-0.441D-01
 Coeff:     -0.641D-01-0.240D-02 0.218D+00 0.867D+00
 Gap=     0.164 Goal=   None    Shift=    0.000
 RMSDP=2.07D-08 MaxDP=2.72D-06 DE=-5.80D-10 OVMax= 1.27D-05

 Cycle  17  Pass 1  IDiag  1:
 RMSU=  1.13D-08    CP:  9.76D-01  1.60D+00  7.25D-01  7.13D-01  1.05D+00
                    CP:  1.14D+00  1.58D+00  2.34D+00  3.00D+00  3.00D+00
                    CP:  2.78D+00  2.09D+00  2.08D+00  1.30D+00  1.28D+00
                    CP:  1.41D+00
 E= -3007.85820346070     Delta-E=       -0.000000000286 Rises=F Damp=F
 DIIS: error= 1.25D-07 at cycle  17 NSaved=  17.
 NSaved=17 IEnMin=17 EnMin= -3007.85820346070     IErMin=17 ErrMin= 1.25D-07
 ErrMax= 1.25D-07  0.00D+00 EMaxC= 1.00D-01 BMatC= 1.19D-11 BMatP= 3.26D-11
 IDIUse=1 WtCom= 1.00D+00 WtEn= 0.00D+00
 Coeff-Com:  0.659D-05-0.134D-04-0.176D-04-0.208D-04 0.489D-04 0.337D-03
 Coeff-Com:  0.953D-03 0.214D-05-0.604D-02-0.255D-02 0.781D-02 0.215D-01
 Coeff-Com: -0.153D-01-0.106D+00-0.123D+00 0.332D+00 0.891D+00
 Coeff:      0.659D-05-0.134D-04-0.176D-04-0.208D-04 0.489D-04 0.337D-03
 Coeff:      0.953D-03 0.214D-05-0.604D-02-0.255D-02 0.781D-02 0.215D-01
 Coeff:     -0.153D-01-0.106D+00-0.123D+00 0.332D+00 0.891D+00
 Gap=     0.164 Goal=   None    Shift=    0.000
 RMSDP=1.36D-08 MaxDP=9.43D-07 DE=-2.86D-10 OVMax= 8.33D-06

 Cycle  18  Pass 1  IDiag  1:
 RMSU=  5.84D-09    CP:  9.76D-01  1.60D+00  7.25D-01  7.13D-01  1.05D+00
                    CP:  1.14D+00  1.58D+00  2.34D+00  3.00D+00  3.00D+00
                    CP:  2.78D+00  2.10D+00  2.09D+00  1.31D+00  1.37D+00
                    CP:  1.80D+00  1.47D+00
 E= -3007.85820346066     Delta-E=        0.000000000042 Rises=F Damp=F
 DIIS: error= 8.24D-08 at cycle  18 NSaved=  18.
 NSaved=18 IEnMin=17 EnMin= -3007.85820346070     IErMin=18 ErrMin= 8.24D-08
 ErrMax= 8.24D-08  0.00D+00 EMaxC= 1.00D-01 BMatC= 4.40D-12 BMatP= 1.19D-11
 IDIUse=1 WtCom= 1.00D+00 WtEn= 0.00D+00
 Coeff-Com:  0.801D-05-0.158D-04-0.264D-04-0.389D-04-0.226D-04 0.253D-03
 Coeff-Com:  0.151D-02 0.167D-02-0.486D-02-0.862D-02 0.807D-03 0.257D-01
 Coeff-Com:  0.182D-01-0.394D-01-0.146D+00-0.174D+00 0.378D+00 0.947D+00
 Coeff:      0.801D-05-0.158D-04-0.264D-04-0.389D-04-0.226D-04 0.253D-03
 Coeff:      0.151D-02 0.167D-02-0.486D-02-0.862D-02 0.807D-03 0.257D-01
 Coeff:      0.182D-01-0.394D-01-0.146D+00-0.174D+00 0.378D+00 0.947D+00
 Gap=     0.164 Goal=   None    Shift=    0.000
 RMSDP=1.02D-08 MaxDP=7.39D-07 DE= 4.18D-11 OVMax= 6.77D-06

 Cycle  19  Pass 1  IDiag  1:
 RMSU=  3.03D-09    CP:  9.76D-01  1.60D+00  7.25D-01  7.13D-01  1.05D+00
                    CP:  1.14D+00  1.58D+00  2.34D+00  3.00D+00  3.00D+00
                    CP:  2.78D+00  2.10D+00  2.10D+00  1.31D+00  1.42D+00
                    CP:  2.08D+00  2.00D+00  1.54D+00
 E= -3007.85820346081     Delta-E=       -0.000000000153 Rises=F Damp=F
 DIIS: error= 4.23D-08 at cycle  19 NSaved=  19.
 NSaved=19 IEnMin=19 EnMin= -3007.85820346081     IErMin=19 ErrMin= 4.23D-08
 ErrMax= 4.23D-08  0.00D+00 EMaxC= 1.00D-01 BMatC= 1.15D-12 BMatP= 4.40D-12
 IDIUse=1 WtCom= 1.00D+00 WtEn= 0.00D+00
 Coeff-Com:  0.397D-06-0.635D-06-0.272D-05-0.504D-05-0.260D-04-0.424D-04
 Coeff-Com:  0.190D-03 0.537D-03 0.159D-03-0.142D-02-0.355D-02 0.112D-02
 Coeff-Com:  0.112D-01 0.258D-01-0.122D-01-0.164D+00-0.181D+00 0.279D+00
 Coeff-Com:  0.105D+01
 Coeff:      0.397D-06-0.635D-06-0.272D-05-0.504D-05-0.260D-04-0.424D-04
 Coeff:      0.190D-03 0.537D-03 0.159D-03-0.142D-02-0.355D-02 0.112D-02
 Coeff:      0.112D-01 0.258D-01-0.122D-01-0.164D+00-0.181D+00 0.279D+00
 Coeff:      0.105D+01
 Gap=     0.164 Goal=   None    Shift=    0.000
 RMSDP=7.07D-09 MaxDP=5.61D-07 DE=-1.53D-10 OVMax= 4.67D-06

 SCF Done:  E(RwB97XD) =  -3007.85820346     A.U. after   19 cycles
            NFock= 19  Conv=0.71D-08     -V/T= 2.0109
 KE= 2.975355184378D+03 PE=-2.578047039859D+04 EE= 1.040346966329D+04
 Leave Link  502 at Thu Apr 28 15:12:30 2022, MaxMem= 10066329600 cpu:            9308.3 elap:             404.7
 (Enter /sw/apps/gaussian-16.0/g16/l801.exe)
 DoSCS=F DFT=T ScalE2(SS,OS)=  1.000000  1.000000
 ExpMin= 3.36D-02 ExpMax= 4.95D+03 ExpMxC= 7.45D+02 IAcc=3 IRadAn=         5 AccDes= 0.00D+00
 HarFok:  IExCor=  205 AccDes= 0.00D+00 IRadAn=         5 IDoV=-2 UseB2=F ITyADJ=14
 ICtDFT= 12500011 ScaDFX=  1.000000  1.000000  1.000000  1.000000
 GSVD:  LWork=       -5460 too small for GESVD, short by       25550 words or       25550 for optimal perf.
 Largest valence mixing into a core orbital is  1.63D-04
 Largest core mixing into a valence orbital is  5.52D-05
 Range of M.O.s used for correlation:    71  1298
 NBasis=  1298 NAE=   246 NBE=   246 NFC=    70 NFV=     0
 NROrb=   1228 NOA=   176 NOB=   176 NVA=  1052 NVB=  1052
 Leave Link  801 at Thu Apr 28 15:12:30 2022, MaxMem= 10066329600 cpu:               7.3 elap:               0.3
 (Enter /sw/apps/gaussian-16.0/g16/l914.exe)
 RHF ground state
 Two-electron integrals replicated using symmetry.
 MDV= 10066329600 DFT=T DoStab=F Mixed=T DoRPA=T DoScal=F NonHer=T
 Making orbital integer symmetry assigments:
 Orbital symmetries:
       Occupied  (A) (A) (A) (A) (A) (A) (A) (A) (A) (A) (A) (A)
                 (A) (A) (A) (A) (A) (A) (A) (A) (A) (A) (A) (A)
                 (A) (A) (A) (A) (A) (A) (A) (A) (A) (A) (A) (A)
                 (A) (A) (A) (A) (A) (A) (A) (A) (A) (A) (A) (A)
                 (A) (A) (A) (A) (A) (A) (A) (A) (A) (A) (A) (A)
                 (A) (A) (A) (A) (A) (A) (A) (A) (A) (A) (A) (A)
                 (A) (A) (A) (A) (A) (A) (A) (A) (A) (A) (A) (A)
                 (A) (A) (A) (A) (A) (A) (A) (A) (A) (A) (A) (A)
                 (A) (A) (A) (A) (A) (A) (A) (A) (A) (A) (A) (A)
                 (A) (A) (A) (A) (A) (A) (A) (A) (A) (A) (A) (A)
                 (A) (A) (A) (A) (A) (A) (A) (A) (A) (A) (A) (A)
                 (A) (A) (A) (A) (A) (A) (A) (A) (A) (A) (A) (A)
                 (A) (A) (A) (A) (A) (A) (A) (A) (A) (A) (A) (A)
                 (A) (A) (A) (A) (A) (A) (A) (A) (A) (A) (A) (A)
                 (A) (A) (A) (A) (A) (A) (A) (A) (A) (A) (A) (A)
                 (A) (A) (A) (A) (A) (A) (A) (A) (A) (A) (A) (A)
                 (A) (A) (A) (A) (A) (A) (A) (A) (A) (A) (A) (A)
                 (A) (A) (A) (A) (A) (A) (A) (A) (A) (A) (A) (A)
                 (A) (A) (A) (A) (A) (A) (A) (A) (A) (A) (A) (A)
                 (A) (A) (A) (A) (A) (A) (A) (A) (A) (A) (A) (A)
                 (A) (A) (A) (A) (A) (A)
       Virtual   (A) (A) (A) (A) (A) (A) (A) (A) (A) (A) (A) (A)
                 (A) (A) (A) (A) (A) (A) (A) (A) (A) (A) (A) (A)
                 (A) (A) (A) (A) (A) (A) (A) (A) (A) (A) (A) (A)
                 (A) (A) (A) (A) (A) (A) (A) (A) (A) (A) (A) (A)
                 (A) (A) (A) (A) (A) (A) (A) (A) (A) (A) (A) (A)
                 (A) (A) (A) (A) (A) (A) (A) (A) (A) (A) (A) (A)
                 (A) (A) (A) (A) (A) (A) (A) (A) (A) (A) (A) (A)
                 (A) (A) (A) (A) (A) (A) (A) (A) (A) (A) (A) (A)
                 (A) (A) (A) (A) (A) (A) (A) (A) (A) (A) (A) (A)
                 (A) (A) (A) (A) (A) (A) (A) (A) (A) (A) (A) (A)
                 (A) (A) (A) (A) (A) (A) (A) (A) (A) (A) (A) (A)
                 (A) (A) (A) (A) (A) (A) (A) (A) (A) (A) (A) (A)
                 (A) (A) (A) (A) (A) (A) (A) (A) (A) (A) (A) (A)
                 (A) (A) (A) (A) (A) (A) (A) (A) (A) (A) (A) (A)
                 (A) (A) (A) (A) (A) (A) (A) (A) (A) (A) (A) (A)
                 (A) (A) (A) (A) (A) (A) (A) (A) (A) (A) (A) (A)
                 (A) (A) (A) (A) (A) (A) (A) (A) (A) (A) (A) (A)
                 (A) (A) (A) (A) (A) (A) (A) (A) (A) (A) (A) (A)
                 (A) (A) (A) (A) (A) (A) (A) (A) (A) (A) (A) (A)
                 (A) (A) (A) (A) (A) (A) (A) (A) (A) (A) (A) (A)
                 (A) (A) (A) (A) (A) (A) (A) (A) (A) (A) (A) (A)
                 (A) (A) (A) (A) (A) (A) (A) (A) (A) (A) (A) (A)
                 (A) (A) (A) (A) (A) (A) (A) (A) (A) (A) (A) (A)
                 (A) (A) (A) (A) (A) (A) (A) (A) (A) (A) (A) (A)
                 (A) (A) (A) (A) (A) (A) (A) (A) (A) (A) (A) (A)
                 (A) (A) (A) (A) (A) (A) (A) (A) (A) (A) (A) (A)
                 (A) (A) (A) (A) (A) (A) (A) (A) (A) (A) (A) (A)
                 (A) (A) (A) (A) (A) (A) (A) (A) (A) (A) (A) (A)
                 (A) (A) (A) (A) (A) (A) (A) (A) (A) (A) (A) (A)
                 (A) (A) (A) (A) (A) (A) (A) (A) (A) (A) (A) (A)
                 (A) (A) (A) (A) (A) (A) (A) (A) (A) (A) (A) (A)
                 (A) (A) (A) (A) (A) (A) (A) (A) (A) (A) (A) (A)
                 (A) (A) (A) (A) (A) (A) (A) (A) (A) (A) (A) (A)
                 (A) (A) (A) (A) (A) (A) (A) (A) (A) (A) (A) (A)
                 (A) (A) (A) (A) (A) (A) (A) (A) (A) (A) (A) (A)
                 (A) (A) (A) (A) (A) (A) (A) (A) (A) (A) (A) (A)
                 (A) (A) (A) (A) (A) (A) (A) (A) (A) (A) (A) (A)
                 (A) (A) (A) (A) (A) (A) (A) (A) (A) (A) (A) (A)
                 (A) (A) (A) (A) (A) (A) (A) (A) (A) (A) (A) (A)
                 (A) (A) (A) (A) (A) (A) (A) (A) (A) (A) (A) (A)
                 (A) (A) (A) (A) (A) (A) (A) (A) (A) (A) (A) (A)
                 (A) (A) (A) (A) (A) (A) (A) (A) (A) (A) (A) (A)
                 (A) (A) (A) (A) (A) (A) (A) (A) (A) (A) (A) (A)
                 (A) (A) (A) (A) (A) (A) (A) (A) (A) (A) (A) (A)
                 (A) (A) (A) (A) (A) (A) (A) (A) (A) (A) (A) (A)
                 (A) (A) (A) (A) (A) (A) (A) (A) (A) (A) (A) (A)
                 (A) (A) (A) (A) (A) (A) (A) (A) (A) (A) (A) (A)
                 (A) (A) (A) (A) (A) (A) (A) (A) (A) (A) (A) (A)
                 (A) (A) (A) (A) (A) (A) (A) (A) (A) (A) (A) (A)
                 (A) (A) (A) (A) (A) (A) (A) (A) (A) (A) (A) (A)
                 (A) (A) (A) (A) (A) (A) (A) (A) (A) (A) (A) (A)
                 (A) (A) (A) (A) (A) (A) (A) (A) (A) (A) (A) (A)
                 (A) (A) (A) (A) (A) (A) (A) (A) (A) (A) (A) (A)
                 (A) (A) (A) (A) (A) (A) (A) (A) (A) (A) (A) (A)
                 (A) (A) (A) (A) (A) (A) (A) (A) (A) (A) (A) (A)
                 (A) (A) (A) (A) (A) (A) (A) (A) (A) (A) (A) (A)
                 (A) (A) (A) (A) (A) (A) (A) (A) (A) (A) (A) (A)
                 (A) (A) (A) (A) (A) (A) (A) (A) (A) (A) (A) (A)
                 (A) (A) (A) (A) (A) (A) (A) (A) (A) (A) (A) (A)
                 (A) (A) (A) (A) (A) (A) (A) (A) (A) (A) (A) (A)
                 (A) (A) (A) (A) (A) (A) (A) (A) (A) (A) (A) (A)
                 (A) (A) (A) (A) (A) (A) (A) (A) (A) (A) (A) (A)
                 (A) (A) (A) (A) (A) (A) (A) (A) (A) (A) (A) (A)
                 (A) (A) (A) (A) (A) (A) (A) (A) (A) (A) (A) (A)
                 (A) (A) (A) (A) (A) (A) (A) (A) (A) (A) (A) (A)
                 (A) (A) (A) (A) (A) (A) (A) (A) (A) (A) (A) (A)
                 (A) (A) (A) (A) (A) (A) (A) (A) (A) (A) (A) (A)
                 (A) (A) (A) (A) (A) (A) (A) (A) (A) (A) (A) (A)
                 (A) (A) (A) (A) (A) (A) (A) (A) (A) (A) (A) (A)
                 (A) (A) (A) (A) (A) (A) (A) (A) (A) (A) (A) (A)
                 (A) (A) (A) (A) (A) (A) (A) (A) (A) (A) (A) (A)
                 (A) (A) (A) (A) (A) (A) (A) (A) (A) (A) (A) (A)
                 (A) (A) (A) (A) (A) (A) (A) (A) (A) (A) (A) (A)
                 (A) (A) (A) (A) (A) (A) (A) (A) (A) (A) (A) (A)
                 (A) (A) (A) (A) (A) (A) (A) (A) (A) (A) (A) (A)
                 (A) (A) (A) (A) (A) (A) (A) (A) (A) (A) (A) (A)
                 (A) (A) (A) (A) (A) (A) (A) (A) (A) (A) (A) (A)
                 (A) (A) (A) (A) (A) (A) (A) (A) (A) (A) (A) (A)
                 (A) (A) (A) (A) (A) (A) (A) (A) (A) (A) (A) (A)
                 (A) (A) (A) (A) (A) (A) (A) (A) (A) (A) (A) (A)
                 (A) (A) (A) (A) (A) (A) (A) (A) (A) (A) (A) (A)
                 (A) (A) (A) (A) (A) (A) (A) (A) (A) (A) (A) (A)
                 (A) (A) (A) (A) (A) (A) (A) (A) (A) (A) (A) (A)
                 (A) (A) (A) (A) (A) (A) (A) (A) (A) (A) (A) (A)
                 (A) (A) (A) (A) (A) (A) (A) (A) (A) (A) (A) (A)
                 (A) (A) (A) (A) (A) (A) (A) (A) (A) (A) (A) (A)
                 (A) (A) (A) (A) (A) (A) (A) (A) (A) (A) (A) (A)
                 (A) (A) (A) (A) (A) (A) (A) (A)
    20 initial guesses have been made.
 Convergence on wavefunction:    0.001000000000000
 Davidson Disk Diagonalization:  ConvIn= 1.00D-03 SkipCon=T Conv= 1.00D-03.
 Max sub-space:  2000 roots to seek:    20 dimension of matrix:       370304
 Iteration     1 Dimension    20 NMult     0 NNew     20
 CISAX will form    20 AO SS matrices at one time.
 NMat=    20 NSing=    20 JSym2X= 0.
 FoFJK:  IHMeth= 1 ICntrl=       0 DoSepK=T KAlg= 0 I1Cent=           0 FoldK=F
 IRaf=         1 NMat=      40 IRICut=       1 DoRegI=T DoRafI=F ISym2E= 0 IDoP0=3 IntGTp=3.
 FoFCou: FMM=T IPFlag=           0 FMFlag=      100000 FMFlg1=        2001
         NFxFlg=           0 DoJE=F BraDBF=F KetDBF=F FulRan=T
         wScrn=  0.000000 ICntrl=       500 IOpCl=  0 I1Cent=           0 NGrid=           0
         NMat0=   20 NMatS0=     20 NMatT0=    0 NMatD0=   20 NMtDS0=    0 NMtDT0=    0
 Symmetry not used in FoFCou.
 FMM levels:  10  Number of levels for PrismC:   9
 New state      3 was old state      5
 New state      4 was old state     10
 New state      5 was old state     16
 Excitation Energies [eV] at current iteration:
 Root      1 :     2.253598221247584
 Root      2 :     2.675853365718298
 Root      3 :     4.001595075204997
 Root      4 :     4.114054245918166
 Root      5 :     4.322823478532422
 Root      6 :     4.365666799148768
 Root      7 :     4.459963789801282
 Root      8 :     4.475277178514738
 Root      9 :     4.511149111129070
 Root     10 :     4.592027161933336
 Root     11 :     4.723368011118827
 Root     12 :     5.049406511973769
 Root     13 :     5.167596354927804
 Root     14 :     5.223107676581060
 Root     15 :     5.351290152722129
 Root     16 :     5.479632054544756
 Root     17 :     5.481495564082580
 Root     18 :     6.084913245847684
 Root     19 :     6.114602726671304
 Root     20 :     6.968626431834264
 Iteration     2 Dimension    30 NMult    20 NNew     10
 CISAX will form    10 AO SS matrices at one time.
 NMat=    10 NSing=    10 JSym2X= 0.
 Root      1 not converged, maximum delta is    0.073090741484029
 Root      2 not converged, maximum delta is    0.057619303572899
 Root      3 not converged, maximum delta is    0.153044337612924
 Root      4 not converged, maximum delta is    0.143200311674441
 Root      5 not converged, maximum delta is    0.097602389091584
 Excitation Energies [eV] at current iteration:
 Root      1 :     1.766509614523026   Change is   -0.487088606724558
 Root      2 :     2.263033069888750   Change is   -0.412820295829548
 Root      3 :     3.626198113282637   Change is   -0.375396961922360
 Root      4 :     3.732018154631351   Change is   -0.382036091286815
 Root      5 :     4.009603385004113   Change is   -0.313220093528308
 Iteration     3 Dimension    40 NMult    30 NNew     10
 CISAX will form    10 AO SS matrices at one time.
 NMat=    10 NSing=    10 JSym2X= 0.
 Root      1 not converged, maximum delta is    0.018963326370413
 Root      2 not converged, maximum delta is    0.018424042325070
 Root      3 not converged, maximum delta is    0.137747984105842
 Root      4 not converged, maximum delta is    0.212155227906728
 Root      5 not converged, maximum delta is    0.159756308720341
 Excitation Energies [eV] at current iteration:
 Root      1 :     1.730466036899188   Change is   -0.036043577623837
 Root      2 :     2.242162929815575   Change is   -0.020870140073175
 Root      3 :     3.599197845941677   Change is   -0.027000267340961
 Root      4 :     3.661291146469210   Change is   -0.070727008162142
 Root      5 :     3.866832128859020   Change is   -0.142771256145093
 Iteration     4 Dimension    50 NMult    40 NNew     10
 CISAX will form    10 AO SS matrices at one time.
 NMat=    10 NSing=    10 JSym2X= 0.
 Root      1 not converged, maximum delta is    0.004651679113236
 Root      2 not converged, maximum delta is    0.003301481358143
 Root      3 not converged, maximum delta is    0.084951881493531
 Root      4 not converged, maximum delta is    0.123450639370777
 Root      5 not converged, maximum delta is    0.186916911052320
 Excitation Energies [eV] at current iteration:
 Root      1 :     1.726557898234942   Change is   -0.003908138664247
 Root      2 :     2.239866726442047   Change is   -0.002296203373528
 Root      3 :     3.587479358759699   Change is   -0.011718487181977
 Root      4 :     3.629253560315189   Change is   -0.032037586154021
 Root      5 :     3.745454400843279   Change is   -0.121377728015742
 Iteration     5 Dimension    60 NMult    50 NNew     10
 CISAX will form    10 AO SS matrices at one time.
 NMat=    10 NSing=    10 JSym2X= 0.
 Root      1 not converged, maximum delta is    0.001188408884766
 Root      2 has converged.
 Root      3 not converged, maximum delta is    0.019673756293685
 Root      4 not converged, maximum delta is    0.022356283592597
 Root      5 not converged, maximum delta is    0.027151082192034
 Excitation Energies [eV] at current iteration:
 Root      1 :     1.726180383437181   Change is   -0.000377514797761
 Root      2 :     2.239676788622288   Change is   -0.000189937819759
 Root      3 :     3.584942690801765   Change is   -0.002536667957934
 Root      4 :     3.622957824865370   Change is   -0.006295735449819
 Root      5 :     3.729376441976978   Change is   -0.016077958866301
 Iteration     6 Dimension    68 NMult    60 NNew      8
 CISAX will form     8 AO SS matrices at one time.
 NMat=     8 NSing=     8 JSym2X= 0.
 Root      1 has converged.
 Root      2 has converged.
 Root      3 not converged, maximum delta is    0.027012077117040
 Root      4 not converged, maximum delta is    0.027215066554768
 Root      5 not converged, maximum delta is    0.232140324884033
 Excitation Energies [eV] at current iteration:
 Root      1 :     1.726148233614770   Change is   -0.000032149822411
 Root      2 :     2.239674218439785   Change is   -0.000002570182503
 Root      3 :     3.583321565410289   Change is   -0.001621125391477
 Root      4 :     3.621027634205448   Change is   -0.001930190659922
 Root      5 :     3.713063141721661   Change is   -0.016313300255317
 Iteration     7 Dimension    74 NMult    68 NNew      6
 CISAX will form     6 AO SS matrices at one time.
 NMat=     6 NSing=     6 JSym2X= 0.
 Root      1 has converged.
 Root      2 has converged.
 Root      3 not converged, maximum delta is    0.014077119541265
 Root      4 not converged, maximum delta is    0.024477138248501
 Root      5 not converged, maximum delta is    0.217319429932758
 Excitation Energies [eV] at current iteration:
 Root      1 :     1.726148209225570   Change is   -0.000000024389199
 Root      2 :     2.239673628696417   Change is   -0.000000589743368
 Root      3 :     3.582655631792949   Change is   -0.000665933617339
 Root      4 :     3.620118351359064   Change is   -0.000909282846384
 Root      5 :     3.685111637550363   Change is   -0.027951504171298
 Iteration     8 Dimension    80 NMult    74 NNew      6
 CISAX will form     6 AO SS matrices at one time.
 NMat=     6 NSing=     6 JSym2X= 0.
 Root      1 has converged.
 Root      2 has converged.
 Root      3 not converged, maximum delta is    0.002170244368994
 Root      4 not converged, maximum delta is    0.004905784321843
 Root      5 not converged, maximum delta is    0.014650348183563
 Excitation Energies [eV] at current iteration:
 Root      1 :     1.726148078982131   Change is   -0.000000130243439
 Root      2 :     2.239673411988243   Change is   -0.000000216708174
 Root      3 :     3.582543409227799   Change is   -0.000112222565151
 Root      4 :     3.619949696322463   Change is   -0.000168655036602
 Root      5 :     3.680941503340674   Change is   -0.004170134209689
 Iteration     9 Dimension    86 NMult    80 NNew      6
 CISAX will form     6 AO SS matrices at one time.
 NMat=     6 NSing=     6 JSym2X= 0.
 Root      1 has converged.
 Root      2 has converged.
 Root      3 has converged.
 Root      4 has converged.
 Root      5 not converged, maximum delta is    0.002923627432545
 Excitation Energies [eV] at current iteration:
 Root      1 :     1.726148020296143   Change is   -0.000000058685989
 Root      2 :     2.239672953681233   Change is   -0.000000458307011
 Root      3 :     3.582529830513902   Change is   -0.000013578713897
 Root      4 :     3.619930616852782   Change is   -0.000019079469680
 Root      5 :     3.680482328704402   Change is   -0.000459174636272
 Iteration    10 Dimension    88 NMult    86 NNew      2
 CISAX will form     2 AO SS matrices at one time.
 NMat=     2 NSing=     2 JSym2X= 0.
 Root      1 has converged.
 Root      2 has converged.
 Root      3 has converged.
 Root      4 has converged.
 Root      5 not converged, maximum delta is    0.001021595988950
 Excitation Energies [eV] at current iteration:
 Root      1 :     1.726147892536039   Change is   -0.000000127760103
 Root      2 :     2.239672852222893   Change is   -0.000000101458340
 Root      3 :     3.582528626469721   Change is   -0.000001204044181
 Root      4 :     3.619929209586470   Change is   -0.000001407266312
 Root      5 :     3.680419962579157   Change is   -0.000062366125245
 Iteration    11 Dimension    90 NMult    88 NNew      2
 CISAX will form     2 AO SS matrices at one time.
 NMat=     2 NSing=     2 JSym2X= 0.
 Root      1 has converged.
 Root      2 has converged.
 Root      3 has converged.
 Root      4 has converged.
 Root      5 has converged.
 Excitation Energies [eV] at current iteration:
 Root      1 :     1.726147871181537   Change is   -0.000000021354502
 Root      2 :     2.239672823503503   Change is   -0.000000028719390
 Root      3 :     3.582528544707019   Change is   -0.000000081762702
 Root      4 :     3.619929038929341   Change is   -0.000000170657129
 Root      5 :     3.680412064802115   Change is   -0.000007897777042
 Convergence achieved on expansion vectors.
 ***********************************************************************
 Excited states from <AA,BB:AA,BB> singles matrix:
 ***********************************************************************
 
 1PDM for each excited state written to RWF  633
 Ground to excited state transition densities written to RWF  633
 Ground to excited state transition electric dipole moments (Au):
       state          X           Y           Z        Dip. S.      Osc.
         1        -1.6319      2.4358     -0.1504      8.6187      0.3645
         2         1.0730      0.9356      0.0615      2.0304      0.1114
         3        -1.5571     -1.0530     -0.1014      3.5439      0.3110
         4         0.9772      0.9613      0.0697      1.8839      0.1671
         5         0.5099      0.3178      0.0487      0.3634      0.0328
 Ground to excited state transition velocity dipole moments (Au):
       state          X           Y           Z        Dip. S.      Osc.
         1         0.1007     -0.1503      0.0102      0.0328      0.3451
         2        -0.0833     -0.0728     -0.0051      0.0123      0.0993
         3         0.1985      0.1349      0.0139      0.0578      0.2927
         4        -0.1239     -0.1242     -0.0064      0.0308      0.1545
         5        -0.0651     -0.0421     -0.0041      0.0060      0.0297
 Ground to excited state transition magnetic dipole moments (Au):
       state          X           Y           Z
         1         0.0018     -0.1128     -1.3376
         2        -0.0233      0.0562      0.0218
         3        -0.2118     -0.2071      1.7774
         4         0.0718     -0.3496     -0.4199
         5        -0.5966     -0.3144     -0.4328
 Ground to excited state transition velocity quadrupole moments (Au):
       state          XX          YY          ZZ          XY          XZ          YZ
         1         2.0009     -0.5963      0.0046     -1.2598      0.0709      0.1181
         2        -1.5507     -0.2300      0.0071     -0.8505     -0.0551      0.0253
         3         3.7487      0.0301     -0.0211      1.6872      0.2208      0.0548
         4        -2.0760     -0.5875      0.0228     -1.2949     -0.1200     -0.0028
         5        -1.2061     -0.0755      0.0077     -0.4727     -0.0451     -0.0355
 <0|del|b> * <b|rxdel|0> + <0|del|b> * <b|delr+rdel|0>
[...]
 Alpha virt. eigenvalues --    1.14706   1.15601   1.15942   1.17105   1.17284
 Alpha virt. eigenvalues --    1.17905   1.18481   1.18716   1.19186   1.19682
 Alpha virt. eigenvalues --    1.19866   1.20040   1.20388   1.21218   1.21759
 Alpha virt. eigenvalues --    1.21937   1.22080   1.22440   1.22885   1.23507
 Alpha virt. eigenvalues --    1.23879   1.24575   1.25233   1.25723   1.26210
 Alpha virt. eigenvalues --    1.26368   1.26758   1.26989   1.28307   1.28462
 Alpha virt. eigenvalues --    1.28739   1.28958   1.29257   1.29522   1.29977
 Alpha virt. eigenvalues --    1.30399   1.31191   1.31672   1.32348   1.33283
 Alpha virt. eigenvalues --    1.33823   1.34113   1.34835   1.35042   1.35462
 Alpha virt. eigenvalues --    1.35616   1.35927   1.36127   1.36407   1.36501
 Alpha virt. eigenvalues --    1.37420   1.37481   1.38520   1.38894   1.39098
 Alpha virt. eigenvalues --    1.39549   1.40193   1.40534   1.40949   1.42175
 Alpha virt. eigenvalues --    1.42502   1.42568   1.43306   1.43393   1.44011
 Alpha virt. eigenvalues --    1.44498   1.44570   1.44812   1.45423   1.45802
 Alpha virt. eigenvalues --    1.46046   1.46250   1.46804   1.47652   1.47735
 Alpha virt. eigenvalues --    1.47881   1.48320   1.48393   1.48850   1.49506
 Alpha virt. eigenvalues --    1.49606   1.49842   1.50172   1.50428   1.51582
 Alpha virt. eigenvalues --    1.51814   1.52538   1.52773   1.52850   1.53756
 Alpha virt. eigenvalues --    1.53964   1.54811   1.55080   1.55443   1.55488
 Alpha virt. eigenvalues --    1.56063   1.56161   1.57009   1.57420   1.57730
 Alpha virt. eigenvalues --    1.58334   1.59535   1.59830   1.60007   1.60120
 Alpha virt. eigenvalues --    1.60262   1.60502   1.60706   1.61091   1.61293
 Alpha virt. eigenvalues --    1.61534   1.61963   1.62323   1.62587   1.62696
 Alpha virt. eigenvalues --    1.63213   1.63333   1.63586   1.63750   1.63834
 Alpha virt. eigenvalues --    1.64248   1.64370   1.64542   1.64686   1.65154
 Alpha virt. eigenvalues --    1.65242   1.65884   1.66081   1.66261   1.66470
 Alpha virt. eigenvalues --    1.66688   1.66867   1.67044   1.67736   1.68204
 Alpha virt. eigenvalues --    1.68248   1.68658   1.69152   1.69564   1.70284
 Alpha virt. eigenvalues --    1.71016   1.71887   1.72403   1.73183   1.73519
 Alpha virt. eigenvalues --    1.73900   1.74121   1.74875   1.75262   1.75593
 Alpha virt. eigenvalues --    1.76147   1.76297   1.76616   1.77503   1.77619
 Alpha virt. eigenvalues --    1.77920   1.78001   1.78431   1.78530   1.79175
 Alpha virt. eigenvalues --    1.79342   1.79641   1.80114   1.80190   1.80507
 Alpha virt. eigenvalues --    1.80878   1.80945   1.81276   1.81681   1.81928
 Alpha virt. eigenvalues --    1.82169   1.82283   1.82658   1.82776   1.83084
 Alpha virt. eigenvalues --    1.83198   1.83485   1.83627   1.83868   1.84121
 Alpha virt. eigenvalues --    1.84349   1.84801   1.84891   1.85054   1.85070
 Alpha virt. eigenvalues --    1.85318   1.85444   1.85509   1.85612   1.85725
 Alpha virt. eigenvalues --    1.85736   1.86194   1.86356   1.86501   1.86810
 Alpha virt. eigenvalues --    1.87381   1.87449   1.87701   1.87997   1.88223
 Alpha virt. eigenvalues --    1.88393   1.88548   1.88649   1.88833   1.89065
 Alpha virt. eigenvalues --    1.89262   1.89437   1.89567   1.89799   1.90101
 Alpha virt. eigenvalues --    1.90444   1.90646   1.90674   1.90997   1.91112
 Alpha virt. eigenvalues --    1.91400   1.91812   1.91910   1.91940   1.92790
 Alpha virt. eigenvalues --    1.92872   1.92919   1.92961   1.93332   1.93374
 Alpha virt. eigenvalues --    1.93865   1.93881   1.94280   1.94330   1.94444
 Alpha virt. eigenvalues --    1.94846   1.95154   1.95504   1.95615   1.95869
 Alpha virt. eigenvalues --    1.96268   1.96535   1.96772   1.96903   1.97311
 Alpha virt. eigenvalues --    1.97467   1.97596   1.97611   1.97968   1.97979
 Alpha virt. eigenvalues --    1.98215   1.98614   1.98830   1.98933   1.99044
 Alpha virt. eigenvalues --    1.99234   1.99605   1.99779   2.00023   2.00078
 Alpha virt. eigenvalues --    2.00436   2.00567   2.00842   2.01196   2.01432
 Alpha virt. eigenvalues --    2.01480   2.02014   2.02464   2.02771   2.02851
 Alpha virt. eigenvalues --    2.02903   2.03213   2.03411   2.03799   2.04128
 Alpha virt. eigenvalues --    2.04314   2.04375   2.04818   2.05104   2.05172
 Alpha virt. eigenvalues --    2.05467   2.05672   2.06163   2.06242   2.06695
 Alpha virt. eigenvalues --    2.07152   2.07241   2.07621   2.08368   2.08615
 Alpha virt. eigenvalues --    2.08778   2.09267   2.09625   2.09998   2.10569
 Alpha virt. eigenvalues --    2.10788   2.10802   2.11243   2.12008   2.12044
 Alpha virt. eigenvalues --    2.12194   2.12470   2.12679   2.13057   2.13101
 Alpha virt. eigenvalues --    2.13717   2.13844   2.14256   2.14389   2.14669
 Alpha virt. eigenvalues --    2.14960   2.15700   2.15772   2.15886   2.16250
 Alpha virt. eigenvalues --    2.16323   2.16940   2.17106   2.17704   2.18084
 Alpha virt. eigenvalues --    2.18247   2.18413   2.18691   2.18883   2.19196
 Alpha virt. eigenvalues --    2.19398   2.19677   2.19794   2.20097   2.20552
 Alpha virt. eigenvalues --    2.20731   2.21224   2.21438   2.21903   2.22675
 Alpha virt. eigenvalues --    2.22777   2.22865   2.23674   2.23997   2.24266
 Alpha virt. eigenvalues --    2.24372   2.25019   2.25126   2.25346   2.25381
 Alpha virt. eigenvalues --    2.26380   2.26798   2.27079   2.27805   2.28677
 Alpha virt. eigenvalues --    2.29181   2.29492   2.30200   2.30235   2.30849
 Alpha virt. eigenvalues --    2.30943   2.31157   2.32211   2.32536   2.33111
 Alpha virt. eigenvalues --    2.33368   2.33530   2.33975   2.34293   2.34825
 Alpha virt. eigenvalues --    2.35612   2.35693   2.35874   2.36370   2.36487
 Alpha virt. eigenvalues --    2.36865   2.37275   2.37294   2.37751   2.37946
 Alpha virt. eigenvalues --    2.38559   2.38624   2.40064   2.40414   2.40751
 Alpha virt. eigenvalues --    2.40981   2.41270   2.41597   2.41868   2.42197
 Alpha virt. eigenvalues --    2.42738   2.42965   2.42982   2.43810   2.44035
 Alpha virt. eigenvalues --    2.44119   2.44208   2.44806   2.45019   2.45336
 Alpha virt. eigenvalues --    2.45686   2.45867   2.46075   2.46956   2.47377
 Alpha virt. eigenvalues --    2.47618   2.47971   2.48139   2.48223   2.48745
 Alpha virt. eigenvalues --    2.48792   2.49600   2.49983   2.50185   2.50468
 Alpha virt. eigenvalues --    2.50827   2.51132   2.51679   2.52015   2.52199
 Alpha virt. eigenvalues --    2.52582   2.52646   2.53152   2.53251   2.54269
 Alpha virt. eigenvalues --    2.54332   2.55079   2.55231   2.55773   2.55873
 Alpha virt. eigenvalues --    2.56608   2.57422   2.57601   2.58030   2.58696
 Alpha virt. eigenvalues --    2.59659   2.59946   2.60245   2.60872   2.61263
 Alpha virt. eigenvalues --    2.61470   2.61692   2.61990   2.62609   2.62816
 Alpha virt. eigenvalues --    2.62918   2.63828   2.64491   2.64564   2.64824
 Alpha virt. eigenvalues --    2.65286   2.65759   2.66931   2.67201   2.67289
 Alpha virt. eigenvalues --    2.67830   2.68006   2.68409   2.68583   2.68845
 Alpha virt. eigenvalues --    2.69018   2.69128   2.69365   2.69697   2.70088
 Alpha virt. eigenvalues --    2.70231   2.71055   2.72279   2.72565   2.72686
 Alpha virt. eigenvalues --    2.73436   2.73502   2.73760   2.74297   2.74520
 Alpha virt. eigenvalues --    2.75104   2.75329   2.76637   2.77209   2.77456
 Alpha virt. eigenvalues --    2.77972   2.78176   2.78394   2.78592   2.79258
 Alpha virt. eigenvalues --    2.80001   2.80531   2.80598   2.80821   2.80948
 Alpha virt. eigenvalues --    2.81344   2.81391   2.81782   2.81928   2.83092
 Alpha virt. eigenvalues --    2.83193   2.83682   2.84270   2.85028   2.85621
 Alpha virt. eigenvalues --    2.85752   2.86457   2.86555   2.87712   2.87930
 Alpha virt. eigenvalues --    2.88412   2.88989   2.89322   2.89516   2.89687
 Alpha virt. eigenvalues --    2.89899   2.90876   2.91161   2.91594   2.92320
 Alpha virt. eigenvalues --    2.92855   2.93441   2.94828   2.94945   2.95261
 Alpha virt. eigenvalues --    2.96143   2.96770   2.97036   2.97092   2.97824
 Alpha virt. eigenvalues --    2.98159   2.98486   2.98774   2.99068   2.99140
 Alpha virt. eigenvalues --    2.99545   2.99906   3.00115   3.00485   3.00798
 Alpha virt. eigenvalues --    3.01178   3.01243   3.01884   3.02085   3.02486
 Alpha virt. eigenvalues --    3.02980   3.03066   3.03092   3.03911   3.04071
 Alpha virt. eigenvalues --    3.04324   3.04581   3.05182   3.05231   3.05938
 Alpha virt. eigenvalues --    3.06105   3.06892   3.07032   3.07157   3.07253
 Alpha virt. eigenvalues --    3.07329   3.08320   3.08366   3.09077   3.09370
 Alpha virt. eigenvalues --    3.09693   3.09903   3.10574   3.10951   3.11082
 Alpha virt. eigenvalues --    3.11345   3.11688   3.12168   3.12537   3.12631
 Alpha virt. eigenvalues --    3.13217   3.13226   3.13753   3.14137   3.14469
 Alpha virt. eigenvalues --    3.14848   3.15255   3.15338   3.16083   3.16173
 Alpha virt. eigenvalues --    3.16606   3.17349   3.18000   3.18958   3.19790
 Alpha virt. eigenvalues --    3.20158   3.20277   3.21171   3.21583   3.22180
 Alpha virt. eigenvalues --    3.22587   3.23269   3.24313   3.24536   3.24699
 Alpha virt. eigenvalues --    3.25805   3.27079   3.27578   3.28999   3.30310
 Alpha virt. eigenvalues --    3.32937   3.35523   3.45011   3.45864   3.46547
 Alpha virt. eigenvalues --    3.49379   3.50522   3.52491   3.55329   3.58450
 Alpha virt. eigenvalues --    3.61947   3.69278   3.71118   3.71316   3.71559
 Alpha virt. eigenvalues --    3.74226   3.75808
          Condensed to atoms (all electrons):
 Mulliken charges:
               1
     1  Mg   0.958673
     2  C   -0.033002
     3  C   -0.074506
     4  C   -0.071073
     5  C   -0.081255
     6  N   -0.287777
     7  C    0.003988
     8  C   -0.088949
     9  C   -0.101163
    10  C    0.023362
    11  C   -0.004928
    12  C    0.054122
    13  C    0.034650
    14  C    0.174190
    15  O   -0.252218
    16  O   -0.358576
    17  N   -0.466084
    18  C    0.195056
    19  C   -0.209452
    20  C   -0.071830
    21  C    0.177214
    22  C    0.090947
    23  C    0.049682
    24  O   -0.248152
    25  C   -0.002019
    26  N   -0.438150
    27  C    0.063527
    28  C   -0.086983
    29  C   -0.061220
    30  C    0.097270
    31  C    0.006689
    32  C   -0.015428
    33  C   -0.059684
    34  N   -0.439197
    35  C    0.086295
    36  C   -0.214551
    37  C   -0.071913
    38  C    0.160916
    39  C    0.099612
    40  C    0.168634
    41  O   -0.189130
    42  C   -0.092720
    43  C    0.275307
    44  O   -0.284279
    45  O   -0.336857
    46  C    0.142408
    47  C    0.270327
    48  C   -0.152182
    49  C   -0.215016
    50  C    0.049168
    51  C   -0.003340
    52  C   -0.031579
    53  C    0.021256
    54  C   -0.189290
    55  C   -0.008101
    56  C    0.062808
    57  C   -0.086927
    58  C    0.038566
    59  C   -0.174369
    60  C    0.008401
    61  C   -0.019839
    62  C   -0.035472
    63  C    0.040710
    64  C   -0.207493
    65  C   -0.030442
    66  C    0.010941
    67  H    0.008105
    68  H    0.017639
    69  H   -0.012077
    70  H    0.060970
    71  H    0.037447
    72  H    0.047437
    73  H    0.013314
    74  H    0.038154
    75  H    0.036283
    76  H    0.030566
    77  H    0.035370
    78  H    0.067557
    79  H    0.025516
    80  H    0.066035
    81  H    0.054915
    82  H    0.058144
    83  H    0.052817
    84  H    0.062604
    85  H    0.044511
    86  H    0.041868
    87  H    0.051992
    88  H    0.043984
    89  H    0.038095
    90  H    0.038730
    91  H    0.023546
    92  H    0.038749
    93  H    0.041109
    94  H    0.040262
    95  H    0.063074
    96  H    0.019546
    97  H    0.069567
    98  H    0.078056
    99  H    0.059236
   100  H    0.063732
   101  H    0.048438
   102  H    0.054509
   103  H    0.061247
   104  H    0.022798
   105  H    0.021542
   106  H    0.046016
   107  H    0.048061
   108  H    0.004884
   109  H    0.014242
   110  H    0.027434
   111  H    0.021601
   112  H    0.012906
   113  H    0.012474
   114  H    0.026361
   115  H    0.021400
   116  H    0.032064
   117  H    0.013250
   118  H    0.017516
   119  H    0.025345
   120  H    0.021685
   121  H    0.018364
   122  H    0.019651
   123  H    0.018369
   124  H    0.021317
   125  H    0.020446
   126  H    0.025348
   127  H    0.025036
   128  H    0.005502
   129  H    0.027815
   130  H    0.018119
   131  H    0.018329
   132  H    0.020407
   133  H    0.010892
   134  H    0.019800
   135  H    0.003791
   136  H    0.035619
   137  H    0.025589
   138  H    0.029214
   139  H    0.030818
   140  H    0.025375
 Sum of Mulliken charges =  -0.00000
 Mulliken charges with hydrogens summed into heavy atoms:
               1
     1  Mg   0.958673
     2  C   -0.033002
     3  C   -0.066401
     4  C   -0.053434
     5  C   -0.093332
     6  N   -0.287777
     7  C    0.003988
     8  C   -0.027980
     9  C   -0.063716
    10  C    0.023362
    11  C    0.093977
    12  C    0.120971
    13  C    0.137578
    14  C    0.174190
    15  O   -0.252218
    16  O   -0.358576
    17  N   -0.466084
    18  C    0.195056
    19  C   -0.209452
    20  C   -0.071830
    21  C    0.177214
    22  C    0.237413
    23  C    0.049682
    24  O   -0.248152
    25  C    0.171545
    26  N   -0.438150
    27  C    0.063527
    28  C   -0.042472
    29  C   -0.019352
    30  C    0.097270
    31  C    0.140761
    32  C    0.046849
    33  C    0.060435
    34  N   -0.439197
    35  C    0.086295
    36  C   -0.214551
    37  C   -0.071913
    38  C    0.160916
    39  C    0.251799
    40  C    0.168634
    41  O   -0.189130
    42  C   -0.014664
    43  C    0.275307
    44  O   -0.284279
    45  O   -0.336857
    46  C    0.313814
    47  C    0.386083
    48  C   -0.129383
    49  C   -0.215016
    50  C    0.164787
    51  C    0.015785
    52  C    0.017457
    53  C    0.046636
    54  C   -0.162929
    55  C    0.058613
    56  C    0.105668
    57  C   -0.046878
    58  C    0.076586
    59  C   -0.153053
    60  C    0.079231
    61  C    0.013478
    62  C    0.000977
    63  C    0.072009
    64  C   -0.187693
    65  C    0.034558
    66  C    0.096348
 Electronic spatial extent (au):  <R**2>=         127915.7623
 Charge=             -0.0000 electrons
 Dipole moment (field-independent basis, Debye):
    X=             -4.8059    Y=              2.5127    Z=              3.6525  Tot=              6.5384
 Quadrupole moment (field-independent basis, Debye-Ang):
   XX=           -382.4541   YY=           -416.1221   ZZ=           -404.7460
   XY=             28.3769   XZ=             23.2987   YZ=             -7.4784
 Traceless Quadrupole moment (field-independent basis, Debye-Ang):
   XX=             18.6533   YY=            -15.0147   ZZ=             -3.6386
   XY=             28.3769   XZ=             23.2987   YZ=             -7.4784
 Octapole moment (field-independent basis, Debye-Ang**2):
  XXX=            271.2227  YYY=           -133.5684  ZZZ=              3.0637  XYY=           -275.9920
  XXY=            166.1479  XXZ=            131.0410  XZZ=             20.4608  YZZ=            -20.1945
  YYZ=             19.7226  XYZ=             -5.0237
 Hexadecapole moment (field-independent basis, Debye-Ang**3):
 XXXX=        -135561.5934 YYYY=         -32359.6514 ZZZZ=          -3115.0039 XXXY=           2524.0092
 XXXZ=            500.2695 YYYX=            -12.7516 YYYZ=            235.9237 ZZZX=            114.2355
 ZZZY=            -31.2261 XXYY=         -29826.6149 XXZZ=         -24380.8263 YYZZ=          -5767.0694
 XXYZ=           -103.7707 YYXZ=            290.1982 ZZXY=             50.0330
 N-N= 9.393787347466D+03 E-N=-2.578047040115D+04  KE= 2.975355184378D+03
 Leave Link  601 at Thu Apr 28 15:33:40 2022, MaxMem= 10066329600 cpu:              15.5 elap:               0.7
 (Enter /sw/apps/gaussian-16.0/g16/l9999.exe)
 1\1\GINC-BP1-COMPUTE165\SP\RwB97XD TD-FC\def2SVP\C55H74Mg1N4O6\OF15641
 \28-Apr-2022\0\\#p wB97XD/Def2SVP td=(nstates=5)\\step_1601_chromophor
 e_3 TDDFT with wB97XD functional\\0,1\Mg,0,1.657,8.184,25.97\C,0,2.152
 ,10.269,28.814\C,0,2.095,5.448,28.233\C,0,1.644,6.09,23.322\C,0,1.526,
 10.92,23.976\N,0,2.127,7.902,28.424\C,0,2.21,8.972,29.28\C,0,2.042,8.3
 89,30.692\C,0,2.246,6.838,30.477\C,0,2.063,6.662,28.941\C,0,3.7,6.316,
 30.921\C,0,0.625,8.666,31.369\C,0,0.622,9.019,32.858\C,0,1.63,8.534,33
 .821\O,0,2.64,9.135,34.061\O,0,1.393,7.304,34.364\N,0,1.814,6.109,25.8
 06\C,0,1.965,5.186,26.83\C,0,2.138,3.886,26.259\C,0,1.987,4.005,24.868
 \C,0,1.8,5.466,24.601\C,0,2.445,2.641,27.139\C,0,2.019,2.787,23.891\O,
 0,1.938,3.022,22.688\C,0,2.075,1.329,24.226\N,0,1.664,8.491,23.938\C,0
 ,1.54,7.462,23.024\C,0,1.175,7.996,21.627\C,0,1.185,9.528,21.788\C,0,1
 .387,9.718,23.345\C,0,2.052,7.464,20.452\C,0,-0.078,10.254,21.28\C,0,0
 .18,11.454,20.335\N,0,1.841,10.199,26.288\C,0,1.78,11.213,25.362\C,0,2
 .013,12.536,26.014\C,0,2.134,12.163,27.335\C,0,2.117,10.729,27.479\C,0
 ,1.882,13.938,25.406\C,0,2.328,12.763,28.706\O,0,2.56,13.922,28.981\C,
 0,2.13,11.512,29.673\C,0,3.309,11.627,30.672\O,0,4.494,11.323,30.441\O
 ,0,2.879,12.034,31.869\C,0,3.999,12.149,32.86\C,0,2.273,7.003,35.488\C
 ,0,1.809,5.767,36.179\C,0,2.258,5.206,37.323\C,0,3.41,5.632,38.156\C,0
 ,1.466,4.067,38.\C,0,1.974,2.606,37.695\C,0,0.841,1.573,37.34\C,0,0.56
 4,0.573,38.435\C,0,-0.978,0.292,38.325\C,0,1.333,-0.737,38.333\C,0,2.2
 58,-0.818,39.58\C,0,3.475,-1.784,39.286\C,0,3.48,-2.987,40.264\C,0,4.6
 95,-3.04,41.184\C,0,3.417,-4.276,39.439\C,0,2.04,-4.616,38.717\C,0,1.5
 76,-6.06,38.867\C,0,2.035,-7.005,37.779\C,0,0.707,-7.454,37.072\C,0,2.
 831,-8.14,38.285\H,0,2.178,4.638,28.961\H,0,1.441,5.492,22.432\H,0,1.5
 04,11.828,23.37\H,0,2.833,8.8,31.319\H,0,1.542,6.302,31.114\H,0,4.472,
 7.079,31.026\H,0,4.14,5.74,30.107\H,0,3.841,5.603,31.734\H,0,-0.018,7.
 788,31.311\H,0,0.14,9.41,30.737\H,0,-0.24,8.534,33.317\H,0,0.452,10.07
 8,33.054\H,0,3.,1.889,26.578\H,0,1.47,2.265,27.45\H,0,3.127,2.989,27.9
 14\H,0,3.09,1.287,24.62\H,0,2.028,0.674,23.356\H,0,1.34,0.889,24.9\H,0
 ,0.18,7.582,21.463\H,0,2.082,9.982,21.367\H,0,1.664,6.492,20.146\H,0,3
 .081,7.38,20.8\H,0,2.094,8.12,19.583\H,0,-0.787,10.528,22.061\H,0,-0.5
 85,9.528,20.644\H,0,0.007,11.019,19.35\H,0,1.192,11.85,20.42\H,0,-0.56
 2,12.227,20.532\H,0,1.013,14.424,25.849\H,0,1.677,13.742,24.353\H,0,2.
 815,14.48,25.555\H,0,1.117,11.532,30.074\H,0,4.792,12.826,32.544\H,0,4
 .397,11.147,33.024\H,0,3.728,12.495,33.858\H,0,2.214,7.725,36.303\H,0,
 3.332,6.86,35.272\H,0,0.929,5.298,35.74\H,0,3.927,6.501,37.748\H,0,4.0
 74,4.768,38.136\H,0,3.151,5.941,39.169\H,0,0.397,4.092,37.788\H,0,1.32
 2,4.276,39.06\H,0,2.58,2.298,38.547\H,0,2.616,2.72,36.822\H,0,1.183,1.
 121,36.409\H,0,-0.007,2.175,37.011\H,0,0.666,1.073,39.399\H,0,-1.474,0
 .782,37.487\H,0,-1.458,0.584,39.259\H,0,-1.169,-0.761,38.118\H,0,1.911
 ,-0.74,37.409\H,0,0.67,-1.601,38.285\H,0,1.683,-1.074,40.47\H,0,2.696,
 0.135,39.876\H,0,4.351,-1.135,39.278\H,0,3.367,-2.174,38.274\H,0,2.654
 ,-2.861,40.963\H,0,5.376,-3.884,41.075\H,0,4.266,-3.192,42.174\H,0,5.3
 45,-2.171,41.082\H,0,3.519,-5.052,40.197\H,0,4.226,-4.411,38.722\H,0,2
 .099,-4.405,37.649\H,0,1.35,-3.887,39.141\H,0,0.491,-5.956,38.862\H,0,
 1.883,-6.576,39.777\H,0,2.595,-6.53,36.974\H,0,0.856,-8.207,36.298\H,0
 ,0.226,-6.653,36.51\H,0,0.09,-8.039,37.755\H,0,2.282,-8.872,38.877\H,0
 ,3.653,-7.715,38.861\H,0,3.256,-8.675,37.435\\Version=ES64L-G16RevA.03
 \State=1-A\HF=-3007.8582035\RMSD=7.069e-09\PG=C01 [X(C55H74Mg1N4O6)]\\
 @


 NATURE REVEALS EVERY SECRET ONCE.
                    - RALPH WALDO EMERSON
 Job cpu time:       0 days 11 hours  2 minutes  3.2 seconds.
 Elapsed time:       0 days  0 hours 28 minutes  4.5 seconds.
 File lengths (MBytes):  RWF=   8929 Int=      0 D2E=      0 Chk=    390 Scr=      1
 Normal termination of Gaussian 16 at Thu Apr 28 15:33:41 2022.
