 Entering Gaussian System, Link 0=g16
 Initial command:
 /sw/apps/gaussian-16.0/g16/l1.exe "/tmp/Gau-47661.inp" -scrdir="/tmp/"
 Entering Link 1 = /sw/apps/gaussian-16.0/g16/l1.exe PID=     47662.
  
 Copyright (c) 1988,1990,1992,1993,1995,1998,2003,2009,2016,
            Gaussian, Inc.  All Rights Reserved.
  
 This is part of the Gaussian(R) 16 program.  It is based on
 the Gaussian(R) 09 system (copyright 2009, Gaussian, Inc.),
 the Gaussian(R) 03 system (copyright 2003, Gaussian, Inc.),
 the Gaussian(R) 98 system (copyright 1998, Gaussian, Inc.),
 the Gaussian(R) 94 system (copyright 1995, Gaussian, Inc.),
 the Gaussian 92(TM) system (copyright 1992, Gaussian, Inc.),
 the Gaussian 90(TM) system (copyright 1990, Gaussian, Inc.),
 the Gaussian 88(TM) system (copyright 1988, Gaussian, Inc.),
 the Gaussian 86(TM) system (copyright 1986, Carnegie Mellon
 University), and the Gaussian 82(TM) system (copyright 1983,
 Carnegie Mellon University). Gaussian is a federally registered
 trademark of Gaussian, Inc.
  
 This software contains proprietary and confidential information,
 including trade secrets, belonging to Gaussian, Inc.
  
 This software is provided under written license and may be
 used, copied, transmitted, or stored only in accord with that
 written license.
  
 The following legend is applicable only to US Government
 contracts under FAR:
  
                    RESTRICTED RIGHTS LEGEND
  
 Use, reproduction and disclosure by the US Government is
 subject to restrictions as set forth in subparagraphs (a)
 and (c) of the Commercial Computer Software - Restricted
 Rights clause in FAR 52.227-19.
  
 Gaussian, Inc.
 340 Quinnipiac St., Bldg. 40, Wallingford CT 06492
  
  
 ---------------------------------------------------------------
 Warning -- This program may not be used in any manner that
 competes with the business of Gaussian, Inc. or will provide
 assistance to any competitor of Gaussian, Inc.  The licensee
 of this program is prohibited from giving any competitor of
 Gaussian, Inc. access to this program.  By using this program,
 the user acknowledges that Gaussian, Inc. is engaged in the
 business of creating and licensing software in the field of
 computational chemistry and represents and warrants to the
 licensee that it is not a competitor of Gaussian, Inc. and that
 it will not use this program in any manner prohibited above.
 ---------------------------------------------------------------
  

 Cite this work as:
 Gaussian 16, Revision A.03,
 M. J. Frisch, G. W. Trucks, H. B. Schlegel, G. E. Scuseria, 
 M. A. Robb, J. R. Cheeseman, G. Scalmani, V. Barone, 
 G. A. Petersson, H. Nakatsuji, X. Li, M. Caricato, A. V. Marenich, 
 J. Bloino, B. G. Janesko, R. Gomperts, B. Mennucci, H. P. Hratchian, 
 J. V. Ortiz, A. F. Izmaylov, J. L. Sonnenberg, D. Williams-Young, 
 F. Ding, F. Lipparini, F. Egidi, J. Goings, B. Peng, A. Petrone, 
 T. Henderson, D. Ranasinghe, V. G. Zakrzewski, J. Gao, N. Rega, 
 G. Zheng, W. Liang, M. Hada, M. Ehara, K. Toyota, R. Fukuda, 
 J. Hasegawa, M. Ishida, T. Nakajima, Y. Honda, O. Kitao, H. Nakai, 
 T. Vreven, K. Throssell, J. A. Montgomery, Jr., J. E. Peralta, 
 F. Ogliaro, M. J. Bearpark, J. J. Heyd, E. N. Brothers, K. N. Kudin, 
 V. N. Staroverov, T. A. Keith, R. Kobayashi, J. Normand, 
 K. Raghavachari, A. P. Rendell, J. C. Burant, S. S. Iyengar, 
 J. Tomasi, M. Cossi, J. M. Millam, M. Klene, C. Adamo, R. Cammi, 
 J. W. Ochterski, R. L. Martin, K. Morokuma, O. Farkas, 
 J. B. Foresman, and D. J. Fox, Gaussian, Inc., Wallingford CT, 2016.
 
 ******************************************
 Gaussian 16:  ES64L-G16RevA.03 25-Dec-2016
                 4-May-2022 
 ******************************************
 %nproc=24
 Will use up to   24 processors via shared memory.
 %mem=75GB
 ---------------------------------
 #p PBE1PBE/Def2SVP td=(nstates=5)
 ---------------------------------
 1/38=1,172=1/1;
 2/12=2,17=6,18=5,40=1/2;
 3/5=43,7=101,11=9,25=1,30=1,74=-13/1,2,3,8;
 4//1;
 5/5=2,38=5/2;
 8/6=1,10=1,108=5/1;
 9/41=5,42=1,70=2/14;
 6/7=2,8=2,9=2,10=2/1;
 99/5=1,9=1/99;
 Leave Link    1 at Wed May  4 09:47:20 2022, MaxMem= 10066329600 cpu:               1.1 elap:               0.1
 (Enter /sw/apps/gaussian-16.0/g16/l101.exe)
 ------------------------------------------------------
 step_1601_chromophore_15 TDDFT with PBE1PBE functional
 ------------------------------------------------------
 Symbolic Z-matrix:
 Charge =  0 Multiplicity = 1
 Mg                    47.004    34.643    28.354 
 C                     45.356    32.622    30.573 
 C                     46.759    37.241    30.569 
 C                     48.081    36.639    25.939 
 C                     46.562    32.172    25.941 
 N                     46.153    34.869    30.307 
 C                     45.546    33.948    31.052 
 C                     45.297    34.453    32.551 
 C                     45.409    36.024    32.312 
 C                     46.187    36.074    30.985 
 C                     44.045    36.785    32.22 
 C                     46.327    33.767    33.575 
 C                     47.463    34.577    34.358 
 C                     47.196    34.818    35.86 
 O                     47.261    33.891    36.635 
 O                     46.79     36.131    36.113 
 N                     47.556    36.624    28.292 
 C                     47.45     37.531    29.335 
 C                     48.102    38.776    28.938 
 C                     48.431    38.626    27.581 
 C                     48.012    37.266    27.221 
 C                     48.305    39.946    29.88 
 C                     49.069    39.611    26.63 
 O                     49.406    39.423    25.481 
 C                     49.344    41.014    27.18 
 N                     47.183    34.47     26.21 
 C                     47.642    35.41     25.454 
 C                     47.902    35.019    23.982 
 C                     47.383    33.552    23.936 
 C                     46.872    33.38     25.442 
 C                     47.177    35.905    22.961 
 C                     48.352    32.428    23.379 
 C                     47.776    31.513    22.245 
 N                     46.266    32.719    28.27 
 C                     46.273    31.775    27.309 
 C                     45.77     30.508    27.834 
 C                     45.376    30.787    29.106 
 C                     45.67     32.162    29.284 
 C                     45.82     29.238    27.074 
 C                     44.655    30.26     30.291 
 O                     44.146    29.207    30.536 
 C                     44.603    31.45     31.251 
 C                     45.21     31.03     32.539 
 O                     46.334    30.461    32.53 
 O                     44.431    31.215    33.616 
 C                     45.143    30.758    34.822 
 C                     46.447    36.44     37.539 
 C                     47.39     37.495    37.988 
 C                     47.156    38.556    38.786 
 C                     45.916    38.756    39.547 
 C                     48.262    39.602    38.923 
 C                     48.065    40.789    37.922 
 C                     49.311    41.058    36.996 
 C                     49.307    42.608    36.661 
 C                     49.582    42.739    35.077 
 C                     50.304    43.461    37.505 
 C                     49.59     44.33     38.596 
 C                     49.481    45.826    38.191 
 C                     47.997    46.348    38.118 
 C                     47.972    47.868    37.679 
 C                     47.106    46.014    39.32 
 C                     45.876    45.161    39.046 
 C                     44.802    45.951    38.206 
 C                     43.65     46.353    39.198 
 C                     42.319    45.839    38.719 
 C                     43.61     47.831    39.299 
 H                     46.764    38.11     31.23 
 H                     48.403    37.231    25.079 
 H                     46.517    31.39     25.181 
 H                     44.294    34.178    32.877 
 H                     45.972    36.587    33.056 
 H                     44.193    37.772    31.783 
 H                     43.612    36.902    33.213 
 H                     43.456    36.186    31.525 
 H                     46.884    32.941    33.133 
 H                     45.636    33.536    34.387 
 H                     47.854    35.486    33.9 
 H                     48.336    33.925    34.324 
 H                     49.389    39.959    29.99 
 H                     47.834    39.808    30.853 
 H                     48.009    40.949    29.572 
 H                     50.136    41.015    27.929 
 H                     48.417    41.434    27.569 
 H                     49.598    41.687    26.361 
 H                     48.977    35.082    23.814 
 H                     46.441    33.56     23.387 
 H                     46.495    36.48     23.588 
 H                     46.587    35.408    22.19 
 H                     47.757    36.642    22.406 
 H                     48.668    31.812    24.221 
 H                     49.19     32.94     22.905 
 H                     46.859    31.926    21.825 
 H                     47.698    30.484    22.598 
 H                     48.417    31.441    21.367 
 H                     46.736    29.279    26.485 
 H                     44.96     29.17     26.408 
 H                     45.796    28.312    27.647 
 H                     43.623    31.799    31.577 
 H                     44.772    31.401    35.62 
 H                     46.21     30.977    34.859 
 H                     44.972    29.697    35.005 
 H                     46.45     35.602    38.236 
 H                     45.465    36.913    37.527 
 H                     48.333    37.493    37.442 
 H                     45.928    38.823    40.635 
 H                     45.173    37.974    39.39 
 H                     45.561    39.729    39.206 
 H                     49.262    39.214    38.732 
 H                     48.216    40.004    39.935 
 H                     47.886    41.722    38.456 
 H                     47.214    40.548    37.285 
 H                     49.296    40.368    36.152 
 H                     50.24     40.824    37.516 
 H                     48.271    42.923    36.784 
 H                     50.604    42.705    34.698 
 H                     49.147    43.699    34.801 
 H                     49.021    41.967    34.55 
 H                     50.74     44.163    36.794 
 H                     51.095    42.775    37.808 
 H                     50.174    44.314    39.516 
 H                     48.584    43.945    38.764 
 H                     50.129    46.097    37.356 
 H                     49.812    46.372    39.074 
 H                     47.635    45.789    37.255 
 H                     48.866    48.32     38.108 
 H                     47.066    48.432    37.9 
 H                     48.002    47.862    36.59 
 H                     46.847    46.959    39.797 
 H                     47.62     45.467    40.11 
 H                     45.412    44.829    39.975 
 H                     46.216    44.252    38.55 
 H                     44.488    45.341    37.359 
 H                     45.276    46.807    37.726 
 H                     43.706    45.96     40.213 
 H                     42.058    46.292    37.762 
 H                     41.551    45.864    39.492 
 H                     42.524    44.794    38.488 
 H                     44.586    48.175    39.642 
 H                     42.874    48.145    40.039 
 H                     43.387    48.216    38.304 
 
 ITRead=  0  0  0  0  0  0  0  0  0  0  0  0  0  0  0  0  0  0  0  0
 ITRead=  0  0  0  0  0  0  0  0  0  0  0  0  0  0  0  0  0  0  0  0
 ITRead=  0  0  0  0  0  0  0  0  0  0  0  0  0  0  0  0  0  0  0  0
 ITRead=  0  0  0  0  0  0  0  0  0  0  0  0  0  0  0  0  0  0  0  0
 ITRead=  0  0  0  0  0  0  0  0  0  0  0  0  0  0  0  0  0  0  0  0
 ITRead=  0  0  0  0  0  0  0  0  0  0  0  0  0  0  0  0  0  0  0  0
 ITRead=  0  0  0  0  0  0  0  0  0  0  0  0  0  0  0  0  0  0  0  0
 MicOpt= -1 -1 -1 -1 -1 -1 -1 -1 -1 -1 -1 -1 -1 -1 -1 -1 -1 -1 -1 -1
 MicOpt= -1 -1 -1 -1 -1 -1 -1 -1 -1 -1 -1 -1 -1 -1 -1 -1 -1 -1 -1 -1
 MicOpt= -1 -1 -1 -1 -1 -1 -1 -1 -1 -1 -1 -1 -1 -1 -1 -1 -1 -1 -1 -1
 MicOpt= -1 -1 -1 -1 -1 -1 -1 -1 -1 -1 -1 -1 -1 -1 -1 -1 -1 -1 -1 -1
 MicOpt= -1 -1 -1 -1 -1 -1 -1 -1 -1 -1 -1 -1 -1 -1 -1 -1 -1 -1 -1 -1
 MicOpt= -1 -1 -1 -1 -1 -1 -1 -1 -1 -1 -1 -1 -1 -1 -1 -1 -1 -1 -1 -1
 MicOpt= -1 -1 -1 -1 -1 -1 -1 -1 -1 -1 -1 -1 -1 -1 -1 -1 -1 -1 -1 -1
 NAtoms=    140 NQM=      140 NQMF=       0 NMMI=      0 NMMIF=      0
                NMic=       0 NMicF=      0.
                    Isotopes and Nuclear Properties:
 (Nuclear quadrupole moments (NQMom) in fm**2, nuclear magnetic moments (NMagM)
  in nuclear magnetons)

  Atom         1           2           3           4           5           6           7           8           9          10
 IAtWgt=          24          12          12          12          12          14          12          12          12          12
 AtmWgt=  23.9850450  12.0000000  12.0000000  12.0000000  12.0000000  14.0030740  12.0000000  12.0000000  12.0000000  12.0000000
 NucSpn=           0           0           0           0           0           2           0           0           0           0
 AtZEff=  -0.0000000  -0.0000000  -0.0000000  -0.0000000  -0.0000000  -0.0000000  -0.0000000  -0.0000000  -0.0000000  -0.0000000
 NQMom=    0.0000000   0.0000000   0.0000000   0.0000000   0.0000000   2.0440000   0.0000000   0.0000000   0.0000000   0.0000000
 NMagM=    0.0000000   0.0000000   0.0000000   0.0000000   0.0000000   0.4037610   0.0000000   0.0000000   0.0000000   0.0000000
 AtZNuc=  12.0000000   6.0000000   6.0000000   6.0000000   6.0000000   7.0000000   6.0000000   6.0000000   6.0000000   6.0000000

  Atom        11          12          13          14          15          16          17          18          19          20
 IAtWgt=          12          12          12          12          16          16          14          12          12          12
 AtmWgt=  12.0000000  12.0000000  12.0000000  12.0000000  15.9949146  15.9949146  14.0030740  12.0000000  12.0000000  12.0000000
 NucSpn=           0           0           0           0           0           0           2           0           0           0
 AtZEff=  -0.0000000  -0.0000000  -0.0000000  -0.0000000  -0.0000000  -0.0000000  -0.0000000  -0.0000000  -0.0000000  -0.0000000
 NQMom=    0.0000000   0.0000000   0.0000000   0.0000000   0.0000000   0.0000000   2.0440000   0.0000000   0.0000000   0.0000000
 NMagM=    0.0000000   0.0000000   0.0000000   0.0000000   0.0000000   0.0000000   0.4037610   0.0000000   0.0000000   0.0000000
 AtZNuc=   6.0000000   6.0000000   6.0000000   6.0000000   8.0000000   8.0000000   7.0000000   6.0000000   6.0000000   6.0000000

  Atom        21          22          23          24          25          26          27          28          29          30
 IAtWgt=          12          12          12          16          12          14          12          12          12          12
 AtmWgt=  12.0000000  12.0000000  12.0000000  15.9949146  12.0000000  14.0030740  12.0000000  12.0000000  12.0000000  12.0000000
 NucSpn=           0           0           0           0           0           2           0           0           0           0
 AtZEff=  -0.0000000  -0.0000000  -0.0000000  -0.0000000  -0.0000000  -0.0000000  -0.0000000  -0.0000000  -0.0000000  -0.0000000
 NQMom=    0.0000000   0.0000000   0.0000000   0.0000000   0.0000000   2.0440000   0.0000000   0.0000000   0.0000000   0.0000000
 NMagM=    0.0000000   0.0000000   0.0000000   0.0000000   0.0000000   0.4037610   0.0000000   0.0000000   0.0000000   0.0000000
 AtZNuc=   6.0000000   6.0000000   6.0000000   8.0000000   6.0000000   7.0000000   6.0000000   6.0000000   6.0000000   6.0000000

  Atom        31          32          33          34          35          36          37          38          39          40
 IAtWgt=          12          12          12          14          12          12          12          12          12          12
 AtmWgt=  12.0000000  12.0000000  12.0000000  14.0030740  12.0000000  12.0000000  12.0000000  12.0000000  12.0000000  12.0000000
 NucSpn=           0           0           0           2           0           0           0           0           0           0
 AtZEff=  -0.0000000  -0.0000000  -0.0000000  -0.0000000  -0.0000000  -0.0000000  -0.0000000  -0.0000000  -0.0000000  -0.0000000
 NQMom=    0.0000000   0.0000000   0.0000000   2.0440000   0.0000000   0.0000000   0.0000000   0.0000000   0.0000000   0.0000000
 NMagM=    0.0000000   0.0000000   0.0000000   0.4037610   0.0000000   0.0000000   0.0000000   0.0000000   0.0000000   0.0000000
 AtZNuc=   6.0000000   6.0000000   6.0000000   7.0000000   6.0000000   6.0000000   6.0000000   6.0000000   6.0000000   6.0000000

  Atom        41          42          43          44          45          46          47          48          49          50
 IAtWgt=          16          12          12          16          16          12          12          12          12          12
 AtmWgt=  15.9949146  12.0000000  12.0000000  15.9949146  15.9949146  12.0000000  12.0000000  12.0000000  12.0000000  12.0000000
 NucSpn=           0           0           0           0           0           0           0           0           0           0
 AtZEff=  -0.0000000  -0.0000000  -0.0000000  -0.0000000  -0.0000000  -0.0000000  -0.0000000  -0.0000000  -0.0000000  -0.0000000
 NQMom=    0.0000000   0.0000000   0.0000000   0.0000000   0.0000000   0.0000000   0.0000000   0.0000000   0.0000000   0.0000000
 NMagM=    0.0000000   0.0000000   0.0000000   0.0000000   0.0000000   0.0000000   0.0000000   0.0000000   0.0000000   0.0000000
 AtZNuc=   8.0000000   6.0000000   6.0000000   8.0000000   8.0000000   6.0000000   6.0000000   6.0000000   6.0000000   6.0000000

  Atom        51          52          53          54          55          56          57          58          59          60
 IAtWgt=          12          12          12          12          12          12          12          12          12          12
 AtmWgt=  12.0000000  12.0000000  12.0000000  12.0000000  12.0000000  12.0000000  12.0000000  12.0000000  12.0000000  12.0000000
 NucSpn=           0           0           0           0           0           0           0           0           0           0
 AtZEff=  -0.0000000  -0.0000000  -0.0000000  -0.0000000  -0.0000000  -0.0000000  -0.0000000  -0.0000000  -0.0000000  -0.0000000
 NQMom=    0.0000000   0.0000000   0.0000000   0.0000000   0.0000000   0.0000000   0.0000000   0.0000000   0.0000000   0.0000000
 NMagM=    0.0000000   0.0000000   0.0000000   0.0000000   0.0000000   0.0000000   0.0000000   0.0000000   0.0000000   0.0000000
 AtZNuc=   6.0000000   6.0000000   6.0000000   6.0000000   6.0000000   6.0000000   6.0000000   6.0000000   6.0000000   6.0000000

  Atom        61          62          63          64          65          66          67          68          69          70
 IAtWgt=          12          12          12          12          12          12           1           1           1           1
 AtmWgt=  12.0000000  12.0000000  12.0000000  12.0000000  12.0000000  12.0000000   1.0078250   1.0078250   1.0078250   1.0078250
 NucSpn=           0           0           0           0           0           0           1           1           1           1
 AtZEff=  -0.0000000  -0.0000000  -0.0000000  -0.0000000  -0.0000000  -0.0000000  -0.0000000  -0.0000000  -0.0000000  -0.0000000
 NQMom=    0.0000000   0.0000000   0.0000000   0.0000000   0.0000000   0.0000000   0.0000000   0.0000000   0.0000000   0.0000000
 NMagM=    0.0000000   0.0000000   0.0000000   0.0000000   0.0000000   0.0000000   2.7928460   2.7928460   2.7928460   2.7928460
 AtZNuc=   6.0000000   6.0000000   6.0000000   6.0000000   6.0000000   6.0000000   1.0000000   1.0000000   1.0000000   1.0000000

  Atom        71          72          73          74          75          76          77          78          79          80
 IAtWgt=           1           1           1           1           1           1           1           1           1           1
 AtmWgt=   1.0078250   1.0078250   1.0078250   1.0078250   1.0078250   1.0078250   1.0078250   1.0078250   1.0078250   1.0078250
 NucSpn=           1           1           1           1           1           1           1           1           1           1
 AtZEff=  -0.0000000  -0.0000000  -0.0000000  -0.0000000  -0.0000000  -0.0000000  -0.0000000  -0.0000000  -0.0000000  -0.0000000
 NQMom=    0.0000000   0.0000000   0.0000000   0.0000000   0.0000000   0.0000000   0.0000000   0.0000000   0.0000000   0.0000000
 NMagM=    2.7928460   2.7928460   2.7928460   2.7928460   2.7928460   2.7928460   2.7928460   2.7928460   2.7928460   2.7928460
 AtZNuc=   1.0000000   1.0000000   1.0000000   1.0000000   1.0000000   1.0000000   1.0000000   1.0000000   1.0000000   1.0000000

  Atom        81          82          83          84          85          86          87          88          89          90
 IAtWgt=           1           1           1           1           1           1           1           1           1           1
 AtmWgt=   1.0078250   1.0078250   1.0078250   1.0078250   1.0078250   1.0078250   1.0078250   1.0078250   1.0078250   1.0078250
 NucSpn=           1           1           1           1           1           1           1           1           1           1
 AtZEff=  -0.0000000  -0.0000000  -0.0000000  -0.0000000  -0.0000000  -0.0000000  -0.0000000  -0.0000000  -0.0000000  -0.0000000
 NQMom=    0.0000000   0.0000000   0.0000000   0.0000000   0.0000000   0.0000000   0.0000000   0.0000000   0.0000000   0.0000000
 NMagM=    2.7928460   2.7928460   2.7928460   2.7928460   2.7928460   2.7928460   2.7928460   2.7928460   2.7928460   2.7928460
 AtZNuc=   1.0000000   1.0000000   1.0000000   1.0000000   1.0000000   1.0000000   1.0000000   1.0000000   1.0000000   1.0000000

  Atom        91          92          93          94          95          96          97          98          99         100
 IAtWgt=           1           1           1           1           1           1           1           1           1           1
 AtmWgt=   1.0078250   1.0078250   1.0078250   1.0078250   1.0078250   1.0078250   1.0078250   1.0078250   1.0078250   1.0078250
 NucSpn=           1           1           1           1           1           1           1           1           1           1
 AtZEff=  -0.0000000  -0.0000000  -0.0000000  -0.0000000  -0.0000000  -0.0000000  -0.0000000  -0.0000000  -0.0000000  -0.0000000
 NQMom=    0.0000000   0.0000000   0.0000000   0.0000000   0.0000000   0.0000000   0.0000000   0.0000000   0.0000000   0.0000000
 NMagM=    2.7928460   2.7928460   2.7928460   2.7928460   2.7928460   2.7928460   2.7928460   2.7928460   2.7928460   2.7928460
 AtZNuc=   1.0000000   1.0000000   1.0000000   1.0000000   1.0000000   1.0000000   1.0000000   1.0000000   1.0000000   1.0000000

  Atom       101         102         103         104         105         106         107         108         109         110
 IAtWgt=           1           1           1           1           1           1           1           1           1           1
 AtmWgt=   1.0078250   1.0078250   1.0078250   1.0078250   1.0078250   1.0078250   1.0078250   1.0078250   1.0078250   1.0078250
 NucSpn=           1           1           1           1           1           1           1           1           1           1
 AtZEff=  -0.0000000  -0.0000000  -0.0000000  -0.0000000  -0.0000000  -0.0000000  -0.0000000  -0.0000000  -0.0000000  -0.0000000
 NQMom=    0.0000000   0.0000000   0.0000000   0.0000000   0.0000000   0.0000000   0.0000000   0.0000000   0.0000000   0.0000000
 NMagM=    2.7928460   2.7928460   2.7928460   2.7928460   2.7928460   2.7928460   2.7928460   2.7928460   2.7928460   2.7928460
 AtZNuc=   1.0000000   1.0000000   1.0000000   1.0000000   1.0000000   1.0000000   1.0000000   1.0000000   1.0000000   1.0000000

  Atom       111         112         113         114         115         116         117         118         119         120
 IAtWgt=           1           1           1           1           1           1           1           1           1           1
 AtmWgt=   1.0078250   1.0078250   1.0078250   1.0078250   1.0078250   1.0078250   1.0078250   1.0078250   1.0078250   1.0078250
 NucSpn=           1           1           1           1           1           1           1           1           1           1
 AtZEff=  -0.0000000  -0.0000000  -0.0000000  -0.0000000  -0.0000000  -0.0000000  -0.0000000  -0.0000000  -0.0000000  -0.0000000
 NQMom=    0.0000000   0.0000000   0.0000000   0.0000000   0.0000000   0.0000000   0.0000000   0.0000000   0.0000000   0.0000000
 NMagM=    2.7928460   2.7928460   2.7928460   2.7928460   2.7928460   2.7928460   2.7928460   2.7928460   2.7928460   2.7928460
 AtZNuc=   1.0000000   1.0000000   1.0000000   1.0000000   1.0000000   1.0000000   1.0000000   1.0000000   1.0000000   1.0000000

  Atom       121         122         123         124         125         126         127         128         129         130
 IAtWgt=           1           1           1           1           1           1           1           1           1           1
 AtmWgt=   1.0078250   1.0078250   1.0078250   1.0078250   1.0078250   1.0078250   1.0078250   1.0078250   1.0078250   1.0078250
 NucSpn=           1           1           1           1           1           1           1           1           1           1
 AtZEff=  -0.0000000  -0.0000000  -0.0000000  -0.0000000  -0.0000000  -0.0000000  -0.0000000  -0.0000000  -0.0000000  -0.0000000
 NQMom=    0.0000000   0.0000000   0.0000000   0.0000000   0.0000000   0.0000000   0.0000000   0.0000000   0.0000000   0.0000000
 NMagM=    2.7928460   2.7928460   2.7928460   2.7928460   2.7928460   2.7928460   2.7928460   2.7928460   2.7928460   2.7928460
 AtZNuc=   1.0000000   1.0000000   1.0000000   1.0000000   1.0000000   1.0000000   1.0000000   1.0000000   1.0000000   1.0000000

  Atom       131         132         133         134         135         136         137         138         139         140
 IAtWgt=           1           1           1           1           1           1           1           1           1           1
 AtmWgt=   1.0078250   1.0078250   1.0078250   1.0078250   1.0078250   1.0078250   1.0078250   1.0078250   1.0078250   1.0078250
 NucSpn=           1           1           1           1           1           1           1           1           1           1
 AtZEff=  -0.0000000  -0.0000000  -0.0000000  -0.0000000  -0.0000000  -0.0000000  -0.0000000  -0.0000000  -0.0000000  -0.0000000
 NQMom=    0.0000000   0.0000000   0.0000000   0.0000000   0.0000000   0.0000000   0.0000000   0.0000000   0.0000000   0.0000000
 NMagM=    2.7928460   2.7928460   2.7928460   2.7928460   2.7928460   2.7928460   2.7928460   2.7928460   2.7928460   2.7928460
 AtZNuc=   1.0000000   1.0000000   1.0000000   1.0000000   1.0000000   1.0000000   1.0000000   1.0000000   1.0000000   1.0000000
 Leave Link  101 at Wed May  4 09:47:20 2022, MaxMem= 10066329600 cpu:               3.1 elap:               0.1
 (Enter /sw/apps/gaussian-16.0/g16/l202.exe)
 Stoichiometry    C55H74MgN4O6
 Framework group  C1[X(C55H74MgN4O6)]
 Deg. of freedom   414
 Full point group                 C1      NOp   1
 Largest Abelian subgroup         C1      NOp   1
 Largest concise Abelian subgroup C1      NOp   1
                         Standard orientation:                         
 ---------------------------------------------------------------------
 Center     Atomic      Atomic             Coordinates (Angstroms)
 Number     Number       Type             X           Y           Z
 ---------------------------------------------------------------------
      1         12           0       -4.509167    0.907997    0.014282
      2          6           0       -4.423134   -2.433287    0.757734
      3          6           0       -1.108746    1.055702    0.376459
      4          6           0       -4.760745    4.207395   -0.149582
      5          6           0       -7.970296    0.789077    0.375145
      6          7           0       -2.993892   -0.522316    0.511907
      7          6           0       -3.138786   -1.821532    0.762423
      8          6           0       -1.732194   -2.584109    0.825679
      9          6           0       -0.778134   -1.336295    1.091079
     10          6           0       -1.659041   -0.172163    0.603727
     11          6           0       -0.324855   -1.145492    2.576412
     12          6           0       -1.484476   -3.459278   -0.498250
     13          6           0       -0.337661   -3.137164   -1.566306
     14          6           0        0.882560   -4.083640   -1.541467
     15          8           0        0.766530   -5.219262   -1.942813
     16          8           0        1.988429   -3.492105   -0.925062
     17          7           0       -3.130860    2.431893   -0.090210
     18          6           0       -1.754958    2.292219    0.005281
     19          6           0       -1.134308    3.581661   -0.286045
     20          6           0       -2.186877    4.506715   -0.378588
     21          6           0       -3.416133    3.726194   -0.192907
     22          6           0        0.363771    3.774138   -0.413262
     23          6           0       -2.140270    5.999161   -0.606850
     24          8           0       -3.073918    6.757946   -0.754025
     25          6           0       -0.749725    6.637458   -0.680983
     26          7           0       -6.132710    2.316927    0.208534
     27          6           0       -5.984654    3.594974    0.106099
     28          6           0       -7.290868    4.418404    0.051027
     29          6           0       -8.377992    3.322247    0.251442
     30          6           0       -7.453702    2.028093    0.423476
     31          6           0       -7.388451    5.510883    1.123421
     32          6           0       -9.552201    3.224083   -0.808833
     33          6           0      -11.009900    3.229941   -0.234346
     34          7           0       -5.952583   -0.529412    0.336586
     35          6           0       -7.299136   -0.498648    0.313006
     36          6           0       -7.843022   -1.849122    0.432718
     37          6           0       -6.759292   -2.647534    0.630531
     38          6           0       -5.649223   -1.766804    0.602096
     39          6           0       -9.280187   -2.162873    0.262084
     40          6           0       -6.316889   -4.017465    0.990203
     41          8           0       -6.904716   -5.033726    1.212886
     42          6           0       -4.796526   -3.895407    1.108533
     43          6           0       -4.181721   -4.892516    0.196622
     44          8           0       -4.573312   -4.952506   -0.999320
     45          8           0       -3.308661   -5.727606    0.780905
     46          6           0       -2.775837   -6.663680   -0.224129
     47          6           0        3.202449   -4.362060   -0.798822
     48          6           0        4.286182   -3.700216   -1.567822
     49          6           0        5.597728   -3.604107   -1.271359
     50          6           0        6.251583   -4.340946   -0.182202
     51          6           0        6.459193   -2.688035   -2.140158
     52          6           0        6.599665   -1.259833   -1.515430
     53          6           0        6.164465   -0.093750   -2.481456
     54          6           0        7.034149    1.173535   -2.091096
     55          6           0        6.021691    2.427770   -2.030548
     56          6           0        8.251882    1.443552   -3.028204
     57          6           0        9.623412    1.075098   -2.366097
     58          6           0       10.403632    2.324952   -1.873104
     59          6           0       10.697741    2.309020   -0.326070
     60          6           0       11.472736    3.621863    0.097689
     61          6           0       11.286553    1.009021    0.233881
     62          6           0       10.464333    0.281690    1.287697
     63          6           0       10.418972    1.087624    2.641059
     64          6           0       11.380363    0.351828    3.644605
     65          6           0       10.654172   -0.035779    4.904607
     66          6           0       12.503828    1.260932    3.972695
     67          1           0       -0.025803    1.184414    0.429136
     68          1           0       -4.936104    5.285550   -0.173688
     69          1           0       -9.061378    0.775514    0.397599
     70          1           0       -1.717641   -3.273460    1.669772
     71          1           0        0.154977   -1.313279    0.528721
     72          1           0        0.074794   -0.142498    2.722448
     73          1           0        0.447069   -1.871420    2.830163
     74          1           0       -1.249731   -1.233602    3.147015
     75          1           0       -2.373079   -3.552389   -1.122432
     76          1           0       -1.092141   -4.366033   -0.035590
     77          1           0       -0.003952   -2.103889   -1.665849
     78          1           0       -0.810457   -3.305853   -2.533982
     79          1           0        0.469695    4.010845   -1.471598
     80          1           0        0.939249    2.880555   -0.172538
     81          1           0        0.857287    4.574744    0.138065
     82          1           0       -0.209516    6.344828   -1.581432
     83          1           0       -0.194304    6.391488    0.223482
     84          1           0       -0.839829    7.722607   -0.630599
     85          1           0       -7.344418    4.877282   -0.936081
     86          1           0       -8.774239    3.441324    1.260222
     87          1           0       -6.551254    5.273648    1.780459
     88          1           0       -8.293945    5.543073    1.730541
     89          1           0       -7.241943    6.548635    0.824755
     90          1           0       -9.395080    2.320958   -1.398711
     91          1           0       -9.504601    4.127719   -1.417306
     92          1           0      -11.026596    3.538514    0.810815
     93          1           0      -11.497126    2.276205   -0.440581
     94          1           0      -11.665364    3.965174   -0.699910
     95          1           0       -9.647504   -1.473706   -0.498037
     96          1           0       -9.811168   -1.991248    1.198238
     97          1           0       -9.538759   -3.183822   -0.015739
     98          1           0       -4.336840   -4.160440    2.060858
     99          1           0       -1.764663   -6.885871    0.116536
    100          1           0       -2.574595   -6.243573   -1.209437
    101          1           0       -3.406755   -7.547971   -0.315896
    102          1           0        3.094035   -5.401801   -1.107443
    103          1           0        3.513453   -4.312138    0.244721
    104          1           0        3.918859   -3.061857   -2.370903
    105          1           0        7.062505   -5.041041   -0.383821
    106          1           0        5.570781   -4.964781    0.397074
    107          1           0        6.699515   -3.554261    0.425679
    108          1           0        6.066740   -2.536371   -3.145147
    109          1           0        7.454528   -3.127765   -2.201896
    110          1           0        7.635848   -1.052456   -1.248964
    111          1           0        5.965886   -1.221486   -0.629481
    112          1           0        5.080586    0.020476   -2.452827
    113          1           0        6.379074   -0.347869   -3.519513
    114          1           0        7.326243    1.009669   -1.054043
    115          1           0        5.750093    2.951968   -2.947463
    116          1           0        6.504498    3.138632   -1.360792
    117          1           0        5.091833    2.116100   -1.554460
    118          1           0        8.261459    2.524822   -3.166705
    119          1           0        7.989698    0.997335   -3.987493
    120          1           0       10.267672    0.595203   -3.102536
    121          1           0        9.448717    0.419914   -1.512457
    122          1           0       10.022902    3.262268   -2.281826
    123          1           0       11.417923    2.175990   -2.242415
    124          1           0        9.687652    2.426837    0.066528
    125          1           0       12.111808    3.879924   -0.746451
    126          1           0       12.013354    3.593759    1.043584
    127          1           0       10.705344    4.375261    0.271923
    128          1           0       12.289877    1.241229    0.590330
    129          1           0       11.459951    0.243336   -0.521872
    130          1           0       10.870820   -0.709586    1.489445
    131          1           0        9.474801    0.109349    0.864587
    132          1           0        9.384620    1.173728    2.973935
    133          1           0       10.700975    2.123788    2.454913
    134          1           0       11.813048   -0.593781    3.318389
    135          1           0       10.301229    0.852692    5.429230
    136          1           0       11.200221   -0.765844    5.501946
    137          1           0        9.751113   -0.519279    4.532959
    138          1           0       13.007098    1.528790    3.043431
    139          1           0       13.233280    0.756064    4.605861
    140          1           0       12.076459    2.140647    4.453774
 ---------------------------------------------------------------------
 Rotational constants (GHZ):           0.0406675           0.0124191           0.0102964
 Leave Link  202 at Wed May  4 09:47:20 2022, MaxMem= 10066329600 cpu:               0.2 elap:               0.0
 (Enter /sw/apps/gaussian-16.0/g16/l301.exe)
 Standard basis: def2SVP (5D, 7F)
 Ernie: Thresh=  0.10000D-02 Tol=  0.10000D-05 Strict=F.
 There are  1364 symmetry adapted cartesian basis functions of A   symmetry.
 There are  1298 symmetry adapted basis functions of A   symmetry.
  1298 basis functions,  2180 primitive gaussians,  1364 cartesian basis functions
   246 alpha electrons      246 beta electrons
       nuclear repulsion energy      9741.9039367176 Hartrees.
 IExCor= 1009 DFT=T Ex+Corr=PBE1PBE ExCW=0 ScaHFX=  0.250000
 ScaDFX=  0.750000  0.750000  1.000000  1.000000 ScalE2=  1.000000  1.000000
 IRadAn=      5 IRanWt=     -1 IRanGd=            0 ICorTp=0 IEmpDi=  4
 NAtoms=  140 NActive=  140 NUniq=  140 SFac= 1.00D+00 NAtFMM=   60 NAOKFM=T Big=T
 Integral buffers will be    131072 words long.
 Regular integral format.
 Two-electron integral symmetry is turned on.
 Leave Link  301 at Wed May  4 09:47:20 2022, MaxMem= 10066329600 cpu:               1.6 elap:               0.1
 (Enter /sw/apps/gaussian-16.0/g16/l302.exe)
 NPDir=0 NMtPBC=     1 NCelOv=     1 NCel=       1 NClECP=     1 NCelD=      1
         NCelK=      1 NCelE2=     1 NClLst=     1 CellRange=     0.0.
 One-electron integrals computed using PRISM.
 One-electron integral symmetry used in STVInt
   1 Symmetry operations used in ECPInt.
 ECPInt:  NShTT=  192510 NPrTT=  683786 LenC2=   99615 LenP2D=  216113.
 LDataN:  DoStor=T MaxTD1= 4 Len=   56
 NBasis=  1298 RedAO= T EigKep=  3.16D-04  NBF=  1298
 NBsUse=  1298 1.00D-06 EigRej= -1.00D+00 NBFU=  1298
 Precomputing XC quadrature grid using
 IXCGrd= 4 IRadAn=           5 IRanWt=          -1 IRanGd=           0 AccXCQ= 0.00D+00.
 Generated NRdTot=       0 NPtTot=           0 NUsed=           0 NTot=          32
 NSgBfM=  1212  1212  1212  1212  1212 MxSgAt=   140 MxSgA2=   140.
 Leave Link  302 at Wed May  4 09:47:24 2022, MaxMem= 10066329600 cpu:              93.3 elap:               3.9
 (Enter /sw/apps/gaussian-16.0/g16/l303.exe)
 DipDrv:  MaxL=1.
 Leave Link  303 at Wed May  4 09:47:24 2022, MaxMem= 10066329600 cpu:               6.2 elap:               0.3
 (Enter /sw/apps/gaussian-16.0/g16/l308.exe)
 Leave Link  308 at Wed May  4 09:47:25 2022, MaxMem= 10066329600 cpu:               9.0 elap:               0.4
 (Enter /sw/apps/gaussian-16.0/g16/l401.exe)
 ExpMin= 3.36D-02 ExpMax= 4.95D+03 ExpMxC= 7.45D+02 IAcc=3 IRadAn=         5 AccDes= 0.00D+00
 Harris functional with IExCor= 1009 and IRadAn=       5 diagonalized for initial guess.
 HarFok:  IExCor= 1009 AccDes= 0.00D+00 IRadAn=         5 IDoV= 1 UseB2=F ITyADJ=14
 ICtDFT=  3500011 ScaDFX=  1.000000  1.000000  1.000000  1.000000
 FoFCou: FMM=F IPFlag=           0 FMFlag=      100000 FMFlg1=        2001
         NFxFlg=           0 DoJE=T BraDBF=F KetDBF=T FulRan=T
         wScrn=  0.000000 ICntrl=       500 IOpCl=  0 I1Cent=   200000004 NGrid=           0
         NMat0=    1 NMatS0=      1 NMatT0=    0 NMatD0=    1 NMtDS0=    0 NMtDT0=    0
 Petite list used in FoFCou.
 Harris En= -3006.17137992175    
 JPrj=0 DoOrth=F DoCkMO=F.
 Leave Link  401 at Wed May  4 09:47:31 2022, MaxMem= 10066329600 cpu:             146.4 elap:               6.1
 (Enter /sw/apps/gaussian-16.0/g16/l502.exe)
 Integral symmetry usage will be decided dynamically.
 Closed shell SCF:
 Using DIIS extrapolation, IDIIS=  1040.
 NGot= 10066329600 LenX= 10062561258 LenY= 10060699398
 Requested convergence on RMS density matrix=1.00D-08 within 128 cycles.
 Requested convergence on MAX density matrix=1.00D-06.
 Requested convergence on             energy=1.00D-06.
 No special actions if energy rises.
 Fock matrices will be formed incrementally for  20 cycles.

 Cycle   1  Pass 1  IDiag  1:
 FoFJK:  IHMeth= 1 ICntrl=       0 DoSepK=F KAlg= 0 I1Cent=           0 FoldK=F
 IRaf= 540000000 NMat=       1 IRICut=       1 DoRegI=T DoRafI=F ISym2E= 0 IDoP0=0 IntGTp=1.
 FoFCou: FMM=T IPFlag=           0 FMFlag=      100000 FMFlg1=        2001
         NFxFlg=           0 DoJE=F BraDBF=F KetDBF=F FulRan=T
         wScrn=  0.000000 ICntrl=         0 IOpCl=  0 I1Cent=           0 NGrid=           0
         NMat0=    1 NMatS0=      1 NMatT0=    0 NMatD0=    1 NMtDS0=    0 NMtDT0=    0
 Symmetry not used in FoFCou.
 FMM levels:  10  Number of levels for PrismC:   9
 E= -3003.84630431192    
 DIIS: error= 2.44D-02 at cycle   1 NSaved=   1.
 NSaved= 1 IEnMin= 1 EnMin= -3003.84630431192     IErMin= 1 ErrMin= 2.44D-02
 ErrMax= 2.44D-02  0.00D+00 EMaxC= 1.00D-01 BMatC= 1.45D+00 BMatP= 1.45D+00
 IDIUse=3 WtCom= 7.56D-01 WtEn= 2.44D-01
 Coeff-Com:  0.100D+01
 Coeff-En:   0.100D+01
 Coeff:      0.100D+01
 Gap=     0.089 Goal=   None    Shift=    0.000
 GapD=    0.089 DampG=0.500 DampE=0.500 DampFc=0.2500 IDamp=-1.
 Damping current iteration by 2.50D-01
 RMSDP=2.75D-03 MaxDP=6.76D-01              OVMax= 2.49D-01

 Cycle   2  Pass 1  IDiag  1:
 RMSU=  6.81D-04    CP:  9.90D-01
 E= -3004.39096869870     Delta-E=       -0.544664386771 Rises=F Damp=T
 DIIS: error= 1.17D-02 at cycle   2 NSaved=   2.
 NSaved= 2 IEnMin= 2 EnMin= -3004.39096869870     IErMin= 2 ErrMin= 1.17D-02
 ErrMax= 1.17D-02  0.00D+00 EMaxC= 1.00D-01 BMatC= 3.65D-01 BMatP= 1.45D+00
 IDIUse=3 WtCom= 8.83D-01 WtEn= 1.17D-01
 Coeff-Com: -0.768D+00 0.177D+01
 Coeff-En:   0.000D+00 0.100D+01
 Coeff:     -0.679D+00 0.168D+01
 Gap=     0.178 Goal=   None    Shift=    0.000
 RMSDP=1.01D-03 MaxDP=6.39D-02 DE=-5.45D-01 OVMax= 3.20D-01

 Cycle   3  Pass 1  IDiag  1:
 RMSU=  8.62D-04    CP:  9.64D-01  1.70D+00
 E= -3005.19776938340     Delta-E=       -0.806800684706 Rises=F Damp=F
 DIIS: error= 1.54D-02 at cycle   3 NSaved=   3.
 NSaved= 3 IEnMin= 3 EnMin= -3005.19776938340     IErMin= 2 ErrMin= 1.17D-02
 ErrMax= 1.54D-02  0.00D+00 EMaxC= 1.00D-01 BMatC= 1.88D-01 BMatP= 3.65D-01
 IDIUse=3 WtCom= 8.46D-01 WtEn= 1.54D-01
 Coeff-Com: -0.498D+00 0.107D+01 0.432D+00
 Coeff-En:   0.000D+00 0.000D+00 0.100D+01
 Coeff:     -0.421D+00 0.902D+00 0.519D+00
 Gap=     0.079 Goal=   None    Shift=    0.000
 RMSDP=6.55D-04 MaxDP=9.20D-02 DE=-8.07D-01 OVMax= 2.45D-01

 Cycle   4  Pass 1  IDiag  1:
 RMSU=  4.34D-04    CP:  9.71D-01  1.95D+00  4.74D-01
 E= -3005.31165558069     Delta-E=       -0.113886197285 Rises=F Damp=F
 DIIS: error= 8.59D-03 at cycle   4 NSaved=   4.
 NSaved= 4 IEnMin= 4 EnMin= -3005.31165558069     IErMin= 4 ErrMin= 8.59D-03
 ErrMax= 8.59D-03  0.00D+00 EMaxC= 1.00D-01 BMatC= 6.26D-02 BMatP= 1.88D-01
 IDIUse=3 WtCom= 9.14D-01 WtEn= 8.59D-02
 Coeff-Com: -0.109D+00 0.246D+00 0.357D+00 0.506D+00
 Coeff-En:   0.000D+00 0.000D+00 0.311D+00 0.689D+00
 Coeff:     -0.993D-01 0.225D+00 0.353D+00 0.522D+00
 Gap=     0.077 Goal=   None    Shift=    0.000
 RMSDP=3.53D-04 MaxDP=4.52D-02 DE=-1.14D-01 OVMax= 1.90D-01

 Cycle   5  Pass 1  IDiag  1:
 RMSU=  1.58D-04    CP:  9.69D-01  1.81D+00  6.91D-01  4.61D-01
 E= -3005.36515800256     Delta-E=       -0.053502421873 Rises=F Damp=F
 DIIS: error= 3.41D-03 at cycle   5 NSaved=   5.
 NSaved= 5 IEnMin= 5 EnMin= -3005.36515800256     IErMin= 5 ErrMin= 3.41D-03
 ErrMax= 3.41D-03  0.00D+00 EMaxC= 1.00D-01 BMatC= 8.28D-03 BMatP= 6.26D-02
 IDIUse=3 WtCom= 9.66D-01 WtEn= 3.41D-02
 Coeff-Com: -0.198D-01 0.522D-01 0.205D+00 0.377D+00 0.386D+00
 Coeff-En:   0.000D+00 0.000D+00 0.000D+00 0.158D+00 0.842D+00
 Coeff:     -0.191D-01 0.504D-01 0.198D+00 0.369D+00 0.401D+00
 Gap=     0.077 Goal=   None    Shift=    0.000
 RMSDP=1.44D-04 MaxDP=1.37D-02 DE=-5.35D-02 OVMax= 8.80D-02

 Cycle   6  Pass 1  IDiag  1:
 RMSU=  5.49D-05    CP:  9.69D-01  1.82D+00  6.55D-01  6.18D-01  3.06D-01
 E= -3005.37519812592     Delta-E=       -0.010040123356 Rises=F Damp=F
 DIIS: error= 8.92D-04 at cycle   6 NSaved=   6.
 NSaved= 6 IEnMin= 6 EnMin= -3005.37519812592     IErMin= 6 ErrMin= 8.92D-04
 ErrMax= 8.92D-04  0.00D+00 EMaxC= 1.00D-01 BMatC= 8.58D-04 BMatP= 8.28D-03
 IDIUse=3 WtCom= 9.91D-01 WtEn= 8.92D-03
 Coeff-Com:  0.370D-02-0.429D-02 0.653D-01 0.142D+00 0.271D+00 0.522D+00
 Coeff-En:   0.000D+00 0.000D+00 0.000D+00 0.000D+00 0.120D+00 0.880D+00
 Coeff:      0.367D-02-0.425D-02 0.648D-01 0.141D+00 0.269D+00 0.525D+00
 Gap=     0.077 Goal=   None    Shift=    0.000
 RMSDP=4.44D-05 MaxDP=3.76D-03 DE=-1.00D-02 OVMax= 2.70D-02

 Cycle   7  Pass 1  IDiag  1:
 RMSU=  2.42D-05    CP:  9.69D-01  1.82D+00  6.66D-01  5.89D-01  4.60D-01
                    CP:  5.77D-01
 E= -3005.37614525863     Delta-E=       -0.000947132710 Rises=F Damp=F
 DIIS: error= 3.19D-04 at cycle   7 NSaved=   7.
 NSaved= 7 IEnMin= 7 EnMin= -3005.37614525863     IErMin= 7 ErrMin= 3.19D-04
 ErrMax= 3.19D-04  0.00D+00 EMaxC= 1.00D-01 BMatC= 1.38D-04 BMatP= 8.58D-04
 IDIUse=3 WtCom= 9.97D-01 WtEn= 3.19D-03
 Coeff-Com:  0.390D-02-0.737D-02 0.188D-01 0.468D-01 0.134D+00 0.360D+00
 Coeff-Com:  0.444D+00
 Coeff-En:   0.000D+00 0.000D+00 0.000D+00 0.000D+00 0.000D+00 0.118D+00
 Coeff-En:   0.882D+00
 Coeff:      0.389D-02-0.734D-02 0.188D-01 0.466D-01 0.134D+00 0.359D+00
 Coeff:      0.445D+00
 Gap=     0.078 Goal=   None    Shift=    0.000
 RMSDP=1.96D-05 MaxDP=1.92D-03 DE=-9.47D-04 OVMax= 1.43D-02

 Cycle   8  Pass 1  IDiag  1:
 RMSU=  1.09D-05    CP:  9.69D-01  1.82D+00  6.66D-01  5.92D-01  4.50D-01
                    CP:  6.54D-01  3.62D-01
 E= -3005.37626559729     Delta-E=       -0.000120338662 Rises=F Damp=F
 DIIS: error= 1.50D-04 at cycle   8 NSaved=   8.
 NSaved= 8 IEnMin= 8 EnMin= -3005.37626559729     IErMin= 8 ErrMin= 1.50D-04
 ErrMax= 1.50D-04  0.00D+00 EMaxC= 1.00D-01 BMatC= 3.04D-05 BMatP= 1.38D-04
 IDIUse=3 WtCom= 9.99D-01 WtEn= 1.50D-03
 Coeff-Com:  0.199D-02-0.417D-02 0.348D-02 0.110D-01 0.559D-01 0.186D+00
 Coeff-Com:  0.336D+00 0.410D+00
 Coeff-En:   0.000D+00 0.000D+00 0.000D+00 0.000D+00 0.000D+00 0.000D+00
 Coeff-En:   0.247D+00 0.753D+00
 Coeff:      0.199D-02-0.416D-02 0.347D-02 0.110D-01 0.558D-01 0.185D+00
 Coeff:      0.336D+00 0.411D+00
 Gap=     0.078 Goal=   None    Shift=    0.000
 RMSDP=8.84D-06 MaxDP=8.62D-04 DE=-1.20D-04 OVMax= 6.39D-03

 Cycle   9  Pass 1  IDiag  1:
 RMSU=  3.53D-06    CP:  9.69D-01  1.82D+00  6.66D-01  5.93D-01  4.54D-01
                    CP:  6.45D-01  5.61D-01  4.10D-01
 E= -3005.37630450921     Delta-E=       -0.000038911925 Rises=F Damp=F
 DIIS: error= 3.70D-05 at cycle   9 NSaved=   9.
 NSaved= 9 IEnMin= 9 EnMin= -3005.37630450921     IErMin= 9 ErrMin= 3.70D-05
 ErrMax= 3.70D-05  0.00D+00 EMaxC= 1.00D-01 BMatC= 2.99D-06 BMatP= 3.04D-05
 IDIUse=1 WtCom= 1.00D+00 WtEn= 0.00D+00
 Coeff-Com:  0.618D-03-0.141D-02-0.291D-03 0.233D-03 0.179D-01 0.719D-01
 Coeff-Com:  0.158D+00 0.278D+00 0.475D+00
 Coeff:      0.618D-03-0.141D-02-0.291D-03 0.233D-03 0.179D-01 0.719D-01
 Coeff:      0.158D+00 0.278D+00 0.475D+00
 Gap=     0.078 Goal=   None    Shift=    0.000
 RMSDP=2.55D-06 MaxDP=2.42D-04 DE=-3.89D-05 OVMax= 1.64D-03

 Cycle  10  Pass 1  IDiag  1:
 RMSU=  1.38D-06    CP:  9.69D-01  1.82D+00  6.66D-01  5.93D-01  4.53D-01
                    CP:  6.58D-01  5.28D-01  5.16D-01  6.10D-01
 E= -3005.37630801487     Delta-E=       -0.000003505662 Rises=F Damp=F
 DIIS: error= 1.79D-05 at cycle  10 NSaved=  10.
 NSaved=10 IEnMin=10 EnMin= -3005.37630801487     IErMin=10 ErrMin= 1.79D-05
 ErrMax= 1.79D-05  0.00D+00 EMaxC= 1.00D-01 BMatC= 2.95D-07 BMatP= 2.99D-06
 IDIUse=1 WtCom= 1.00D+00 WtEn= 0.00D+00
 Coeff-Com:  0.165D-04-0.106D-03-0.638D-03-0.168D-02 0.246D-02 0.147D-01
 Coeff-Com:  0.451D-01 0.105D+00 0.286D+00 0.549D+00
 Coeff:      0.165D-04-0.106D-03-0.638D-03-0.168D-02 0.246D-02 0.147D-01
 Coeff:      0.451D-01 0.105D+00 0.286D+00 0.549D+00
 Gap=     0.078 Goal=   None    Shift=    0.000
 RMSDP=6.95D-07 MaxDP=8.01D-05 DE=-3.51D-06 OVMax= 2.59D-04

 Cycle  11  Pass 1  IDiag  1:
 RMSU=  4.29D-07    CP:  9.69D-01  1.82D+00  6.66D-01  5.93D-01  4.54D-01
                    CP:  6.57D-01  5.35D-01  5.14D-01  7.05D-01  7.27D-01
 E= -3005.37630827460     Delta-E=       -0.000000259721 Rises=F Damp=F
 DIIS: error= 5.53D-06 at cycle  11 NSaved=  11.
 NSaved=11 IEnMin=11 EnMin= -3005.37630827460     IErMin=11 ErrMin= 5.53D-06
 ErrMax= 5.53D-06  0.00D+00 EMaxC= 1.00D-01 BMatC= 4.25D-08 BMatP= 2.95D-07
 IDIUse=1 WtCom= 1.00D+00 WtEn= 0.00D+00
 Coeff-Com: -0.530D-04 0.810D-04-0.371D-03-0.114D-02-0.470D-03 0.377D-03
 Coeff-Com:  0.936D-02 0.322D-01 0.119D+00 0.337D+00 0.503D+00
 Coeff:     -0.530D-04 0.810D-04-0.371D-03-0.114D-02-0.470D-03 0.377D-03
 Coeff:      0.936D-02 0.322D-01 0.119D+00 0.337D+00 0.503D+00
 Gap=     0.078 Goal=   None    Shift=    0.000
 RMSDP=2.41D-07 MaxDP=2.46D-05 DE=-2.60D-07 OVMax= 6.16D-05

 Cycle  12  Pass 1  IDiag  1:
 RMSU=  1.66D-07    CP:  9.69D-01  1.82D+00  6.66D-01  5.93D-01  4.54D-01
                    CP:  6.57D-01  5.38D-01  5.19D-01  7.06D-01  7.95D-01
                    CP:  7.62D-01
 E= -3005.37630831307     Delta-E=       -0.000000038472 Rises=F Damp=F
 DIIS: error= 1.21D-06 at cycle  12 NSaved=  12.
 NSaved=12 IEnMin=12 EnMin= -3005.37630831307     IErMin=12 ErrMin= 1.21D-06
 ErrMax= 1.21D-06  0.00D+00 EMaxC= 1.00D-01 BMatC= 3.23D-09 BMatP= 4.25D-08
 IDIUse=1 WtCom= 1.00D+00 WtEn= 0.00D+00
 Coeff-Com: -0.263D-04 0.504D-04-0.104D-03-0.380D-03-0.498D-03-0.200D-02
 Coeff-Com: -0.130D-02 0.225D-02 0.198D-01 0.946D-01 0.237D+00 0.650D+00
 Coeff:     -0.263D-04 0.504D-04-0.104D-03-0.380D-03-0.498D-03-0.200D-02
 Coeff:     -0.130D-02 0.225D-02 0.198D-01 0.946D-01 0.237D+00 0.650D+00
 Gap=     0.078 Goal=   None    Shift=    0.000
 RMSDP=9.65D-08 MaxDP=1.55D-05 DE=-3.85D-08 OVMax= 3.67D-05

 Cycle  13  Pass 1  IDiag  1:
 RMSU=  6.59D-08    CP:  9.69D-01  1.82D+00  6.66D-01  5.93D-01  4.54D-01
                    CP:  6.57D-01  5.38D-01  5.20D-01  7.16D-01  8.15D-01
                    CP:  8.50D-01  8.90D-01
 E= -3005.37630831624     Delta-E=       -0.000000003174 Rises=F Damp=F
 DIIS: error= 6.46D-07 at cycle  13 NSaved=  13.
 NSaved=13 IEnMin=13 EnMin= -3005.37630831624     IErMin=13 ErrMin= 6.46D-07
 ErrMax= 6.46D-07  0.00D+00 EMaxC= 1.00D-01 BMatC= 9.84D-10 BMatP= 3.23D-09
 IDIUse=1 WtCom= 1.00D+00 WtEn= 0.00D+00
 Coeff-Com: -0.424D-05 0.122D-04 0.764D-05-0.232D-04-0.181D-03-0.139D-02
 Coeff-Com: -0.255D-02-0.479D-02-0.115D-01-0.621D-02 0.453D-01 0.405D+00
 Coeff-Com:  0.576D+00
 Coeff:     -0.424D-05 0.122D-04 0.764D-05-0.232D-04-0.181D-03-0.139D-02
 Coeff:     -0.255D-02-0.479D-02-0.115D-01-0.621D-02 0.453D-01 0.405D+00
 Coeff:      0.576D+00
 Gap=     0.078 Goal=   None    Shift=    0.000
 RMSDP=4.82D-08 MaxDP=3.10D-06 DE=-3.17D-09 OVMax= 2.02D-05

 Cycle  14  Pass 1  IDiag  1:
 RMSU=  3.10D-08    CP:  9.69D-01  1.82D+00  6.66D-01  5.93D-01  4.54D-01
                    CP:  6.57D-01  5.38D-01  5.21D-01  7.20D-01  8.26D-01
                    CP:  8.69D-01  1.02D+00  8.11D-01
 E= -3005.37630831761     Delta-E=       -0.000000001364 Rises=F Damp=F
 DIIS: error= 2.26D-07 at cycle  14 NSaved=  14.
 NSaved=14 IEnMin=14 EnMin= -3005.37630831761     IErMin=14 ErrMin= 2.26D-07
 ErrMax= 2.26D-07  0.00D+00 EMaxC= 1.00D-01 BMatC= 1.56D-10 BMatP= 9.84D-10
 IDIUse=1 WtCom= 1.00D+00 WtEn= 0.00D+00
 Coeff-Com:  0.267D-05-0.234D-05 0.219D-04 0.461D-04-0.285D-04-0.596D-03
 Coeff-Com: -0.143D-02-0.342D-02-0.111D-01-0.203D-01-0.136D-01 0.140D+00
 Coeff-Com:  0.345D+00 0.565D+00
 Coeff:      0.267D-05-0.234D-05 0.219D-04 0.461D-04-0.285D-04-0.596D-03
 Coeff:     -0.143D-02-0.342D-02-0.111D-01-0.203D-01-0.136D-01 0.140D+00
 Coeff:      0.345D+00 0.565D+00
 Gap=     0.078 Goal=   None    Shift=    0.000
 RMSDP=2.09D-08 MaxDP=2.72D-06 DE=-1.36D-09 OVMax= 8.28D-06

 Cycle  15  Pass 1  IDiag  1:
 RMSU=  1.20D-08    CP:  9.69D-01  1.82D+00  6.66D-01  5.93D-01  4.54D-01
                    CP:  6.57D-01  5.38D-01  5.21D-01  7.21D-01  8.30D-01
                    CP:  8.87D-01  1.05D+00  9.26D-01  8.08D-01
 E= -3005.37630831783     Delta-E=       -0.000000000222 Rises=F Damp=F
 DIIS: error= 1.22D-07 at cycle  15 NSaved=  15.
 NSaved=15 IEnMin=15 EnMin= -3005.37630831783     IErMin=15 ErrMin= 1.22D-07
 ErrMax= 1.22D-07  0.00D+00 EMaxC= 1.00D-01 BMatC= 2.54D-11 BMatP= 1.56D-10
 IDIUse=1 WtCom= 1.00D+00 WtEn= 0.00D+00
 Coeff-Com:  0.240D-05-0.357D-05 0.108D-04 0.261D-04 0.270D-04-0.743D-04
 Coeff-Com: -0.254D-03-0.812D-03-0.371D-02-0.885D-02-0.135D-01 0.804D-02
 Coeff-Com:  0.810D-01 0.331D+00 0.607D+00
 Coeff:      0.240D-05-0.357D-05 0.108D-04 0.261D-04 0.270D-04-0.743D-04
 Coeff:     -0.254D-03-0.812D-03-0.371D-02-0.885D-02-0.135D-01 0.804D-02
 Coeff:      0.810D-01 0.331D+00 0.607D+00
 Gap=     0.078 Goal=   None    Shift=    0.000
 RMSDP=7.36D-09 MaxDP=6.87D-07 DE=-2.22D-10 OVMax= 3.75D-06

 SCF Done:  E(RPBE1PBE) =  -3005.37630832     A.U. after   15 cycles
            NFock= 15  Conv=0.74D-08     -V/T= 2.0101
 KE= 2.975308414934D+03 PE=-2.647435698453D+04 EE= 1.075176832456D+04
 Leave Link  502 at Wed May  4 09:52:14 2022, MaxMem= 10066329600 cpu:            6755.0 elap:             283.2
 (Enter /sw/apps/gaussian-16.0/g16/l801.exe)
 DoSCS=F DFT=T ScalE2(SS,OS)=  1.000000  1.000000
 ExpMin= 3.36D-02 ExpMax= 4.95D+03 ExpMxC= 7.45D+02 IAcc=3 IRadAn=         5 AccDes= 0.00D+00
 HarFok:  IExCor=  205 AccDes= 0.00D+00 IRadAn=         5 IDoV=-2 UseB2=F ITyADJ=14
 ICtDFT= 12500011 ScaDFX=  1.000000  1.000000  1.000000  1.000000
 GSVD:  LWork=       -5460 too small for GESVD, short by       25550 words or       25550 for optimal perf.
 Largest valence mixing into a core orbital is  1.64D-04
 Largest core mixing into a valence orbital is  5.41D-05
 Range of M.O.s used for correlation:    71  1298
 NBasis=  1298 NAE=   246 NBE=   246 NFC=    70 NFV=     0
 NROrb=   1228 NOA=   176 NOB=   176 NVA=  1052 NVB=  1052

 **** Warning!!: The smallest alpha delta epsilon is  0.77653746D-01

 Leave Link  801 at Wed May  4 09:52:15 2022, MaxMem= 10066329600 cpu:               8.3 elap:               0.4
 (Enter /sw/apps/gaussian-16.0/g16/l914.exe)
 RHF ground state
 Two-electron integrals replicated using symmetry.
 MDV= 10066329600 DFT=T DoStab=F Mixed=T DoRPA=T DoScal=F NonHer=T
 Making orbital integer symmetry assigments:
 Orbital symmetries:
       Occupied  (A) (A) (A) (A) (A) (A) (A) (A) (A) (A) (A) (A)
                 (A) (A) (A) (A) (A) (A) (A) (A) (A) (A) (A) (A)
                 (A) (A) (A) (A) (A) (A) (A) (A) (A) (A) (A) (A)
                 (A) (A) (A) (A) (A) (A) (A) (A) (A) (A) (A) (A)
                 (A) (A) (A) (A) (A) (A) (A) (A) (A) (A) (A) (A)
                 (A) (A) (A) (A) (A) (A) (A) (A) (A) (A) (A) (A)
                 (A) (A) (A) (A) (A) (A) (A) (A) (A) (A) (A) (A)
                 (A) (A) (A) (A) (A) (A) (A) (A) (A) (A) (A) (A)
                 (A) (A) (A) (A) (A) (A) (A) (A) (A) (A) (A) (A)
                 (A) (A) (A) (A) (A) (A) (A) (A) (A) (A) (A) (A)
                 (A) (A) (A) (A) (A) (A) (A) (A) (A) (A) (A) (A)
                 (A) (A) (A) (A) (A) (A) (A) (A) (A) (A) (A) (A)
                 (A) (A) (A) (A) (A) (A) (A) (A) (A) (A) (A) (A)
                 (A) (A) (A) (A) (A) (A) (A) (A) (A) (A) (A) (A)
                 (A) (A) (A) (A) (A) (A) (A) (A) (A) (A) (A) (A)
                 (A) (A) (A) (A) (A) (A) (A) (A) (A) (A) (A) (A)
                 (A) (A) (A) (A) (A) (A) (A) (A) (A) (A) (A) (A)
                 (A) (A) (A) (A) (A) (A) (A) (A) (A) (A) (A) (A)
                 (A) (A) (A) (A) (A) (A) (A) (A) (A) (A) (A) (A)
                 (A) (A) (A) (A) (A) (A) (A) (A) (A) (A) (A) (A)
                 (A) (A) (A) (A) (A) (A)
       Virtual   (A) (A) (A) (A) (A) (A) (A) (A) (A) (A) (A) (A)
                 (A) (A) (A) (A) (A) (A) (A) (A) (A) (A) (A) (A)
                 (A) (A) (A) (A) (A) (A) (A) (A) (A) (A) (A) (A)
                 (A) (A) (A) (A) (A) (A) (A) (A) (A) (A) (A) (A)
                 (A) (A) (A) (A) (A) (A) (A) (A) (A) (A) (A) (A)
                 (A) (A) (A) (A) (A) (A) (A) (A) (A) (A) (A) (A)
                 (A) (A) (A) (A) (A) (A) (A) (A) (A) (A) (A) (A)
                 (A) (A) (A) (A) (A) (A) (A) (A) (A) (A) (A) (A)
                 (A) (A) (A) (A) (A) (A) (A) (A) (A) (A) (A) (A)
                 (A) (A) (A) (A) (A) (A) (A) (A) (A) (A) (A) (A)
                 (A) (A) (A) (A) (A) (A) (A) (A) (A) (A) (A) (A)
                 (A) (A) (A) (A) (A) (A) (A) (A) (A) (A) (A) (A)
                 (A) (A) (A) (A) (A) (A) (A) (A) (A) (A) (A) (A)
                 (A) (A) (A) (A) (A) (A) (A) (A) (A) (A) (A) (A)
                 (A) (A) (A) (A) (A) (A) (A) (A) (A) (A) (A) (A)
                 (A) (A) (A) (A) (A) (A) (A) (A) (A) (A) (A) (A)
                 (A) (A) (A) (A) (A) (A) (A) (A) (A) (A) (A) (A)
                 (A) (A) (A) (A) (A) (A) (A) (A) (A) (A) (A) (A)
                 (A) (A) (A) (A) (A) (A) (A) (A) (A) (A) (A) (A)
                 (A) (A) (A) (A) (A) (A) (A) (A) (A) (A) (A) (A)
                 (A) (A) (A) (A) (A) (A) (A) (A) (A) (A) (A) (A)
                 (A) (A) (A) (A) (A) (A) (A) (A) (A) (A) (A) (A)
                 (A) (A) (A) (A) (A) (A) (A) (A) (A) (A) (A) (A)
                 (A) (A) (A) (A) (A) (A) (A) (A) (A) (A) (A) (A)
                 (A) (A) (A) (A) (A) (A) (A) (A) (A) (A) (A) (A)
                 (A) (A) (A) (A) (A) (A) (A) (A) (A) (A) (A) (A)
                 (A) (A) (A) (A) (A) (A) (A) (A) (A) (A) (A) (A)
                 (A) (A) (A) (A) (A) (A) (A) (A) (A) (A) (A) (A)
                 (A) (A) (A) (A) (A) (A) (A) (A) (A) (A) (A) (A)
                 (A) (A) (A) (A) (A) (A) (A) (A) (A) (A) (A) (A)
                 (A) (A) (A) (A) (A) (A) (A) (A) (A) (A) (A) (A)
                 (A) (A) (A) (A) (A) (A) (A) (A) (A) (A) (A) (A)
                 (A) (A) (A) (A) (A) (A) (A) (A) (A) (A) (A) (A)
                 (A) (A) (A) (A) (A) (A) (A) (A) (A) (A) (A) (A)
                 (A) (A) (A) (A) (A) (A) (A) (A) (A) (A) (A) (A)
                 (A) (A) (A) (A) (A) (A) (A) (A) (A) (A) (A) (A)
                 (A) (A) (A) (A) (A) (A) (A) (A) (A) (A) (A) (A)
                 (A) (A) (A) (A) (A) (A) (A) (A) (A) (A) (A) (A)
                 (A) (A) (A) (A) (A) (A) (A) (A) (A) (A) (A) (A)
                 (A) (A) (A) (A) (A) (A) (A) (A) (A) (A) (A) (A)
                 (A) (A) (A) (A) (A) (A) (A) (A) (A) (A) (A) (A)
                 (A) (A) (A) (A) (A) (A) (A) (A) (A) (A) (A) (A)
                 (A) (A) (A) (A) (A) (A) (A) (A) (A) (A) (A) (A)
                 (A) (A) (A) (A) (A) (A) (A) (A) (A) (A) (A) (A)
                 (A) (A) (A) (A) (A) (A) (A) (A) (A) (A) (A) (A)
                 (A) (A) (A) (A) (A) (A) (A) (A) (A) (A) (A) (A)
                 (A) (A) (A) (A) (A) (A) (A) (A) (A) (A) (A) (A)
                 (A) (A) (A) (A) (A) (A) (A) (A) (A) (A) (A) (A)
                 (A) (A) (A) (A) (A) (A) (A) (A) (A) (A) (A) (A)
                 (A) (A) (A) (A) (A) (A) (A) (A) (A) (A) (A) (A)
                 (A) (A) (A) (A) (A) (A) (A) (A) (A) (A) (A) (A)
                 (A) (A) (A) (A) (A) (A) (A) (A) (A) (A) (A) (A)
                 (A) (A) (A) (A) (A) (A) (A) (A) (A) (A) (A) (A)
                 (A) (A) (A) (A) (A) (A) (A) (A) (A) (A) (A) (A)
                 (A) (A) (A) (A) (A) (A) (A) (A) (A) (A) (A) (A)
                 (A) (A) (A) (A) (A) (A) (A) (A) (A) (A) (A) (A)
                 (A) (A) (A) (A) (A) (A) (A) (A) (A) (A) (A) (A)
                 (A) (A) (A) (A) (A) (A) (A) (A) (A) (A) (A) (A)
                 (A) (A) (A) (A) (A) (A) (A) (A) (A) (A) (A) (A)
                 (A) (A) (A) (A) (A) (A) (A) (A) (A) (A) (A) (A)
                 (A) (A) (A) (A) (A) (A) (A) (A) (A) (A) (A) (A)
                 (A) (A) (A) (A) (A) (A) (A) (A) (A) (A) (A) (A)
                 (A) (A) (A) (A) (A) (A) (A) (A) (A) (A) (A) (A)
                 (A) (A) (A) (A) (A) (A) (A) (A) (A) (A) (A) (A)
                 (A) (A) (A) (A) (A) (A) (A) (A) (A) (A) (A) (A)
                 (A) (A) (A) (A) (A) (A) (A) (A) (A) (A) (A) (A)
                 (A) (A) (A) (A) (A) (A) (A) (A) (A) (A) (A) (A)
                 (A) (A) (A) (A) (A) (A) (A) (A) (A) (A) (A) (A)
                 (A) (A) (A) (A) (A) (A) (A) (A) (A) (A) (A) (A)
                 (A) (A) (A) (A) (A) (A) (A) (A) (A) (A) (A) (A)
                 (A) (A) (A) (A) (A) (A) (A) (A) (A) (A) (A) (A)
                 (A) (A) (A) (A) (A) (A) (A) (A) (A) (A) (A) (A)
                 (A) (A) (A) (A) (A) (A) (A) (A) (A) (A) (A) (A)
                 (A) (A) (A) (A) (A) (A) (A) (A) (A) (A) (A) (A)
                 (A) (A) (A) (A) (A) (A) (A) (A) (A) (A) (A) (A)
                 (A) (A) (A) (A) (A) (A) (A) (A) (A) (A) (A) (A)
                 (A) (A) (A) (A) (A) (A) (A) (A) (A) (A) (A) (A)
                 (A) (A) (A) (A) (A) (A) (A) (A) (A) (A) (A) (A)
                 (A) (A) (A) (A) (A) (A) (A) (A) (A) (A) (A) (A)
                 (A) (A) (A) (A) (A) (A) (A) (A) (A) (A) (A) (A)
                 (A) (A) (A) (A) (A) (A) (A) (A) (A) (A) (A) (A)
                 (A) (A) (A) (A) (A) (A) (A) (A) (A) (A) (A) (A)
                 (A) (A) (A) (A) (A) (A) (A) (A) (A) (A) (A) (A)
                 (A) (A) (A) (A) (A) (A) (A) (A) (A) (A) (A) (A)
                 (A) (A) (A) (A) (A) (A) (A) (A) (A) (A) (A) (A)
                 (A) (A) (A) (A) (A) (A) (A) (A) (A) (A) (A) (A)
                 (A) (A) (A) (A) (A) (A) (A) (A) (A) (A) (A) (A)
                 (A) (A) (A) (A) (A) (A) (A) (A)
    20 initial guesses have been made.
 Convergence on wavefunction:    0.001000000000000
 Davidson Disk Diagonalization:  ConvIn= 1.00D-03 SkipCon=T Conv= 1.00D-03.
 Max sub-space:  2000 roots to seek:    20 dimension of matrix:       370304
 Iteration     1 Dimension    20 NMult     0 NNew     20
 CISAX will form    20 AO SS matrices at one time.
 NMat=    20 NSing=    20 JSym2X= 0.
 FoFJK:  IHMeth= 1 ICntrl=       0 DoSepK=F KAlg= 0 I1Cent=           0 FoldK=F
 IRaf= 540000000 NMat=      40 IRICut=       1 DoRegI=T DoRafI=F ISym2E= 0 IDoP0=3 IntGTp=3.
 FoFCou: FMM=T IPFlag=           0 FMFlag=      100000 FMFlg1=        2001
         NFxFlg=           0 DoJE=F BraDBF=F KetDBF=F FulRan=T
         wScrn=  0.000000 ICntrl=         0 IOpCl=  0 I1Cent=           0 NGrid=           0
         NMat0=   40 NMatS0=     20 NMatT0=    0 NMatD0=   40 NMtDS0=    0 NMtDT0=    0
 Symmetry not used in FoFCou.
 FMM levels:  10  Number of levels for PrismC:   9
 New state      3 was old state      5
 New state      4 was old state      7
 New state      5 was old state      4
 Excitation Energies [eV] at current iteration:
 Root      1 :     2.296985595430448
 Root      2 :     2.599554494093697
 Root      3 :     3.169711392536253
 Root      4 :     3.390973074407456
 Root      5 :     3.538456876472882
 Root      6 :     3.573839556335769
 Root      7 :     3.743666615557338
 Root      8 :     3.854424572181506
 Root      9 :     3.943105470133832
 Root     10 :     4.087187844996396
 Root     11 :     4.124846706299050
 Root     12 :     4.186434303745829
 Root     13 :     4.380344130402977
 Root     14 :     4.421066796601395
 Root     15 :     4.536933751505440
 Root     16 :     4.591888542595061
 Root     17 :     4.695755769103912
 Root     18 :     4.764782823837317
 Root     19 :     4.818926302267270
 Root     20 :     4.879565802745820
 Iteration     2 Dimension    30 NMult    20 NNew     10
 CISAX will form    10 AO SS matrices at one time.
 NMat=    10 NSing=    10 JSym2X= 0.
 Root      1 not converged, maximum delta is    0.053975294248963
 Root      2 not converged, maximum delta is    0.055691902844875
 Root      3 not converged, maximum delta is    0.124273052614366
 Root      4 not converged, maximum delta is    0.149721483789559
 New state      5 was old state      6
 Root      5 not converged, maximum delta is    0.062138336061286
 Excitation Energies [eV] at current iteration:
 Root      1 :     1.950120807056435   Change is   -0.346864788374014
 Root      2 :     2.302290302387793   Change is   -0.297264191705904
 Root      3 :     3.069445611676183   Change is   -0.100265780860070
 Root      4 :     3.273069637225768   Change is   -0.117903437181688
 Root      5 :     3.346230662111097   Change is   -0.227608894224672
 Iteration     3 Dimension    40 NMult    30 NNew     10
 CISAX will form    10 AO SS matrices at one time.
 NMat=    10 NSing=    10 JSym2X= 0.
 Root      1 not converged, maximum delta is    0.020681308696842
 Root      2 not converged, maximum delta is    0.029168330899849
 Root      3 not converged, maximum delta is    0.028092696955799
 Root      4 not converged, maximum delta is    0.025887839991424
 Root      5 not converged, maximum delta is    0.014703656622112
 Excitation Energies [eV] at current iteration:
 Root      1 :     1.921535382652303   Change is   -0.028585424404132
 Root      2 :     2.281358857461090   Change is   -0.020931444926703
 Root      3 :     3.057859809047812   Change is   -0.011585802628370
 Root      4 :     3.260748881501158   Change is   -0.012320755724610
 Root      5 :     3.307868987847472   Change is   -0.038361674263625
 Iteration     4 Dimension    50 NMult    40 NNew     10
 CISAX will form    10 AO SS matrices at one time.
 NMat=    10 NSing=    10 JSym2X= 0.
 Root      1 not converged, maximum delta is    0.004194921694179
 Root      2 not converged, maximum delta is    0.007292102611611
 Root      3 not converged, maximum delta is    0.004649417812807
 Root      4 not converged, maximum delta is    0.009540835917932
 Root      5 not converged, maximum delta is    0.013877451932704
 Excitation Energies [eV] at current iteration:
 Root      1 :     1.917791834950717   Change is   -0.003743547701586
 Root      2 :     2.278426224565239   Change is   -0.002932632895851
 Root      3 :     3.056974369227564   Change is   -0.000885439820248
 Root      4 :     3.259324371380817   Change is   -0.001424510120342
 Root      5 :     3.299423648576980   Change is   -0.008445339270492
 Iteration     5 Dimension    60 NMult    50 NNew     10
 CISAX will form    10 AO SS matrices at one time.
 NMat=    10 NSing=    10 JSym2X= 0.
 Root      1 has converged.
 Root      2 has converged.
 Root      3 not converged, maximum delta is    0.001164500748332
 Root      4 not converged, maximum delta is    0.001822699425500
 Root      5 not converged, maximum delta is    0.005116244329917
 Excitation Energies [eV] at current iteration:
 Root      1 :     1.917392766060115   Change is   -0.000399068890602
 Root      2 :     2.278187796098444   Change is   -0.000238428466796
 Root      3 :     3.056874955192505   Change is   -0.000099414035059
 Root      4 :     3.259155724810582   Change is   -0.000168646570235
 Root      5 :     3.298269818248865   Change is   -0.001153830328115
 Iteration     6 Dimension    66 NMult    60 NNew      6
 CISAX will form     6 AO SS matrices at one time.
 NMat=     6 NSing=     6 JSym2X= 0.
 Root      1 has converged.
 Root      2 has converged.
 Root      3 has converged.
 Root      4 has converged.
 Root      5 not converged, maximum delta is    0.002266426286683
 Excitation Energies [eV] at current iteration:
 Root      1 :     1.917389351635455   Change is   -0.000003414424660
 Root      2 :     2.278184651317547   Change is   -0.000003144780896
 Root      3 :     3.056863890907358   Change is   -0.000011064285147
 Root      4 :     3.259131500812478   Change is   -0.000024223998104
 Root      5 :     3.298126350430325   Change is   -0.000143467818540
 Iteration     7 Dimension    68 NMult    66 NNew      2
 CISAX will form     2 AO SS matrices at one time.
 NMat=     2 NSing=     2 JSym2X= 0.
 Root      1 has converged.
 Root      2 has converged.
 Root      3 has converged.
 Root      4 has converged.
 Root      5 has converged.
 Excitation Energies [eV] at current iteration:
 Root      1 :     1.917389332730494   Change is   -0.000000018904961
 Root      2 :     2.278184491952569   Change is   -0.000000159364978
 Root      3 :     3.056863837211196   Change is   -0.000000053696162
 Root      4 :     3.259131158204328   Change is   -0.000000342608151
 Root      5 :     3.298099149418989   Change is   -0.000027201011335
 Convergence achieved on expansion vectors.
 ***********************************************************************
 Excited states from <AA,BB:AA,BB> singles matrix:
 ***********************************************************************
 
 1PDM for each excited state written to RWF  633
 Ground to excited state transition densities written to RWF  633
 Ground to excited state transition electric dipole moments (Au):
       state          X           Y           Z        Dip. S.      Osc.
         1         1.6775      2.3941     -0.2655      8.6163      0.4048
         2        -1.1991      0.9314     -0.0858      2.3127      0.1291
         3         0.0070     -0.0221      0.0081      0.0006      0.0000
         4         0.0127     -0.0225     -0.0146      0.0009      0.0001
         5        -0.1214     -0.1858     -0.0086      0.0493      0.0040
 Ground to excited state transition velocity dipole moments (Au):
       state          X           Y           Z        Dip. S.      Osc.
         1        -0.1148     -0.1646      0.0173      0.0406      0.3839
         2         0.0960     -0.0739      0.0068      0.0147      0.1173
         3        -0.0019      0.0023      0.0010      0.0000      0.0001
         4        -0.0025      0.0029     -0.0002      0.0000      0.0001
         5         0.0143      0.0212      0.0004      0.0007      0.0036
 Ground to excited state transition magnetic dipole moments (Au):
       state          X           Y           Z
         1         0.1969      0.0249      1.6845
         2         0.0708      0.0192      0.4391
         3        -0.2836      0.2827     -0.0801
         4        -0.1959     -0.4762     -0.0868
         5        -0.0692      0.0529      0.5727
 Ground to excited state transition velocity quadrupole moments (Au):
       state          XX          YY          ZZ          XY          XZ          YZ
         1         1.9116     -0.5438      0.0001      1.1398     -0.1915      0.0053
         2        -1.5512     -0.1016      0.0361      0.8217     -0.0184     -0.0259
         3         0.0085      0.0071     -0.0003     -0.0442     -0.0048      0.0002
         4         0.0699     -0.0950      0.0026      0.0010      0.0152      0.0045
         5        -0.3126      0.3546      0.0221     -0.0243      0.0354     -0.0945
 <0|del|b> * <b|rxdel|0> + <0|del|b> * <b|delr+rdel|0>
 Rotatory Strengths (R) in cgs (10**-40 erg-esu-cm/Gauss)
       state          XX          YY          ZZ    R(velocity)    E-M Angle
         1        66.3334    -69.2455     27.2411      8.1097       89.59
         2        24.7313      7.1702     38.9534     23.6183       81.07
         3         1.7185      1.5910      3.7417      2.3504       30.08
         4        -4.1282      1.4614     -2.4531     -1.7067      115.81
         5         1.6823     -6.1547      6.5183      0.6819       88.64
 1/2[<0|r|b>*<b|rxdel|0> + (<0|rxdel|b>*<b|r|0>)*]
 Rotatory Strengths (R) in cgs (10**-40 erg-esu-cm/Gauss)
       state          XX          YY          ZZ     R(length)
         1      -233.5864    -42.2220    316.2873     13.4930
         2        60.0743    -12.6668     26.6300     24.6792
         3         1.4067      4.4262      0.4603      2.0977
         4         1.7561     -7.5765     -0.8994     -2.2399
         5        -5.9370      6.9486      3.4895      1.5004
  1/2[<0|del|b>*<b|r|0> + (<0|r|b>*<b|del|0>)*] (Au)
       state          X           Y           Z        Dip. S.   Osc.(frdel)
         1        -0.1926     -0.3941     -0.0046      0.5913      0.3942
         2        -0.1151     -0.0688     -0.0006      0.1845      0.1230
         3        -0.0000     -0.0001      0.0000      0.0001      0.0000
         4        -0.0000     -0.0001      0.0000      0.0001      0.0001
         5        -0.0017     -0.0039     -0.0000      0.0057      0.0038

 Excitation energies and oscillator strengths:
 
 Excited State   1:      Singlet-A      1.9174 eV  646.63 nm  f=0.4048  <S**2>=0.000
     245 -> 248        0.17102
     246 -> 247        0.69325
     246 <- 247       -0.11093
 This state for optimization and/or second-order correction.
 Total Energy, E(TD-HF/TD-DFT) =  -3005.30584556    
 Copying the excited state density for this state as the 1-particle RhoCI density.
 
 Excited State   2:      Singlet-A      2.2782 eV  544.22 nm  f=0.1291  <S**2>=0.000
     245 -> 247        0.65697
     246 -> 248       -0.25299
 
 Excited State   3:      Singlet-A      3.0569 eV  405.59 nm  f=0.0000  <S**2>=0.000
     243 -> 247        0.68002
     243 -> 249        0.13626
     243 -> 250       -0.11419
 
 Excited State   4:      Singlet-A      3.2591 eV  380.42 nm  f=0.0001  <S**2>=0.000
     241 -> 247        0.67281
     241 -> 249       -0.17330
 
 Excited State   5:      Singlet-A      3.2981 eV  375.93 nm  f=0.0040  <S**2>=0.000
     242 -> 247        0.68286
 SavETr:  write IOETrn=   770 NScale= 10 NData=  16 NLR=1 NState=    5 LETran=     100.
 Leave Link  914 at Wed May  4 10:05:58 2022, MaxMem= 10066329600 cpu:           19723.5 elap:             823.6
 (Enter /sw/apps/gaussian-16.0/g16/l601.exe)
 Copying SCF densities to generalized density rwf, IOpCl= 0 IROHF=0.
 Hyperfine terms turned off by default for NAtoms > 100.

 **********************************************************************

            Population analysis using the SCF density.

 **********************************************************************

 Orbital symmetries:
       Occupied  (A) (A) (A) (A) (A) (A) (A) (A) (A) (A) (A) (A)
                 (A) (A) (A) (A) (A) (A) (A) (A) (A) (A) (A) (A)
                 (A) (A) (A) (A) (A) (A) (A) (A) (A) (A) (A) (A)
                 (A) (A) (A) (A) (A) (A) (A) (A) (A) (A) (A) (A)
                 (A) (A) (A) (A) (A) (A) (A) (A) (A) (A) (A) (A)
                 (A) (A) (A) (A) (A) (A) (A) (A) (A) (A) (A) (A)
                 (A) (A) (A) (A) (A) (A) (A) (A) (A) (A) (A) (A)
                 (A) (A) (A) (A) (A) (A) (A) (A) (A) (A) (A) (A)
                 (A) (A) (A) (A) (A) (A) (A) (A) (A) (A) (A) (A)
                 (A) (A) (A) (A) (A) (A) (A) (A) (A) (A) (A) (A)
                 (A) (A) (A) (A) (A) (A) (A) (A) (A) (A) (A) (A)
                 (A) (A) (A) (A) (A) (A) (A) (A) (A) (A) (A) (A)
                 (A) (A) (A) (A) (A) (A) (A) (A) (A) (A) (A) (A)
                 (A) (A) (A) (A) (A) (A) (A) (A) (A) (A) (A) (A)
                 (A) (A) (A) (A) (A) (A) (A) (A) (A) (A) (A) (A)
                 (A) (A) (A) (A) (A) (A) (A) (A) (A) (A) (A) (A)
                 (A) (A) (A) (A) (A) (A) (A) (A) (A) (A) (A) (A)
                 (A) (A) (A) (A) (A) (A) (A) (A) (A) (A) (A) (A)
                 (A) (A) (A) (A) (A) (A) (A) (A) (A) (A) (A) (A)
                 (A) (A) (A) (A) (A) (A) (A) (A) (A) (A) (A) (A)
                 (A) (A) (A) (A) (A) (A)
       Virtual   (A) (A) (A) (A) (A) (A) (A) (A) (A) (A) (A) (A)
                 (A) (A) (A) (A) (A) (A) (A) (A) (A) (A) (A) (A)
                 (A) (A) (A) (A) (A) (A) (A) (A) (A) (A) (A) (A)
                 (A) (A) (A) (A) (A) (A) (A) (A) (A) (A) (A) (A)
                 (A) (A) (A) (A) (A) (A) (A) (A) (A) (A) (A) (A)
                 (A) (A) (A) (A) (A) (A) (A) (A) (A) (A) (A) (A)
                 (A) (A) (A) (A) (A) (A) (A) (A) (A) (A) (A) (A)
                 (A) (A) (A) (A) (A) (A) (A) (A) (A) (A) (A) (A)
                 (A) (A) (A) (A) (A) (A) (A) (A) (A) (A) (A) (A)
                 (A) (A) (A) (A) (A) (A) (A) (A) (A) (A) (A) (A)
                 (A) (A) (A) (A) (A) (A) (A) (A) (A) (A) (A) (A)
                 (A) (A) (A) (A) (A) (A) (A) (A) (A) (A) (A) (A)
                 (A) (A) (A) (A) (A) (A) (A) (A) (A) (A) (A) (A)
                 (A) (A) (A) (A) (A) (A) (A) (A) (A) (A) (A) (A)
                 (A) (A) (A) (A) (A) (A) (A) (A) (A) (A) (A) (A)
                 (A) (A) (A) (A) (A) (A) (A) (A) (A) (A) (A) (A)
                 (A) (A) (A) (A) (A) (A) (A) (A) (A) (A) (A) (A)
                 (A) (A) (A) (A) (A) (A) (A) (A) (A) (A) (A) (A)
                 (A) (A) (A) (A) (A) (A) (A) (A) (A) (A) (A) (A)
                 (A) (A) (A) (A) (A) (A) (A) (A) (A) (A) (A) (A)
                 (A) (A) (A) (A) (A) (A) (A) (A) (A) (A) (A) (A)
                 (A) (A) (A) (A) (A) (A) (A) (A) (A) (A) (A) (A)
                 (A) (A) (A) (A) (A) (A) (A) (A) (A) (A) (A) (A)
                 (A) (A) (A) (A) (A) (A) (A) (A) (A) (A) (A) (A)
                 (A) (A) (A) (A) (A) (A) (A) (A) (A) (A) (A) (A)
                 (A) (A) (A) (A) (A) (A) (A) (A) (A) (A) (A) (A)
                 (A) (A) (A) (A) (A) (A) (A) (A) (A) (A) (A) (A)
                 (A) (A) (A) (A) (A) (A) (A) (A) (A) (A) (A) (A)
                 (A) (A) (A) (A) (A) (A) (A) (A) (A) (A) (A) (A)
                 (A) (A) (A) (A) (A) (A) (A) (A) (A) (A) (A) (A)
                 (A) (A) (A) (A) (A) (A) (A) (A) (A) (A) (A) (A)
                 (A) (A) (A) (A) (A) (A) (A) (A) (A) (A) (A) (A)
                 (A) (A) (A) (A) (A) (A) (A) (A) (A) (A) (A) (A)
                 (A) (A) (A) (A) (A) (A) (A) (A) (A) (A) (A) (A)
                 (A) (A) (A) (A) (A) (A) (A) (A) (A) (A) (A) (A)
                 (A) (A) (A) (A) (A) (A) (A) (A) (A) (A) (A) (A)
                 (A) (A) (A) (A) (A) (A) (A) (A) (A) (A) (A) (A)
                 (A) (A) (A) (A) (A) (A) (A) (A) (A) (A) (A) (A)
                 (A) (A) (A) (A) (A) (A) (A) (A) (A) (A) (A) (A)
                 (A) (A) (A) (A) (A) (A) (A) (A) (A) (A) (A) (A)
                 (A) (A) (A) (A) (A) (A) (A) (A) (A) (A) (A) (A)
                 (A) (A) (A) (A) (A) (A) (A) (A) (A) (A) (A) (A)
                 (A) (A) (A) (A) (A) (A) (A) (A) (A) (A) (A) (A)
                 (A) (A) (A) (A) (A) (A) (A) (A) (A) (A) (A) (A)
                 (A) (A) (A) (A) (A) (A) (A) (A) (A) (A) (A) (A)
                 (A) (A) (A) (A) (A) (A) (A) (A) (A) (A) (A) (A)
                 (A) (A) (A) (A) (A) (A) (A) (A) (A) (A) (A) (A)
                 (A) (A) (A) (A) (A) (A) (A) (A) (A) (A) (A) (A)
                 (A) (A) (A) (A) (A) (A) (A) (A) (A) (A) (A) (A)
                 (A) (A) (A) (A) (A) (A) (A) (A) (A) (A) (A) (A)
                 (A) (A) (A) (A) (A) (A) (A) (A) (A) (A) (A) (A)
[...]
 Alpha virt. eigenvalues --    1.21938   1.22703   1.23196   1.23787   1.24078
 Alpha virt. eigenvalues --    1.24676   1.24780   1.25132   1.25528   1.26564
 Alpha virt. eigenvalues --    1.26698   1.26742   1.27376   1.27823   1.28188
 Alpha virt. eigenvalues --    1.28424   1.29023   1.29130   1.29827   1.30441
 Alpha virt. eigenvalues --    1.30485   1.30602   1.30896   1.31580   1.31976
 Alpha virt. eigenvalues --    1.32558   1.33386   1.33807   1.34197   1.34386
 Alpha virt. eigenvalues --    1.34835   1.35189   1.35692   1.35936   1.36663
 Alpha virt. eigenvalues --    1.36952   1.37062   1.37330   1.37936   1.38399
 Alpha virt. eigenvalues --    1.38637   1.38950   1.39147   1.39628   1.40078
 Alpha virt. eigenvalues --    1.40532   1.40941   1.41232   1.41700   1.41847
 Alpha virt. eigenvalues --    1.42106   1.42885   1.43123   1.43568   1.44091
 Alpha virt. eigenvalues --    1.44419   1.44449   1.45717   1.45951   1.46327
 Alpha virt. eigenvalues --    1.46450   1.46695   1.47488   1.48876   1.49029
 Alpha virt. eigenvalues --    1.49612   1.49793   1.50040   1.50858   1.50925
 Alpha virt. eigenvalues --    1.51320   1.51575   1.51879   1.52275   1.52373
 Alpha virt. eigenvalues --    1.52764   1.52936   1.53136   1.53712   1.53908
 Alpha virt. eigenvalues --    1.53938   1.54312   1.54660   1.54693   1.55069
 Alpha virt. eigenvalues --    1.55229   1.55472   1.55734   1.55822   1.55967
 Alpha virt. eigenvalues --    1.56324   1.56412   1.56533   1.57116   1.57550
 Alpha virt. eigenvalues --    1.57907   1.58355   1.58497   1.58692   1.59181
 Alpha virt. eigenvalues --    1.59371   1.59970   1.60196   1.60717   1.60783
 Alpha virt. eigenvalues --    1.61248   1.61755   1.61967   1.62256   1.62861
 Alpha virt. eigenvalues --    1.63198   1.63461   1.63706   1.64245   1.64643
 Alpha virt. eigenvalues --    1.65480   1.65956   1.66987   1.67211   1.67553
 Alpha virt. eigenvalues --    1.68011   1.68207   1.68270   1.69353   1.69762
 Alpha virt. eigenvalues --    1.69854   1.70642   1.70782   1.71257   1.71691
 Alpha virt. eigenvalues --    1.72145   1.72423   1.72513   1.72834   1.72943
 Alpha virt. eigenvalues --    1.73114   1.73455   1.73499   1.74107   1.74317
 Alpha virt. eigenvalues --    1.74356   1.74639   1.75060   1.75206   1.75282
 Alpha virt. eigenvalues --    1.75581   1.75822   1.76153   1.76484   1.76808
 Alpha virt. eigenvalues --    1.76909   1.77163   1.77197   1.77296   1.77523
 Alpha virt. eigenvalues --    1.77727   1.77859   1.78132   1.78328   1.78421
 Alpha virt. eigenvalues --    1.78962   1.79064   1.79163   1.79467   1.79715
 Alpha virt. eigenvalues --    1.79939   1.79993   1.80299   1.80506   1.80667
 Alpha virt. eigenvalues --    1.80992   1.81088   1.81229   1.81355   1.81451
 Alpha virt. eigenvalues --    1.81629   1.81729   1.81876   1.81968   1.82199
 Alpha virt. eigenvalues --    1.82356   1.82637   1.82739   1.83009   1.83134
 Alpha virt. eigenvalues --    1.83493   1.83600   1.83713   1.84022   1.84303
 Alpha virt. eigenvalues --    1.84435   1.84694   1.84758   1.84984   1.85009
 Alpha virt. eigenvalues --    1.85324   1.85723   1.85789   1.86038   1.86264
 Alpha virt. eigenvalues --    1.86454   1.86628   1.86777   1.87125   1.87256
 Alpha virt. eigenvalues --    1.87768   1.88245   1.88681   1.88881   1.89091
 Alpha virt. eigenvalues --    1.89160   1.89246   1.89435   1.89705   1.89864
 Alpha virt. eigenvalues --    1.90450   1.90690   1.90880   1.91073   1.91316
 Alpha virt. eigenvalues --    1.91658   1.91844   1.92056   1.92331   1.92492
 Alpha virt. eigenvalues --    1.92773   1.92963   1.93171   1.93776   1.93969
 Alpha virt. eigenvalues --    1.94157   1.94362   1.94783   1.94981   1.95212
 Alpha virt. eigenvalues --    1.95514   1.95687   1.95947   1.96312   1.96480
 Alpha virt. eigenvalues --    1.97101   1.97443   1.97842   1.98127   1.98778
 Alpha virt. eigenvalues --    1.99316   1.99435   1.99633   1.99842   1.99899
 Alpha virt. eigenvalues --    2.00171   2.00797   2.01180   2.01334   2.01635
 Alpha virt. eigenvalues --    2.01959   2.02044   2.02384   2.02651   2.03100
 Alpha virt. eigenvalues --    2.03791   2.03850   2.04198   2.04296   2.04328
 Alpha virt. eigenvalues --    2.04516   2.04808   2.04918   2.05471   2.06023
 Alpha virt. eigenvalues --    2.06331   2.06445   2.07044   2.07251   2.07307
 Alpha virt. eigenvalues --    2.07531   2.07827   2.08359   2.08485   2.08864
 Alpha virt. eigenvalues --    2.08897   2.09172   2.09966   2.10157   2.10441
 Alpha virt. eigenvalues --    2.10753   2.10872   2.11037   2.11197   2.11481
 Alpha virt. eigenvalues --    2.11742   2.12089   2.12288   2.12791   2.13083
 Alpha virt. eigenvalues --    2.13507   2.13914   2.14310   2.14389   2.15113
 Alpha virt. eigenvalues --    2.15448   2.15659   2.15866   2.16116   2.16522
 Alpha virt. eigenvalues --    2.16838   2.18175   2.18366   2.18507   2.18739
 Alpha virt. eigenvalues --    2.19282   2.20217   2.20407   2.20681   2.21078
 Alpha virt. eigenvalues --    2.21462   2.21650   2.22013   2.22425   2.22808
 Alpha virt. eigenvalues --    2.22861   2.23415   2.23441   2.24404   2.24775
 Alpha virt. eigenvalues --    2.25458   2.26140   2.26482   2.27082   2.27501
 Alpha virt. eigenvalues --    2.27760   2.28147   2.29016   2.29137   2.29323
 Alpha virt. eigenvalues --    2.29714   2.29919   2.30210   2.30472   2.30923
 Alpha virt. eigenvalues --    2.31070   2.31216   2.31673   2.32175   2.32377
 Alpha virt. eigenvalues --    2.33023   2.33766   2.33933   2.34412   2.34605
 Alpha virt. eigenvalues --    2.34841   2.35260   2.35672   2.36530   2.36724
 Alpha virt. eigenvalues --    2.37007   2.37274   2.37688   2.37872   2.37961
 Alpha virt. eigenvalues --    2.38301   2.38493   2.38953   2.39543   2.39775
 Alpha virt. eigenvalues --    2.40005   2.40277   2.40779   2.40923   2.41144
 Alpha virt. eigenvalues --    2.41488   2.41537   2.42604   2.42917   2.43362
 Alpha virt. eigenvalues --    2.43973   2.44085   2.44407   2.44597   2.44888
 Alpha virt. eigenvalues --    2.46047   2.46137   2.46299   2.46529   2.46924
 Alpha virt. eigenvalues --    2.47353   2.47535   2.47834   2.48502   2.48583
 Alpha virt. eigenvalues --    2.49094   2.49348   2.50291   2.50404   2.50924
 Alpha virt. eigenvalues --    2.52091   2.52138   2.52771   2.53311   2.53486
 Alpha virt. eigenvalues --    2.54154   2.54437   2.54864   2.55876   2.56288
 Alpha virt. eigenvalues --    2.56652   2.56853   2.57025   2.57668   2.57798
 Alpha virt. eigenvalues --    2.58672   2.58988   2.59308   2.59395   2.59828
 Alpha virt. eigenvalues --    2.60772   2.61274   2.61734   2.61983   2.62264
 Alpha virt. eigenvalues --    2.62707   2.62936   2.63852   2.64083   2.64179
 Alpha virt. eigenvalues --    2.64775   2.65577   2.65678   2.66386   2.66505
 Alpha virt. eigenvalues --    2.67127   2.67283   2.67593   2.67847   2.68104
 Alpha virt. eigenvalues --    2.68413   2.69251   2.69383   2.69909   2.70296
 Alpha virt. eigenvalues --    2.70823   2.71410   2.71616   2.72346   2.72727
 Alpha virt. eigenvalues --    2.72824   2.72874   2.73772   2.73823   2.74139
 Alpha virt. eigenvalues --    2.74321   2.74481   2.75360   2.75475   2.75684
 Alpha virt. eigenvalues --    2.76091   2.76214   2.76982   2.77466   2.78142
 Alpha virt. eigenvalues --    2.78360   2.78894   2.79642   2.80613   2.81071
 Alpha virt. eigenvalues --    2.81358   2.81813   2.82140   2.82918   2.83495
 Alpha virt. eigenvalues --    2.83687   2.84154   2.84301   2.86245   2.86322
 Alpha virt. eigenvalues --    2.86838   2.87063   2.88064   2.88592   2.88866
 Alpha virt. eigenvalues --    2.88924   2.89796   2.90095   2.90613   2.90909
 Alpha virt. eigenvalues --    2.91043   2.91237   2.91549   2.92053   2.92866
 Alpha virt. eigenvalues --    2.92914   2.93387   2.94066   2.94307   2.94552
 Alpha virt. eigenvalues --    2.94607   2.94757   2.94902   2.95500   2.95515
 Alpha virt. eigenvalues --    2.95692   2.95977   2.96381   2.96783   2.96850
 Alpha virt. eigenvalues --    2.97188   2.97366   2.97593   2.98128   2.98209
 Alpha virt. eigenvalues --    2.98707   2.98844   2.99281   2.99644   2.99699
 Alpha virt. eigenvalues --    3.00215   3.00337   3.00483   3.00740   3.00929
 Alpha virt. eigenvalues --    3.01427   3.01550   3.02095   3.02688   3.03004
 Alpha virt. eigenvalues --    3.03431   3.03874   3.04060   3.04615   3.05031
 Alpha virt. eigenvalues --    3.05245   3.05493   3.05771   3.05890   3.06032
 Alpha virt. eigenvalues --    3.06433   3.07769   3.08336   3.08734   3.10057
 Alpha virt. eigenvalues --    3.10435   3.11005   3.11558   3.11631   3.12950
 Alpha virt. eigenvalues --    3.14606   3.14930   3.15028   3.15580   3.15966
 Alpha virt. eigenvalues --    3.16426   3.17138   3.17697   3.18626   3.18902
 Alpha virt. eigenvalues --    3.19793   3.22379   3.22511   3.23285   3.25488
 Alpha virt. eigenvalues --    3.26033   3.27766   3.35583   3.36394   3.41311
 Alpha virt. eigenvalues --    3.46130   3.46451   3.50140   3.52519   3.53557
 Alpha virt. eigenvalues --    3.57057   3.58325   3.61844   3.66110   3.66954
 Alpha virt. eigenvalues --    3.66984   3.71283
          Condensed to atoms (all electrons):
 Mulliken charges:
               1
     1  Mg   1.008377
     2  C   -0.034487
     3  C   -0.073119
     4  C   -0.035920
     5  C   -0.099493
     6  N   -0.396590
     7  C    0.022175
     8  C   -0.051578
     9  C   -0.143953
    10  C    0.117072
    11  C    0.020165
    12  C   -0.034843
    13  C    0.004044
    14  C    0.207792
    15  O   -0.252017
    16  O   -0.385854
    17  N   -0.483953
    18  C    0.116893
    19  C   -0.161967
    20  C   -0.073100
    21  C    0.161097
    22  C    0.053233
    23  C    0.050702
    24  O   -0.221151
    25  C   -0.043256
    26  N   -0.362268
    27  C    0.024121
    28  C   -0.139076
    29  C   -0.054649
    30  C    0.078351
    31  C   -0.007146
    32  C   -0.026440
    33  C   -0.083349
    34  N   -0.420931
    35  C    0.104664
    36  C   -0.212110
    37  C   -0.059938
    38  C    0.132160
    39  C    0.066859
    40  C    0.215799
    41  O   -0.171195
    42  C   -0.088055
    43  C    0.245320
    44  O   -0.308115
    45  O   -0.329925
    46  C    0.110967
    47  C    0.243036
    48  C   -0.129502
    49  C   -0.229996
    50  C    0.023088
    51  C    0.034275
    52  C   -0.087760
    53  C   -0.006266
    54  C   -0.254891
    55  C   -0.048703
    56  C    0.048069
    57  C   -0.052476
    58  C   -0.028190
    59  C   -0.223524
    60  C   -0.013970
    61  C   -0.006015
    62  C   -0.058280
    63  C   -0.010054
    64  C   -0.229524
    65  C   -0.012512
    66  C   -0.000957
    67  H   -0.003976
    68  H    0.016553
    69  H    0.002502
    70  H    0.039621
    71  H    0.043857
    72  H    0.041283
    73  H    0.053905
    74  H    0.044098
    75  H    0.095547
    76  H    0.067711
    77  H    0.049514
    78  H    0.055403
    79  H    0.060314
    80  H    0.037258
    81  H    0.053484
    82  H    0.061404
    83  H    0.051517
    84  H    0.047133
    85  H    0.061594
    86  H    0.041134
    87  H    0.045226
    88  H    0.041702
    89  H    0.050259
    90  H    0.054582
    91  H    0.048092
    92  H    0.042642
    93  H    0.048517
    94  H    0.036644
    95  H    0.047296
    96  H    0.053449
    97  H    0.059740
    98  H    0.059256
    99  H    0.054496
   100  H    0.075982
   101  H    0.077124
   102  H    0.078755
   103  H    0.051337
   104  H    0.022769
   105  H    0.053304
   106  H    0.029421
   107  H    0.042778
   108  H    0.039878
   109  H    0.026093
   110  H    0.044301
   111  H    0.046837
   112  H    0.032207
   113  H    0.022269
   114  H    0.047694
   115  H    0.044091
   116  H    0.031271
   117  H    0.028414
   118  H    0.024639
   119  H    0.029060
   120  H    0.034369
   121  H    0.048077
   122  H    0.036730
   123  H    0.024020
   124  H    0.032045
   125  H    0.039791
   126  H    0.041090
   127  H    0.032646
   128  H    0.020867
   129  H    0.023055
   130  H    0.030221
   131  H    0.022278
   132  H    0.020258
   133  H    0.028744
   134  H    0.032075
   135  H    0.029230
   136  H    0.038336
   137  H    0.024763
   138  H    0.030445
   139  H    0.027800
   140  H    0.032023
 Sum of Mulliken charges =  -0.00000
 Mulliken charges with hydrogens summed into heavy atoms:
               1
     1  Mg   1.008377
     2  C   -0.034487
     3  C   -0.077094
     4  C   -0.019368
     5  C   -0.096991
     6  N   -0.396590
     7  C    0.022175
     8  C   -0.011957
     9  C   -0.100096
    10  C    0.117072
    11  C    0.159451
    12  C    0.128414
    13  C    0.108962
    14  C    0.207792
    15  O   -0.252017
    16  O   -0.385854
    17  N   -0.483953
    18  C    0.116893
    19  C   -0.161967
    20  C   -0.073100
    21  C    0.161097
    22  C    0.204288
    23  C    0.050702
    24  O   -0.221151
    25  C    0.116798
    26  N   -0.362268
    27  C    0.024121
    28  C   -0.077482
    29  C   -0.013515
    30  C    0.078351
    31  C    0.130040
    32  C    0.076233
    33  C    0.044454
    34  N   -0.420931
    35  C    0.104664
    36  C   -0.212110
    37  C   -0.059938
    38  C    0.132160
    39  C    0.227343
    40  C    0.215799
    41  O   -0.171195
    42  C   -0.028799
    43  C    0.245320
    44  O   -0.308115
    45  O   -0.329925
    46  C    0.318570
    47  C    0.373128
    48  C   -0.106733
    49  C   -0.229996
    50  C    0.148591
    51  C    0.100246
    52  C    0.003378
    53  C    0.048211
    54  C   -0.207197
    55  C    0.055072
    56  C    0.101768
    57  C    0.029970
    58  C    0.032561
    59  C   -0.191479
    60  C    0.099556
    61  C    0.037907
    62  C   -0.005781
    63  C    0.038947
    64  C   -0.197450
    65  C    0.079817
    66  C    0.089312
 Electronic spatial extent (au):  <R**2>=         102539.7886
 Charge=             -0.0000 electrons
 Dipole moment (field-independent basis, Debye):
    X=              5.3368    Y=              2.1538    Z=              1.0357  Tot=              5.8475
 Quadrupole moment (field-independent basis, Debye-Ang):
   XX=           -375.0875   YY=           -437.7451   ZZ=           -407.9260
   XY=            -36.7472   XZ=              0.8555   YZ=             -5.6569
 Traceless Quadrupole moment (field-independent basis, Debye-Ang):
   XX=             31.8320   YY=            -30.8256   ZZ=             -1.0065
   XY=            -36.7472   XZ=              0.8555   YZ=             -5.6569
 Octapole moment (field-independent basis, Debye-Ang**2):
  XXX=           -194.3177  YYY=           -133.7123  ZZZ=            -30.8761  XYY=            231.8637
  XXY=            207.6741  XXZ=            -51.6431  XZZ=            -10.4237  YZZ=              8.3118
  YYZ=             69.6016  XYZ=            -55.5184
 Hexadecapole moment (field-independent basis, Debye-Ang**3):
 XXXX=        -102942.8335 YYYY=         -28681.0215 ZZZZ=          -6284.3089 XXXY=          -3718.4124
 XXXZ=             32.2504 YYYX=           -305.7885 YYYZ=             94.5342 ZZZX=           -171.1518
 ZZZY=            -45.0432 XXYY=         -23238.5049 XXZZ=         -19231.1048 YYZZ=          -5821.0872
 XXYZ=             11.6481 YYXZ=             59.8387 ZZXY=            -56.7820
 N-N= 9.741903936718D+03 E-N=-2.647435697347D+04  KE= 2.975308414934D+03
 Leave Link  601 at Wed May  4 10:05:59 2022, MaxMem= 10066329600 cpu:              13.4 elap:               0.7
 (Enter /sw/apps/gaussian-16.0/g16/l9999.exe)
 1\1\GINC-BP1-COMPUTE035\SP\RPBE1PBE TD-FC\def2SVP\C55H74Mg1N4O6\OF1564
 1\04-May-2022\0\\#p PBE1PBE/Def2SVP td=(nstates=5)\\step_1601_chromoph
 ore_15 TDDFT with PBE1PBE functional\\0,1\Mg,0,47.004,34.643,28.354\C,
 0,45.356,32.622,30.573\C,0,46.759,37.241,30.569\C,0,48.081,36.639,25.9
 39\C,0,46.562,32.172,25.941\N,0,46.153,34.869,30.307\C,0,45.546,33.948
 ,31.052\C,0,45.297,34.453,32.551\C,0,45.409,36.024,32.312\C,0,46.187,3
 6.074,30.985\C,0,44.045,36.785,32.22\C,0,46.327,33.767,33.575\C,0,47.4
 63,34.577,34.358\C,0,47.196,34.818,35.86\O,0,47.261,33.891,36.635\O,0,
 46.79,36.131,36.113\N,0,47.556,36.624,28.292\C,0,47.45,37.531,29.335\C
 ,0,48.102,38.776,28.938\C,0,48.431,38.626,27.581\C,0,48.012,37.266,27.
 221\C,0,48.305,39.946,29.88\C,0,49.069,39.611,26.63\O,0,49.406,39.423,
 25.481\C,0,49.344,41.014,27.18\N,0,47.183,34.47,26.21\C,0,47.642,35.41
 ,25.454\C,0,47.902,35.019,23.982\C,0,47.383,33.552,23.936\C,0,46.872,3
 3.38,25.442\C,0,47.177,35.905,22.961\C,0,48.352,32.428,23.379\C,0,47.7
 76,31.513,22.245\N,0,46.266,32.719,28.27\C,0,46.273,31.775,27.309\C,0,
 45.77,30.508,27.834\C,0,45.376,30.787,29.106\C,0,45.67,32.162,29.284\C
 ,0,45.82,29.238,27.074\C,0,44.655,30.26,30.291\O,0,44.146,29.207,30.53
 6\C,0,44.603,31.45,31.251\C,0,45.21,31.03,32.539\O,0,46.334,30.461,32.
 53\O,0,44.431,31.215,33.616\C,0,45.143,30.758,34.822\C,0,46.447,36.44,
 37.539\C,0,47.39,37.495,37.988\C,0,47.156,38.556,38.786\C,0,45.916,38.
 756,39.547\C,0,48.262,39.602,38.923\C,0,48.065,40.789,37.922\C,0,49.31
 1,41.058,36.996\C,0,49.307,42.608,36.661\C,0,49.582,42.739,35.077\C,0,
 50.304,43.461,37.505\C,0,49.59,44.33,38.596\C,0,49.481,45.826,38.191\C
 ,0,47.997,46.348,38.118\C,0,47.972,47.868,37.679\C,0,47.106,46.014,39.
 32\C,0,45.876,45.161,39.046\C,0,44.802,45.951,38.206\C,0,43.65,46.353,
 39.198\C,0,42.319,45.839,38.719\C,0,43.61,47.831,39.299\H,0,46.764,38.
 11,31.23\H,0,48.403,37.231,25.079\H,0,46.517,31.39,25.181\H,0,44.294,3
 4.178,32.877\H,0,45.972,36.587,33.056\H,0,44.193,37.772,31.783\H,0,43.
 612,36.902,33.213\H,0,43.456,36.186,31.525\H,0,46.884,32.941,33.133\H,
 0,45.636,33.536,34.387\H,0,47.854,35.486,33.9\H,0,48.336,33.925,34.324
 \H,0,49.389,39.959,29.99\H,0,47.834,39.808,30.853\H,0,48.009,40.949,29
 .572\H,0,50.136,41.015,27.929\H,0,48.417,41.434,27.569\H,0,49.598,41.6
 87,26.361\H,0,48.977,35.082,23.814\H,0,46.441,33.56,23.387\H,0,46.495,
 36.48,23.588\H,0,46.587,35.408,22.19\H,0,47.757,36.642,22.406\H,0,48.6
 68,31.812,24.221\H,0,49.19,32.94,22.905\H,0,46.859,31.926,21.825\H,0,4
 7.698,30.484,22.598\H,0,48.417,31.441,21.367\H,0,46.736,29.279,26.485\
 H,0,44.96,29.17,26.408\H,0,45.796,28.312,27.647\H,0,43.623,31.799,31.5
 77\H,0,44.772,31.401,35.62\H,0,46.21,30.977,34.859\H,0,44.972,29.697,3
 5.005\H,0,46.45,35.602,38.236\H,0,45.465,36.913,37.527\H,0,48.333,37.4
 93,37.442\H,0,45.928,38.823,40.635\H,0,45.173,37.974,39.39\H,0,45.561,
 39.729,39.206\H,0,49.262,39.214,38.732\H,0,48.216,40.004,39.935\H,0,47
 .886,41.722,38.456\H,0,47.214,40.548,37.285\H,0,49.296,40.368,36.152\H
 ,0,50.24,40.824,37.516\H,0,48.271,42.923,36.784\H,0,50.604,42.705,34.6
 98\H,0,49.147,43.699,34.801\H,0,49.021,41.967,34.55\H,0,50.74,44.163,3
 6.794\H,0,51.095,42.775,37.808\H,0,50.174,44.314,39.516\H,0,48.584,43.
 945,38.764\H,0,50.129,46.097,37.356\H,0,49.812,46.372,39.074\H,0,47.63
 5,45.789,37.255\H,0,48.866,48.32,38.108\H,0,47.066,48.432,37.9\H,0,48.
 002,47.862,36.59\H,0,46.847,46.959,39.797\H,0,47.62,45.467,40.11\H,0,4
 5.412,44.829,39.975\H,0,46.216,44.252,38.55\H,0,44.488,45.341,37.359\H
 ,0,45.276,46.807,37.726\H,0,43.706,45.96,40.213\H,0,42.058,46.292,37.7
 62\H,0,41.551,45.864,39.492\H,0,42.524,44.794,38.488\H,0,44.586,48.175
 ,39.642\H,0,42.874,48.145,40.039\H,0,43.387,48.216,38.304\\Version=ES6
 4L-G16RevA.03\State=1-A\HF=-3005.3763083\RMSD=7.363e-09\PG=C01 [X(C55H
 74Mg1N4O6)]\\@


 THE TRULY SUCCESSFUL PERFORMANCE OF RESEARCHES IN
 INORGANIC CHEMISTRY IS POSSIBLE ONLY TO ONE WHO IS NOT
 ONLY A THEORETICAL CHEMIST, BUT ALSO AN ACCOMPLISHED
 ANALYST AND, MOREOVER, NOT MERELY A PRACTICALLY TRAINED,
 MECHANICAL WORKER, BUT A THINKING CREATIVE ARTIST.
   --  CLEMENS WINKLER, BER. 33, 1697(1900)
 Job cpu time:       0 days  7 hours 26 minutes  8.4 seconds.
 Elapsed time:       0 days  0 hours 18 minutes 39.3 seconds.
 File lengths (MBytes):  RWF=   8929 Int=      0 D2E=      0 Chk=    390 Scr=      1
 Normal termination of Gaussian 16 at Wed May  4 10:06:00 2022.
