 Entering Gaussian System, Link 0=g16
 Initial command:
 /sw/apps/gaussian-16.0/g16/l1.exe "/tmp/Gau-238226.inp" -scrdir="/tmp/"
 Entering Link 1 = /sw/apps/gaussian-16.0/g16/l1.exe PID=    238227.
  
 Copyright (c) 1988,1990,1992,1993,1995,1998,2003,2009,2016,
            Gaussian, Inc.  All Rights Reserved.
  
 This is part of the Gaussian(R) 16 program.  It is based on
 the Gaussian(R) 09 system (copyright 2009, Gaussian, Inc.),
 the Gaussian(R) 03 system (copyright 2003, Gaussian, Inc.),
 the Gaussian(R) 98 system (copyright 1998, Gaussian, Inc.),
 the Gaussian(R) 94 system (copyright 1995, Gaussian, Inc.),
 the Gaussian 92(TM) system (copyright 1992, Gaussian, Inc.),
 the Gaussian 90(TM) system (copyright 1990, Gaussian, Inc.),
 the Gaussian 88(TM) system (copyright 1988, Gaussian, Inc.),
 the Gaussian 86(TM) system (copyright 1986, Carnegie Mellon
 University), and the Gaussian 82(TM) system (copyright 1983,
 Carnegie Mellon University). Gaussian is a federally registered
 trademark of Gaussian, Inc.
  
 This software contains proprietary and confidential information,
 including trade secrets, belonging to Gaussian, Inc.
  
 This software is provided under written license and may be
 used, copied, transmitted, or stored only in accord with that
 written license.
  
 The following legend is applicable only to US Government
 contracts under FAR:
  
                    RESTRICTED RIGHTS LEGEND
  
 Use, reproduction and disclosure by the US Government is
 subject to restrictions as set forth in subparagraphs (a)
 and (c) of the Commercial Computer Software - Restricted
 Rights clause in FAR 52.227-19.
  
 Gaussian, Inc.
 340 Quinnipiac St., Bldg. 40, Wallingford CT 06492
  
  
 ---------------------------------------------------------------
 Warning -- This program may not be used in any manner that
 competes with the business of Gaussian, Inc. or will provide
 assistance to any competitor of Gaussian, Inc.  The licensee
 of this program is prohibited from giving any competitor of
 Gaussian, Inc. access to this program.  By using this program,
 the user acknowledges that Gaussian, Inc. is engaged in the
 business of creating and licensing software in the field of
 computational chemistry and represents and warrants to the
 licensee that it is not a competitor of Gaussian, Inc. and that
 it will not use this program in any manner prohibited above.
 ---------------------------------------------------------------
  

 Cite this work as:
 Gaussian 16, Revision A.03,
 M. J. Frisch, G. W. Trucks, H. B. Schlegel, G. E. Scuseria, 
 M. A. Robb, J. R. Cheeseman, G. Scalmani, V. Barone, 
 G. A. Petersson, H. Nakatsuji, X. Li, M. Caricato, A. V. Marenich, 
 J. Bloino, B. G. Janesko, R. Gomperts, B. Mennucci, H. P. Hratchian, 
 J. V. Ortiz, A. F. Izmaylov, J. L. Sonnenberg, D. Williams-Young, 
 F. Ding, F. Lipparini, F. Egidi, J. Goings, B. Peng, A. Petrone, 
 T. Henderson, D. Ranasinghe, V. G. Zakrzewski, J. Gao, N. Rega, 
 G. Zheng, W. Liang, M. Hada, M. Ehara, K. Toyota, R. Fukuda, 
 J. Hasegawa, M. Ishida, T. Nakajima, Y. Honda, O. Kitao, H. Nakai, 
 T. Vreven, K. Throssell, J. A. Montgomery, Jr., J. E. Peralta, 
 F. Ogliaro, M. J. Bearpark, J. J. Heyd, E. N. Brothers, K. N. Kudin, 
 V. N. Staroverov, T. A. Keith, R. Kobayashi, J. Normand, 
 K. Raghavachari, A. P. Rendell, J. C. Burant, S. S. Iyengar, 
 J. Tomasi, M. Cossi, J. M. Millam, M. Klene, C. Adamo, R. Cammi, 
 J. W. Ochterski, R. L. Martin, K. Morokuma, O. Farkas, 
 J. B. Foresman, and D. J. Fox, Gaussian, Inc., Wallingford CT, 2016.
 
 ******************************************
 Gaussian 16:  ES64L-G16RevA.03 25-Dec-2016
                27-Apr-2022 
 ******************************************
 %nproc=24
 Will use up to   24 processors via shared memory.
 %mem=75GB
 --------------------------------
 #p wB97XD/Def2SVP td=(nstates=5)
 --------------------------------
 1/38=1,172=1/1;
 2/12=2,17=6,18=5,40=1/2;
 3/5=43,7=101,11=9,25=1,30=1,74=-58/1,2,3,8;
 4//1;
 5/5=2,38=5/2;
 8/6=1,10=1,108=5/1;
 9/41=5,42=1,70=2/14;
 6/7=2,8=2,9=2,10=2/1;
 99/5=1,9=1/99;
 Leave Link    1 at Wed Apr 27 09:10:22 2022, MaxMem= 10066329600 cpu:               3.2 elap:               0.1
 (Enter /sw/apps/gaussian-16.0/g16/l101.exe)
 ----------------------------------------------------
 step_1101_chromophore_6 TDDFT with wB97XD functional
 ----------------------------------------------------
 Symbolic Z-matrix:
 Charge =  0 Multiplicity = 1
 Mg                    16.866   -2.477     27.317 
 C                     16.208   -0.32      30.004 
 C                     18.511   -4.579     29.372 
 C                     17.586   -4.276     24.646 
 C                     15.067   -0.087     25.213 
 N                     17.472   -2.276     29.384 
 C                     17.006   -1.387     30.321 
 C                     17.445   -1.804     31.789 
 C                     18.307   -3.145     31.562 
 C                     18.084   -3.384     30.042 
 C                     19.783   -3.131     31.969 
 C                     16.317   -2.029     32.884 
 C                     16.555   -1.797     34.407 
 C                     18.047   -1.39      34.905 
 O                     18.436   -0.281     35.163 
 O                     18.792   -2.569     35.075 
 N                     17.957   -4.166     27.032 
 C                     18.507   -4.936     27.954 
 C                     18.944   -6.216     27.366 
 C                     18.794   -6.103     26.007 
 C                     18.109   -4.807     25.832 
 C                     19.434   -7.329     28.207 
 C                     19.195   -7.119     24.893 
 O                     19.077   -6.829     23.657 
 C                     19.759   -8.506     25.169 
 N                     16.373   -2.153     25.251 
 C                     16.94    -3.027     24.372 
 C                     16.636   -2.534     22.849 
 C                     15.452   -1.557     23.098 
 C                     15.623   -1.215     24.53 
 C                     17.928   -1.877     22.39 
 C                     14.041   -2.213     22.951 
 C                     13.16    -1.606     21.904 
 N                     15.945   -0.548     27.573 
 C                     15.221    0.176     26.653 
 C                     14.649    1.278     27.364 
 C                     15.04     1.19      28.709 
 C                     15.674   -0.035     28.8 
 C                     13.98     2.33      26.716 
 C                     14.972    1.764     30.055 
 O                     14.447    2.82      30.417 
 C                     15.731    0.811     30.947 
 C                     16.756    1.585     31.74 
 O                     17.87     1.873     31.339 
 O                     16.111    2.149     32.875 
 C                     16.872    3.261     33.523 
 C                     19.907   -2.439     36.031 
 C                     19.518   -3.386     37.152 
 C                     19.293   -3.191     38.423 
 C                     19.26    -1.776     39.025 
 C                     18.889   -4.363     39.342 
 C                     19.93    -5.31      40.08 
 C                     19.61    -6.799     39.82 
 C                     20.729   -7.592     39.11 
 C                     20.299   -8.981     38.6 
 C                     22.043   -7.588     39.827 
 C                     21.935   -8.173     41.263 
 C                     23.083   -9.195     41.336 
 C                     24.579   -8.742     41.475 
 C                     25.223   -9.166     40.151 
 C                     25.218   -9.534     42.698 
 C                     26.693   -9.056     42.97 
 C                     27.675   -10.256    42.792 
 C                     29.195   -9.749     43.052 
 C                     29.882   -10.556    44.183 
 C                     29.962   -9.771     41.684 
 H                     19.      -5.255     30.076 
 H                     17.918   -4.835     23.769 
 H                     14.36     0.596     24.737 
 H                     18.141   -1.073     32.198 
 H                     17.781   -3.98      32.026 
 H                     19.943   -3.811     32.806 
 H                     20.081   -2.132     32.286 
 H                     20.384   -3.49      31.133 
 H                     16.072   -3.082     32.747 
 H                     15.37    -1.566     32.606 
 H                     16.342   -2.68      35.009 
 H                     15.866   -0.988     34.65 
 H                     20.286   -7.806     27.723 
 H                     18.667   -8.078     28.407 
 H                     19.906   -6.937     29.108 
 H                     19.147   -9.038     25.896 
 H                     20.801   -8.404     25.472 
 H                     19.718   -9.045     24.222 
 H                     16.401   -3.323     22.135 
 H                     15.58    -0.618     22.559 
 H                     17.798   -0.796     22.331 
 H                     18.147   -2.207     21.375 
 H                     18.776   -2.074     23.045 
 H                     13.541   -2.391     23.903 
 H                     14.341   -3.189     22.569 
 H                     12.089   -1.586     22.104 
 H                     13.319   -2.175     20.988 
 H                     13.515   -0.585     21.768 
 H                     13.678    3.073     27.454 
 H                     13.167    1.959     26.091 
 H                     14.723    2.763     26.046 
 H                     15.093    0.38      31.719 
 H                     17.552    2.758     34.211 
 H                     16.259    3.91      34.148 
 H                     17.594    3.856     32.965 
 H                     20.098   -1.446     36.437 
 H                     20.724   -2.801     35.407 
 H                     19.521   -4.418     36.799 
 H                     18.966   -1.669     40.07 
 H                     18.573   -1.149     38.458 
 H                     20.215   -1.252     38.968 
 H                     18.123   -4.908     38.79 
 H                     18.251   -3.911     40.101 
 H                     19.744   -5.076     41.128 
 H                     20.944   -4.984     39.85 
 H                     18.681   -6.937     39.267 
 H                     19.366   -7.262     40.776 
 H                     20.809   -6.942     38.239 
 H                     21.084   -9.683     38.882 
 H                     20.368   -8.968     37.513 
 H                     19.292   -9.246     38.923 
 H                     22.347   -6.558     40.016 
 H                     22.811   -8.101     39.248 
 H                     20.949   -8.549     41.533 
 H                     22.286   -7.395     41.942 
 H                     22.768   -9.838     40.514 
 H                     22.714   -9.801     42.163 
 H                     24.478   -7.659     41.555 
 H                     25.923   -9.99      40.29 
 H                     25.821   -8.327     39.796 
 H                     24.531   -9.398     39.341 
 H                     25.176   -10.589    42.427 
 H                     24.555   -9.531     43.564 
 H                     26.795   -8.649     43.976 
 H                     27.025   -8.286     42.274 
 H                     27.549   -10.823    41.87 
 H                     27.493   -11.071    43.493 
 H                     29.227   -8.716     43.397 
 H                     30.33    -9.824     44.854 
 H                     30.65    -11.197    43.75 
 H                     29.152   -11.162    44.72 
 H                     30.805   -10.461    41.655 
 H                     30.333   -8.781     41.419 
 H                     29.323   -10.068    40.851 
 
 ITRead=  0  0  0  0  0  0  0  0  0  0  0  0  0  0  0  0  0  0  0  0
 ITRead=  0  0  0  0  0  0  0  0  0  0  0  0  0  0  0  0  0  0  0  0
 ITRead=  0  0  0  0  0  0  0  0  0  0  0  0  0  0  0  0  0  0  0  0
 ITRead=  0  0  0  0  0  0  0  0  0  0  0  0  0  0  0  0  0  0  0  0
 ITRead=  0  0  0  0  0  0  0  0  0  0  0  0  0  0  0  0  0  0  0  0
 ITRead=  0  0  0  0  0  0  0  0  0  0  0  0  0  0  0  0  0  0  0  0
 ITRead=  0  0  0  0  0  0  0  0  0  0  0  0  0  0  0  0  0  0  0  0
 MicOpt= -1 -1 -1 -1 -1 -1 -1 -1 -1 -1 -1 -1 -1 -1 -1 -1 -1 -1 -1 -1
 MicOpt= -1 -1 -1 -1 -1 -1 -1 -1 -1 -1 -1 -1 -1 -1 -1 -1 -1 -1 -1 -1
 MicOpt= -1 -1 -1 -1 -1 -1 -1 -1 -1 -1 -1 -1 -1 -1 -1 -1 -1 -1 -1 -1
 MicOpt= -1 -1 -1 -1 -1 -1 -1 -1 -1 -1 -1 -1 -1 -1 -1 -1 -1 -1 -1 -1
 MicOpt= -1 -1 -1 -1 -1 -1 -1 -1 -1 -1 -1 -1 -1 -1 -1 -1 -1 -1 -1 -1
 MicOpt= -1 -1 -1 -1 -1 -1 -1 -1 -1 -1 -1 -1 -1 -1 -1 -1 -1 -1 -1 -1
 MicOpt= -1 -1 -1 -1 -1 -1 -1 -1 -1 -1 -1 -1 -1 -1 -1 -1 -1 -1 -1 -1
 NAtoms=    140 NQM=      140 NQMF=       0 NMMI=      0 NMMIF=      0
                NMic=       0 NMicF=      0.
                    Isotopes and Nuclear Properties:
 (Nuclear quadrupole moments (NQMom) in fm**2, nuclear magnetic moments (NMagM)
  in nuclear magnetons)

  Atom         1           2           3           4           5           6           7           8           9          10
 IAtWgt=          24          12          12          12          12          14          12          12          12          12
 AtmWgt=  23.9850450  12.0000000  12.0000000  12.0000000  12.0000000  14.0030740  12.0000000  12.0000000  12.0000000  12.0000000
 NucSpn=           0           0           0           0           0           2           0           0           0           0
 AtZEff=  -0.0000000  -0.0000000  -0.0000000  -0.0000000  -0.0000000  -0.0000000  -0.0000000  -0.0000000  -0.0000000  -0.0000000
 NQMom=    0.0000000   0.0000000   0.0000000   0.0000000   0.0000000   2.0440000   0.0000000   0.0000000   0.0000000   0.0000000
 NMagM=    0.0000000   0.0000000   0.0000000   0.0000000   0.0000000   0.4037610   0.0000000   0.0000000   0.0000000   0.0000000
 AtZNuc=  12.0000000   6.0000000   6.0000000   6.0000000   6.0000000   7.0000000   6.0000000   6.0000000   6.0000000   6.0000000

  Atom        11          12          13          14          15          16          17          18          19          20
 IAtWgt=          12          12          12          12          16          16          14          12          12          12
 AtmWgt=  12.0000000  12.0000000  12.0000000  12.0000000  15.9949146  15.9949146  14.0030740  12.0000000  12.0000000  12.0000000
 NucSpn=           0           0           0           0           0           0           2           0           0           0
 AtZEff=  -0.0000000  -0.0000000  -0.0000000  -0.0000000  -0.0000000  -0.0000000  -0.0000000  -0.0000000  -0.0000000  -0.0000000
 NQMom=    0.0000000   0.0000000   0.0000000   0.0000000   0.0000000   0.0000000   2.0440000   0.0000000   0.0000000   0.0000000
 NMagM=    0.0000000   0.0000000   0.0000000   0.0000000   0.0000000   0.0000000   0.4037610   0.0000000   0.0000000   0.0000000
 AtZNuc=   6.0000000   6.0000000   6.0000000   6.0000000   8.0000000   8.0000000   7.0000000   6.0000000   6.0000000   6.0000000

  Atom        21          22          23          24          25          26          27          28          29          30
 IAtWgt=          12          12          12          16          12          14          12          12          12          12
 AtmWgt=  12.0000000  12.0000000  12.0000000  15.9949146  12.0000000  14.0030740  12.0000000  12.0000000  12.0000000  12.0000000
 NucSpn=           0           0           0           0           0           2           0           0           0           0
 AtZEff=  -0.0000000  -0.0000000  -0.0000000  -0.0000000  -0.0000000  -0.0000000  -0.0000000  -0.0000000  -0.0000000  -0.0000000
 NQMom=    0.0000000   0.0000000   0.0000000   0.0000000   0.0000000   2.0440000   0.0000000   0.0000000   0.0000000   0.0000000
 NMagM=    0.0000000   0.0000000   0.0000000   0.0000000   0.0000000   0.4037610   0.0000000   0.0000000   0.0000000   0.0000000
 AtZNuc=   6.0000000   6.0000000   6.0000000   8.0000000   6.0000000   7.0000000   6.0000000   6.0000000   6.0000000   6.0000000

  Atom        31          32          33          34          35          36          37          38          39          40
 IAtWgt=          12          12          12          14          12          12          12          12          12          12
 AtmWgt=  12.0000000  12.0000000  12.0000000  14.0030740  12.0000000  12.0000000  12.0000000  12.0000000  12.0000000  12.0000000
 NucSpn=           0           0           0           2           0           0           0           0           0           0
 AtZEff=  -0.0000000  -0.0000000  -0.0000000  -0.0000000  -0.0000000  -0.0000000  -0.0000000  -0.0000000  -0.0000000  -0.0000000
 NQMom=    0.0000000   0.0000000   0.0000000   2.0440000   0.0000000   0.0000000   0.0000000   0.0000000   0.0000000   0.0000000
 NMagM=    0.0000000   0.0000000   0.0000000   0.4037610   0.0000000   0.0000000   0.0000000   0.0000000   0.0000000   0.0000000
 AtZNuc=   6.0000000   6.0000000   6.0000000   7.0000000   6.0000000   6.0000000   6.0000000   6.0000000   6.0000000   6.0000000

  Atom        41          42          43          44          45          46          47          48          49          50
 IAtWgt=          16          12          12          16          16          12          12          12          12          12
 AtmWgt=  15.9949146  12.0000000  12.0000000  15.9949146  15.9949146  12.0000000  12.0000000  12.0000000  12.0000000  12.0000000
 NucSpn=           0           0           0           0           0           0           0           0           0           0
 AtZEff=  -0.0000000  -0.0000000  -0.0000000  -0.0000000  -0.0000000  -0.0000000  -0.0000000  -0.0000000  -0.0000000  -0.0000000
 NQMom=    0.0000000   0.0000000   0.0000000   0.0000000   0.0000000   0.0000000   0.0000000   0.0000000   0.0000000   0.0000000
 NMagM=    0.0000000   0.0000000   0.0000000   0.0000000   0.0000000   0.0000000   0.0000000   0.0000000   0.0000000   0.0000000
 AtZNuc=   8.0000000   6.0000000   6.0000000   8.0000000   8.0000000   6.0000000   6.0000000   6.0000000   6.0000000   6.0000000

  Atom        51          52          53          54          55          56          57          58          59          60
 IAtWgt=          12          12          12          12          12          12          12          12          12          12
 AtmWgt=  12.0000000  12.0000000  12.0000000  12.0000000  12.0000000  12.0000000  12.0000000  12.0000000  12.0000000  12.0000000
 NucSpn=           0           0           0           0           0           0           0           0           0           0
 AtZEff=  -0.0000000  -0.0000000  -0.0000000  -0.0000000  -0.0000000  -0.0000000  -0.0000000  -0.0000000  -0.0000000  -0.0000000
 NQMom=    0.0000000   0.0000000   0.0000000   0.0000000   0.0000000   0.0000000   0.0000000   0.0000000   0.0000000   0.0000000
 NMagM=    0.0000000   0.0000000   0.0000000   0.0000000   0.0000000   0.0000000   0.0000000   0.0000000   0.0000000   0.0000000
 AtZNuc=   6.0000000   6.0000000   6.0000000   6.0000000   6.0000000   6.0000000   6.0000000   6.0000000   6.0000000   6.0000000

  Atom        61          62          63          64          65          66          67          68          69          70
 IAtWgt=          12          12          12          12          12          12           1           1           1           1
 AtmWgt=  12.0000000  12.0000000  12.0000000  12.0000000  12.0000000  12.0000000   1.0078250   1.0078250   1.0078250   1.0078250
 NucSpn=           0           0           0           0           0           0           1           1           1           1
 AtZEff=  -0.0000000  -0.0000000  -0.0000000  -0.0000000  -0.0000000  -0.0000000  -0.0000000  -0.0000000  -0.0000000  -0.0000000
 NQMom=    0.0000000   0.0000000   0.0000000   0.0000000   0.0000000   0.0000000   0.0000000   0.0000000   0.0000000   0.0000000
 NMagM=    0.0000000   0.0000000   0.0000000   0.0000000   0.0000000   0.0000000   2.7928460   2.7928460   2.7928460   2.7928460
 AtZNuc=   6.0000000   6.0000000   6.0000000   6.0000000   6.0000000   6.0000000   1.0000000   1.0000000   1.0000000   1.0000000

  Atom        71          72          73          74          75          76          77          78          79          80
 IAtWgt=           1           1           1           1           1           1           1           1           1           1
 AtmWgt=   1.0078250   1.0078250   1.0078250   1.0078250   1.0078250   1.0078250   1.0078250   1.0078250   1.0078250   1.0078250
 NucSpn=           1           1           1           1           1           1           1           1           1           1
 AtZEff=  -0.0000000  -0.0000000  -0.0000000  -0.0000000  -0.0000000  -0.0000000  -0.0000000  -0.0000000  -0.0000000  -0.0000000
 NQMom=    0.0000000   0.0000000   0.0000000   0.0000000   0.0000000   0.0000000   0.0000000   0.0000000   0.0000000   0.0000000
 NMagM=    2.7928460   2.7928460   2.7928460   2.7928460   2.7928460   2.7928460   2.7928460   2.7928460   2.7928460   2.7928460
 AtZNuc=   1.0000000   1.0000000   1.0000000   1.0000000   1.0000000   1.0000000   1.0000000   1.0000000   1.0000000   1.0000000

  Atom        81          82          83          84          85          86          87          88          89          90
 IAtWgt=           1           1           1           1           1           1           1           1           1           1
 AtmWgt=   1.0078250   1.0078250   1.0078250   1.0078250   1.0078250   1.0078250   1.0078250   1.0078250   1.0078250   1.0078250
 NucSpn=           1           1           1           1           1           1           1           1           1           1
 AtZEff=  -0.0000000  -0.0000000  -0.0000000  -0.0000000  -0.0000000  -0.0000000  -0.0000000  -0.0000000  -0.0000000  -0.0000000
 NQMom=    0.0000000   0.0000000   0.0000000   0.0000000   0.0000000   0.0000000   0.0000000   0.0000000   0.0000000   0.0000000
 NMagM=    2.7928460   2.7928460   2.7928460   2.7928460   2.7928460   2.7928460   2.7928460   2.7928460   2.7928460   2.7928460
 AtZNuc=   1.0000000   1.0000000   1.0000000   1.0000000   1.0000000   1.0000000   1.0000000   1.0000000   1.0000000   1.0000000

  Atom        91          92          93          94          95          96          97          98          99         100
 IAtWgt=           1           1           1           1           1           1           1           1           1           1
 AtmWgt=   1.0078250   1.0078250   1.0078250   1.0078250   1.0078250   1.0078250   1.0078250   1.0078250   1.0078250   1.0078250
 NucSpn=           1           1           1           1           1           1           1           1           1           1
 AtZEff=  -0.0000000  -0.0000000  -0.0000000  -0.0000000  -0.0000000  -0.0000000  -0.0000000  -0.0000000  -0.0000000  -0.0000000
 NQMom=    0.0000000   0.0000000   0.0000000   0.0000000   0.0000000   0.0000000   0.0000000   0.0000000   0.0000000   0.0000000
 NMagM=    2.7928460   2.7928460   2.7928460   2.7928460   2.7928460   2.7928460   2.7928460   2.7928460   2.7928460   2.7928460
 AtZNuc=   1.0000000   1.0000000   1.0000000   1.0000000   1.0000000   1.0000000   1.0000000   1.0000000   1.0000000   1.0000000

  Atom       101         102         103         104         105         106         107         108         109         110
 IAtWgt=           1           1           1           1           1           1           1           1           1           1
 AtmWgt=   1.0078250   1.0078250   1.0078250   1.0078250   1.0078250   1.0078250   1.0078250   1.0078250   1.0078250   1.0078250
 NucSpn=           1           1           1           1           1           1           1           1           1           1
 AtZEff=  -0.0000000  -0.0000000  -0.0000000  -0.0000000  -0.0000000  -0.0000000  -0.0000000  -0.0000000  -0.0000000  -0.0000000
 NQMom=    0.0000000   0.0000000   0.0000000   0.0000000   0.0000000   0.0000000   0.0000000   0.0000000   0.0000000   0.0000000
 NMagM=    2.7928460   2.7928460   2.7928460   2.7928460   2.7928460   2.7928460   2.7928460   2.7928460   2.7928460   2.7928460
 AtZNuc=   1.0000000   1.0000000   1.0000000   1.0000000   1.0000000   1.0000000   1.0000000   1.0000000   1.0000000   1.0000000

  Atom       111         112         113         114         115         116         117         118         119         120
 IAtWgt=           1           1           1           1           1           1           1           1           1           1
 AtmWgt=   1.0078250   1.0078250   1.0078250   1.0078250   1.0078250   1.0078250   1.0078250   1.0078250   1.0078250   1.0078250
 NucSpn=           1           1           1           1           1           1           1           1           1           1
 AtZEff=  -0.0000000  -0.0000000  -0.0000000  -0.0000000  -0.0000000  -0.0000000  -0.0000000  -0.0000000  -0.0000000  -0.0000000
 NQMom=    0.0000000   0.0000000   0.0000000   0.0000000   0.0000000   0.0000000   0.0000000   0.0000000   0.0000000   0.0000000
 NMagM=    2.7928460   2.7928460   2.7928460   2.7928460   2.7928460   2.7928460   2.7928460   2.7928460   2.7928460   2.7928460
 AtZNuc=   1.0000000   1.0000000   1.0000000   1.0000000   1.0000000   1.0000000   1.0000000   1.0000000   1.0000000   1.0000000

  Atom       121         122         123         124         125         126         127         128         129         130
 IAtWgt=           1           1           1           1           1           1           1           1           1           1
 AtmWgt=   1.0078250   1.0078250   1.0078250   1.0078250   1.0078250   1.0078250   1.0078250   1.0078250   1.0078250   1.0078250
 NucSpn=           1           1           1           1           1           1           1           1           1           1
 AtZEff=  -0.0000000  -0.0000000  -0.0000000  -0.0000000  -0.0000000  -0.0000000  -0.0000000  -0.0000000  -0.0000000  -0.0000000
 NQMom=    0.0000000   0.0000000   0.0000000   0.0000000   0.0000000   0.0000000   0.0000000   0.0000000   0.0000000   0.0000000
 NMagM=    2.7928460   2.7928460   2.7928460   2.7928460   2.7928460   2.7928460   2.7928460   2.7928460   2.7928460   2.7928460
 AtZNuc=   1.0000000   1.0000000   1.0000000   1.0000000   1.0000000   1.0000000   1.0000000   1.0000000   1.0000000   1.0000000

  Atom       131         132         133         134         135         136         137         138         139         140
 IAtWgt=           1           1           1           1           1           1           1           1           1           1
 AtmWgt=   1.0078250   1.0078250   1.0078250   1.0078250   1.0078250   1.0078250   1.0078250   1.0078250   1.0078250   1.0078250
 NucSpn=           1           1           1           1           1           1           1           1           1           1
 AtZEff=  -0.0000000  -0.0000000  -0.0000000  -0.0000000  -0.0000000  -0.0000000  -0.0000000  -0.0000000  -0.0000000  -0.0000000
 NQMom=    0.0000000   0.0000000   0.0000000   0.0000000   0.0000000   0.0000000   0.0000000   0.0000000   0.0000000   0.0000000
 NMagM=    2.7928460   2.7928460   2.7928460   2.7928460   2.7928460   2.7928460   2.7928460   2.7928460   2.7928460   2.7928460
 AtZNuc=   1.0000000   1.0000000   1.0000000   1.0000000   1.0000000   1.0000000   1.0000000   1.0000000   1.0000000   1.0000000
 Leave Link  101 at Wed Apr 27 09:10:23 2022, MaxMem= 10066329600 cpu:               3.0 elap:               0.1
 (Enter /sw/apps/gaussian-16.0/g16/l202.exe)
 Stoichiometry    C55H74MgN4O6
 Framework group  C1[X(C55H74MgN4O6)]
 Deg. of freedom   414
 Full point group                 C1      NOp   1
 Largest Abelian subgroup         C1      NOp   1
 Largest concise Abelian subgroup C1      NOp   1
                         Standard orientation:                         
 ---------------------------------------------------------------------
 Center     Atomic      Atomic             Coordinates (Angstroms)
 Number     Number       Type             X           Y           Z
 ---------------------------------------------------------------------
      1         12           0       -5.443523    1.005800   -0.024400
      2          6           0       -4.340914   -2.321344    0.116857
      3          6           0       -2.261711    2.076978   -0.300270
      4          6           0       -6.634142    4.081536    0.081957
      5          6           0       -8.839675   -0.311963    0.299588
      6          7           0       -3.559539   -0.041905    0.157390
      7          6           0       -3.332699   -1.394656    0.093724
      8          6           0       -1.788455   -1.718865   -0.084689
      9          6           0       -1.093931   -0.266199   -0.100560
     10          6           0       -2.344543    0.657478   -0.106849
     11          6           0       -0.093077    0.066739    1.009334
     12          6           0       -1.333514   -2.582808   -1.337153
     13          6           0       -0.071072   -3.497164   -1.323367
     14          6           0        0.869014   -3.500338    0.001754
     15          8           0        0.855819   -4.317621    0.884726
     16          8           0        1.774023   -2.430223   -0.097137
     17          7           0       -4.565600    2.836981   -0.040317
     18          6           0       -3.286620    3.116659   -0.217732
     19          6           0       -3.101872    4.558405   -0.467433
     20          6           0       -4.315486    5.160054   -0.249928
     21          6           0       -5.239391    4.028607   -0.036166
     22          6           0       -1.792199    5.114643   -0.869308
     23          6           0       -4.669975    6.679202   -0.274017
     24          8           0       -5.832980    7.094125    0.043756
     25          6           0       -3.686480    7.776739   -0.656367
     26          7           0       -7.464724    1.705572    0.179180
     27          6           0       -7.603655    3.054166    0.320595
     28          6           0       -9.158292    3.403659    0.661115
     29          6           0       -9.850706    2.086389    0.209730
     30          6           0       -8.732602    1.114248    0.249925
     31          6           0       -9.177587    3.661145    2.159422
     32          6           0      -10.378573    2.113963   -1.261141
     33          6           0      -11.851632    1.897039   -1.415614
     34          7           0       -6.353968   -0.922949    0.268581
     35          6           0       -7.694299   -1.236204    0.280151
     36          6           0       -7.776546   -2.664514    0.296719
     37          6           0       -6.473089   -3.184704    0.289439
     38          6           0       -5.666422   -2.079711    0.091602
     39          6           0       -8.989256   -3.349546    0.481750
     40          6           0       -5.618036   -4.374110    0.285569
     41          8           0       -5.945713   -5.559290    0.384466
     42          6           0       -4.201686   -3.861695    0.179094
     43          6           0       -3.368187   -4.478401    1.276137
     44          8           0       -3.288440   -4.046273    2.412644
     45          8           0       -2.944916   -5.766207    0.846320
     46          6           0       -2.472147   -6.656383    1.950696
     47          6           0        3.013857   -2.622293    0.677446
     48          6           0        4.088914   -2.679773   -0.392937
     49          6           0        4.948171   -3.606301   -0.720524
     50          6           0        4.910832   -5.001264   -0.073685
     51          6           0        5.933556   -3.391606   -1.888550
     52          6           0        7.351625   -2.691302   -1.734313
     53          6           0        7.532085   -1.563665   -2.774981
     54          6           0        7.753717   -0.156125   -2.179314
     55          6           0        7.644597    0.991641   -3.201589
     56          6           0        8.935941   -0.047407   -1.267598
     57          6           0       10.264659   -0.438826   -1.972782
     58          6           0       11.218483    0.722023   -1.640569
     59          6           0       11.852096    0.882493   -0.213919
     60          6           0       11.224217    2.169093    0.331898
     61          6           0       13.424297    1.048047   -0.393057
     62          6           0       14.147328    1.109119    1.003936
     63          6           0       14.885606    2.476064    1.153653
     64          6           0       15.608994    2.539371    2.605463
     65          6           0       17.133826    2.784810    2.474983
     66          6           0       14.856359    3.598023    3.484664
     67          1           0       -1.221727    2.382538   -0.429810
     68          1           0       -6.992791    5.104501    0.211373
     69          1           0       -9.796673   -0.831019    0.212126
     70          1           0       -1.401918   -2.219704    0.801768
     71          1           0       -0.655821   -0.100236   -1.085300
     72          1           0        0.905902    0.176385    0.586738
     73          1           0       -0.060213   -0.735842    1.745594
     74          1           0       -0.367629    1.021581    1.458640
     75          1           0       -1.176371   -1.818163   -2.097565
     76          1           0       -2.159932   -3.138451   -1.780725
     77          1           0        0.639696   -3.250938   -2.111810
     78          1           0       -0.481199   -4.496324   -1.470771
     79          1           0       -1.623289    6.061030   -0.355976
     80          1           0       -1.709913    5.268581   -1.945794
     81          1           0       -0.985889    4.511119   -0.452327
     82          1           0       -3.183529    7.540389   -1.592998
     83          1           0       -3.000470    7.934653    0.175757
     84          1           0       -4.279868    8.680081   -0.800843
     85          1           0       -9.560778    4.291237    0.173517
     86          1           0      -10.569411    1.731439    0.948716
     87          1           0       -9.675648    2.839069    2.674270
     88          1           0       -9.782809    4.545830    2.354676
     89          1           0       -8.186283    3.774678    2.596873
     90          1           0       -9.769507    1.534049   -1.954485
     91          1           0      -10.198989    3.164271   -1.491580
     92          1           0      -12.186321    1.362111   -2.304026
     93          1           0      -12.317496    2.882441   -1.422740
     94          1           0      -12.168694    1.347696   -0.529807
     95          1           0       -8.796311   -4.421921    0.507826
     96          1           0       -9.734910   -3.043352   -0.252743
     97          1           0       -9.350189   -3.020463    1.456363
     98          1           0       -3.710568   -4.207791   -0.730746
     99          1           0       -1.420305   -6.397585    2.074806
    100          1           0       -2.479318   -7.716249    1.697265
    101          1           0       -2.810234   -6.517170    2.976849
    102          1           0        3.072250   -3.510112    1.306521
    103          1           0        3.011449   -1.698343    1.255563
    104          1           0        4.176427   -1.717530   -0.898972
    105          1           0        5.586705   -5.765155   -0.460437
    106          1           0        3.909285   -5.421206   -0.158186
    107          1           0        5.112047   -4.993877    0.998373
    108          1           0        5.331595   -2.977822   -2.697815
    109          1           0        6.095012   -4.387735   -2.299754
    110          1           0        8.033447   -3.509937   -1.963680
    111          1           0        7.510825   -2.419320   -0.691215
    112          1           0        6.707660   -1.514730   -3.486194
    113          1           0        8.364508   -1.835506   -3.423838
    114          1           0        6.847749   -0.132825   -1.574152
    115          1           0        8.486523    1.660847   -3.023053
    116          1           0        6.788302    1.602923   -2.919469
    117          1           0        7.542114    0.626083   -4.223581
    118          1           0        8.856349   -0.800752   -0.483268
    119          1           0        9.002247    0.945521   -0.822702
    120          1           0       10.168835   -0.684737   -3.029578
    121          1           0       10.695751   -1.254597   -1.391229
    122          1           0       10.638890    1.529338   -2.088533
    123          1           0       11.940590    0.579228   -2.443997
    124          1           0       11.479514   -0.005974    0.297257
    125          1           0       11.955162    2.974710    0.402577
    126          1           0       10.906159    1.968146    1.354644
    127          1           0       10.333377    2.519416   -0.190085
    128          1           0       13.566159    1.965305   -0.964672
    129          1           0       13.823512    0.317965   -1.098140
    130          1           0       14.864261    0.295134    1.111291
    131          1           0       13.455463    1.044028    1.843355
    132          1           0       14.283763    3.353979    0.920205
    133          1           0       15.666417    2.629425    0.408292
    134          1           0       15.530631    1.594179    3.141756
    135          1           0       17.619417    2.044841    3.110135
    136          1           0       17.365010    3.793147    2.818501
    137          1           0       17.455166    2.662201    1.440472
    138          1           0       15.467802    4.450630    3.779264
    139          1           0       14.453009    3.148438    4.391938
    140          1           0       13.994568    4.029622    2.973334
 ---------------------------------------------------------------------
 Rotational constants (GHZ):           0.0426980           0.0093038           0.0079883
 Leave Link  202 at Wed Apr 27 09:10:23 2022, MaxMem= 10066329600 cpu:               1.8 elap:               0.1
 (Enter /sw/apps/gaussian-16.0/g16/l301.exe)
 Standard basis: def2SVP (5D, 7F)
 Ernie: Thresh=  0.10000D-02 Tol=  0.10000D-05 Strict=F.
 There are  1364 symmetry adapted cartesian basis functions of A   symmetry.
 There are  1298 symmetry adapted basis functions of A   symmetry.
  1298 basis functions,  2180 primitive gaussians,  1364 cartesian basis functions
   246 alpha electrons      246 beta electrons
       nuclear repulsion energy      9445.0448136642 Hartrees.
 IExCor= 4639 DFT=T Ex+Corr=wB97XD ExCW=0 ScaHFX=  1.000000
 ScaDFX=  1.000000  1.000000  1.000000  1.000000 ScalE2=  1.000000  1.000000
 IRadAn=      5 IRanWt=     -1 IRanGd=            0 ICorTp=0 IEmpDi=121
 HFx  wShort=  0.000000 wLong=  0.200000 cFull=  0.222036 cShort=  0.000000 cLong=  0.777964
 DFx  wShort=  0.000000 wLong=  0.200000 cFull=  0.000000 cShort=  0.000000 cLong=  1.000000
 NAtoms=  140 NActive=  140 NUniq=  140 SFac= 1.00D+00 NAtFMM=   60 NAOKFM=T Big=T
 Integral buffers will be    131072 words long.
 Raffenetti 1 integral format.
 Two-electron integral symmetry is turned on.
 R6Disp:  Grimme-D2 Dispersion energy=       -0.1345239094 Hartrees.
 Nuclear repulsion after empirical dispersion term =     9444.9102897547 Hartrees.
 Leave Link  301 at Wed Apr 27 09:10:23 2022, MaxMem= 10066329600 cpu:               1.3 elap:               0.1
 (Enter /sw/apps/gaussian-16.0/g16/l302.exe)
 NPDir=0 NMtPBC=     1 NCelOv=     1 NCel=       1 NClECP=     1 NCelD=      1
         NCelK=      1 NCelE2=     1 NClLst=     1 CellRange=     0.0.
 One-electron integrals computed using PRISM.
 One-electron integral symmetry used in STVInt
   1 Symmetry operations used in ECPInt.
 ECPInt:  NShTT=  192510 NPrTT=  683786 LenC2=   91539 LenP2D=  201869.
 LDataN:  DoStor=T MaxTD1= 4 Len=   56
 NBasis=  1298 RedAO= T EigKep=  3.06D-04  NBF=  1298
 NBsUse=  1298 1.00D-06 EigRej= -1.00D+00 NBFU=  1298
 Precomputing XC quadrature grid using
 IXCGrd= 4 IRadAn=           5 IRanWt=          -1 IRanGd=           0 AccXCQ= 0.00D+00.
 Generated NRdTot=       0 NPtTot=           0 NUsed=           0 NTot=          32
 NSgBfM=  1077  1070  1071  1071  1077 MxSgAt=   140 MxSgA2=   137.
 Leave Link  302 at Wed Apr 27 09:10:26 2022, MaxMem= 10066329600 cpu:              82.3 elap:               3.5
 (Enter /sw/apps/gaussian-16.0/g16/l303.exe)
 DipDrv:  MaxL=1.
 Leave Link  303 at Wed Apr 27 09:10:26 2022, MaxMem= 10066329600 cpu:               5.5 elap:               0.3
 (Enter /sw/apps/gaussian-16.0/g16/l308.exe)
 Leave Link  308 at Wed Apr 27 09:10:27 2022, MaxMem= 10066329600 cpu:               8.3 elap:               0.4
 (Enter /sw/apps/gaussian-16.0/g16/l401.exe)
 ExpMin= 3.36D-02 ExpMax= 4.95D+03 ExpMxC= 7.45D+02 IAcc=3 IRadAn=         5 AccDes= 0.00D+00
 Harris functional with IExCor= 4639 and IRadAn=       5 diagonalized for initial guess.
 HarFok:  IExCor= 4639 AccDes= 0.00D+00 IRadAn=         5 IDoV= 1 UseB2=F ITyADJ=14
 ICtDFT=  3500011 ScaDFX=  1.000000  1.000000  1.000000  1.000000
 FoFCou: FMM=F IPFlag=           0 FMFlag=      100000 FMFlg1=        2001
         NFxFlg=           0 DoJE=T BraDBF=F KetDBF=T FulRan=T
         wScrn=  0.000000 ICntrl=       500 IOpCl=  0 I1Cent=   200000004 NGrid=           0
         NMat0=    1 NMatS0=      1 NMatT0=    0 NMatD0=    1 NMtDS0=    0 NMtDT0=    0
 Petite list used in FoFCou.
 Harris En= -2878.01594955819    
 JPrj=0 DoOrth=F DoCkMO=F.
 Leave Link  401 at Wed Apr 27 09:10:33 2022, MaxMem= 10066329600 cpu:             146.1 elap:               6.1
 (Enter /sw/apps/gaussian-16.0/g16/l502.exe)
 Integral symmetry usage will be decided dynamically.
 Closed shell SCF:
 Using DIIS extrapolation, IDIIS=  1040.
 NGot= 10066329600 LenX= 10062561258 LenY= 10060699398
 Requested convergence on RMS density matrix=1.00D-08 within 128 cycles.
 Requested convergence on MAX density matrix=1.00D-06.
 Requested convergence on             energy=1.00D-06.
 No special actions if energy rises.
 Fock matrices will be formed incrementally for  20 cycles.

 Cycle   1  Pass 1  IDiag  1:
 FoFJK:  IHMeth= 1 ICntrl=       0 DoSepK=T KAlg= 0 I1Cent=           0 FoldK=F
 IRaf=         1 NMat=       1 IRICut=       1 DoRegI=T DoRafI=F ISym2E= 0 IDoP0=0 IntGTp=1.
 FoFCou: FMM=T IPFlag=           0 FMFlag=      100000 FMFlg1=        2001
         NFxFlg=           0 DoJE=T BraDBF=F KetDBF=F FulRan=T
         wScrn=  0.000000 ICntrl=       500 IOpCl=  0 I1Cent=           0 NGrid=           0
         NMat0=    1 NMatS0=      1 NMatT0=    0 NMatD0=    1 NMtDS0=    0 NMtDT0=    0
 Symmetry not used in FoFCou.
 FMM levels:  10  Number of levels for PrismC:   9
 E= -3007.10471829871    
 DIIS: error= 3.12D-02 at cycle   1 NSaved=   1.
 NSaved= 1 IEnMin= 1 EnMin= -3007.10471829871     IErMin= 1 ErrMin= 3.12D-02
 ErrMax= 3.12D-02  0.00D+00 EMaxC= 1.00D-01 BMatC= 1.53D+00 BMatP= 1.53D+00
 IDIUse=3 WtCom= 6.88D-01 WtEn= 3.12D-01
 Coeff-Com:  0.100D+01
 Coeff-En:   0.100D+01
 Coeff:      0.100D+01
 Gap=     0.148 Goal=   None    Shift=    0.000
 GapD=    0.148 DampG=1.000 DampE=0.500 DampFc=0.5000 IDamp=-1.
 Damping current iteration by 5.00D-01
 RMSDP=1.58D-03 MaxDP=1.60D-01              OVMax= 2.56D-01

 Cycle   2  Pass 1  IDiag  1:
 RMSU=  7.82D-04    CP:  9.87D-01
 E= -3007.44069461438     Delta-E=       -0.335976315664 Rises=F Damp=T
 DIIS: error= 1.36D-02 at cycle   2 NSaved=   2.
 NSaved= 2 IEnMin= 2 EnMin= -3007.44069461438     IErMin= 2 ErrMin= 1.36D-02
 ErrMax= 1.36D-02  0.00D+00 EMaxC= 1.00D-01 BMatC= 2.92D-01 BMatP= 1.53D+00
 IDIUse=3 WtCom= 8.64D-01 WtEn= 1.36D-01
 Coeff-Com: -0.316D+00 0.132D+01
 Coeff-En:   0.000D+00 0.100D+01
 Coeff:     -0.273D+00 0.127D+01
 Gap=     0.196 Goal=   None    Shift=    0.000
 RMSDP=7.55D-04 MaxDP=8.87D-02 DE=-3.36D-01 OVMax= 2.03D-01

 Cycle   3  Pass 1  IDiag  1:
 RMSU=  7.30D-04    CP:  9.79D-01  1.23D+00
 E= -3007.68569483603     Delta-E=       -0.245000221654 Rises=F Damp=F
 DIIS: error= 1.15D-02 at cycle   3 NSaved=   3.
 NSaved= 3 IEnMin= 3 EnMin= -3007.68569483603     IErMin= 3 ErrMin= 1.15D-02
 ErrMax= 1.15D-02  0.00D+00 EMaxC= 1.00D-01 BMatC= 1.52D-01 BMatP= 2.92D-01
 IDIUse=3 WtCom= 8.85D-01 WtEn= 1.15D-01
 Coeff-Com: -0.301D+00 0.678D+00 0.623D+00
 Coeff-En:   0.000D+00 0.000D+00 0.100D+01
 Coeff:     -0.267D+00 0.600D+00 0.666D+00
 Gap=     0.158 Goal=   None    Shift=    0.000
 RMSDP=4.82D-04 MaxDP=4.57D-02 DE=-2.45D-01 OVMax= 1.36D-01

 Cycle   4  Pass 1  IDiag  1:
 RMSU=  2.42D-04    CP:  9.75D-01  1.56D+00  5.53D-01
 E= -3007.80328737399     Delta-E=       -0.117592537959 Rises=F Damp=F
 DIIS: error= 3.74D-03 at cycle   4 NSaved=   4.
 NSaved= 4 IEnMin= 4 EnMin= -3007.80328737399     IErMin= 4 ErrMin= 3.74D-03
 ErrMax= 3.74D-03  0.00D+00 EMaxC= 1.00D-01 BMatC= 2.08D-02 BMatP= 1.52D-01
 IDIUse=3 WtCom= 9.63D-01 WtEn= 3.74D-02
 Coeff-Com: -0.113D+00 0.228D+00 0.362D+00 0.523D+00
 Coeff-En:   0.000D+00 0.000D+00 0.853D-01 0.915D+00
 Coeff:     -0.109D+00 0.219D+00 0.352D+00 0.538D+00
 Gap=     0.156 Goal=   None    Shift=    0.000
 RMSDP=1.46D-04 MaxDP=1.29D-02 DE=-1.18D-01 OVMax= 3.73D-02

 Cycle   5  Pass 1  IDiag  1:
 RMSU=  6.49D-05    CP:  9.75D-01  1.52D+00  6.85D-01  6.65D-01
 E= -3007.82114378940     Delta-E=       -0.017856415414 Rises=F Damp=F
 DIIS: error= 6.92D-04 at cycle   5 NSaved=   5.
 NSaved= 5 IEnMin= 5 EnMin= -3007.82114378940     IErMin= 5 ErrMin= 6.92D-04
 ErrMax= 6.92D-04  0.00D+00 EMaxC= 1.00D-01 BMatC= 5.29D-04 BMatP= 2.08D-02
 IDIUse=3 WtCom= 9.93D-01 WtEn= 6.92D-03
 Coeff-Com: -0.320D-01 0.608D-01 0.125D+00 0.241D+00 0.605D+00
 Coeff-En:   0.000D+00 0.000D+00 0.000D+00 0.000D+00 0.100D+01
 Coeff:     -0.317D-01 0.604D-01 0.124D+00 0.239D+00 0.608D+00
 Gap=     0.156 Goal=   None    Shift=    0.000
 RMSDP=3.22D-05 MaxDP=7.36D-03 DE=-1.79D-02 OVMax= 7.10D-03

 Cycle   6  Pass 1  IDiag  1:
 RMSU=  2.63D-05    CP:  9.75D-01  1.52D+00  6.86D-01  7.27D-01  8.61D-01
 E= -3007.82157137756     Delta-E=       -0.000427588155 Rises=F Damp=F
 DIIS: error= 2.79D-04 at cycle   6 NSaved=   6.
 NSaved= 6 IEnMin= 6 EnMin= -3007.82157137756     IErMin= 6 ErrMin= 2.79D-04
 ErrMax= 2.79D-04  0.00D+00 EMaxC= 1.00D-01 BMatC= 8.22D-05 BMatP= 5.29D-04
 IDIUse=3 WtCom= 9.97D-01 WtEn= 2.79D-03
 Coeff-Com:  0.945D-02-0.206D-01-0.161D-01-0.268D-03 0.285D+00 0.743D+00
 Coeff-En:   0.000D+00 0.000D+00 0.000D+00 0.000D+00 0.000D+00 0.100D+01
 Coeff:      0.942D-02-0.205D-01-0.161D-01-0.267D-03 0.284D+00 0.743D+00
 Gap=     0.157 Goal=   None    Shift=    0.000
 RMSDP=1.35D-05 MaxDP=1.87D-03 DE=-4.28D-04 OVMax= 5.11D-03

 Cycle   7  Pass 1  IDiag  1:
 RMSU=  9.14D-06    CP:  9.74D-01  1.53D+00  6.91D-01  7.40D-01  9.85D-01
                    CP:  9.02D-01
 E= -3007.82167006746     Delta-E=       -0.000098689901 Rises=F Damp=F
 DIIS: error= 6.53D-05 at cycle   7 NSaved=   7.
 NSaved= 7 IEnMin= 7 EnMin= -3007.82167006746     IErMin= 7 ErrMin= 6.53D-05
 ErrMax= 6.53D-05  0.00D+00 EMaxC= 1.00D-01 BMatC= 8.83D-06 BMatP= 8.22D-05
 IDIUse=1 WtCom= 1.00D+00 WtEn= 0.00D+00
 Coeff-Com:  0.668D-02-0.136D-01-0.172D-01-0.235D-01 0.503D-01 0.306D+00
 Coeff-Com:  0.692D+00
 Coeff:      0.668D-02-0.136D-01-0.172D-01-0.235D-01 0.503D-01 0.306D+00
 Coeff:      0.692D+00
 Gap=     0.157 Goal=   None    Shift=    0.000
 RMSDP=6.09D-06 MaxDP=1.38D-03 DE=-9.87D-05 OVMax= 1.94D-03

 Cycle   8  Pass 1  IDiag  1:
 RMSU=  4.01D-06    CP:  9.74D-01  1.53D+00  6.92D-01  7.49D-01  1.00D+00
                    CP:  1.05D+00  1.03D+00
 E= -3007.82168325108     Delta-E=       -0.000013183620 Rises=F Damp=F
 DIIS: error= 2.81D-05 at cycle   8 NSaved=   8.
 NSaved= 8 IEnMin= 8 EnMin= -3007.82168325108     IErMin= 8 ErrMin= 2.81D-05
 ErrMax= 2.81D-05  0.00D+00 EMaxC= 1.00D-01 BMatC= 1.83D-06 BMatP= 8.83D-06
 IDIUse=1 WtCom= 1.00D+00 WtEn= 0.00D+00
 Coeff-Com:  0.163D-02-0.303D-02-0.560D-02-0.124D-01-0.323D-01 0.940D-02
 Coeff-Com:  0.329D+00 0.713D+00
 Coeff:      0.163D-02-0.303D-02-0.560D-02-0.124D-01-0.323D-01 0.940D-02
 Coeff:      0.329D+00 0.713D+00
 Gap=     0.157 Goal=   None    Shift=    0.000
 RMSDP=2.67D-06 MaxDP=2.43D-04 DE=-1.32D-05 OVMax= 1.16D-03

 Cycle   9  Pass 1  IDiag  1:
 RMSU=  1.59D-06    CP:  9.74D-01  1.53D+00  6.92D-01  7.50D-01  1.02D+00
                    CP:  1.08D+00  1.20D+00  1.09D+00
 E= -3007.82168689820     Delta-E=       -0.000003647119 Rises=F Damp=F
 DIIS: error= 1.08D-05 at cycle   9 NSaved=   9.
 NSaved= 9 IEnMin= 9 EnMin= -3007.82168689820     IErMin= 9 ErrMin= 1.08D-05
 ErrMax= 1.08D-05  0.00D+00 EMaxC= 1.00D-01 BMatC= 2.86D-07 BMatP= 1.83D-06
 IDIUse=1 WtCom= 1.00D+00 WtEn= 0.00D+00
 Coeff-Com: -0.459D-03 0.103D-02 0.704D-03-0.126D-02-0.221D-01-0.453D-01
 Coeff-Com:  0.216D-01 0.288D+00 0.758D+00
 Coeff:     -0.459D-03 0.103D-02 0.704D-03-0.126D-02-0.221D-01-0.453D-01
 Coeff:      0.216D-01 0.288D+00 0.758D+00
 Gap=     0.157 Goal=   None    Shift=    0.000
 RMSDP=1.63D-06 MaxDP=2.16D-04 DE=-3.65D-06 OVMax= 7.02D-04

 Cycle  10  Pass 1  IDiag  1:
 RMSU=  7.73D-07    CP:  9.74D-01  1.53D+00  6.92D-01  7.52D-01  1.02D+00
                    CP:  1.11D+00  1.27D+00  1.34D+00  1.19D+00
 E= -3007.82168776050     Delta-E=       -0.000000862303 Rises=F Damp=F
 DIIS: error= 7.89D-06 at cycle  10 NSaved=  10.
 NSaved=10 IEnMin=10 EnMin= -3007.82168776050     IErMin=10 ErrMin= 7.89D-06
 ErrMax= 7.89D-06  0.00D+00 EMaxC= 1.00D-01 BMatC= 6.52D-08 BMatP= 2.86D-07
 IDIUse=1 WtCom= 1.00D+00 WtEn= 0.00D+00
 Coeff-Com: -0.632D-03 0.125D-02 0.182D-02 0.265D-02-0.145D-02-0.222D-01
 Coeff-Com: -0.760D-01-0.554D-01 0.303D+00 0.846D+00
 Coeff:     -0.632D-03 0.125D-02 0.182D-02 0.265D-02-0.145D-02-0.222D-01
 Coeff:     -0.760D-01-0.554D-01 0.303D+00 0.846D+00
 Gap=     0.157 Goal=   None    Shift=    0.000
 RMSDP=9.81D-07 MaxDP=8.72D-05 DE=-8.62D-07 OVMax= 4.60D-04

 Cycle  11  Pass 1  IDiag  1:
 RMSU=  3.93D-07    CP:  9.74D-01  1.53D+00  6.92D-01  7.52D-01  1.02D+00
                    CP:  1.12D+00  1.31D+00  1.46D+00  1.51D+00  1.29D+00
 E= -3007.82168808861     Delta-E=       -0.000000328107 Rises=F Damp=F
 DIIS: error= 4.60D-06 at cycle  11 NSaved=  11.
 NSaved=11 IEnMin=11 EnMin= -3007.82168808861     IErMin=11 ErrMin= 4.60D-06
 ErrMax= 4.60D-06  0.00D+00 EMaxC= 1.00D-01 BMatC= 2.08D-08 BMatP= 6.52D-08
 IDIUse=1 WtCom= 1.00D+00 WtEn= 0.00D+00
 Coeff-Com: -0.179D-03 0.337D-03 0.653D-03 0.135D-02 0.346D-02-0.672D-03
 Coeff-Com: -0.362D-01-0.743D-01-0.314D-01 0.385D+00 0.752D+00
 Coeff:     -0.179D-03 0.337D-03 0.653D-03 0.135D-02 0.346D-02-0.672D-03
 Coeff:     -0.362D-01-0.743D-01-0.314D-01 0.385D+00 0.752D+00
 Gap=     0.157 Goal=   None    Shift=    0.000
 RMSDP=5.24D-07 MaxDP=3.59D-05 DE=-3.28D-07 OVMax= 2.60D-04

 Cycle  12  Pass 1  IDiag  1:
 RMSU=  1.97D-07    CP:  9.74D-01  1.53D+00  6.92D-01  7.52D-01  1.02D+00
                    CP:  1.13D+00  1.32D+00  1.53D+00  1.64D+00  1.62D+00
                    CP:  1.33D+00
 E= -3007.82168819747     Delta-E=       -0.000000108861 Rises=F Damp=F
 DIIS: error= 2.58D-06 at cycle  12 NSaved=  12.
 NSaved=12 IEnMin=12 EnMin= -3007.82168819747     IErMin=12 ErrMin= 2.58D-06
 ErrMax= 2.58D-06  0.00D+00 EMaxC= 1.00D-01 BMatC= 6.26D-09 BMatP= 2.08D-08
 IDIUse=1 WtCom= 1.00D+00 WtEn= 0.00D+00
 Coeff-Com:  0.141D-03-0.284D-03-0.349D-03-0.412D-03 0.133D-02 0.648D-02
 Coeff-Com:  0.140D-01 0.918D-03-0.116D+00-0.168D+00 0.218D+00 0.104D+01
 Coeff:      0.141D-03-0.284D-03-0.349D-03-0.412D-03 0.133D-02 0.648D-02
 Coeff:      0.140D-01 0.918D-03-0.116D+00-0.168D+00 0.218D+00 0.104D+01
 Gap=     0.157 Goal=   None    Shift=    0.000
 RMSDP=4.54D-07 MaxDP=3.25D-05 DE=-1.09D-07 OVMax= 2.56D-04

 Cycle  13  Pass 1  IDiag  1:
 RMSU=  1.17D-07    CP:  9.74D-01  1.53D+00  6.92D-01  7.52D-01  1.02D+00
                    CP:  1.13D+00  1.33D+00  1.58D+00  1.74D+00  1.91D+00
                    CP:  1.91D+00  1.69D+00
 E= -3007.82168826040     Delta-E=       -0.000000062930 Rises=F Damp=F
 DIIS: error= 1.27D-06 at cycle  13 NSaved=  13.
 NSaved=13 IEnMin=13 EnMin= -3007.82168826040     IErMin=13 ErrMin= 1.27D-06
 ErrMax= 1.27D-06  0.00D+00 EMaxC= 1.00D-01 BMatC= 1.98D-09 BMatP= 6.26D-09
 IDIUse=1 WtCom= 1.00D+00 WtEn= 0.00D+00
 Coeff-Com:  0.142D-03-0.278D-03-0.428D-03-0.759D-03-0.855D-03 0.280D-02
 Coeff-Com:  0.218D-01 0.343D-01-0.343D-01-0.233D+00-0.207D+00 0.378D+00
 Coeff-Com:  0.104D+01
 Coeff:      0.142D-03-0.278D-03-0.428D-03-0.759D-03-0.855D-03 0.280D-02
 Coeff:      0.218D-01 0.343D-01-0.343D-01-0.233D+00-0.207D+00 0.378D+00
 Coeff:      0.104D+01
 Gap=     0.157 Goal=   None    Shift=    0.000
 RMSDP=3.32D-07 MaxDP=2.44D-05 DE=-6.29D-08 OVMax= 2.15D-04

 Cycle  14  Pass 1  IDiag  1:
 RMSU=  7.03D-08    CP:  9.74D-01  1.53D+00  6.92D-01  7.52D-01  1.02D+00
                    CP:  1.13D+00  1.33D+00  1.60D+00  1.81D+00  2.11D+00
                    CP:  2.39D+00  2.41D+00  1.47D+00
 E= -3007.82168828570     Delta-E=       -0.000000025302 Rises=F Damp=F
 DIIS: error= 7.61D-07 at cycle  14 NSaved=  14.
 NSaved=14 IEnMin=14 EnMin= -3007.82168828570     IErMin=14 ErrMin= 7.61D-07
 ErrMax= 7.61D-07  0.00D+00 EMaxC= 1.00D-01 BMatC= 6.10D-10 BMatP= 1.98D-09
 IDIUse=1 WtCom= 1.00D+00 WtEn= 0.00D+00
 Coeff-Com:  0.157D-04-0.283D-04-0.597D-04-0.167D-03-0.611D-03-0.823D-03
 Coeff-Com:  0.419D-02 0.119D-01 0.155D-01-0.461D-01-0.118D+00-0.167D+00
 Coeff-Com:  0.405D+00 0.896D+00
 Coeff:      0.157D-04-0.283D-04-0.597D-04-0.167D-03-0.611D-03-0.823D-03
 Coeff:      0.419D-02 0.119D-01 0.155D-01-0.461D-01-0.118D+00-0.167D+00
 Coeff:      0.405D+00 0.896D+00
 Gap=     0.157 Goal=   None    Shift=    0.000
 RMSDP=1.61D-07 MaxDP=1.25D-05 DE=-2.53D-08 OVMax= 9.48D-05

 Cycle  15  Pass 1  IDiag  1:
 RMSU=  3.47D-08    CP:  9.74D-01  1.53D+00  6.92D-01  7.53D-01  1.02D+00
                    CP:  1.13D+00  1.34D+00  1.61D+00  1.84D+00  2.20D+00
                    CP:  2.60D+00  2.74D+00  1.94D+00  1.23D+00
 E= -3007.82168829054     Delta-E=       -0.000000004837 Rises=F Damp=F
 DIIS: error= 2.83D-07 at cycle  15 NSaved=  15.
 NSaved=15 IEnMin=15 EnMin= -3007.82168829054     IErMin=15 ErrMin= 2.83D-07
 ErrMax= 2.83D-07  0.00D+00 EMaxC= 1.00D-01 BMatC= 1.98D-10 BMatP= 6.10D-10
 IDIUse=1 WtCom= 1.00D+00 WtEn= 0.00D+00
 Coeff-Com: -0.355D-04 0.709D-04 0.104D-03 0.143D-03-0.551D-04-0.138D-02
 Coeff-Com: -0.445D-02-0.470D-02 0.194D-01 0.471D-01 0.107D-01-0.210D+00
 Coeff-Com: -0.101D+00 0.473D+00 0.771D+00
 Coeff:     -0.355D-04 0.709D-04 0.104D-03 0.143D-03-0.551D-04-0.138D-02
 Coeff:     -0.445D-02-0.470D-02 0.194D-01 0.471D-01 0.107D-01-0.210D+00
 Coeff:     -0.101D+00 0.473D+00 0.771D+00
 Gap=     0.157 Goal=   None    Shift=    0.000
 RMSDP=6.01D-08 MaxDP=4.62D-06 DE=-4.84D-09 OVMax= 3.84D-05

 Cycle  16  Pass 1  IDiag  1:
 RMSU=  1.69D-08    CP:  9.74D-01  1.53D+00  6.92D-01  7.53D-01  1.02D+00
                    CP:  1.13D+00  1.34D+00  1.61D+00  1.85D+00  2.22D+00
                    CP:  2.68D+00  2.88D+00  2.12D+00  1.54D+00  1.11D+00
 E= -3007.82168829146     Delta-E=       -0.000000000920 Rises=F Damp=F
 DIIS: error= 1.45D-07 at cycle  16 NSaved=  16.
 NSaved=16 IEnMin=16 EnMin= -3007.82168829146     IErMin=16 ErrMin= 1.45D-07
 ErrMax= 1.45D-07  0.00D+00 EMaxC= 1.00D-01 BMatC= 2.65D-11 BMatP= 1.98D-10
 IDIUse=1 WtCom= 1.00D+00 WtEn= 0.00D+00
 Coeff-Com: -0.152D-04 0.296D-04 0.486D-04 0.759D-04 0.887D-04-0.369D-03
 Coeff-Com: -0.217D-02-0.399D-02 0.500D-02 0.239D-01 0.259D-01-0.523D-01
 Coeff-Com: -0.106D+00 0.315D-01 0.257D+00 0.821D+00
 Coeff:     -0.152D-04 0.296D-04 0.486D-04 0.759D-04 0.887D-04-0.369D-03
 Coeff:     -0.217D-02-0.399D-02 0.500D-02 0.239D-01 0.259D-01-0.523D-01
 Coeff:     -0.106D+00 0.315D-01 0.257D+00 0.821D+00
 Gap=     0.157 Goal=   None    Shift=    0.000
 RMSDP=2.00D-08 MaxDP=1.55D-06 DE=-9.20D-10 OVMax= 1.24D-05

 Cycle  17  Pass 1  IDiag  1:
 RMSU=  8.07D-09    CP:  9.74D-01  1.53D+00  6.92D-01  7.53D-01  1.02D+00
                    CP:  1.13D+00  1.34D+00  1.62D+00  1.85D+00  2.23D+00
                    CP:  2.70D+00  2.92D+00  2.18D+00  1.64D+00  1.33D+00
                    CP:  1.27D+00
 E= -3007.82168829138     Delta-E=        0.000000000080 Rises=F Damp=F
 DIIS: error= 8.99D-08 at cycle  17 NSaved=  17.
 NSaved=17 IEnMin=16 EnMin= -3007.82168829146     IErMin=17 ErrMin= 8.99D-08
 ErrMax= 8.99D-08  0.00D+00 EMaxC= 1.00D-01 BMatC= 8.54D-12 BMatP= 2.65D-11
 IDIUse=1 WtCom= 1.00D+00 WtEn= 0.00D+00
 Coeff-Com:  0.184D-05-0.395D-05-0.284D-05-0.340D-05 0.537D-04 0.146D-03
 Coeff-Com:  0.223D-03-0.718D-03-0.178D-02-0.145D-02 0.826D-02 0.233D-01
 Coeff-Com: -0.170D-01-0.797D-01-0.774D-01 0.311D+00 0.835D+00
 Coeff:      0.184D-05-0.395D-05-0.284D-05-0.340D-05 0.537D-04 0.146D-03
 Coeff:      0.223D-03-0.718D-03-0.178D-02-0.145D-02 0.826D-02 0.233D-01
 Coeff:     -0.170D-01-0.797D-01-0.774D-01 0.311D+00 0.835D+00
 Gap=     0.157 Goal=   None    Shift=    0.000
 RMSDP=1.04D-08 MaxDP=7.41D-07 DE= 8.00D-11 OVMax= 7.14D-06

 Cycle  18  Pass 1  IDiag  1:
 RMSU=  4.55D-09    CP:  9.74D-01  1.53D+00  6.92D-01  7.53D-01  1.02D+00
                    CP:  1.13D+00  1.34D+00  1.62D+00  1.85D+00  2.23D+00
                    CP:  2.70D+00  2.92D+00  2.20D+00  1.69D+00  1.46D+00
                    CP:  1.62D+00  1.42D+00
 E= -3007.82168829170     Delta-E=       -0.000000000322 Rises=F Damp=F
 DIIS: error= 7.51D-08 at cycle  18 NSaved=  18.
 NSaved=18 IEnMin=18 EnMin= -3007.82168829170     IErMin=18 ErrMin= 7.51D-08
 ErrMax= 7.51D-08  0.00D+00 EMaxC= 1.00D-01 BMatC= 3.99D-12 BMatP= 8.54D-12
 IDIUse=1 WtCom= 1.00D+00 WtEn= 0.00D+00
 Coeff-Com:  0.556D-05-0.110D-04-0.163D-04-0.266D-04 0.399D-06 0.172D-03
 Coeff-Com:  0.860D-03 0.770D-03-0.230D-02-0.891D-02-0.398D-02 0.272D-01
 Coeff-Com:  0.253D-01-0.455D-01-0.128D+00-0.133D+00 0.388D+00 0.879D+00
 Coeff:      0.556D-05-0.110D-04-0.163D-04-0.266D-04 0.399D-06 0.172D-03
 Coeff:      0.860D-03 0.770D-03-0.230D-02-0.891D-02-0.398D-02 0.272D-01
 Coeff:      0.253D-01-0.455D-01-0.128D+00-0.133D+00 0.388D+00 0.879D+00
 Gap=     0.157 Goal=   None    Shift=    0.000
 RMSDP=9.09D-09 MaxDP=6.89D-07 DE=-3.22D-10 OVMax= 5.91D-06

 SCF Done:  E(RwB97XD) =  -3007.82168829     A.U. after   18 cycles
            NFock= 18  Conv=0.91D-08     -V/T= 2.0110
 KE= 2.975219243499D+03 PE=-2.588275541994D+04 EE= 1.045480419840D+04
 Leave Link  502 at Wed Apr 27 09:17:19 2022, MaxMem= 10066329600 cpu:            9344.3 elap:             405.7
 (Enter /sw/apps/gaussian-16.0/g16/l801.exe)
 DoSCS=F DFT=T ScalE2(SS,OS)=  1.000000  1.000000
 ExpMin= 3.36D-02 ExpMax= 4.95D+03 ExpMxC= 7.45D+02 IAcc=3 IRadAn=         5 AccDes= 0.00D+00
 HarFok:  IExCor=  205 AccDes= 0.00D+00 IRadAn=         5 IDoV=-2 UseB2=F ITyADJ=14
 ICtDFT= 12500011 ScaDFX=  1.000000  1.000000  1.000000  1.000000
 GSVD:  LWork=       -5460 too small for GESVD, short by       25550 words or       25550 for optimal perf.
 Largest valence mixing into a core orbital is  1.58D-04
 Largest core mixing into a valence orbital is  5.72D-05
 Range of M.O.s used for correlation:    71  1298
 NBasis=  1298 NAE=   246 NBE=   246 NFC=    70 NFV=     0
 NROrb=   1228 NOA=   176 NOB=   176 NVA=  1052 NVB=  1052

 **** Warning!!: The largest alpha MO coefficient is  0.10162518D+02

 Leave Link  801 at Wed Apr 27 09:17:19 2022, MaxMem= 10066329600 cpu:               8.6 elap:               0.4
 (Enter /sw/apps/gaussian-16.0/g16/l914.exe)
 RHF ground state
 Two-electron integrals replicated using symmetry.
 MDV= 10066329600 DFT=T DoStab=F Mixed=T DoRPA=T DoScal=F NonHer=T
 Making orbital integer symmetry assigments:
 Orbital symmetries:
       Occupied  (A) (A) (A) (A) (A) (A) (A) (A) (A) (A) (A) (A)
                 (A) (A) (A) (A) (A) (A) (A) (A) (A) (A) (A) (A)
                 (A) (A) (A) (A) (A) (A) (A) (A) (A) (A) (A) (A)
                 (A) (A) (A) (A) (A) (A) (A) (A) (A) (A) (A) (A)
                 (A) (A) (A) (A) (A) (A) (A) (A) (A) (A) (A) (A)
                 (A) (A) (A) (A) (A) (A) (A) (A) (A) (A) (A) (A)
                 (A) (A) (A) (A) (A) (A) (A) (A) (A) (A) (A) (A)
                 (A) (A) (A) (A) (A) (A) (A) (A) (A) (A) (A) (A)
                 (A) (A) (A) (A) (A) (A) (A) (A) (A) (A) (A) (A)
                 (A) (A) (A) (A) (A) (A) (A) (A) (A) (A) (A) (A)
                 (A) (A) (A) (A) (A) (A) (A) (A) (A) (A) (A) (A)
                 (A) (A) (A) (A) (A) (A) (A) (A) (A) (A) (A) (A)
                 (A) (A) (A) (A) (A) (A) (A) (A) (A) (A) (A) (A)
                 (A) (A) (A) (A) (A) (A) (A) (A) (A) (A) (A) (A)
                 (A) (A) (A) (A) (A) (A) (A) (A) (A) (A) (A) (A)
                 (A) (A) (A) (A) (A) (A) (A) (A) (A) (A) (A) (A)
                 (A) (A) (A) (A) (A) (A) (A) (A) (A) (A) (A) (A)
                 (A) (A) (A) (A) (A) (A) (A) (A) (A) (A) (A) (A)
                 (A) (A) (A) (A) (A) (A) (A) (A) (A) (A) (A) (A)
                 (A) (A) (A) (A) (A) (A) (A) (A) (A) (A) (A) (A)
                 (A) (A) (A) (A) (A) (A)
       Virtual   (A) (A) (A) (A) (A) (A) (A) (A) (A) (A) (A) (A)
                 (A) (A) (A) (A) (A) (A) (A) (A) (A) (A) (A) (A)
                 (A) (A) (A) (A) (A) (A) (A) (A) (A) (A) (A) (A)
                 (A) (A) (A) (A) (A) (A) (A) (A) (A) (A) (A) (A)
                 (A) (A) (A) (A) (A) (A) (A) (A) (A) (A) (A) (A)
                 (A) (A) (A) (A) (A) (A) (A) (A) (A) (A) (A) (A)
                 (A) (A) (A) (A) (A) (A) (A) (A) (A) (A) (A) (A)
                 (A) (A) (A) (A) (A) (A) (A) (A) (A) (A) (A) (A)
                 (A) (A) (A) (A) (A) (A) (A) (A) (A) (A) (A) (A)
                 (A) (A) (A) (A) (A) (A) (A) (A) (A) (A) (A) (A)
                 (A) (A) (A) (A) (A) (A) (A) (A) (A) (A) (A) (A)
                 (A) (A) (A) (A) (A) (A) (A) (A) (A) (A) (A) (A)
                 (A) (A) (A) (A) (A) (A) (A) (A) (A) (A) (A) (A)
                 (A) (A) (A) (A) (A) (A) (A) (A) (A) (A) (A) (A)
                 (A) (A) (A) (A) (A) (A) (A) (A) (A) (A) (A) (A)
                 (A) (A) (A) (A) (A) (A) (A) (A) (A) (A) (A) (A)
                 (A) (A) (A) (A) (A) (A) (A) (A) (A) (A) (A) (A)
                 (A) (A) (A) (A) (A) (A) (A) (A) (A) (A) (A) (A)
                 (A) (A) (A) (A) (A) (A) (A) (A) (A) (A) (A) (A)
                 (A) (A) (A) (A) (A) (A) (A) (A) (A) (A) (A) (A)
                 (A) (A) (A) (A) (A) (A) (A) (A) (A) (A) (A) (A)
                 (A) (A) (A) (A) (A) (A) (A) (A) (A) (A) (A) (A)
                 (A) (A) (A) (A) (A) (A) (A) (A) (A) (A) (A) (A)
                 (A) (A) (A) (A) (A) (A) (A) (A) (A) (A) (A) (A)
                 (A) (A) (A) (A) (A) (A) (A) (A) (A) (A) (A) (A)
                 (A) (A) (A) (A) (A) (A) (A) (A) (A) (A) (A) (A)
                 (A) (A) (A) (A) (A) (A) (A) (A) (A) (A) (A) (A)
                 (A) (A) (A) (A) (A) (A) (A) (A) (A) (A) (A) (A)
                 (A) (A) (A) (A) (A) (A) (A) (A) (A) (A) (A) (A)
                 (A) (A) (A) (A) (A) (A) (A) (A) (A) (A) (A) (A)
                 (A) (A) (A) (A) (A) (A) (A) (A) (A) (A) (A) (A)
                 (A) (A) (A) (A) (A) (A) (A) (A) (A) (A) (A) (A)
                 (A) (A) (A) (A) (A) (A) (A) (A) (A) (A) (A) (A)
                 (A) (A) (A) (A) (A) (A) (A) (A) (A) (A) (A) (A)
                 (A) (A) (A) (A) (A) (A) (A) (A) (A) (A) (A) (A)
                 (A) (A) (A) (A) (A) (A) (A) (A) (A) (A) (A) (A)
                 (A) (A) (A) (A) (A) (A) (A) (A) (A) (A) (A) (A)
                 (A) (A) (A) (A) (A) (A) (A) (A) (A) (A) (A) (A)
                 (A) (A) (A) (A) (A) (A) (A) (A) (A) (A) (A) (A)
                 (A) (A) (A) (A) (A) (A) (A) (A) (A) (A) (A) (A)
                 (A) (A) (A) (A) (A) (A) (A) (A) (A) (A) (A) (A)
                 (A) (A) (A) (A) (A) (A) (A) (A) (A) (A) (A) (A)
                 (A) (A) (A) (A) (A) (A) (A) (A) (A) (A) (A) (A)
                 (A) (A) (A) (A) (A) (A) (A) (A) (A) (A) (A) (A)
                 (A) (A) (A) (A) (A) (A) (A) (A) (A) (A) (A) (A)
                 (A) (A) (A) (A) (A) (A) (A) (A) (A) (A) (A) (A)
                 (A) (A) (A) (A) (A) (A) (A) (A) (A) (A) (A) (A)
                 (A) (A) (A) (A) (A) (A) (A) (A) (A) (A) (A) (A)
                 (A) (A) (A) (A) (A) (A) (A) (A) (A) (A) (A) (A)
                 (A) (A) (A) (A) (A) (A) (A) (A) (A) (A) (A) (A)
                 (A) (A) (A) (A) (A) (A) (A) (A) (A) (A) (A) (A)
                 (A) (A) (A) (A) (A) (A) (A) (A) (A) (A) (A) (A)
                 (A) (A) (A) (A) (A) (A) (A) (A) (A) (A) (A) (A)
                 (A) (A) (A) (A) (A) (A) (A) (A) (A) (A) (A) (A)
                 (A) (A) (A) (A) (A) (A) (A) (A) (A) (A) (A) (A)
                 (A) (A) (A) (A) (A) (A) (A) (A) (A) (A) (A) (A)
                 (A) (A) (A) (A) (A) (A) (A) (A) (A) (A) (A) (A)
                 (A) (A) (A) (A) (A) (A) (A) (A) (A) (A) (A) (A)
                 (A) (A) (A) (A) (A) (A) (A) (A) (A) (A) (A) (A)
                 (A) (A) (A) (A) (A) (A) (A) (A) (A) (A) (A) (A)
                 (A) (A) (A) (A) (A) (A) (A) (A) (A) (A) (A) (A)
                 (A) (A) (A) (A) (A) (A) (A) (A) (A) (A) (A) (A)
                 (A) (A) (A) (A) (A) (A) (A) (A) (A) (A) (A) (A)
                 (A) (A) (A) (A) (A) (A) (A) (A) (A) (A) (A) (A)
                 (A) (A) (A) (A) (A) (A) (A) (A) (A) (A) (A) (A)
                 (A) (A) (A) (A) (A) (A) (A) (A) (A) (A) (A) (A)
                 (A) (A) (A) (A) (A) (A) (A) (A) (A) (A) (A) (A)
                 (A) (A) (A) (A) (A) (A) (A) (A) (A) (A) (A) (A)
                 (A) (A) (A) (A) (A) (A) (A) (A) (A) (A) (A) (A)
                 (A) (A) (A) (A) (A) (A) (A) (A) (A) (A) (A) (A)
                 (A) (A) (A) (A) (A) (A) (A) (A) (A) (A) (A) (A)
                 (A) (A) (A) (A) (A) (A) (A) (A) (A) (A) (A) (A)
                 (A) (A) (A) (A) (A) (A) (A) (A) (A) (A) (A) (A)
                 (A) (A) (A) (A) (A) (A) (A) (A) (A) (A) (A) (A)
                 (A) (A) (A) (A) (A) (A) (A) (A) (A) (A) (A) (A)
                 (A) (A) (A) (A) (A) (A) (A) (A) (A) (A) (A) (A)
                 (A) (A) (A) (A) (A) (A) (A) (A) (A) (A) (A) (A)
                 (A) (A) (A) (A) (A) (A) (A) (A) (A) (A) (A) (A)
                 (A) (A) (A) (A) (A) (A) (A) (A) (A) (A) (A) (A)
                 (A) (A) (A) (A) (A) (A) (A) (A) (A) (A) (A) (A)
                 (A) (A) (A) (A) (A) (A) (A) (A) (A) (A) (A) (A)
                 (A) (A) (A) (A) (A) (A) (A) (A) (A) (A) (A) (A)
                 (A) (A) (A) (A) (A) (A) (A) (A) (A) (A) (A) (A)
                 (A) (A) (A) (A) (A) (A) (A) (A) (A) (A) (A) (A)
                 (A) (A) (A) (A) (A) (A) (A) (A) (A) (A) (A) (A)
                 (A) (A) (A) (A) (A) (A) (A) (A) (A) (A) (A) (A)
                 (A) (A) (A) (A) (A) (A) (A) (A) (A) (A) (A) (A)
                 (A) (A) (A) (A) (A) (A) (A) (A)
    20 initial guesses have been made.
 Convergence on wavefunction:    0.001000000000000
 Davidson Disk Diagonalization:  ConvIn= 1.00D-03 SkipCon=T Conv= 1.00D-03.
 Max sub-space:  2000 roots to seek:    20 dimension of matrix:       370304
 Iteration     1 Dimension    20 NMult     0 NNew     20
 CISAX will form    20 AO SS matrices at one time.
 NMat=    20 NSing=    20 JSym2X= 0.
 FoFJK:  IHMeth= 1 ICntrl=       0 DoSepK=T KAlg= 0 I1Cent=           0 FoldK=F
 IRaf=         1 NMat=      40 IRICut=       1 DoRegI=T DoRafI=F ISym2E= 0 IDoP0=3 IntGTp=3.
 FoFCou: FMM=T IPFlag=           0 FMFlag=      100000 FMFlg1=        2001
         NFxFlg=           0 DoJE=F BraDBF=F KetDBF=F FulRan=T
         wScrn=  0.000000 ICntrl=       500 IOpCl=  0 I1Cent=           0 NGrid=           0
         NMat0=   20 NMatS0=     20 NMatT0=    0 NMatD0=   20 NMtDS0=    0 NMtDT0=    0
 Symmetry not used in FoFCou.
 FMM levels:  10  Number of levels for PrismC:   9
 New state      3 was old state      4
 New state      4 was old state      3
 New state      5 was old state      6
 Excitation Energies [eV] at current iteration:
 Root      1 :     2.150336148187809
 Root      2 :     2.621958500376239
 Root      3 :     3.651632826313149
 Root      4 :     4.104936277138487
 Root      5 :     4.245236900437120
 Root      6 :     4.338088696611559
 Root      7 :     4.415447811042347
 Root      8 :     4.481799068802691
 Root      9 :     4.523462845093110
 Root     10 :     4.605147660572792
 Root     11 :     4.629200665757056
 Root     12 :     4.832498831573470
 Root     13 :     5.006532411418281
 Root     14 :     5.099553648431340
 Root     15 :     5.213083671039365
 Root     16 :     5.575095490017681
 Root     17 :     5.883765628315500
 Root     18 :     5.941355276875224
 Root     19 :     6.751714161270330
 Root     20 :     7.247512375008815
 Iteration     2 Dimension    30 NMult    20 NNew     10
 CISAX will form    10 AO SS matrices at one time.
 NMat=    10 NSing=    10 JSym2X= 0.
 Root      1 not converged, maximum delta is    0.076707542127744
 Root      2 not converged, maximum delta is    0.058287441071876
 Root      3 not converged, maximum delta is    0.070162738419532
 Root      4 not converged, maximum delta is    0.141483173304524
 Root      5 not converged, maximum delta is    0.126356102905217
 Excitation Energies [eV] at current iteration:
 Root      1 :     1.639244941950374   Change is   -0.511091206237435
 Root      2 :     2.214082828795225   Change is   -0.407875671581015
 Root      3 :     3.293943357663762   Change is   -0.357689468649387
 Root      4 :     3.573857242214470   Change is   -0.531079034924017
 Root      5 :     3.894489128372815   Change is   -0.350747772064305
 Iteration     3 Dimension    40 NMult    30 NNew     10
 CISAX will form    10 AO SS matrices at one time.
 NMat=    10 NSing=    10 JSym2X= 0.
 Root      1 not converged, maximum delta is    0.014491849816410
 Root      2 not converged, maximum delta is    0.008537215930028
 Root      3 not converged, maximum delta is    0.023318110169571
 Root      4 not converged, maximum delta is    0.104644490190531
 Root      5 not converged, maximum delta is    0.153588552196007
 Excitation Energies [eV] at current iteration:
 Root      1 :     1.603371773112787   Change is   -0.035873168837587
 Root      2 :     2.194039792020960   Change is   -0.020043036774265
 Root      3 :     3.275381474350750   Change is   -0.018561883313012
 Root      4 :     3.493388650709177   Change is   -0.080468591505293
 Root      5 :     3.737868042768093   Change is   -0.156621085604722
 Iteration     4 Dimension    50 NMult    40 NNew     10
 CISAX will form    10 AO SS matrices at one time.
 NMat=    10 NSing=    10 JSym2X= 0.
 Root      1 not converged, maximum delta is    0.003663458818333
 Root      2 not converged, maximum delta is    0.003783499079323
 Root      3 not converged, maximum delta is    0.009956419570116
 Root      4 not converged, maximum delta is    0.032288003823038
 Root      5 not converged, maximum delta is    0.119920080517775
 Excitation Energies [eV] at current iteration:
 Root      1 :     1.599114732041540   Change is   -0.004257041071247
 Root      2 :     2.191347325238649   Change is   -0.002692466782311
 Root      3 :     3.271289320776304   Change is   -0.004092153574446
 Root      4 :     3.481202364450371   Change is   -0.012186286258806
 Root      5 :     3.650779937364543   Change is   -0.087088105403550
 Iteration     5 Dimension    60 NMult    50 NNew     10
 CISAX will form    10 AO SS matrices at one time.
 NMat=    10 NSing=    10 JSym2X= 0.
 Root      1 not converged, maximum delta is    0.001294769672106
 Root      2 has converged.
 Root      3 not converged, maximum delta is    0.002609962041885
 Root      4 not converged, maximum delta is    0.006537624157008
 Root      5 not converged, maximum delta is    0.030170939884149
 Excitation Energies [eV] at current iteration:
 Root      1 :     1.598713112674136   Change is   -0.000401619367404
 Root      2 :     2.191140462119628   Change is   -0.000206863119021
 Root      3 :     3.270758965839495   Change is   -0.000530354936809
 Root      4 :     3.479639855401842   Change is   -0.001562509048528
 Root      5 :     3.637484163201617   Change is   -0.013295774162926
 Iteration     6 Dimension    68 NMult    60 NNew      8
 CISAX will form     8 AO SS matrices at one time.
 NMat=     8 NSing=     8 JSym2X= 0.
 Root      1 has converged.
 Root      2 has converged.
 Root      3 has converged.
 Root      4 not converged, maximum delta is    0.002708579020147
 Root      5 not converged, maximum delta is    0.008088944509829
 Excitation Energies [eV] at current iteration:
 Root      1 :     1.598680183065506   Change is   -0.000032929608630
 Root      2 :     2.191137741770050   Change is   -0.000002720349578
 Root      3 :     3.270694082906676   Change is   -0.000064882932819
 Root      4 :     3.479394846049135   Change is   -0.000245009352707
 Root      5 :     3.635752432233503   Change is   -0.001731730968114
 Iteration     7 Dimension    72 NMult    68 NNew      4
 CISAX will form     4 AO SS matrices at one time.
 NMat=     4 NSing=     4 JSym2X= 0.
 Root      1 has converged.
 Root      2 has converged.
 Root      3 has converged.
 Root      4 not converged, maximum delta is    0.001256422767269
 Root      5 not converged, maximum delta is    0.003131094329821
 Excitation Energies [eV] at current iteration:
 Root      1 :     1.598680156361796   Change is   -0.000000026703710
 Root      2 :     2.191136212939108   Change is   -0.000001528830942
 Root      3 :     3.270692292356067   Change is   -0.000001790550609
 Root      4 :     3.479352622872168   Change is   -0.000042223176968
 Root      5 :     3.635493403101197   Change is   -0.000259029132306
 Iteration     8 Dimension    76 NMult    72 NNew      4
 CISAX will form     4 AO SS matrices at one time.
 NMat=     4 NSing=     4 JSym2X= 0.
 Root      1 has converged.
 Root      2 has converged.
 Root      3 has converged.
 Root      4 has converged.
 Root      5 not converged, maximum delta is    0.001121856932150
 Excitation Energies [eV] at current iteration:
 Root      1 :     1.598680137973762   Change is   -0.000000018388034
 Root      2 :     2.191136129764379   Change is   -0.000000083174729
 Root      3 :     3.270691891772379   Change is   -0.000000400583688
 Root      4 :     3.479346212037732   Change is   -0.000006410834435
 Root      5 :     3.635446767308415   Change is   -0.000046635792782
 Iteration     9 Dimension    78 NMult    76 NNew      2
 CISAX will form     2 AO SS matrices at one time.
 NMat=     2 NSing=     2 JSym2X= 0.
 Root      1 has converged.
 Root      2 has converged.
 Root      3 has converged.
 Root      4 has converged.
 Root      5 has converged.
 Excitation Energies [eV] at current iteration:
 Root      1 :     1.598680123571353   Change is   -0.000000014402409
 Root      2 :     2.191136114755480   Change is   -0.000000015008899
 Root      3 :     3.270691805599073   Change is   -0.000000086173306
 Root      4 :     3.479346153836468   Change is   -0.000000058201265
 Root      5 :     3.635438976285462   Change is   -0.000007791022952
 Convergence achieved on expansion vectors.
 ***********************************************************************
 Excited states from <AA,BB:AA,BB> singles matrix:
 ***********************************************************************
 
 1PDM for each excited state written to RWF  633
 Ground to excited state transition densities written to RWF  633
 Ground to excited state transition electric dipole moments (Au):
       state          X           Y           Z        Dip. S.      Osc.
         1         0.8579      2.9709     -0.1545      9.5864      0.3755
         2        -1.1492      0.4188      0.0161      1.4963      0.0803
         3        -0.2759     -0.1775      0.0396      0.1092      0.0087
         4         2.8842     -0.7919     -0.1782      8.9773      0.7652
         5         0.1057     -0.0026     -0.0508      0.0138      0.0012
 Ground to excited state transition velocity dipole moments (Au):
       state          X           Y           Z        Dip. S.      Osc.
         1        -0.0488     -0.1701      0.0078      0.0314      0.3559
         2         0.0872     -0.0312     -0.0013      0.0086      0.0711
         3         0.0294      0.0209     -0.0048      0.0013      0.0073
         4        -0.3576      0.0990      0.0228      0.1382      0.7205
         5        -0.0154     -0.0001      0.0045      0.0003      0.0013
 Ground to excited state transition magnetic dipole moments (Au):
       state          X           Y           Z
         1         0.0389      0.0497      1.8801
         2        -0.0633     -0.0323     -0.2197
         3        -0.0393      0.1238     -1.0692
         4         0.0990      0.2965     -0.8145
         5        -0.1525     -0.7439     -0.0159
 Ground to excited state transition velocity quadrupole moments (Au):
       state          XX          YY          ZZ          XY          XZ          YZ
         1         1.0982     -0.6086      0.0024      1.6175     -0.0374     -0.0208
         2        -1.6921     -0.0521      0.0114      0.3450      0.0103     -0.0204
         3        -0.4714     -0.0307     -0.0005      0.2212     -0.0244     -0.0090
         4         7.0215     -0.6092      0.0459     -1.6638     -0.2590      0.1656
         5         0.2481      0.0728      0.0172     -0.0393     -0.0271     -0.0283
 <0|del|b> * <b|rxdel|0> + <0|del|b> * <b|delr+rdel|0>
 Rotatory Strengths (R) in cgs (10**-40 erg-esu-cm/Gauss)
       state          XX          YY          ZZ    R(velocity)    E-M Angle
         1        74.0535      6.9215    -30.0996     16.9585       89.27
         2         5.1415    -28.8847    -13.4289    -12.3907      101.41
         3        21.0119     13.9220      3.5002     12.8114       80.41
         4        -4.1162   -208.0746     76.0659    -45.3750       94.35
         5        -0.5052      7.6342      5.2137      4.1142       78.95
 1/2[<0|r|b>*<b|rxdel|0> + (<0|rxdel|b>*<b|r|0>)*]
 Rotatory Strengths (R) in cgs (10**-40 erg-esu-cm/Gauss)
       state          XX          YY          ZZ     R(length)
         1       -23.6149   -104.4510    205.4347     25.7896
         2       -51.4532      9.5638      2.5020    -13.1291
         3        -7.6590     15.5412     29.9323     12.6048
         4      -201.9162    166.0086   -102.6612    -46.1896
         5        11.3968     -1.3660     -0.5703      3.1535
  1/2[<0|del|b>*<b|r|0> + (<0|r|b>*<b|del|0>)*] (Au)
       state          X           Y           Z        Dip. S.   Osc.(frdel)
         1        -0.0419     -0.5052     -0.0012      0.5483      0.3655
         2        -0.1002     -0.0131     -0.0000      0.1133      0.0756
         3        -0.0081     -0.0037     -0.0002      0.0120      0.0080
         4        -1.0313     -0.0784     -0.0041      1.1138      0.7425
         5        -0.0016      0.0000     -0.0002      0.0019      0.0012

 Excitation energies and oscillator strengths:
 
 Excited State   1:      Singlet-A      1.5987 eV  775.54 nm  f=0.3755  <S**2>=0.000
     245 -> 248       -0.17304
     246 -> 247        0.68534
     245 <- 248       -0.11288
 This state for optimization and/or second-order correction.
 Total Energy, E(TD-HF/TD-DFT) =  -3007.76293788    
 Copying the excited state density for this state as the 1-particle RhoCI density.
 
 Excited State   2:      Singlet-A      2.1911 eV  565.84 nm  f=0.0803  <S**2>=0.000
     245 -> 247        0.61974
     246 -> 248        0.31833
 
 Excited State   3:      Singlet-A      3.2707 eV  379.08 nm  f=0.0087  <S**2>=0.000
     244 -> 247        0.66574
     246 -> 248       -0.15181
 
 Excited State   4:      Singlet-A      3.4793 eV  356.34 nm  f=0.7652  <S**2>=0.000
     244 -> 247        0.12501
     245 -> 247       -0.32240
     246 -> 248        0.60336
     245 <- 247        0.11449
 
 Excited State   5:      Singlet-A      3.6354 eV  341.04 nm  f=0.0012  <S**2>=0.000
     243 -> 247        0.53538
     243 -> 249       -0.26038
     243 -> 250        0.32119
 SavETr:  write IOETrn=   770 NScale= 10 NData=  16 NLR=1 NState=    5 LETran=     100.
[...]
 Alpha virt. eigenvalues --    1.24006   1.25106   1.25801   1.25922   1.26192
 Alpha virt. eigenvalues --    1.26661   1.27554   1.27924   1.28342   1.28516
 Alpha virt. eigenvalues --    1.29488   1.29968   1.30223   1.30880   1.31061
 Alpha virt. eigenvalues --    1.31275   1.32089   1.32966   1.33000   1.33240
 Alpha virt. eigenvalues --    1.33361   1.33694   1.34372   1.34608   1.35349
 Alpha virt. eigenvalues --    1.35603   1.36157   1.36558   1.37610   1.37835
 Alpha virt. eigenvalues --    1.38226   1.38623   1.38930   1.39291   1.39795
 Alpha virt. eigenvalues --    1.40239   1.40424   1.41060   1.41147   1.41750
 Alpha virt. eigenvalues --    1.42200   1.42468   1.43012   1.43340   1.43804
 Alpha virt. eigenvalues --    1.44096   1.44463   1.44702   1.45115   1.45591
 Alpha virt. eigenvalues --    1.46182   1.46686   1.47162   1.47210   1.47826
 Alpha virt. eigenvalues --    1.48267   1.48440   1.49091   1.49555   1.49754
 Alpha virt. eigenvalues --    1.49989   1.50304   1.50772   1.51074   1.51253
 Alpha virt. eigenvalues --    1.52310   1.52786   1.53563   1.53623   1.54475
 Alpha virt. eigenvalues --    1.54783   1.55308   1.55449   1.56032   1.56437
 Alpha virt. eigenvalues --    1.56880   1.57367   1.57681   1.58112   1.58164
 Alpha virt. eigenvalues --    1.58459   1.58605   1.58813   1.59243   1.60296
 Alpha virt. eigenvalues --    1.60714   1.61117   1.61452   1.61469   1.61569
 Alpha virt. eigenvalues --    1.61707   1.61863   1.62173   1.62330   1.62468
 Alpha virt. eigenvalues --    1.62773   1.63125   1.63254   1.63381   1.63754
 Alpha virt. eigenvalues --    1.64033   1.64466   1.64506   1.64912   1.65024
 Alpha virt. eigenvalues --    1.65241   1.65572   1.65712   1.66257   1.67159
 Alpha virt. eigenvalues --    1.67242   1.67636   1.68006   1.68222   1.68493
 Alpha virt. eigenvalues --    1.69186   1.69301   1.70327   1.70658   1.71279
 Alpha virt. eigenvalues --    1.71319   1.71568   1.72373   1.72564   1.73014
 Alpha virt. eigenvalues --    1.73106   1.74034   1.74451   1.74547   1.74998
 Alpha virt. eigenvalues --    1.75354   1.76088   1.76366   1.76507   1.76661
 Alpha virt. eigenvalues --    1.76907   1.77618   1.78465   1.78514   1.78701
 Alpha virt. eigenvalues --    1.78967   1.79164   1.79347   1.79780   1.80137
 Alpha virt. eigenvalues --    1.80177   1.80571   1.80699   1.80846   1.80934
 Alpha virt. eigenvalues --    1.81893   1.82135   1.82373   1.82627   1.82889
 Alpha virt. eigenvalues --    1.83015   1.83108   1.83347   1.83481   1.83930
 Alpha virt. eigenvalues --    1.84082   1.84322   1.84525   1.84689   1.84744
 Alpha virt. eigenvalues --    1.85127   1.85535   1.85702   1.85827   1.86039
 Alpha virt. eigenvalues --    1.86185   1.86245   1.86572   1.87123   1.87284
 Alpha virt. eigenvalues --    1.87456   1.87573   1.87592   1.87870   1.88280
 Alpha virt. eigenvalues --    1.88357   1.88508   1.88920   1.89194   1.89321
 Alpha virt. eigenvalues --    1.89390   1.89584   1.89759   1.89821   1.90125
 Alpha virt. eigenvalues --    1.90537   1.90621   1.91007   1.91159   1.91351
 Alpha virt. eigenvalues --    1.91635   1.91826   1.91891   1.92013   1.92316
 Alpha virt. eigenvalues --    1.92472   1.92738   1.92988   1.93041   1.93150
 Alpha virt. eigenvalues --    1.93286   1.93360   1.93600   1.93944   1.94082
 Alpha virt. eigenvalues --    1.94186   1.94382   1.94815   1.94922   1.95218
 Alpha virt. eigenvalues --    1.95229   1.95730   1.95905   1.96344   1.96499
 Alpha virt. eigenvalues --    1.96651   1.96790   1.97071   1.97254   1.97295
 Alpha virt. eigenvalues --    1.97784   1.98006   1.98234   1.98738   1.98980
 Alpha virt. eigenvalues --    1.99039   1.99389   1.99732   1.99843   2.00238
 Alpha virt. eigenvalues --    2.00342   2.00607   2.00985   2.01048   2.01796
 Alpha virt. eigenvalues --    2.02071   2.02146   2.02400   2.02683   2.02888
 Alpha virt. eigenvalues --    2.02973   2.03365   2.03583   2.03926   2.04143
 Alpha virt. eigenvalues --    2.04230   2.04413   2.04905   2.05477   2.05722
 Alpha virt. eigenvalues --    2.05887   2.06446   2.06688   2.06838   2.06879
 Alpha virt. eigenvalues --    2.07174   2.07721   2.07879   2.08993   2.09458
 Alpha virt. eigenvalues --    2.09670   2.09923   2.10055   2.10444   2.10925
 Alpha virt. eigenvalues --    2.11080   2.11249   2.12110   2.12386   2.12455
 Alpha virt. eigenvalues --    2.12517   2.12745   2.13033   2.13279   2.13716
 Alpha virt. eigenvalues --    2.13882   2.14285   2.14585   2.14805   2.15167
 Alpha virt. eigenvalues --    2.15259   2.15696   2.15778   2.16101   2.16198
 Alpha virt. eigenvalues --    2.16433   2.16672   2.16837   2.17339   2.17888
 Alpha virt. eigenvalues --    2.18444   2.18958   2.19106   2.19602   2.19688
 Alpha virt. eigenvalues --    2.19871   2.20159   2.20982   2.21111   2.21429
 Alpha virt. eigenvalues --    2.21756   2.22007   2.22514   2.22696   2.22857
 Alpha virt. eigenvalues --    2.22919   2.23223   2.23566   2.24049   2.24612
 Alpha virt. eigenvalues --    2.24890   2.25042   2.25264   2.25763   2.25997
 Alpha virt. eigenvalues --    2.26083   2.26678   2.27533   2.27740   2.27928
 Alpha virt. eigenvalues --    2.28228   2.29009   2.29813   2.30109   2.30304
 Alpha virt. eigenvalues --    2.30963   2.31048   2.31478   2.31878   2.32823
 Alpha virt. eigenvalues --    2.32878   2.33108   2.33432   2.34244   2.34282
 Alpha virt. eigenvalues --    2.34402   2.34728   2.35130   2.35621   2.35942
 Alpha virt. eigenvalues --    2.36011   2.36035   2.36590   2.37520   2.38274
 Alpha virt. eigenvalues --    2.38407   2.38622   2.38937   2.39113   2.39666
 Alpha virt. eigenvalues --    2.39713   2.40482   2.40754   2.41074   2.41226
 Alpha virt. eigenvalues --    2.42183   2.42225   2.42646   2.43022   2.43122
 Alpha virt. eigenvalues --    2.43744   2.44074   2.44288   2.44433   2.45224
 Alpha virt. eigenvalues --    2.45298   2.46215   2.46488   2.46588   2.47222
 Alpha virt. eigenvalues --    2.47358   2.48013   2.48196   2.48422   2.48980
 Alpha virt. eigenvalues --    2.49143   2.49560   2.49665   2.50237   2.50725
 Alpha virt. eigenvalues --    2.51447   2.52169   2.52263   2.52441   2.52974
 Alpha virt. eigenvalues --    2.52999   2.53477   2.53923   2.54682   2.55395
 Alpha virt. eigenvalues --    2.55575   2.56243   2.56953   2.57269   2.57434
 Alpha virt. eigenvalues --    2.57467   2.58023   2.58317   2.58914   2.59494
 Alpha virt. eigenvalues --    2.59730   2.60264   2.60934   2.61110   2.61789
 Alpha virt. eigenvalues --    2.62172   2.62286   2.62424   2.63066   2.63280
 Alpha virt. eigenvalues --    2.63438   2.63967   2.64414   2.64958   2.65563
 Alpha virt. eigenvalues --    2.66114   2.66244   2.66514   2.66906   2.67054
 Alpha virt. eigenvalues --    2.67344   2.67891   2.67995   2.68833   2.69164
 Alpha virt. eigenvalues --    2.69417   2.69981   2.70799   2.70949   2.71675
 Alpha virt. eigenvalues --    2.71918   2.71992   2.72638   2.72814   2.72907
 Alpha virt. eigenvalues --    2.73120   2.73794   2.73853   2.74350   2.74567
 Alpha virt. eigenvalues --    2.75114   2.75992   2.76337   2.76388   2.76874
 Alpha virt. eigenvalues --    2.77530   2.77802   2.78113   2.78549   2.78714
 Alpha virt. eigenvalues --    2.79161   2.79526   2.80275   2.80362   2.80486
 Alpha virt. eigenvalues --    2.81324   2.81992   2.82231   2.83042   2.83077
 Alpha virt. eigenvalues --    2.83408   2.83637   2.84023   2.84573   2.85265
 Alpha virt. eigenvalues --    2.85765   2.86506   2.86947   2.88011   2.88393
 Alpha virt. eigenvalues --    2.88647   2.89361   2.89838   2.90557   2.91171
 Alpha virt. eigenvalues --    2.91614   2.91631   2.92894   2.93184   2.93388
 Alpha virt. eigenvalues --    2.93559   2.93773   2.94179   2.94513   2.95150
 Alpha virt. eigenvalues --    2.95325   2.97355   2.97609   2.97819   2.97961
 Alpha virt. eigenvalues --    2.98574   2.98684   2.98719   2.98934   2.99769
 Alpha virt. eigenvalues --    3.00044   3.00158   3.00461   3.00747   3.01623
 Alpha virt. eigenvalues --    3.01722   3.01986   3.02062   3.02629   3.02641
 Alpha virt. eigenvalues --    3.03009   3.03099   3.03122   3.03334   3.03443
 Alpha virt. eigenvalues --    3.04495   3.04676   3.04969   3.05071   3.05306
 Alpha virt. eigenvalues --    3.05562   3.05746   3.05847   3.06249   3.06322
 Alpha virt. eigenvalues --    3.06501   3.06901   3.06956   3.07427   3.07639
 Alpha virt. eigenvalues --    3.08021   3.08501   3.08586   3.09257   3.09517
 Alpha virt. eigenvalues --    3.09638   3.10582   3.10712   3.10841   3.11178
 Alpha virt. eigenvalues --    3.11901   3.11928   3.12576   3.12600   3.13251
 Alpha virt. eigenvalues --    3.13354   3.13505   3.14563   3.14732   3.14835
 Alpha virt. eigenvalues --    3.15631   3.16449   3.16714   3.16778   3.17380
 Alpha virt. eigenvalues --    3.18659   3.19836   3.20850   3.21491   3.22267
 Alpha virt. eigenvalues --    3.22482   3.22780   3.22975   3.24479   3.25995
 Alpha virt. eigenvalues --    3.26543   3.27477   3.28104   3.30095   3.32685
 Alpha virt. eigenvalues --    3.36105   3.37277   3.40249   3.42185   3.45817
 Alpha virt. eigenvalues --    3.46133   3.48592   3.51135   3.53928   3.56390
 Alpha virt. eigenvalues --    3.65278   3.65683   3.66250   3.67732   3.73033
 Alpha virt. eigenvalues --    3.73796   3.75277
          Condensed to atoms (all electrons):
 Mulliken charges:
               1
     1  Mg   0.961708
     2  C    0.004872
     3  C   -0.082344
     4  C   -0.059569
     5  C   -0.068685
     6  N   -0.392602
     7  C    0.036477
     8  C   -0.076016
     9  C   -0.090541
    10  C    0.028640
    11  C    0.039907
    12  C   -0.002923
    13  C    0.025986
    14  C    0.195962
    15  O   -0.224464
    16  O   -0.395085
    17  N   -0.440196
    18  C    0.143503
    19  C   -0.181235
    20  C   -0.034354
    21  C    0.113700
    22  C    0.069536
    23  C    0.064394
    24  O   -0.272028
    25  C   -0.008207
    26  N   -0.362090
    27  C    0.063975
    28  C   -0.133666
    29  C   -0.060865
    30  C    0.042279
    31  C    0.038381
    32  C    0.017971
    33  C   -0.033192
    34  N   -0.404997
    35  C    0.108328
    36  C   -0.221026
    37  C   -0.033365
    38  C    0.116047
    39  C    0.065722
    40  C    0.130434
    41  O   -0.209213
    42  C   -0.050147
    43  C    0.271828
    44  O   -0.234174
    45  O   -0.391678
    46  C    0.141398
    47  C    0.268421
    48  C   -0.139975
    49  C   -0.185797
    50  C   -0.007696
    51  C    0.015397
    52  C   -0.000979
    53  C    0.003085
    54  C   -0.181858
    55  C    0.028369
    56  C    0.008650
    57  C   -0.060733
    58  C   -0.014399
    59  C   -0.147872
    60  C    0.009033
    61  C    0.019804
    62  C   -0.004820
    63  C   -0.026800
    64  C   -0.227126
    65  C    0.008732
    66  C   -0.007395
    67  H   -0.012215
    68  H    0.024558
    69  H   -0.001647
    70  H    0.058814
    71  H    0.039470
    72  H    0.036735
    73  H    0.046118
    74  H    0.038696
    75  H    0.018611
    76  H    0.030616
    77  H    0.058372
    78  H    0.060345
    79  H    0.028863
    80  H    0.069845
    81  H    0.040909
    82  H    0.055848
    83  H    0.074615
    84  H    0.061394
    85  H    0.039493
    86  H    0.030670
    87  H    0.028566
    88  H    0.039347
    89  H    0.055265
    90  H    0.050294
    91  H    0.020559
    92  H    0.042603
    93  H    0.035680
    94  H    0.027705
    95  H    0.059328
    96  H    0.041583
    97  H    0.049110
    98  H    0.068232
    99  H    0.043717
   100  H    0.058423
   101  H    0.058501
   102  H    0.055671
   103  H    0.039722
   104  H    0.015544
   105  H    0.032461
   106  H    0.053653
   107  H    0.046511
   108  H    0.027068
   109  H    0.007942
   110  H    0.028913
   111  H    0.037768
   112  H    0.016545
   113  H    0.006872
   114  H    0.008235
   115  H    0.019134
   116  H    0.025730
   117  H    0.035357
   118  H    0.007372
   119  H    0.019498
   120  H    0.035743
   121  H    0.011627
   122  H   -0.004841
   123  H   -0.010241
   124  H    0.023360
   125  H    0.023383
   126  H    0.021014
   127  H    0.040913
   128  H    0.018027
   129  H    0.024317
   130  H    0.032420
   131  H    0.029606
   132  H    0.016770
   133  H    0.006269
   134  H    0.029945
   135  H    0.032147
   136  H    0.026794
   137  H    0.029849
   138  H    0.023612
   139  H    0.028364
   140  H    0.023479
 Sum of Mulliken charges =  -0.00000
 Mulliken charges with hydrogens summed into heavy atoms:
               1
     1  Mg   0.961708
     2  C    0.004872
     3  C   -0.094558
     4  C   -0.035012
     5  C   -0.070332
     6  N   -0.392602
     7  C    0.036477
     8  C   -0.017202
     9  C   -0.051071
    10  C    0.028640
    11  C    0.161457
    12  C    0.046304
    13  C    0.144702
    14  C    0.195962
    15  O   -0.224464
    16  O   -0.395085
    17  N   -0.440196
    18  C    0.143503
    19  C   -0.181235
    20  C   -0.034354
    21  C    0.113700
    22  C    0.209153
    23  C    0.064394
    24  O   -0.272028
    25  C    0.183649
    26  N   -0.362090
    27  C    0.063975
    28  C   -0.094173
    29  C   -0.030195
    30  C    0.042279
    31  C    0.161559
    32  C    0.088824
    33  C    0.072795
    34  N   -0.404997
    35  C    0.108328
    36  C   -0.221026
    37  C   -0.033365
    38  C    0.116047
    39  C    0.215743
    40  C    0.130434
    41  O   -0.209213
    42  C    0.018086
    43  C    0.271828
    44  O   -0.234174
    45  O   -0.391678
    46  C    0.302038
    47  C    0.363814
    48  C   -0.124431
    49  C   -0.185797
    50  C    0.124930
    51  C    0.050408
    52  C    0.065701
    53  C    0.026502
    54  C   -0.173623
    55  C    0.108589
    56  C    0.035520
    57  C   -0.013362
    58  C   -0.029481
    59  C   -0.124511
    60  C    0.094343
    61  C    0.062147
    62  C    0.057207
    63  C   -0.003762
    64  C   -0.197181
    65  C    0.097523
    66  C    0.068059
 Electronic spatial extent (au):  <R**2>=         129989.5597
 Charge=              0.0000 electrons
 Dipole moment (field-independent basis, Debye):
    X=              4.5891    Y=              4.0329    Z=             -3.6441  Tot=              7.1136
 Quadrupole moment (field-independent basis, Debye-Ang):
   XX=           -375.9961   YY=           -419.1298   ZZ=           -402.0060
   XY=            -25.9063   XZ=             11.2710   YZ=              1.5615
 Traceless Quadrupole moment (field-independent basis, Debye-Ang):
   XX=             23.0478   YY=            -20.0858   ZZ=             -2.9620
   XY=            -25.9063   XZ=             11.2710   YZ=              1.5615
 Octapole moment (field-independent basis, Debye-Ang**2):
  XXX=           -337.2891  YYY=            -13.1690  ZZZ=             -2.6729  XYY=            295.7878
  XXY=             25.8734  XXZ=            -18.6497  XZZ=              1.6591  YZZ=            -27.1896
  YYZ=            -25.5046  XYZ=             -4.2223
 Hexadecapole moment (field-independent basis, Debye-Ang**3):
 XXXX=        -141255.1541 YYYY=         -27603.8550 ZZZZ=          -4574.5583 XXXY=          -1748.8421
 XXXZ=            174.9342 YYYX=           -102.1972 YYYZ=           -578.6394 ZZZX=             21.8517
 ZZZY=            -77.7036 XXYY=         -30869.5076 XXZZ=         -25245.8141 YYZZ=          -5191.3842
 XXYZ=            -36.5452 YYXZ=             40.4097 ZZXY=           -134.4319
 N-N= 9.444910289755D+03 E-N=-2.588275540406D+04  KE= 2.975219243499D+03
 Leave Link  601 at Wed Apr 27 09:35:29 2022, MaxMem= 10066329600 cpu:              10.5 elap:               0.5
 (Enter /sw/apps/gaussian-16.0/g16/l9999.exe)
 1\1\GINC-BP1-COMPUTE175\SP\RwB97XD TD-FC\def2SVP\C55H74Mg1N4O6\OF15641
 \27-Apr-2022\0\\#p wB97XD/Def2SVP td=(nstates=5)\\step_1101_chromophor
 e_6 TDDFT with wB97XD functional\\0,1\Mg,0,16.866,-2.477,27.317\C,0,16
 .208,-0.32,30.004\C,0,18.511,-4.579,29.372\C,0,17.586,-4.276,24.646\C,
 0,15.067,-0.087,25.213\N,0,17.472,-2.276,29.384\C,0,17.006,-1.387,30.3
 21\C,0,17.445,-1.804,31.789\C,0,18.307,-3.145,31.562\C,0,18.084,-3.384
 ,30.042\C,0,19.783,-3.131,31.969\C,0,16.317,-2.029,32.884\C,0,16.555,-
 1.797,34.407\C,0,18.047,-1.39,34.905\O,0,18.436,-0.281,35.163\O,0,18.7
 92,-2.569,35.075\N,0,17.957,-4.166,27.032\C,0,18.507,-4.936,27.954\C,0
 ,18.944,-6.216,27.366\C,0,18.794,-6.103,26.007\C,0,18.109,-4.807,25.83
 2\C,0,19.434,-7.329,28.207\C,0,19.195,-7.119,24.893\O,0,19.077,-6.829,
 23.657\C,0,19.759,-8.506,25.169\N,0,16.373,-2.153,25.251\C,0,16.94,-3.
 027,24.372\C,0,16.636,-2.534,22.849\C,0,15.452,-1.557,23.098\C,0,15.62
 3,-1.215,24.53\C,0,17.928,-1.877,22.39\C,0,14.041,-2.213,22.951\C,0,13
 .16,-1.606,21.904\N,0,15.945,-0.548,27.573\C,0,15.221,0.176,26.653\C,0
 ,14.649,1.278,27.364\C,0,15.04,1.19,28.709\C,0,15.674,-0.035,28.8\C,0,
 13.98,2.33,26.716\C,0,14.972,1.764,30.055\O,0,14.447,2.82,30.417\C,0,1
 5.731,0.811,30.947\C,0,16.756,1.585,31.74\O,0,17.87,1.873,31.339\O,0,1
 6.111,2.149,32.875\C,0,16.872,3.261,33.523\C,0,19.907,-2.439,36.031\C,
 0,19.518,-3.386,37.152\C,0,19.293,-3.191,38.423\C,0,19.26,-1.776,39.02
 5\C,0,18.889,-4.363,39.342\C,0,19.93,-5.31,40.08\C,0,19.61,-6.799,39.8
 2\C,0,20.729,-7.592,39.11\C,0,20.299,-8.981,38.6\C,0,22.043,-7.588,39.
 827\C,0,21.935,-8.173,41.263\C,0,23.083,-9.195,41.336\C,0,24.579,-8.74
 2,41.475\C,0,25.223,-9.166,40.151\C,0,25.218,-9.534,42.698\C,0,26.693,
 -9.056,42.97\C,0,27.675,-10.256,42.792\C,0,29.195,-9.749,43.052\C,0,29
 .882,-10.556,44.183\C,0,29.962,-9.771,41.684\H,0,19.,-5.255,30.076\H,0
 ,17.918,-4.835,23.769\H,0,14.36,0.596,24.737\H,0,18.141,-1.073,32.198\
 H,0,17.781,-3.98,32.026\H,0,19.943,-3.811,32.806\H,0,20.081,-2.132,32.
 286\H,0,20.384,-3.49,31.133\H,0,16.072,-3.082,32.747\H,0,15.37,-1.566,
 32.606\H,0,16.342,-2.68,35.009\H,0,15.866,-0.988,34.65\H,0,20.286,-7.8
 06,27.723\H,0,18.667,-8.078,28.407\H,0,19.906,-6.937,29.108\H,0,19.147
 ,-9.038,25.896\H,0,20.801,-8.404,25.472\H,0,19.718,-9.045,24.222\H,0,1
 6.401,-3.323,22.135\H,0,15.58,-0.618,22.559\H,0,17.798,-0.796,22.331\H
 ,0,18.147,-2.207,21.375\H,0,18.776,-2.074,23.045\H,0,13.541,-2.391,23.
 903\H,0,14.341,-3.189,22.569\H,0,12.089,-1.586,22.104\H,0,13.319,-2.17
 5,20.988\H,0,13.515,-0.585,21.768\H,0,13.678,3.073,27.454\H,0,13.167,1
 .959,26.091\H,0,14.723,2.763,26.046\H,0,15.093,0.38,31.719\H,0,17.552,
 2.758,34.211\H,0,16.259,3.91,34.148\H,0,17.594,3.856,32.965\H,0,20.098
 ,-1.446,36.437\H,0,20.724,-2.801,35.407\H,0,19.521,-4.418,36.799\H,0,1
 8.966,-1.669,40.07\H,0,18.573,-1.149,38.458\H,0,20.215,-1.252,38.968\H
 ,0,18.123,-4.908,38.79\H,0,18.251,-3.911,40.101\H,0,19.744,-5.076,41.1
 28\H,0,20.944,-4.984,39.85\H,0,18.681,-6.937,39.267\H,0,19.366,-7.262,
 40.776\H,0,20.809,-6.942,38.239\H,0,21.084,-9.683,38.882\H,0,20.368,-8
 .968,37.513\H,0,19.292,-9.246,38.923\H,0,22.347,-6.558,40.016\H,0,22.8
 11,-8.101,39.248\H,0,20.949,-8.549,41.533\H,0,22.286,-7.395,41.942\H,0
 ,22.768,-9.838,40.514\H,0,22.714,-9.801,42.163\H,0,24.478,-7.659,41.55
 5\H,0,25.923,-9.99,40.29\H,0,25.821,-8.327,39.796\H,0,24.531,-9.398,39
 .341\H,0,25.176,-10.589,42.427\H,0,24.555,-9.531,43.564\H,0,26.795,-8.
 649,43.976\H,0,27.025,-8.286,42.274\H,0,27.549,-10.823,41.87\H,0,27.49
 3,-11.071,43.493\H,0,29.227,-8.716,43.397\H,0,30.33,-9.824,44.854\H,0,
 30.65,-11.197,43.75\H,0,29.152,-11.162,44.72\H,0,30.805,-10.461,41.655
 \H,0,30.333,-8.781,41.419\H,0,29.323,-10.068,40.851\\Version=ES64L-G16
 RevA.03\State=1-A\HF=-3007.8216883\RMSD=9.090e-09\PG=C01 [X(C55H74Mg1N
 4O6)]\\@


 Age does not diminish the extreme disappointment of
 having a scoop of ice cream fall from the cone.
 -- Jim Fiebig
 Job cpu time:       0 days  9 hours 51 minutes 54.2 seconds.
 Elapsed time:       0 days  0 hours 25 minutes  6.7 seconds.
 File lengths (MBytes):  RWF=   8929 Int=      0 D2E=      0 Chk=    390 Scr=      1
 Normal termination of Gaussian 16 at Wed Apr 27 09:35:30 2022.
