 Entering Gaussian System, Link 0=g16
 Initial command:
 /sw/apps/gaussian-16.0/g16/l1.exe "/tmp/Gau-39101.inp" -scrdir="/tmp/"
 Entering Link 1 = /sw/apps/gaussian-16.0/g16/l1.exe PID=     39102.
  
 Copyright (c) 1988,1990,1992,1993,1995,1998,2003,2009,2016,
            Gaussian, Inc.  All Rights Reserved.
  
 This is part of the Gaussian(R) 16 program.  It is based on
 the Gaussian(R) 09 system (copyright 2009, Gaussian, Inc.),
 the Gaussian(R) 03 system (copyright 2003, Gaussian, Inc.),
 the Gaussian(R) 98 system (copyright 1998, Gaussian, Inc.),
 the Gaussian(R) 94 system (copyright 1995, Gaussian, Inc.),
 the Gaussian 92(TM) system (copyright 1992, Gaussian, Inc.),
 the Gaussian 90(TM) system (copyright 1990, Gaussian, Inc.),
 the Gaussian 88(TM) system (copyright 1988, Gaussian, Inc.),
 the Gaussian 86(TM) system (copyright 1986, Carnegie Mellon
 University), and the Gaussian 82(TM) system (copyright 1983,
 Carnegie Mellon University). Gaussian is a federally registered
 trademark of Gaussian, Inc.
  
 This software contains proprietary and confidential information,
 including trade secrets, belonging to Gaussian, Inc.
  
 This software is provided under written license and may be
 used, copied, transmitted, or stored only in accord with that
 written license.
  
 The following legend is applicable only to US Government
 contracts under FAR:
  
                    RESTRICTED RIGHTS LEGEND
  
 Use, reproduction and disclosure by the US Government is
 subject to restrictions as set forth in subparagraphs (a)
 and (c) of the Commercial Computer Software - Restricted
 Rights clause in FAR 52.227-19.
  
 Gaussian, Inc.
 340 Quinnipiac St., Bldg. 40, Wallingford CT 06492
  
  
 ---------------------------------------------------------------
 Warning -- This program may not be used in any manner that
 competes with the business of Gaussian, Inc. or will provide
 assistance to any competitor of Gaussian, Inc.  The licensee
 of this program is prohibited from giving any competitor of
 Gaussian, Inc. access to this program.  By using this program,
 the user acknowledges that Gaussian, Inc. is engaged in the
 business of creating and licensing software in the field of
 computational chemistry and represents and warrants to the
 licensee that it is not a competitor of Gaussian, Inc. and that
 it will not use this program in any manner prohibited above.
 ---------------------------------------------------------------
  

 Cite this work as:
 Gaussian 16, Revision A.03,
 M. J. Frisch, G. W. Trucks, H. B. Schlegel, G. E. Scuseria, 
 M. A. Robb, J. R. Cheeseman, G. Scalmani, V. Barone, 
 G. A. Petersson, H. Nakatsuji, X. Li, M. Caricato, A. V. Marenich, 
 J. Bloino, B. G. Janesko, R. Gomperts, B. Mennucci, H. P. Hratchian, 
 J. V. Ortiz, A. F. Izmaylov, J. L. Sonnenberg, D. Williams-Young, 
 F. Ding, F. Lipparini, F. Egidi, J. Goings, B. Peng, A. Petrone, 
 T. Henderson, D. Ranasinghe, V. G. Zakrzewski, J. Gao, N. Rega, 
 G. Zheng, W. Liang, M. Hada, M. Ehara, K. Toyota, R. Fukuda, 
 J. Hasegawa, M. Ishida, T. Nakajima, Y. Honda, O. Kitao, H. Nakai, 
 T. Vreven, K. Throssell, J. A. Montgomery, Jr., J. E. Peralta, 
 F. Ogliaro, M. J. Bearpark, J. J. Heyd, E. N. Brothers, K. N. Kudin, 
 V. N. Staroverov, T. A. Keith, R. Kobayashi, J. Normand, 
 K. Raghavachari, A. P. Rendell, J. C. Burant, S. S. Iyengar, 
 J. Tomasi, M. Cossi, J. M. Millam, M. Klene, C. Adamo, R. Cammi, 
 J. W. Ochterski, R. L. Martin, K. Morokuma, O. Farkas, 
 J. B. Foresman, and D. J. Fox, Gaussian, Inc., Wallingford CT, 2016.
 
 ******************************************
 Gaussian 16:  ES64L-G16RevA.03 25-Dec-2016
                28-Apr-2022 
 ******************************************
 %nproc=24
 Will use up to   24 processors via shared memory.
 %mem=75GB
 ---------------------------------
 #p PBE1PBE/Def2SVP td=(nstates=5)
 ---------------------------------
 1/38=1,172=1/1;
 2/12=2,17=6,18=5,40=1/2;
 3/5=43,7=101,11=9,25=1,30=1,74=-13/1,2,3,8;
 4//1;
 5/5=2,38=5/2;
 8/6=1,10=1,108=5/1;
 9/41=5,42=1,70=2/14;
 6/7=2,8=2,9=2,10=2/1;
 99/5=1,9=1/99;
 Leave Link    1 at Thu Apr 28 02:52:24 2022, MaxMem= 10066329600 cpu:               0.6 elap:               0.0
 (Enter /sw/apps/gaussian-16.0/g16/l101.exe)
 -----------------------------------------------------
 step_1401_chromophore_7 TDDFT with PBE1PBE functional
 -----------------------------------------------------
 Symbolic Z-matrix:
 Charge =  0 Multiplicity = 1
 Mg                    26.5     -0.442     29.118 
 C                     28.129   -0.897     32.123 
 C                     23.53    -0.6       30.871 
 C                     24.771   -0.219     26.172 
 C                     29.259   -1.062     27.371 
 N                     25.948   -0.72      31.223 
 C                     26.801   -0.765     32.312 
 C                     26.116   -0.792     33.706 
 C                     24.574   -0.679     33.25 
 C                     24.673   -0.622     31.69 
 C                     23.682   -1.79      33.848 
 C                     26.491    0.331     34.685 
 C                     25.672    0.38      35.991 
 C                     26.471    0.228     37.27 
 O                     26.873   -0.811     37.772 
 O                     26.381    1.38      38.02 
 N                     24.505   -0.255     28.634 
 C                     23.413   -0.438     29.489 
 C                     22.145   -0.275     28.752 
 C                     22.454    0.016     27.378 
 C                     24.009   -0.157     27.352 
 C                     20.771   -0.439     29.396 
 C                     21.493    0.306     26.195 
 O                     21.851    0.482     25.027 
 C                     20.06     0.349     26.445 
 N                     26.966   -0.757     27.07 
 C                     26.151   -0.399     26.059 
 C                     26.859   -0.236     24.715 
 C                     28.368   -0.4       25.101 
 C                     28.22    -0.696     26.624 
 C                     26.269   -1.366     23.697 
 C                     29.318    0.849     24.911 
 C                     30.762    0.624     24.656 
 N                     28.329   -0.875     29.591 
 C                     29.361   -1.123     28.768 
 C                     30.537   -1.454     29.515 
 C                     30.103   -1.355     30.876 
 C                     28.759   -0.978     30.873 
 C                     31.91    -1.764     28.944 
 C                     30.542   -1.463     32.197 
 O                     31.678   -1.637     32.705 
 C                     29.302   -1.094     33.132 
 C                     29.088   -2.253     34.049 
 O                     28.689   -3.381     33.768 
 O                     29.408   -1.823     35.297 
 C                     29.198   -2.825     36.439 
 C                     26.567    1.278     39.459 
 C                     25.267    1.723     40.116 
 C                     24.816    1.557     41.366 
 C                     25.57     0.794     42.483 
 C                     23.497    2.152     41.826 
 C                     23.625    3.405     42.756 
 C                     22.958    3.126     44.078 
 C                     23.804    3.322     45.399 
 C                     24.152    1.994     46.022 
 C                     23.022    4.173     46.431 
 C                     23.225    5.657     45.975 
 C                     22.194    6.645     46.661 
 C                     23.035    7.77      47.596 
 C                     22.783    7.466     49.096 
 C                     22.518    9.2       47.268 
 C                     23.707    10.141    46.88 
 C                     23.437    11.061    45.696 
 C                     24.546    12.204    45.64 
 C                     23.892    13.644    45.921 
 C                     25.258    12.292    44.311 
 H                     22.62    -0.583     31.474 
 H                     24.158   -0.162     25.27 
 H                     30.202   -1.203     26.839 
 H                     26.348   -1.753     34.166 
 H                     24.125    0.291     33.463 
 H                     23.557   -2.532     33.059 
 H                     22.729   -1.332     34.112 
 H                     24.135   -2.141     34.776 
 H                     26.595    1.382     34.414 
 H                     27.55     0.143     34.866 
 H                     24.812   -0.29      36.01 
 H                     25.169    1.334     36.15 
 H                     20.146   -1.117     28.814 
 H                     20.224    0.504     29.432 
 H                     21.001   -0.897     30.358 
 H                     19.627    0.79      25.547 
 H                     20.017    1.118     27.216 
 H                     19.474   -0.553     26.623 
 H                     26.611    0.784     24.421 
 H                     28.887   -1.255     24.667 
 H                     25.909   -2.111     24.406 
 H                     27.086   -1.831     23.145 
 H                     25.395   -1.013     23.149 
 H                     29.421    1.477     25.796 
 H                     29.085    1.543     24.104 
 H                     31.348    1.361     25.206 
 H                     31.065    0.801     23.624 
 H                     31.077   -0.419     24.696 
 H                     32.114   -1.516     27.903 
 H                     32.037   -2.837     29.089 
 H                     32.705   -1.333     29.552 
 H                     29.565   -0.202     33.7 
 H                     29.538   -3.802     36.095 
 H                     28.171   -2.943     36.785 
 H                     29.879   -2.793     37.29 
 H                     27.199    2.142     39.665 
 H                     27.033    0.439     39.974 
 H                     24.583    2.247     39.448 
 H                     24.827    0.184     42.999 
 H                     26.011    1.49      43.197 
 H                     26.402    0.163     42.171 
 H                     22.876    1.341     42.205 
 H                     22.922    2.36      40.924 
 H                     23.181    4.24      42.216 
 H                     24.68     3.663     42.666 
 H                     22.502    2.142     44.188 
 H                     22.123    3.825     44.034 
 H                     24.76     3.805     45.195 
 H                     23.358    1.536     46.611 
 H                     24.967    2.199     46.716 
 H                     24.491    1.163     45.403 
 H                     23.547    3.996     47.37 
 H                     21.959    3.933     46.421 
 H                     23.159    5.703     44.888 
 H                     24.226    5.999     46.241 
 H                     21.479    6.087     47.266 
 H                     21.568    7.066     45.875 
 H                     24.107    7.724     47.403 
 H                     23.205    8.207     49.775 
 H                     23.351    6.559     49.304 
 H                     21.727    7.28      49.29 
 H                     22.048    9.721     48.102 
 H                     21.856    9.204     46.402 
 H                     24.577    9.516     46.676 
 H                     23.928    10.666    47.81 
 H                     22.402    11.394    45.773 
 H                     23.493    10.473    44.78 
 H                     25.188    12.07     46.51 
 H                     23.72     14.229    45.017 
 H                     24.654    14.18     46.486 
 H                     22.991    13.599    46.532 
 H                     25.681    11.332    44.016 
 H                     25.996    13.089    44.403 
 H                     24.507    12.491    43.547 
 
 ITRead=  0  0  0  0  0  0  0  0  0  0  0  0  0  0  0  0  0  0  0  0
 ITRead=  0  0  0  0  0  0  0  0  0  0  0  0  0  0  0  0  0  0  0  0
 ITRead=  0  0  0  0  0  0  0  0  0  0  0  0  0  0  0  0  0  0  0  0
 ITRead=  0  0  0  0  0  0  0  0  0  0  0  0  0  0  0  0  0  0  0  0
 ITRead=  0  0  0  0  0  0  0  0  0  0  0  0  0  0  0  0  0  0  0  0
 ITRead=  0  0  0  0  0  0  0  0  0  0  0  0  0  0  0  0  0  0  0  0
 ITRead=  0  0  0  0  0  0  0  0  0  0  0  0  0  0  0  0  0  0  0  0
 MicOpt= -1 -1 -1 -1 -1 -1 -1 -1 -1 -1 -1 -1 -1 -1 -1 -1 -1 -1 -1 -1
 MicOpt= -1 -1 -1 -1 -1 -1 -1 -1 -1 -1 -1 -1 -1 -1 -1 -1 -1 -1 -1 -1
 MicOpt= -1 -1 -1 -1 -1 -1 -1 -1 -1 -1 -1 -1 -1 -1 -1 -1 -1 -1 -1 -1
 MicOpt= -1 -1 -1 -1 -1 -1 -1 -1 -1 -1 -1 -1 -1 -1 -1 -1 -1 -1 -1 -1
 MicOpt= -1 -1 -1 -1 -1 -1 -1 -1 -1 -1 -1 -1 -1 -1 -1 -1 -1 -1 -1 -1
 MicOpt= -1 -1 -1 -1 -1 -1 -1 -1 -1 -1 -1 -1 -1 -1 -1 -1 -1 -1 -1 -1
 MicOpt= -1 -1 -1 -1 -1 -1 -1 -1 -1 -1 -1 -1 -1 -1 -1 -1 -1 -1 -1 -1
 NAtoms=    140 NQM=      140 NQMF=       0 NMMI=      0 NMMIF=      0
                NMic=       0 NMicF=      0.
                    Isotopes and Nuclear Properties:
 (Nuclear quadrupole moments (NQMom) in fm**2, nuclear magnetic moments (NMagM)
  in nuclear magnetons)

  Atom         1           2           3           4           5           6           7           8           9          10
 IAtWgt=          24          12          12          12          12          14          12          12          12          12
 AtmWgt=  23.9850450  12.0000000  12.0000000  12.0000000  12.0000000  14.0030740  12.0000000  12.0000000  12.0000000  12.0000000
 NucSpn=           0           0           0           0           0           2           0           0           0           0
 AtZEff=  -0.0000000  -0.0000000  -0.0000000  -0.0000000  -0.0000000  -0.0000000  -0.0000000  -0.0000000  -0.0000000  -0.0000000
 NQMom=    0.0000000   0.0000000   0.0000000   0.0000000   0.0000000   2.0440000   0.0000000   0.0000000   0.0000000   0.0000000
 NMagM=    0.0000000   0.0000000   0.0000000   0.0000000   0.0000000   0.4037610   0.0000000   0.0000000   0.0000000   0.0000000
 AtZNuc=  12.0000000   6.0000000   6.0000000   6.0000000   6.0000000   7.0000000   6.0000000   6.0000000   6.0000000   6.0000000

  Atom        11          12          13          14          15          16          17          18          19          20
 IAtWgt=          12          12          12          12          16          16          14          12          12          12
 AtmWgt=  12.0000000  12.0000000  12.0000000  12.0000000  15.9949146  15.9949146  14.0030740  12.0000000  12.0000000  12.0000000
 NucSpn=           0           0           0           0           0           0           2           0           0           0
 AtZEff=  -0.0000000  -0.0000000  -0.0000000  -0.0000000  -0.0000000  -0.0000000  -0.0000000  -0.0000000  -0.0000000  -0.0000000
 NQMom=    0.0000000   0.0000000   0.0000000   0.0000000   0.0000000   0.0000000   2.0440000   0.0000000   0.0000000   0.0000000
 NMagM=    0.0000000   0.0000000   0.0000000   0.0000000   0.0000000   0.0000000   0.4037610   0.0000000   0.0000000   0.0000000
 AtZNuc=   6.0000000   6.0000000   6.0000000   6.0000000   8.0000000   8.0000000   7.0000000   6.0000000   6.0000000   6.0000000

  Atom        21          22          23          24          25          26          27          28          29          30
 IAtWgt=          12          12          12          16          12          14          12          12          12          12
 AtmWgt=  12.0000000  12.0000000  12.0000000  15.9949146  12.0000000  14.0030740  12.0000000  12.0000000  12.0000000  12.0000000
 NucSpn=           0           0           0           0           0           2           0           0           0           0
 AtZEff=  -0.0000000  -0.0000000  -0.0000000  -0.0000000  -0.0000000  -0.0000000  -0.0000000  -0.0000000  -0.0000000  -0.0000000
 NQMom=    0.0000000   0.0000000   0.0000000   0.0000000   0.0000000   2.0440000   0.0000000   0.0000000   0.0000000   0.0000000
 NMagM=    0.0000000   0.0000000   0.0000000   0.0000000   0.0000000   0.4037610   0.0000000   0.0000000   0.0000000   0.0000000
 AtZNuc=   6.0000000   6.0000000   6.0000000   8.0000000   6.0000000   7.0000000   6.0000000   6.0000000   6.0000000   6.0000000

  Atom        31          32          33          34          35          36          37          38          39          40
 IAtWgt=          12          12          12          14          12          12          12          12          12          12
 AtmWgt=  12.0000000  12.0000000  12.0000000  14.0030740  12.0000000  12.0000000  12.0000000  12.0000000  12.0000000  12.0000000
 NucSpn=           0           0           0           2           0           0           0           0           0           0
 AtZEff=  -0.0000000  -0.0000000  -0.0000000  -0.0000000  -0.0000000  -0.0000000  -0.0000000  -0.0000000  -0.0000000  -0.0000000
 NQMom=    0.0000000   0.0000000   0.0000000   2.0440000   0.0000000   0.0000000   0.0000000   0.0000000   0.0000000   0.0000000
 NMagM=    0.0000000   0.0000000   0.0000000   0.4037610   0.0000000   0.0000000   0.0000000   0.0000000   0.0000000   0.0000000
 AtZNuc=   6.0000000   6.0000000   6.0000000   7.0000000   6.0000000   6.0000000   6.0000000   6.0000000   6.0000000   6.0000000

  Atom        41          42          43          44          45          46          47          48          49          50
 IAtWgt=          16          12          12          16          16          12          12          12          12          12
 AtmWgt=  15.9949146  12.0000000  12.0000000  15.9949146  15.9949146  12.0000000  12.0000000  12.0000000  12.0000000  12.0000000
 NucSpn=           0           0           0           0           0           0           0           0           0           0
 AtZEff=  -0.0000000  -0.0000000  -0.0000000  -0.0000000  -0.0000000  -0.0000000  -0.0000000  -0.0000000  -0.0000000  -0.0000000
 NQMom=    0.0000000   0.0000000   0.0000000   0.0000000   0.0000000   0.0000000   0.0000000   0.0000000   0.0000000   0.0000000
 NMagM=    0.0000000   0.0000000   0.0000000   0.0000000   0.0000000   0.0000000   0.0000000   0.0000000   0.0000000   0.0000000
 AtZNuc=   8.0000000   6.0000000   6.0000000   8.0000000   8.0000000   6.0000000   6.0000000   6.0000000   6.0000000   6.0000000

  Atom        51          52          53          54          55          56          57          58          59          60
 IAtWgt=          12          12          12          12          12          12          12          12          12          12
 AtmWgt=  12.0000000  12.0000000  12.0000000  12.0000000  12.0000000  12.0000000  12.0000000  12.0000000  12.0000000  12.0000000
 NucSpn=           0           0           0           0           0           0           0           0           0           0
 AtZEff=  -0.0000000  -0.0000000  -0.0000000  -0.0000000  -0.0000000  -0.0000000  -0.0000000  -0.0000000  -0.0000000  -0.0000000
 NQMom=    0.0000000   0.0000000   0.0000000   0.0000000   0.0000000   0.0000000   0.0000000   0.0000000   0.0000000   0.0000000
 NMagM=    0.0000000   0.0000000   0.0000000   0.0000000   0.0000000   0.0000000   0.0000000   0.0000000   0.0000000   0.0000000
 AtZNuc=   6.0000000   6.0000000   6.0000000   6.0000000   6.0000000   6.0000000   6.0000000   6.0000000   6.0000000   6.0000000

  Atom        61          62          63          64          65          66          67          68          69          70
 IAtWgt=          12          12          12          12          12          12           1           1           1           1
 AtmWgt=  12.0000000  12.0000000  12.0000000  12.0000000  12.0000000  12.0000000   1.0078250   1.0078250   1.0078250   1.0078250
 NucSpn=           0           0           0           0           0           0           1           1           1           1
 AtZEff=  -0.0000000  -0.0000000  -0.0000000  -0.0000000  -0.0000000  -0.0000000  -0.0000000  -0.0000000  -0.0000000  -0.0000000
 NQMom=    0.0000000   0.0000000   0.0000000   0.0000000   0.0000000   0.0000000   0.0000000   0.0000000   0.0000000   0.0000000
 NMagM=    0.0000000   0.0000000   0.0000000   0.0000000   0.0000000   0.0000000   2.7928460   2.7928460   2.7928460   2.7928460
 AtZNuc=   6.0000000   6.0000000   6.0000000   6.0000000   6.0000000   6.0000000   1.0000000   1.0000000   1.0000000   1.0000000

  Atom        71          72          73          74          75          76          77          78          79          80
 IAtWgt=           1           1           1           1           1           1           1           1           1           1
 AtmWgt=   1.0078250   1.0078250   1.0078250   1.0078250   1.0078250   1.0078250   1.0078250   1.0078250   1.0078250   1.0078250
 NucSpn=           1           1           1           1           1           1           1           1           1           1
 AtZEff=  -0.0000000  -0.0000000  -0.0000000  -0.0000000  -0.0000000  -0.0000000  -0.0000000  -0.0000000  -0.0000000  -0.0000000
 NQMom=    0.0000000   0.0000000   0.0000000   0.0000000   0.0000000   0.0000000   0.0000000   0.0000000   0.0000000   0.0000000
 NMagM=    2.7928460   2.7928460   2.7928460   2.7928460   2.7928460   2.7928460   2.7928460   2.7928460   2.7928460   2.7928460
 AtZNuc=   1.0000000   1.0000000   1.0000000   1.0000000   1.0000000   1.0000000   1.0000000   1.0000000   1.0000000   1.0000000

  Atom        81          82          83          84          85          86          87          88          89          90
 IAtWgt=           1           1           1           1           1           1           1           1           1           1
 AtmWgt=   1.0078250   1.0078250   1.0078250   1.0078250   1.0078250   1.0078250   1.0078250   1.0078250   1.0078250   1.0078250
 NucSpn=           1           1           1           1           1           1           1           1           1           1
 AtZEff=  -0.0000000  -0.0000000  -0.0000000  -0.0000000  -0.0000000  -0.0000000  -0.0000000  -0.0000000  -0.0000000  -0.0000000
 NQMom=    0.0000000   0.0000000   0.0000000   0.0000000   0.0000000   0.0000000   0.0000000   0.0000000   0.0000000   0.0000000
 NMagM=    2.7928460   2.7928460   2.7928460   2.7928460   2.7928460   2.7928460   2.7928460   2.7928460   2.7928460   2.7928460
 AtZNuc=   1.0000000   1.0000000   1.0000000   1.0000000   1.0000000   1.0000000   1.0000000   1.0000000   1.0000000   1.0000000

  Atom        91          92          93          94          95          96          97          98          99         100
 IAtWgt=           1           1           1           1           1           1           1           1           1           1
 AtmWgt=   1.0078250   1.0078250   1.0078250   1.0078250   1.0078250   1.0078250   1.0078250   1.0078250   1.0078250   1.0078250
 NucSpn=           1           1           1           1           1           1           1           1           1           1
 AtZEff=  -0.0000000  -0.0000000  -0.0000000  -0.0000000  -0.0000000  -0.0000000  -0.0000000  -0.0000000  -0.0000000  -0.0000000
 NQMom=    0.0000000   0.0000000   0.0000000   0.0000000   0.0000000   0.0000000   0.0000000   0.0000000   0.0000000   0.0000000
 NMagM=    2.7928460   2.7928460   2.7928460   2.7928460   2.7928460   2.7928460   2.7928460   2.7928460   2.7928460   2.7928460
 AtZNuc=   1.0000000   1.0000000   1.0000000   1.0000000   1.0000000   1.0000000   1.0000000   1.0000000   1.0000000   1.0000000

  Atom       101         102         103         104         105         106         107         108         109         110
 IAtWgt=           1           1           1           1           1           1           1           1           1           1
 AtmWgt=   1.0078250   1.0078250   1.0078250   1.0078250   1.0078250   1.0078250   1.0078250   1.0078250   1.0078250   1.0078250
 NucSpn=           1           1           1           1           1           1           1           1           1           1
 AtZEff=  -0.0000000  -0.0000000  -0.0000000  -0.0000000  -0.0000000  -0.0000000  -0.0000000  -0.0000000  -0.0000000  -0.0000000
 NQMom=    0.0000000   0.0000000   0.0000000   0.0000000   0.0000000   0.0000000   0.0000000   0.0000000   0.0000000   0.0000000
 NMagM=    2.7928460   2.7928460   2.7928460   2.7928460   2.7928460   2.7928460   2.7928460   2.7928460   2.7928460   2.7928460
 AtZNuc=   1.0000000   1.0000000   1.0000000   1.0000000   1.0000000   1.0000000   1.0000000   1.0000000   1.0000000   1.0000000

  Atom       111         112         113         114         115         116         117         118         119         120
 IAtWgt=           1           1           1           1           1           1           1           1           1           1
 AtmWgt=   1.0078250   1.0078250   1.0078250   1.0078250   1.0078250   1.0078250   1.0078250   1.0078250   1.0078250   1.0078250
 NucSpn=           1           1           1           1           1           1           1           1           1           1
 AtZEff=  -0.0000000  -0.0000000  -0.0000000  -0.0000000  -0.0000000  -0.0000000  -0.0000000  -0.0000000  -0.0000000  -0.0000000
 NQMom=    0.0000000   0.0000000   0.0000000   0.0000000   0.0000000   0.0000000   0.0000000   0.0000000   0.0000000   0.0000000
 NMagM=    2.7928460   2.7928460   2.7928460   2.7928460   2.7928460   2.7928460   2.7928460   2.7928460   2.7928460   2.7928460
 AtZNuc=   1.0000000   1.0000000   1.0000000   1.0000000   1.0000000   1.0000000   1.0000000   1.0000000   1.0000000   1.0000000

  Atom       121         122         123         124         125         126         127         128         129         130
 IAtWgt=           1           1           1           1           1           1           1           1           1           1
 AtmWgt=   1.0078250   1.0078250   1.0078250   1.0078250   1.0078250   1.0078250   1.0078250   1.0078250   1.0078250   1.0078250
 NucSpn=           1           1           1           1           1           1           1           1           1           1
 AtZEff=  -0.0000000  -0.0000000  -0.0000000  -0.0000000  -0.0000000  -0.0000000  -0.0000000  -0.0000000  -0.0000000  -0.0000000
 NQMom=    0.0000000   0.0000000   0.0000000   0.0000000   0.0000000   0.0000000   0.0000000   0.0000000   0.0000000   0.0000000
 NMagM=    2.7928460   2.7928460   2.7928460   2.7928460   2.7928460   2.7928460   2.7928460   2.7928460   2.7928460   2.7928460
 AtZNuc=   1.0000000   1.0000000   1.0000000   1.0000000   1.0000000   1.0000000   1.0000000   1.0000000   1.0000000   1.0000000

  Atom       131         132         133         134         135         136         137         138         139         140
 IAtWgt=           1           1           1           1           1           1           1           1           1           1
 AtmWgt=   1.0078250   1.0078250   1.0078250   1.0078250   1.0078250   1.0078250   1.0078250   1.0078250   1.0078250   1.0078250
 NucSpn=           1           1           1           1           1           1           1           1           1           1
 AtZEff=  -0.0000000  -0.0000000  -0.0000000  -0.0000000  -0.0000000  -0.0000000  -0.0000000  -0.0000000  -0.0000000  -0.0000000
 NQMom=    0.0000000   0.0000000   0.0000000   0.0000000   0.0000000   0.0000000   0.0000000   0.0000000   0.0000000   0.0000000
 NMagM=    2.7928460   2.7928460   2.7928460   2.7928460   2.7928460   2.7928460   2.7928460   2.7928460   2.7928460   2.7928460
 AtZNuc=   1.0000000   1.0000000   1.0000000   1.0000000   1.0000000   1.0000000   1.0000000   1.0000000   1.0000000   1.0000000
 Leave Link  101 at Thu Apr 28 02:52:24 2022, MaxMem= 10066329600 cpu:               3.7 elap:               0.2
 (Enter /sw/apps/gaussian-16.0/g16/l202.exe)
 Stoichiometry    C55H74MgN4O6
 Framework group  C1[X(C55H74MgN4O6)]
 Deg. of freedom   414
 Full point group                 C1      NOp   1
 Largest Abelian subgroup         C1      NOp   1
 Largest concise Abelian subgroup C1      NOp   1
                         Standard orientation:                         
 ---------------------------------------------------------------------
 Center     Atomic      Atomic             Coordinates (Angstroms)
 Number     Number       Type             X           Y           Z
 ---------------------------------------------------------------------
      1         12           0        6.201716    0.548171    0.292501
      2          6           0        3.910870   -2.025913    0.422168
      3          6           0        4.221619    1.993087   -2.138611
      4          6           0        8.515647    3.042722   -0.083026
      5          6           0        8.452005   -1.183627    2.020380
      6          7           0        4.321218    0.014383   -0.703397
      7          6           0        3.483844   -1.044000   -0.396504
      8          6           0        2.127339   -1.073499   -1.152953
      9          6           0        2.259009    0.295091   -1.994436
     10          6           0        3.664073    0.834658   -1.568630
     11          6           0        2.020586    0.101006   -3.508726
     12          6           0        0.853890   -1.078588   -0.293595
     13          6           0       -0.473574   -0.933739   -1.065384
     14          6           0       -1.448901   -2.083549   -0.910397
     15          8           0       -1.430470   -3.153743   -1.499866
     16          8           0       -2.597798   -1.644773   -0.289740
     17          7           0        6.259976    2.302482   -0.788354
     18          6           0        5.390831    2.684831   -1.815668
     19          6           0        5.799147    3.984513   -2.382823
     20          6           0        6.975376    4.432648   -1.687339
     21          6           0        7.305861    3.199827   -0.782042
     22          6           0        5.070278    4.663667   -3.539113
     23          6           0        7.784311    5.744044   -1.868928
     24          8           0        8.827063    6.014458   -1.266509
     25          6           0        7.321184    6.730230   -2.833702
     26          7           0        8.252164    0.788714    0.790987
     27          6           0        8.900838    1.967121    0.719644
     28          6           0       10.161762    2.038003    1.579420
     29          6           0       10.108599    0.690898    2.376576
     30          6           0        8.824132    0.066004    1.753117
     31          6           0       11.440323    2.211903    0.581240
     32          6           0        9.931878    0.768583    3.945440
     33          6           0       10.473266   -0.326764    4.786808
     34          7           0        6.225342   -1.218971    1.088184
     35          6           0        7.226930   -1.812791    1.757554
     36          6           0        6.861956   -3.143476    2.140459
     37          6           0        5.523942   -3.274212    1.647402
     38          6           0        5.171315   -2.070560    1.034743
     39          6           0        7.712216   -4.117099    2.938198
     40          6           0        4.437963   -4.149759    1.588295
     41          8           0        4.221099   -5.273323    2.107341
     42          6           0        3.255172   -3.376056    0.846422
     43          6           0        2.850895   -4.215016   -0.320913
     44          8           0        3.490664   -4.454694   -1.342577
     45          8           0        1.599789   -4.671569   -0.054275
     46          6           0        0.930257   -5.508372   -1.151433
     47          6           0       -3.831788   -2.374578   -0.535450
     48          6           0       -4.802161   -1.410333   -1.204990
     49          6           0       -5.937377   -1.637132   -1.878268
     50          6           0       -6.531055   -3.039093   -2.161863
     51          6           0       -6.791676   -0.500804   -2.411484
     52          6           0       -8.110099   -0.232332   -1.610875
     53          6           0       -9.298896   -0.390811   -2.523048
     54          6           0      -10.442804   -1.394041   -2.093886
     55          6           0      -10.427805   -2.632922   -2.952819
     56          6           0      -11.833992   -0.720978   -2.204935
     57          6           0      -11.977454    0.138413   -0.904063
     58          6           0      -13.147786    1.200931   -1.009325
     59          6           0      -14.310727    0.870308    0.167699
     60          6           0      -15.587151    0.326000   -0.525403
     61          6           0      -14.659118    2.181556    0.928637
     62          6           0      -14.497990    1.982773    2.472745
     63          6           0      -13.831578    3.142160    3.202727
     64          6           0      -14.063281    2.993020    4.772293
     65          6           0      -14.988037    4.184266    5.325498
     66          6           0      -12.785635    3.012965    5.577372
     67          1           0        3.529375    2.448292   -2.849657
     68          1           0        9.215763    3.861674   -0.261289
     69          1           0        9.134112   -1.759654    2.648932
     70          1           0        2.126850   -1.958823   -1.789464
     71          1           0        1.613314    1.094933   -1.632221
     72          1           0        3.009520    0.066860   -3.966496
     73          1           0        1.454108    0.963338   -3.859659
     74          1           0        1.388777   -0.776099   -3.653981
     75          1           0        0.699153   -0.459997    0.590859
     76          1           0        0.926830   -2.031768    0.231489
     77          1           0       -0.357429   -0.686642   -2.120995
     78          1           0       -1.072323   -0.083111   -0.739293
     79          1           0        5.769781    4.956783   -4.322575
     80          1           0        4.580501    5.586211   -3.224813
     81          1           0        4.415845    3.877561   -3.915759
     82          1           0        7.893270    7.632350   -2.616285
     83          1           0        6.312097    6.910006   -2.463467
     84          1           0        7.427226    6.585296   -3.909078
     85          1           0        9.986142    2.906730    2.214094
     86          1           0       10.919601   -0.013242    2.188948
     87          1           0       11.038096    1.791899   -0.340235
     88          1           0       12.249476    1.552838    0.896397
     89          1           0       11.662722    3.258709    0.372617
     90          1           0        8.897779    0.718749    4.286576
     91          1           0       10.352088    1.632710    4.459134
     92          1           0        9.773400   -0.545904    5.593796
     93          1           0       11.384051   -0.065881    5.325855
     94          1           0       10.898240   -1.163348    4.231651
     95          1           0        8.587862   -3.739841    3.465191
     96          1           0        8.025167   -4.871311    2.215904
     97          1           0        7.113020   -4.684705    3.649702
     98          1           0        2.428118   -3.276471    1.548932
     99          1           0        1.680617   -6.183214   -1.563759
    100          1           0        0.506204   -4.947801   -1.984685
    101          1           0        0.251513   -6.308080   -0.853507
    102          1           0       -4.263412   -2.427815    0.464161
    103          1           0       -3.894486   -3.383616   -0.940682
    104          1           0       -4.509668   -0.362054   -1.140070
    105          1           0       -6.870712   -3.029038   -3.198655
    106          1           0       -7.385415   -3.235678   -1.513699
    107          1           0       -5.871188   -3.892337   -2.006045
    108          1           0       -6.909013   -0.643270   -3.485234
    109          1           0       -6.145508    0.375568   -2.455444
    110          1           0       -8.019809    0.767548   -1.188917
    111          1           0       -7.968960   -0.829556   -0.710269
    112          1           0       -9.078890   -0.652521   -3.558131
    113          1           0       -9.663814    0.635502   -2.558779
    114          1           0      -10.302698   -1.748749   -1.072420
    115          1           0      -10.901549   -2.526518   -3.928199
    116          1           0      -11.012334   -3.375043   -2.409249
    117          1           0       -9.486405   -3.122182   -3.203883
    118          1           0      -12.533599   -1.556774   -2.179082
    119          1           0      -11.892942   -0.070493   -3.077324
    120          1           0      -11.021599    0.617296   -0.691806
    121          1           0      -12.200175   -0.503965   -0.051146
    122          1           0      -13.584315    1.186679   -2.008251
    123          1           0      -12.698785    2.192155   -0.956540
    124          1           0      -13.953380    0.126963    0.880644
    125          1           0      -16.430548    0.181866    0.149958
    126          1           0      -15.329326   -0.682394   -0.849754
    127          1           0      -15.851109    0.925997   -1.395861
    128          1           0      -15.692553    2.511974    0.825040
    129          1           0      -13.978130    2.993216    0.672355
    130          1           0      -13.932456    1.064782    2.635851
    131          1           0      -15.513964    1.771093    2.807940
    132          1           0      -14.191835    4.063715    2.745569
    133          1           0      -12.760863    3.109102    3.001699
    134          1           0      -14.699495    2.121078    4.920513
    135          1           0      -14.427498    4.977926    5.820397
    136          1           0      -15.594926    3.716323    6.100017
    137          1           0      -15.661600    4.594808    4.573890
    138          1           0      -12.073642    2.268415    5.222035
    139          1           0      -13.071264    2.886210    6.621722
    140          1           0      -12.287841    3.962477    5.382626
 ---------------------------------------------------------------------
 Rotational constants (GHZ):           0.0425916           0.0076359           0.0072827
 Leave Link  202 at Thu Apr 28 02:52:24 2022, MaxMem= 10066329600 cpu:               0.3 elap:               0.0
 (Enter /sw/apps/gaussian-16.0/g16/l301.exe)
 Standard basis: def2SVP (5D, 7F)
 Ernie: Thresh=  0.10000D-02 Tol=  0.10000D-05 Strict=F.
 There are  1364 symmetry adapted cartesian basis functions of A   symmetry.
 There are  1298 symmetry adapted basis functions of A   symmetry.
  1298 basis functions,  2180 primitive gaussians,  1364 cartesian basis functions
   246 alpha electrons      246 beta electrons
       nuclear repulsion energy      9243.8066272822 Hartrees.
 IExCor= 1009 DFT=T Ex+Corr=PBE1PBE ExCW=0 ScaHFX=  0.250000
 ScaDFX=  0.750000  0.750000  1.000000  1.000000 ScalE2=  1.000000  1.000000
 IRadAn=      5 IRanWt=     -1 IRanGd=            0 ICorTp=0 IEmpDi=  4
 NAtoms=  140 NActive=  140 NUniq=  140 SFac= 1.00D+00 NAtFMM=   60 NAOKFM=T Big=T
 Integral buffers will be    131072 words long.
 Regular integral format.
 Two-electron integral symmetry is turned on.
 Leave Link  301 at Thu Apr 28 02:52:24 2022, MaxMem= 10066329600 cpu:               1.3 elap:               0.1
 (Enter /sw/apps/gaussian-16.0/g16/l302.exe)
 NPDir=0 NMtPBC=     1 NCelOv=     1 NCel=       1 NClECP=     1 NCelD=      1
         NCelK=      1 NCelE2=     1 NClLst=     1 CellRange=     0.0.
 One-electron integrals computed using PRISM.
 One-electron integral symmetry used in STVInt
   1 Symmetry operations used in ECPInt.
 ECPInt:  NShTT=  192510 NPrTT=  683786 LenC2=   87142 LenP2D=  194203.
 LDataN:  DoStor=T MaxTD1= 4 Len=   56
 NBasis=  1298 RedAO= T EigKep=  2.66D-04  NBF=  1298
 NBsUse=  1298 1.00D-06 EigRej= -1.00D+00 NBFU=  1298
 Precomputing XC quadrature grid using
 IXCGrd= 4 IRadAn=           5 IRanWt=          -1 IRanGd=           0 AccXCQ= 0.00D+00.
 Generated NRdTot=       0 NPtTot=           0 NUsed=           0 NTot=          32
 NSgBfM=   998   987   993   997   998 MxSgAt=   140 MxSgA2=   140.
 Leave Link  302 at Thu Apr 28 02:52:27 2022, MaxMem= 10066329600 cpu:              72.7 elap:               3.0
 (Enter /sw/apps/gaussian-16.0/g16/l303.exe)
 DipDrv:  MaxL=1.
 Leave Link  303 at Thu Apr 28 02:52:28 2022, MaxMem= 10066329600 cpu:               6.8 elap:               0.3
 (Enter /sw/apps/gaussian-16.0/g16/l308.exe)
 Leave Link  308 at Thu Apr 28 02:52:28 2022, MaxMem= 10066329600 cpu:              10.4 elap:               0.5
 (Enter /sw/apps/gaussian-16.0/g16/l401.exe)
 ExpMin= 3.36D-02 ExpMax= 4.95D+03 ExpMxC= 7.45D+02 IAcc=3 IRadAn=         5 AccDes= 0.00D+00
 Harris functional with IExCor= 1009 and IRadAn=       5 diagonalized for initial guess.
 HarFok:  IExCor= 1009 AccDes= 0.00D+00 IRadAn=         5 IDoV= 1 UseB2=F ITyADJ=14
 ICtDFT=  3500011 ScaDFX=  1.000000  1.000000  1.000000  1.000000
 FoFCou: FMM=F IPFlag=           0 FMFlag=      100000 FMFlg1=        2001
         NFxFlg=           0 DoJE=T BraDBF=F KetDBF=T FulRan=T
         wScrn=  0.000000 ICntrl=       500 IOpCl=  0 I1Cent=   200000004 NGrid=           0
         NMat0=    1 NMatS0=      1 NMatT0=    0 NMatD0=    1 NMtDS0=    0 NMtDT0=    0
 Petite list used in FoFCou.
 Harris En= -3006.13517582723    
 JPrj=0 DoOrth=F DoCkMO=F.
 Leave Link  401 at Thu Apr 28 02:52:34 2022, MaxMem= 10066329600 cpu:             132.3 elap:               5.5
 (Enter /sw/apps/gaussian-16.0/g16/l502.exe)
 Integral symmetry usage will be decided dynamically.
 Closed shell SCF:
 Using DIIS extrapolation, IDIIS=  1040.
 NGot= 10066329600 LenX= 10062561258 LenY= 10060699398
 Requested convergence on RMS density matrix=1.00D-08 within 128 cycles.
 Requested convergence on MAX density matrix=1.00D-06.
 Requested convergence on             energy=1.00D-06.
 No special actions if energy rises.
 Fock matrices will be formed incrementally for  20 cycles.

 Cycle   1  Pass 1  IDiag  1:
 FoFJK:  IHMeth= 1 ICntrl=       0 DoSepK=F KAlg= 0 I1Cent=           0 FoldK=F
 IRaf= 490000000 NMat=       1 IRICut=       1 DoRegI=T DoRafI=F ISym2E= 0 IDoP0=0 IntGTp=1.
 FoFCou: FMM=T IPFlag=           0 FMFlag=      100000 FMFlg1=        2001
         NFxFlg=           0 DoJE=F BraDBF=F KetDBF=F FulRan=T
         wScrn=  0.000000 ICntrl=         0 IOpCl=  0 I1Cent=           0 NGrid=           0
         NMat0=    1 NMatS0=      1 NMatT0=    0 NMatD0=    1 NMtDS0=    0 NMtDT0=    0
 Symmetry not used in FoFCou.
 FMM levels:  10  Number of levels for PrismC:   9
 E= -3003.79034468089    
 DIIS: error= 2.22D-02 at cycle   1 NSaved=   1.
 NSaved= 1 IEnMin= 1 EnMin= -3003.79034468089     IErMin= 1 ErrMin= 2.22D-02
 ErrMax= 2.22D-02  0.00D+00 EMaxC= 1.00D-01 BMatC= 1.46D+00 BMatP= 1.46D+00
 IDIUse=3 WtCom= 7.78D-01 WtEn= 2.22D-01
 Coeff-Com:  0.100D+01
 Coeff-En:   0.100D+01
 Coeff:      0.100D+01
 Gap=     0.046 Goal=   None    Shift=    0.000
 GapD=    0.046 DampG=0.250 DampE=0.500 DampFc=0.2500 IDamp=-1.
 Damping current iteration by 2.50D-01
 RMSDP=2.85D-03 MaxDP=7.54D-01              OVMax= 5.21D-01

 Cycle   2  Pass 1  IDiag  1:
 RMSU=  7.05D-04    CP:  9.90D-01
 E= -3004.33717772282     Delta-E=       -0.546833041935 Rises=F Damp=T
 DIIS: error= 1.04D-02 at cycle   2 NSaved=   2.
 NSaved= 2 IEnMin= 2 EnMin= -3004.33717772282     IErMin= 2 ErrMin= 1.04D-02
 ErrMax= 1.04D-02  0.00D+00 EMaxC= 1.00D-01 BMatC= 3.65D-01 BMatP= 1.46D+00
 IDIUse=3 WtCom= 8.96D-01 WtEn= 1.04D-01
 Coeff-Com: -0.746D+00 0.175D+01
 Coeff-En:   0.000D+00 0.100D+01
 Coeff:     -0.669D+00 0.167D+01
 Gap=     0.168 Goal=   None    Shift=    0.000
 RMSDP=1.06D-03 MaxDP=7.14D-02 DE=-5.47D-01 OVMax= 5.40D-01

 Cycle   3  Pass 1  IDiag  1:
 RMSU=  9.52D-04    CP:  9.64D-01  1.57D+00
 E= -3005.08831065510     Delta-E=       -0.751132932281 Rises=F Damp=F
 DIIS: error= 1.32D-02 at cycle   3 NSaved=   3.
 NSaved= 3 IEnMin= 3 EnMin= -3005.08831065510     IErMin= 2 ErrMin= 1.04D-02
 ErrMax= 1.32D-02  0.00D+00 EMaxC= 1.00D-01 BMatC= 2.23D-01 BMatP= 3.65D-01
 IDIUse=3 WtCom= 8.68D-01 WtEn= 1.32D-01
 Coeff-Com: -0.508D+00 0.109D+01 0.420D+00
 Coeff-En:   0.000D+00 0.000D+00 0.100D+01
 Coeff:     -0.441D+00 0.945D+00 0.496D+00
 Gap=     0.068 Goal=   None    Shift=    0.000
 RMSDP=8.08D-04 MaxDP=8.88D-02 DE=-7.51D-01 OVMax= 5.04D-01

 Cycle   4  Pass 1  IDiag  1:
 RMSU=  4.97D-04    CP:  9.68D-01  1.95D+00  3.94D-01
 E= -3005.22906412845     Delta-E=       -0.140753473346 Rises=F Damp=F
 DIIS: error= 6.34D-03 at cycle   4 NSaved=   4.
 NSaved= 4 IEnMin= 4 EnMin= -3005.22906412845     IErMin= 4 ErrMin= 6.34D-03
 ErrMax= 6.34D-03  0.00D+00 EMaxC= 1.00D-01 BMatC= 7.69D-02 BMatP= 2.23D-01
 IDIUse=3 WtCom= 9.37D-01 WtEn= 6.34D-02
 Coeff-Com: -0.163D+00 0.358D+00 0.356D+00 0.449D+00
 Coeff-En:   0.000D+00 0.000D+00 0.342D+00 0.658D+00
 Coeff:     -0.153D+00 0.335D+00 0.355D+00 0.463D+00
 Gap=     0.069 Goal=   None    Shift=    0.000
 RMSDP=4.68D-04 MaxDP=3.72D-02 DE=-1.41D-01 OVMax= 3.65D-01

 Cycle   5  Pass 1  IDiag  1:
 RMSU=  2.20D-04    CP:  9.69D-01  1.77D+00  6.61D-01  3.97D-01
 E= -3005.30893373534     Delta-E=       -0.079869606896 Rises=F Damp=F
 DIIS: error= 3.07D-03 at cycle   5 NSaved=   5.
 NSaved= 5 IEnMin= 5 EnMin= -3005.30893373534     IErMin= 5 ErrMin= 3.07D-03
 ErrMax= 3.07D-03  0.00D+00 EMaxC= 1.00D-01 BMatC= 1.67D-02 BMatP= 7.69D-02
 IDIUse=3 WtCom= 9.69D-01 WtEn= 3.07D-02
 Coeff-Com: -0.318D-01 0.763D-01 0.204D+00 0.373D+00 0.379D+00
 Coeff-En:   0.000D+00 0.000D+00 0.000D+00 0.226D+00 0.774D+00
 Coeff:     -0.308D-01 0.740D-01 0.198D+00 0.369D+00 0.391D+00
 Gap=     0.073 Goal=   None    Shift=    0.000
 RMSDP=1.95D-04 MaxDP=3.06D-02 DE=-7.99D-02 OVMax= 1.38D-01

 Cycle   6  Pass 1  IDiag  1:
 RMSU=  8.31D-05    CP:  9.68D-01  1.77D+00  6.10D-01  6.04D-01  3.92D-01
 E= -3005.33091095543     Delta-E=       -0.021977220083 Rises=F Damp=F
 DIIS: error= 7.56D-04 at cycle   6 NSaved=   6.
 NSaved= 6 IEnMin= 6 EnMin= -3005.33091095543     IErMin= 6 ErrMin= 7.56D-04
 ErrMax= 7.56D-04  0.00D+00 EMaxC= 1.00D-01 BMatC= 8.89D-04 BMatP= 1.67D-02
 IDIUse=3 WtCom= 9.92D-01 WtEn= 7.56D-03
 Coeff-Com:  0.594D-02-0.105D-01 0.379D-01 0.107D+00 0.214D+00 0.645D+00
 Coeff-En:   0.000D+00 0.000D+00 0.000D+00 0.000D+00 0.144D-01 0.986D+00
 Coeff:      0.589D-02-0.104D-01 0.377D-01 0.107D+00 0.213D+00 0.647D+00
 Gap=     0.076 Goal=   None    Shift=    0.000
 RMSDP=4.66D-05 MaxDP=9.08D-03 DE=-2.20D-02 OVMax= 2.39D-02

 Cycle   7  Pass 1  IDiag  1:
 RMSU=  3.34D-05    CP:  9.68D-01  1.78D+00  6.16D-01  5.84D-01  4.97D-01
                    CP:  7.68D-01
 E= -3005.33161346996     Delta-E=       -0.000702514533 Rises=F Damp=F
 DIIS: error= 2.49D-04 at cycle   7 NSaved=   7.
 NSaved= 7 IEnMin= 7 EnMin= -3005.33161346996     IErMin= 7 ErrMin= 2.49D-04
 ErrMax= 2.49D-04  0.00D+00 EMaxC= 1.00D-01 BMatC= 2.29D-04 BMatP= 8.89D-04
 IDIUse=3 WtCom= 9.98D-01 WtEn= 2.49D-03
 Coeff-Com:  0.491D-02-0.104D-01-0.573D-03 0.187D-01 0.825D-01 0.414D+00
 Coeff-Com:  0.491D+00
 Coeff-En:   0.000D+00 0.000D+00 0.000D+00 0.000D+00 0.000D+00 0.213D+00
 Coeff-En:   0.787D+00
 Coeff:      0.490D-02-0.103D-01-0.571D-03 0.187D-01 0.823D-01 0.413D+00
 Coeff:      0.492D+00
 Gap=     0.077 Goal=   None    Shift=    0.000
 RMSDP=2.32D-05 MaxDP=2.56D-03 DE=-7.03D-04 OVMax= 1.09D-02

 Cycle   8  Pass 1  IDiag  1:
 RMSU=  1.37D-05    CP:  9.68D-01  1.78D+00  6.17D-01  5.87D-01  4.83D-01
                    CP:  8.49D-01  4.88D-01
 E= -3005.33181711448     Delta-E=       -0.000203644520 Rises=F Damp=F
 DIIS: error= 1.50D-04 at cycle   8 NSaved=   8.
 NSaved= 8 IEnMin= 8 EnMin= -3005.33181711448     IErMin= 8 ErrMin= 1.50D-04
 ErrMax= 1.50D-04  0.00D+00 EMaxC= 1.00D-01 BMatC= 4.06D-05 BMatP= 2.29D-04
 IDIUse=3 WtCom= 9.98D-01 WtEn= 1.50D-03
 Coeff-Com:  0.190D-02-0.428D-02-0.462D-02-0.597D-03 0.292D-01 0.202D+00
 Coeff-Com:  0.342D+00 0.435D+00
 Coeff-En:   0.000D+00 0.000D+00 0.000D+00 0.000D+00 0.000D+00 0.000D+00
 Coeff-En:   0.180D+00 0.820D+00
 Coeff:      0.189D-02-0.427D-02-0.462D-02-0.596D-03 0.291D-01 0.202D+00
 Coeff:      0.342D+00 0.435D+00
 Gap=     0.077 Goal=   None    Shift=    0.000
 RMSDP=9.68D-06 MaxDP=1.04D-03 DE=-2.04D-04 OVMax= 5.40D-03

 Cycle   9  Pass 1  IDiag  1:
 RMSU=  5.12D-06    CP:  9.68D-01  1.78D+00  6.16D-01  5.87D-01  4.92D-01
                    CP:  8.39D-01  6.14D-01  5.09D-01
 E= -3005.33186510884     Delta-E=       -0.000047994363 Rises=F Damp=F
 DIIS: error= 4.46D-05 at cycle   9 NSaved=   9.
 NSaved= 9 IEnMin= 9 EnMin= -3005.33186510884     IErMin= 9 ErrMin= 4.46D-05
 ErrMax= 4.46D-05  0.00D+00 EMaxC= 1.00D-01 BMatC= 3.87D-06 BMatP= 4.06D-05
 IDIUse=1 WtCom= 1.00D+00 WtEn= 0.00D+00
 Coeff-Com:  0.298D-03-0.757D-03-0.290D-02-0.354D-02 0.531D-02 0.676D-01
 Coeff-Com:  0.150D+00 0.282D+00 0.502D+00
 Coeff:      0.298D-03-0.757D-03-0.290D-02-0.354D-02 0.531D-02 0.676D-01
 Coeff:      0.150D+00 0.282D+00 0.502D+00
 Gap=     0.077 Goal=   None    Shift=    0.000
 RMSDP=2.80D-06 MaxDP=3.57D-04 DE=-4.80D-05 OVMax= 1.39D-03

 Cycle  10  Pass 1  IDiag  1:
 RMSU=  2.02D-06    CP:  9.68D-01  1.78D+00  6.16D-01  5.87D-01  4.92D-01
                    CP:  8.49D-01  6.07D-01  5.97D-01  7.75D-01
 E= -3005.33186923073     Delta-E=       -0.000004121881 Rises=F Damp=F
 DIIS: error= 1.13D-05 at cycle  10 NSaved=  10.
 NSaved=10 IEnMin=10 EnMin= -3005.33186923073     IErMin=10 ErrMin= 1.13D-05
 ErrMax= 1.13D-05  0.00D+00 EMaxC= 1.00D-01 BMatC= 4.31D-07 BMatP= 3.87D-06
 IDIUse=1 WtCom= 1.00D+00 WtEn= 0.00D+00
 Coeff-Com: -0.101D-03 0.204D-03-0.100D-02-0.192D-02-0.231D-02 0.719D-02
 Coeff-Com:  0.350D-01 0.103D+00 0.284D+00 0.576D+00
 Coeff:     -0.101D-03 0.204D-03-0.100D-02-0.192D-02-0.231D-02 0.719D-02
 Coeff:      0.350D-01 0.103D+00 0.284D+00 0.576D+00
 Gap=     0.077 Goal=   None    Shift=    0.000
 RMSDP=1.12D-06 MaxDP=6.80D-05 DE=-4.12D-06 OVMax= 4.66D-04

 Cycle  11  Pass 1  IDiag  1:
 RMSU=  7.88D-07    CP:  9.68D-01  1.78D+00  6.16D-01  5.86D-01  4.92D-01
                    CP:  8.50D-01  6.14D-01  6.10D-01  8.69D-01  7.29D-01
 E= -3005.33186969438     Delta-E=       -0.000000463653 Rises=F Damp=F
 DIIS: error= 6.69D-06 at cycle  11 NSaved=  11.
 NSaved=11 IEnMin=11 EnMin= -3005.33186969438     IErMin=11 ErrMin= 6.69D-06
 ErrMax= 6.69D-06  0.00D+00 EMaxC= 1.00D-01 BMatC= 1.32D-07 BMatP= 4.31D-07
 IDIUse=1 WtCom= 1.00D+00 WtEn= 0.00D+00
 Coeff-Com: -0.103D-03 0.232D-03-0.225D-03-0.605D-03-0.285D-02-0.660D-02
 Coeff-Com: -0.194D-02 0.222D-01 0.929D-01 0.380D+00 0.517D+00
 Coeff:     -0.103D-03 0.232D-03-0.225D-03-0.605D-03-0.285D-02-0.660D-02
 Coeff:     -0.194D-02 0.222D-01 0.929D-01 0.380D+00 0.517D+00
 Gap=     0.077 Goal=   None    Shift=    0.000
 RMSDP=4.86D-07 MaxDP=3.48D-05 DE=-4.64D-07 OVMax= 1.95D-04

 Cycle  12  Pass 1  IDiag  1:
 RMSU=  2.91D-07    CP:  9.68D-01  1.78D+00  6.16D-01  5.86D-01  4.92D-01
                    CP:  8.51D-01  6.18D-01  6.22D-01  8.74D-01  8.61D-01
                    CP:  7.85D-01
 E= -3005.33186985241     Delta-E=       -0.000000158034 Rises=F Damp=F
 DIIS: error= 2.40D-06 at cycle  12 NSaved=  12.
 NSaved=12 IEnMin=12 EnMin= -3005.33186985241     IErMin=12 ErrMin= 2.40D-06
 ErrMax= 2.40D-06  0.00D+00 EMaxC= 1.00D-01 BMatC= 1.99D-08 BMatP= 1.32D-07
 IDIUse=1 WtCom= 1.00D+00 WtEn= 0.00D+00
 Coeff-Com: -0.301D-04 0.731D-04 0.477D-04 0.130D-03-0.142D-02-0.507D-02
 Coeff-Com: -0.815D-02-0.718D-02-0.944D-02 0.102D+00 0.276D+00 0.653D+00
 Coeff:     -0.301D-04 0.731D-04 0.477D-04 0.130D-03-0.142D-02-0.507D-02
 Coeff:     -0.815D-02-0.718D-02-0.944D-02 0.102D+00 0.276D+00 0.653D+00
 Gap=     0.077 Goal=   None    Shift=    0.000
 RMSDP=2.12D-07 MaxDP=2.65D-05 DE=-1.58D-07 OVMax= 9.75D-05

 Cycle  13  Pass 1  IDiag  1:
 RMSU=  1.37D-07    CP:  9.68D-01  1.78D+00  6.16D-01  5.86D-01  4.92D-01
                    CP:  8.52D-01  6.18D-01  6.25D-01  8.92D-01  8.85D-01
                    CP:  9.18D-01  9.05D-01
 E= -3005.33186987537     Delta-E=       -0.000000022954 Rises=F Damp=F
 DIIS: error= 1.27D-06 at cycle  13 NSaved=  13.
 NSaved=13 IEnMin=13 EnMin= -3005.33186987537     IErMin=13 ErrMin= 1.27D-06
 ErrMax= 1.27D-06  0.00D+00 EMaxC= 1.00D-01 BMatC= 4.75D-09 BMatP= 1.99D-08
 IDIUse=1 WtCom= 1.00D+00 WtEn= 0.00D+00
 Coeff-Com: -0.556D-05 0.126D-04 0.607D-04 0.205D-03-0.566D-03-0.228D-02
 Coeff-Com: -0.545D-02-0.869D-02-0.238D-01 0.110D-02 0.794D-01 0.401D+00
 Coeff-Com:  0.560D+00
 Coeff:     -0.556D-05 0.126D-04 0.607D-04 0.205D-03-0.566D-03-0.228D-02
 Coeff:     -0.545D-02-0.869D-02-0.238D-01 0.110D-02 0.794D-01 0.401D+00
 Coeff:      0.560D+00
 Gap=     0.077 Goal=   None    Shift=    0.000
 RMSDP=1.01D-07 MaxDP=9.27D-06 DE=-2.30D-08 OVMax= 5.30D-05

 Cycle  14  Pass 1  IDiag  1:
 RMSU=  6.28D-08    CP:  9.68D-01  1.78D+00  6.16D-01  5.87D-01  4.92D-01
                    CP:  8.52D-01  6.19D-01  6.27D-01  8.96D-01  8.99D-01
                    CP:  9.45D-01  1.05D+00  8.63D-01
 E= -3005.33186988209     Delta-E=       -0.000000006723 Rises=F Damp=F
 DIIS: error= 5.06D-07 at cycle  14 NSaved=  14.
 NSaved=14 IEnMin=14 EnMin= -3005.33186988209     IErMin=14 ErrMin= 5.06D-07
 ErrMax= 5.06D-07  0.00D+00 EMaxC= 1.00D-01 BMatC= 6.58D-10 BMatP= 4.75D-09
 IDIUse=1 WtCom= 1.00D+00 WtEn= 0.00D+00
 Coeff-Com: -0.678D-06-0.149D-05 0.208D-04 0.103D-03-0.123D-03-0.331D-03
 Coeff-Com: -0.162D-02-0.301D-02-0.103D-01-0.125D-01-0.353D-02 0.107D+00
 Coeff-Com:  0.307D+00 0.618D+00
 Coeff:     -0.678D-06-0.149D-05 0.208D-04 0.103D-03-0.123D-03-0.331D-03
 Coeff:     -0.162D-02-0.301D-02-0.103D-01-0.125D-01-0.353D-02 0.107D+00
 Coeff:      0.307D+00 0.618D+00
 Gap=     0.077 Goal=   None    Shift=    0.000
 RMSDP=3.73D-08 MaxDP=2.37D-06 DE=-6.72D-09 OVMax= 1.81D-05

 Cycle  15  Pass 1  IDiag  1:
 RMSU=  2.28D-08    CP:  9.68D-01  1.78D+00  6.16D-01  5.87D-01  4.92D-01
                    CP:  8.52D-01  6.19D-01  6.27D-01  8.96D-01  9.04D-01
                    CP:  9.64D-01  1.09D+00  9.88D-01  9.58D-01
 E= -3005.33186988271     Delta-E=       -0.000000000624 Rises=F Damp=F
 DIIS: error= 2.05D-07 at cycle  15 NSaved=  15.
 NSaved=15 IEnMin=15 EnMin= -3005.33186988271     IErMin=15 ErrMin= 2.05D-07
 ErrMax= 2.05D-07  0.00D+00 EMaxC= 1.00D-01 BMatC= 1.50D-10 BMatP= 6.58D-10
 IDIUse=1 WtCom= 1.00D+00 WtEn= 0.00D+00
 Coeff-Com: -0.138D-05-0.259D-06-0.452D-05 0.165D-04 0.499D-04 0.433D-03
 Coeff-Com:  0.396D-03 0.574D-03 0.123D-03-0.693D-02-0.237D-01-0.370D-01
 Coeff-Com:  0.538D-01 0.383D+00 0.629D+00
 Coeff:     -0.138D-05-0.259D-06-0.452D-05 0.165D-04 0.499D-04 0.433D-03
 Coeff:      0.396D-03 0.574D-03 0.123D-03-0.693D-02-0.237D-01-0.370D-01
 Coeff:      0.538D-01 0.383D+00 0.629D+00
 Gap=     0.077 Goal=   None    Shift=    0.000
 RMSDP=1.87D-08 MaxDP=1.45D-06 DE=-6.24D-10 OVMax= 8.58D-06

 Cycle  16  Pass 1  IDiag  1:
 RMSU=  9.09D-09    CP:  9.68D-01  1.78D+00  6.16D-01  5.87D-01  4.92D-01
                    CP:  8.52D-01  6.19D-01  6.28D-01  8.97D-01  9.05D-01
                    CP:  9.70D-01  1.12D+00  1.04D+00  1.08D+00  8.14D-01
 E= -3005.33186988308     Delta-E=       -0.000000000366 Rises=F Damp=F
 DIIS: error= 7.66D-08 at cycle  16 NSaved=  16.
 NSaved=16 IEnMin=16 EnMin= -3005.33186988308     IErMin=16 ErrMin= 7.66D-08
 ErrMax= 7.66D-08  0.00D+00 EMaxC= 1.00D-01 BMatC= 1.71D-11 BMatP= 1.50D-10
 IDIUse=1 WtCom= 1.00D+00 WtEn= 0.00D+00
 Coeff-Com: -0.132D-05 0.109D-05-0.625D-05-0.509D-05 0.353D-04 0.269D-03
 Coeff-Com:  0.407D-03 0.751D-03 0.170D-02-0.141D-02-0.119D-01-0.346D-01
 Coeff-Com: -0.175D-01 0.107D+00 0.320D+00 0.635D+00
 Coeff:     -0.132D-05 0.109D-05-0.625D-05-0.509D-05 0.353D-04 0.269D-03
 Coeff:      0.407D-03 0.751D-03 0.170D-02-0.141D-02-0.119D-01-0.346D-01
 Coeff:     -0.175D-01 0.107D+00 0.320D+00 0.635D+00
 Gap=     0.077 Goal=   None    Shift=    0.000
 RMSDP=6.71D-09 MaxDP=4.35D-07 DE=-3.66D-10 OVMax= 3.35D-06

 SCF Done:  E(RPBE1PBE) =  -3005.33186988     A.U. after   16 cycles
            NFock= 16  Conv=0.67D-08     -V/T= 2.0102
 KE= 2.974867571217D+03 PE=-2.547895399741D+04 EE= 1.025494792903D+04
 Leave Link  502 at Thu Apr 28 02:57:08 2022, MaxMem= 10066329600 cpu:            6529.4 elap:             273.7
 (Enter /sw/apps/gaussian-16.0/g16/l801.exe)
 DoSCS=F DFT=T ScalE2(SS,OS)=  1.000000  1.000000
 ExpMin= 3.36D-02 ExpMax= 4.95D+03 ExpMxC= 7.45D+02 IAcc=3 IRadAn=         5 AccDes= 0.00D+00
 HarFok:  IExCor=  205 AccDes= 0.00D+00 IRadAn=         5 IDoV=-2 UseB2=F ITyADJ=14
 ICtDFT= 12500011 ScaDFX=  1.000000  1.000000  1.000000  1.000000
 GSVD:  LWork=       -5460 too small for GESVD, short by       25550 words or       25550 for optimal perf.
 Largest valence mixing into a core orbital is  2.52D-04
 Largest core mixing into a valence orbital is  5.99D-05
 Range of M.O.s used for correlation:    71  1298
 NBasis=  1298 NAE=   246 NBE=   246 NFC=    70 NFV=     0
 NROrb=   1228 NOA=   176 NOB=   176 NVA=  1052 NVB=  1052

 **** Warning!!: The smallest alpha delta epsilon is  0.77246752D-01

 Leave Link  801 at Thu Apr 28 02:57:08 2022, MaxMem= 10066329600 cpu:               6.3 elap:               0.3
 (Enter /sw/apps/gaussian-16.0/g16/l914.exe)
 RHF ground state
 Two-electron integrals replicated using symmetry.
 MDV= 10066329600 DFT=T DoStab=F Mixed=T DoRPA=T DoScal=F NonHer=T
 Making orbital integer symmetry assigments:
 Orbital symmetries:
       Occupied  (A) (A) (A) (A) (A) (A) (A) (A) (A) (A) (A) (A)
                 (A) (A) (A) (A) (A) (A) (A) (A) (A) (A) (A) (A)
                 (A) (A) (A) (A) (A) (A) (A) (A) (A) (A) (A) (A)
                 (A) (A) (A) (A) (A) (A) (A) (A) (A) (A) (A) (A)
                 (A) (A) (A) (A) (A) (A) (A) (A) (A) (A) (A) (A)
                 (A) (A) (A) (A) (A) (A) (A) (A) (A) (A) (A) (A)
                 (A) (A) (A) (A) (A) (A) (A) (A) (A) (A) (A) (A)
                 (A) (A) (A) (A) (A) (A) (A) (A) (A) (A) (A) (A)
                 (A) (A) (A) (A) (A) (A) (A) (A) (A) (A) (A) (A)
                 (A) (A) (A) (A) (A) (A) (A) (A) (A) (A) (A) (A)
                 (A) (A) (A) (A) (A) (A) (A) (A) (A) (A) (A) (A)
                 (A) (A) (A) (A) (A) (A) (A) (A) (A) (A) (A) (A)
                 (A) (A) (A) (A) (A) (A) (A) (A) (A) (A) (A) (A)
                 (A) (A) (A) (A) (A) (A) (A) (A) (A) (A) (A) (A)
                 (A) (A) (A) (A) (A) (A) (A) (A) (A) (A) (A) (A)
                 (A) (A) (A) (A) (A) (A) (A) (A) (A) (A) (A) (A)
                 (A) (A) (A) (A) (A) (A) (A) (A) (A) (A) (A) (A)
                 (A) (A) (A) (A) (A) (A) (A) (A) (A) (A) (A) (A)
                 (A) (A) (A) (A) (A) (A) (A) (A) (A) (A) (A) (A)
                 (A) (A) (A) (A) (A) (A) (A) (A) (A) (A) (A) (A)
                 (A) (A) (A) (A) (A) (A)
       Virtual   (A) (A) (A) (A) (A) (A) (A) (A) (A) (A) (A) (A)
                 (A) (A) (A) (A) (A) (A) (A) (A) (A) (A) (A) (A)
                 (A) (A) (A) (A) (A) (A) (A) (A) (A) (A) (A) (A)
                 (A) (A) (A) (A) (A) (A) (A) (A) (A) (A) (A) (A)
                 (A) (A) (A) (A) (A) (A) (A) (A) (A) (A) (A) (A)
                 (A) (A) (A) (A) (A) (A) (A) (A) (A) (A) (A) (A)
                 (A) (A) (A) (A) (A) (A) (A) (A) (A) (A) (A) (A)
                 (A) (A) (A) (A) (A) (A) (A) (A) (A) (A) (A) (A)
                 (A) (A) (A) (A) (A) (A) (A) (A) (A) (A) (A) (A)
                 (A) (A) (A) (A) (A) (A) (A) (A) (A) (A) (A) (A)
                 (A) (A) (A) (A) (A) (A) (A) (A) (A) (A) (A) (A)
                 (A) (A) (A) (A) (A) (A) (A) (A) (A) (A) (A) (A)
                 (A) (A) (A) (A) (A) (A) (A) (A) (A) (A) (A) (A)
                 (A) (A) (A) (A) (A) (A) (A) (A) (A) (A) (A) (A)
                 (A) (A) (A) (A) (A) (A) (A) (A) (A) (A) (A) (A)
                 (A) (A) (A) (A) (A) (A) (A) (A) (A) (A) (A) (A)
                 (A) (A) (A) (A) (A) (A) (A) (A) (A) (A) (A) (A)
                 (A) (A) (A) (A) (A) (A) (A) (A) (A) (A) (A) (A)
                 (A) (A) (A) (A) (A) (A) (A) (A) (A) (A) (A) (A)
                 (A) (A) (A) (A) (A) (A) (A) (A) (A) (A) (A) (A)
                 (A) (A) (A) (A) (A) (A) (A) (A) (A) (A) (A) (A)
                 (A) (A) (A) (A) (A) (A) (A) (A) (A) (A) (A) (A)
                 (A) (A) (A) (A) (A) (A) (A) (A) (A) (A) (A) (A)
                 (A) (A) (A) (A) (A) (A) (A) (A) (A) (A) (A) (A)
                 (A) (A) (A) (A) (A) (A) (A) (A) (A) (A) (A) (A)
                 (A) (A) (A) (A) (A) (A) (A) (A) (A) (A) (A) (A)
                 (A) (A) (A) (A) (A) (A) (A) (A) (A) (A) (A) (A)
                 (A) (A) (A) (A) (A) (A) (A) (A) (A) (A) (A) (A)
                 (A) (A) (A) (A) (A) (A) (A) (A) (A) (A) (A) (A)
                 (A) (A) (A) (A) (A) (A) (A) (A) (A) (A) (A) (A)
                 (A) (A) (A) (A) (A) (A) (A) (A) (A) (A) (A) (A)
                 (A) (A) (A) (A) (A) (A) (A) (A) (A) (A) (A) (A)
                 (A) (A) (A) (A) (A) (A) (A) (A) (A) (A) (A) (A)
                 (A) (A) (A) (A) (A) (A) (A) (A) (A) (A) (A) (A)
                 (A) (A) (A) (A) (A) (A) (A) (A) (A) (A) (A) (A)
                 (A) (A) (A) (A) (A) (A) (A) (A) (A) (A) (A) (A)
                 (A) (A) (A) (A) (A) (A) (A) (A) (A) (A) (A) (A)
                 (A) (A) (A) (A) (A) (A) (A) (A) (A) (A) (A) (A)
                 (A) (A) (A) (A) (A) (A) (A) (A) (A) (A) (A) (A)
                 (A) (A) (A) (A) (A) (A) (A) (A) (A) (A) (A) (A)
                 (A) (A) (A) (A) (A) (A) (A) (A) (A) (A) (A) (A)
                 (A) (A) (A) (A) (A) (A) (A) (A) (A) (A) (A) (A)
                 (A) (A) (A) (A) (A) (A) (A) (A) (A) (A) (A) (A)
                 (A) (A) (A) (A) (A) (A) (A) (A) (A) (A) (A) (A)
                 (A) (A) (A) (A) (A) (A) (A) (A) (A) (A) (A) (A)
                 (A) (A) (A) (A) (A) (A) (A) (A) (A) (A) (A) (A)
                 (A) (A) (A) (A) (A) (A) (A) (A) (A) (A) (A) (A)
                 (A) (A) (A) (A) (A) (A) (A) (A) (A) (A) (A) (A)
                 (A) (A) (A) (A) (A) (A) (A) (A) (A) (A) (A) (A)
                 (A) (A) (A) (A) (A) (A) (A) (A) (A) (A) (A) (A)
                 (A) (A) (A) (A) (A) (A) (A) (A) (A) (A) (A) (A)
                 (A) (A) (A) (A) (A) (A) (A) (A) (A) (A) (A) (A)
                 (A) (A) (A) (A) (A) (A) (A) (A) (A) (A) (A) (A)
                 (A) (A) (A) (A) (A) (A) (A) (A) (A) (A) (A) (A)
                 (A) (A) (A) (A) (A) (A) (A) (A) (A) (A) (A) (A)
                 (A) (A) (A) (A) (A) (A) (A) (A) (A) (A) (A) (A)
                 (A) (A) (A) (A) (A) (A) (A) (A) (A) (A) (A) (A)
                 (A) (A) (A) (A) (A) (A) (A) (A) (A) (A) (A) (A)
                 (A) (A) (A) (A) (A) (A) (A) (A) (A) (A) (A) (A)
                 (A) (A) (A) (A) (A) (A) (A) (A) (A) (A) (A) (A)
                 (A) (A) (A) (A) (A) (A) (A) (A) (A) (A) (A) (A)
                 (A) (A) (A) (A) (A) (A) (A) (A) (A) (A) (A) (A)
                 (A) (A) (A) (A) (A) (A) (A) (A) (A) (A) (A) (A)
                 (A) (A) (A) (A) (A) (A) (A) (A) (A) (A) (A) (A)
                 (A) (A) (A) (A) (A) (A) (A) (A) (A) (A) (A) (A)
                 (A) (A) (A) (A) (A) (A) (A) (A) (A) (A) (A) (A)
                 (A) (A) (A) (A) (A) (A) (A) (A) (A) (A) (A) (A)
                 (A) (A) (A) (A) (A) (A) (A) (A) (A) (A) (A) (A)
                 (A) (A) (A) (A) (A) (A) (A) (A) (A) (A) (A) (A)
                 (A) (A) (A) (A) (A) (A) (A) (A) (A) (A) (A) (A)
                 (A) (A) (A) (A) (A) (A) (A) (A) (A) (A) (A) (A)
                 (A) (A) (A) (A) (A) (A) (A) (A) (A) (A) (A) (A)
                 (A) (A) (A) (A) (A) (A) (A) (A) (A) (A) (A) (A)
                 (A) (A) (A) (A) (A) (A) (A) (A) (A) (A) (A) (A)
                 (A) (A) (A) (A) (A) (A) (A) (A) (A) (A) (A) (A)
                 (A) (A) (A) (A) (A) (A) (A) (A) (A) (A) (A) (A)
                 (A) (A) (A) (A) (A) (A) (A) (A) (A) (A) (A) (A)
                 (A) (A) (A) (A) (A) (A) (A) (A) (A) (A) (A) (A)
                 (A) (A) (A) (A) (A) (A) (A) (A) (A) (A) (A) (A)
                 (A) (A) (A) (A) (A) (A) (A) (A) (A) (A) (A) (A)
                 (A) (A) (A) (A) (A) (A) (A) (A) (A) (A) (A) (A)
                 (A) (A) (A) (A) (A) (A) (A) (A) (A) (A) (A) (A)
                 (A) (A) (A) (A) (A) (A) (A) (A) (A) (A) (A) (A)
                 (A) (A) (A) (A) (A) (A) (A) (A) (A) (A) (A) (A)
                 (A) (A) (A) (A) (A) (A) (A) (A) (A) (A) (A) (A)
                 (A) (A) (A) (A) (A) (A) (A) (A) (A) (A) (A) (A)
                 (A) (A) (A) (A) (A) (A) (A) (A) (A) (A) (A) (A)
                 (A) (A) (A) (A) (A) (A) (A) (A)
    20 initial guesses have been made.
 Convergence on wavefunction:    0.001000000000000
 Davidson Disk Diagonalization:  ConvIn= 1.00D-03 SkipCon=T Conv= 1.00D-03.
 Max sub-space:  2000 roots to seek:    20 dimension of matrix:       370304
 Iteration     1 Dimension    20 NMult     0 NNew     20
 CISAX will form    20 AO SS matrices at one time.
 NMat=    20 NSing=    20 JSym2X= 0.
 FoFJK:  IHMeth= 1 ICntrl=       0 DoSepK=F KAlg= 0 I1Cent=           0 FoldK=F
 IRaf= 490000000 NMat=      40 IRICut=       1 DoRegI=T DoRafI=F ISym2E= 0 IDoP0=3 IntGTp=3.
 FoFCou: FMM=T IPFlag=           0 FMFlag=      100000 FMFlg1=        2001
         NFxFlg=           0 DoJE=F BraDBF=F KetDBF=F FulRan=T
         wScrn=  0.000000 ICntrl=         0 IOpCl=  0 I1Cent=           0 NGrid=           0
         NMat0=   40 NMatS0=     20 NMatT0=    0 NMatD0=   40 NMtDS0=    0 NMtDT0=    0
 Symmetry not used in FoFCou.
 FMM levels:  10  Number of levels for PrismC:   9
 New state      4 was old state      5
 New state      5 was old state      9
 Excitation Energies [eV] at current iteration:
 Root      1 :     2.241018528998666
 Root      2 :     2.599862392133493
 Root      3 :     2.975961593665598
 Root      4 :     3.358946859770099
 Root      5 :     3.422168393054497
 Root      6 :     3.598434014865555
 Root      7 :     3.604727514993024
 Root      8 :     3.748367648135713
 Root      9 :     3.858026986415467
 Root     10 :     3.985704456345469
 Root     11 :     4.113368304947433
 Root     12 :     4.251422390605843
 Root     13 :     4.359691199142928
 Root     14 :     4.392814619515268
 Root     15 :     4.438724791734283
 Root     16 :     4.473230895135607
 Root     17 :     4.501766564287291
 Root     18 :     4.781538996199699
 Root     19 :     4.937830976569757
 Root     20 :     4.968725467913148
 Iteration     2 Dimension    30 NMult    20 NNew     10
 CISAX will form    10 AO SS matrices at one time.
 NMat=    10 NSing=    10 JSym2X= 0.
 Root      1 not converged, maximum delta is    0.054099749732472
 Root      2 not converged, maximum delta is    0.056614859876403
 Root      3 not converged, maximum delta is    0.137055982944688
 Root      4 not converged, maximum delta is    0.058559860243014
 Root      5 not converged, maximum delta is    0.126579541425876
 Excitation Energies [eV] at current iteration:
 Root      1 :     1.909346144212239   Change is   -0.331672384786427
 Root      2 :     2.322923282978819   Change is   -0.276939109154673
 Root      3 :     2.860836455354309   Change is   -0.115125138311289
 Root      4 :     3.123511454104106   Change is   -0.235435405665993
 Root      5 :     3.252319693233689   Change is   -0.169848699820809
 Iteration     3 Dimension    40 NMult    30 NNew     10
 CISAX will form    10 AO SS matrices at one time.
 NMat=    10 NSing=    10 JSym2X= 0.
 Root      1 not converged, maximum delta is    0.023598482707738
 Root      2 not converged, maximum delta is    0.021096668797174
 Root      3 not converged, maximum delta is    0.024968497610747
 Root      4 not converged, maximum delta is    0.008961841089538
 Root      5 not converged, maximum delta is    0.021924106226564
 Excitation Energies [eV] at current iteration:
 Root      1 :     1.877637484406565   Change is   -0.031708659805674
 Root      2 :     2.305577246534301   Change is   -0.017346036444519
 Root      3 :     2.849159614403157   Change is   -0.011676840951151
 Root      4 :     3.109483439623546   Change is   -0.014028014480560
 Root      5 :     3.231818790503974   Change is   -0.020500902729714
 Iteration     4 Dimension    50 NMult    40 NNew     10
 CISAX will form    10 AO SS matrices at one time.
 NMat=    10 NSing=    10 JSym2X= 0.
 Root      1 not converged, maximum delta is    0.002412666254953
 Root      2 not converged, maximum delta is    0.007025189761325
 Root      3 not converged, maximum delta is    0.003443464194350
 Root      4 not converged, maximum delta is    0.004399858267147
 Root      5 not converged, maximum delta is    0.024022277342850
 Excitation Energies [eV] at current iteration:
 Root      1 :     1.874125728799515   Change is   -0.003511755607050
 Root      2 :     2.303125964696786   Change is   -0.002451281837515
 Root      3 :     2.848113333999096   Change is   -0.001046280404062
 Root      4 :     3.107569481923865   Change is   -0.001913957699682
 Root      5 :     3.227864060891736   Change is   -0.003954729612239
 Iteration     5 Dimension    60 NMult    50 NNew     10
 CISAX will form    10 AO SS matrices at one time.
 NMat=    10 NSing=    10 JSym2X= 0.
 Root      1 not converged, maximum delta is    0.001144425586266
 Root      2 has converged.
 Root      3 has converged.
 Root      4 not converged, maximum delta is    0.002291816777497
 Root      5 not converged, maximum delta is    0.012721247530083
 Excitation Energies [eV] at current iteration:
 Root      1 :     1.873700039488102   Change is   -0.000425689311413
 Root      2 :     2.302957371126432   Change is   -0.000168593570355
 Root      3 :     2.847965873446746   Change is   -0.000147460552349
 Root      4 :     3.107311530583543   Change is   -0.000257951340322
 Root      5 :     3.227302330244169   Change is   -0.000561730647567
 Iteration     6 Dimension    66 NMult    60 NNew      6
 CISAX will form     6 AO SS matrices at one time.
 NMat=     6 NSing=     6 JSym2X= 0.
 Root      1 has converged.
 Root      2 has converged.
 Root      3 has converged.
 Root      4 has converged.
 Root      5 not converged, maximum delta is    0.011848222087843
 Excitation Energies [eV] at current iteration:
 Root      1 :     1.873665274776250   Change is   -0.000034764711852
 Root      2 :     2.302955136923945   Change is   -0.000002234202487
 Root      3 :     2.847964649277300   Change is   -0.000001224169446
 Root      4 :     3.107283110196282   Change is   -0.000028420387261
 Root      5 :     3.227142029492092   Change is   -0.000160300752077
 Iteration     7 Dimension    68 NMult    66 NNew      2
 CISAX will form     2 AO SS matrices at one time.
 NMat=     2 NSing=     2 JSym2X= 0.
 Root      1 has converged.
 Root      2 has converged.
 Root      3 has converged.
 Root      4 has converged.
 Root      5 not converged, maximum delta is    0.006904576258400
 Excitation Energies [eV] at current iteration:
 Root      1 :     1.873665223920151   Change is   -0.000000050856100
 Root      2 :     2.302955098568947   Change is   -0.000000038354997
 Root      3 :     2.847964151934462   Change is   -0.000000497342839
 Root      4 :     3.107282747118985   Change is   -0.000000363077297
 Root      5 :     3.227092411273326   Change is   -0.000049618218766
 Iteration     8 Dimension    70 NMult    68 NNew      2
 CISAX will form     2 AO SS matrices at one time.
 NMat=     2 NSing=     2 JSym2X= 0.
 Root      1 has converged.
 Root      2 has converged.
 Root      3 has converged.
 Root      4 has converged.
 Root      5 not converged, maximum delta is    0.002641916783765
 Excitation Energies [eV] at current iteration:
 Root      1 :     1.873665210046185   Change is   -0.000000013873966
 Root      2 :     2.302953973796540   Change is   -0.000001124772407
 Root      3 :     2.847963993313924   Change is   -0.000000158620537
 Root      4 :     3.107282691626579   Change is   -0.000000055492406
 Root      5 :     3.227080150060009   Change is   -0.000012261213317
 Iteration     9 Dimension    72 NMult    70 NNew      2
 CISAX will form     2 AO SS matrices at one time.
 NMat=     2 NSing=     2 JSym2X= 0.
 Root      1 has converged.
 Root      2 has converged.
 Root      3 has converged.
 Root      4 has converged.
 Root      5 has converged.
 Excitation Energies [eV] at current iteration:
 Root      1 :     1.873665194135310   Change is   -0.000000015910874
 Root      2 :     2.302953754403095   Change is   -0.000000219393445
 Root      3 :     2.847963910495905   Change is   -0.000000082818020
 Root      4 :     3.107282689416067   Change is   -0.000000002210512
 Root      5 :     3.227078174097735   Change is   -0.000001975962275
 Convergence achieved on expansion vectors.
 ***********************************************************************
 Excited states from <AA,BB:AA,BB> singles matrix:
 ***********************************************************************
 
 1PDM for each excited state written to RWF  633
 Ground to excited state transition densities written to RWF  633
 Ground to excited state transition electric dipole moments (Au):
       state          X           Y           Z        Dip. S.      Osc.
         1        -0.0342      2.4600     -1.4262      8.0870      0.3712
         2         1.3067      0.6276      0.3492      2.2234      0.1254
         3         0.0294      0.0573      0.0080      0.0042      0.0003
         4        -0.2852     -0.1666     -0.0141      0.1093      0.0083
         5        -0.0594      0.1020     -0.0510      0.0165      0.0013
 Ground to excited state transition velocity dipole moments (Au):
       state          X           Y           Z        Dip. S.      Osc.
         1         0.0018     -0.1635      0.0958      0.0359      0.3476
         2        -0.1047     -0.0505     -0.0276      0.0143      0.1125
         3        -0.0035     -0.0054      0.0022      0.0000      0.0003
         4         0.0325      0.0172      0.0028      0.0014      0.0079
         5         0.0039     -0.0090      0.0046      0.0001      0.0007
 Ground to excited state transition magnetic dipole moments (Au):
       state          X           Y           Z
         1         0.1205     -1.1444     -2.0115
         2        -0.3688      0.6041      0.0954
         3        -0.1149     -0.4675      0.0754
         4        -0.2150      0.1938      0.7155
         5        -0.6043     -0.0184     -0.0054
 Ground to excited state transition velocity quadrupole moments (Au):
       state          XX          YY          ZZ          XY          XZ          YZ
         1         0.1600     -0.3479     -0.0055     -1.9772      1.2010      0.1440
         2        -2.2287     -0.0635     -0.0205     -0.5852     -0.3436      0.0111
         3        -0.0580      0.0588      0.0034      0.0065      0.0164      0.0010
         4         0.6075     -0.0619      0.0667     -0.1022      0.1091     -0.0917
         5         0.1227     -0.3119      0.0589     -0.2253      0.1371      0.0512
 <0|del|b> * <b|rxdel|0> + <0|del|b> * <b|delr+rdel|0>
 Rotatory Strengths (R) in cgs (10**-40 erg-esu-cm/Gauss)
       state          XX          YY          ZZ    R(velocity)    E-M Angle
         1         7.7507    -14.4853    -47.7137    -18.1494       90.69
         2      -143.5810     78.0561    111.1801     15.2184       86.33
         3         9.4092      1.8466      9.5617      6.9392       20.97
         4         9.7544    -23.8991      3.6876     -3.4857       93.40
         5         1.0073     -3.3250    -10.7359     -4.3512      109.47
 1/2[<0|r|b>*<b|rxdel|0> + (<0|rxdel|b>*<b|r|0>)*]
 Rotatory Strengths (R) in cgs (10**-40 erg-esu-cm/Gauss)
       state          XX          YY          ZZ     R(length)
         1         2.9119   1990.8617  -2028.7891    -11.6718
         2       340.8141   -268.1202    -23.5457     16.3827
         3         2.3924     18.9489     -0.4263      6.9717
         4       -43.3721     22.8363      7.1392     -4.4655
         5       -25.3819      1.3273     -0.1944     -8.0830
  1/2[<0|del|b>*<b|r|0> + (<0|r|b>*<b|del|0>)*] (Au)
       state          X           Y           Z        Dip. S.   Osc.(frdel)
         1        -0.0001     -0.4022     -0.1366      0.5388      0.3592
         2        -0.1368     -0.0317     -0.0096      0.1782      0.1188
         3        -0.0001     -0.0003      0.0000      0.0004      0.0003
         4        -0.0093     -0.0029     -0.0000      0.0122      0.0081
         5        -0.0002     -0.0009     -0.0002      0.0014      0.0009

 Excitation energies and oscillator strengths:
 
 Excited State   1:      Singlet-A      1.8737 eV  661.72 nm  f=0.3712  <S**2>=0.000
     245 -> 248       -0.14885
     246 -> 247        0.69498
     246 <- 247       -0.10400
 This state for optimization and/or second-order correction.
 Total Energy, E(TD-HF/TD-DFT) =  -3005.26301395    
 Copying the excited state density for this state as the 1-particle RhoCI density.
 
 Excited State   2:      Singlet-A      2.3030 eV  538.37 nm  f=0.1254  <S**2>=0.000
     245 -> 247        0.65102
     246 -> 248        0.24177
     246 -> 249       -0.10691
 
 Excited State   3:      Singlet-A      2.8480 eV  435.34 nm  f=0.0003  <S**2>=0.000
     244 -> 247        0.67051
     244 -> 249       -0.15458
     244 -> 250       -0.12128
 
 Excited State   4:      Singlet-A      3.1073 eV  399.01 nm  f=0.0083  <S**2>=0.000
     243 -> 247        0.68980
 
 Excited State   5:      Singlet-A      3.2271 eV  384.20 nm  f=0.0013  <S**2>=0.000
     239 -> 247       -0.11404
     240 -> 247        0.47109
     240 -> 248        0.13189
     240 -> 249        0.13713
     241 -> 247        0.44329
 SavETr:  write IOETrn=   770 NScale= 10 NData=  16 NLR=1 NState=    5 LETran=     100.
 Leave Link  914 at Thu Apr 28 03:12:54 2022, MaxMem= 10066329600 cpu:           22648.2 elap:             945.3
 (Enter /sw/apps/gaussian-16.0/g16/l601.exe)
 Copying SCF densities to generalized density rwf, IOpCl= 0 IROHF=0.
 Hyperfine terms turned off by default for NAtoms > 100.

 **********************************************************************

            Population analysis using the SCF density.

 **********************************************************************

 Orbital symmetries:
       Occupied  (A) (A) (A) (A) (A) (A) (A) (A) (A) (A) (A) (A)
                 (A) (A) (A) (A) (A) (A) (A) (A) (A) (A) (A) (A)
                 (A) (A) (A) (A) (A) (A) (A) (A) (A) (A) (A) (A)
                 (A) (A) (A) (A) (A) (A) (A) (A) (A) (A) (A) (A)
                 (A) (A) (A) (A) (A) (A) (A) (A) (A) (A) (A) (A)
                 (A) (A) (A) (A) (A) (A) (A) (A) (A) (A) (A) (A)
                 (A) (A) (A) (A) (A) (A) (A) (A) (A) (A) (A) (A)
                 (A) (A) (A) (A) (A) (A) (A) (A) (A) (A) (A) (A)
                 (A) (A) (A) (A) (A) (A) (A) (A) (A) (A) (A) (A)
                 (A) (A) (A) (A) (A) (A) (A) (A) (A) (A) (A) (A)
                 (A) (A) (A) (A) (A) (A) (A) (A) (A) (A) (A) (A)
                 (A) (A) (A) (A) (A) (A) (A) (A) (A) (A) (A) (A)
                 (A) (A) (A) (A) (A) (A) (A) (A) (A) (A) (A) (A)
                 (A) (A) (A) (A) (A) (A) (A) (A) (A) (A) (A) (A)
                 (A) (A) (A) (A) (A) (A) (A) (A) (A) (A) (A) (A)
                 (A) (A) (A) (A) (A) (A) (A) (A) (A) (A) (A) (A)
                 (A) (A) (A) (A) (A) (A) (A) (A) (A) (A) (A) (A)
                 (A) (A) (A) (A) (A) (A) (A) (A) (A) (A) (A) (A)
                 (A) (A) (A) (A) (A) (A) (A) (A) (A) (A) (A) (A)
                 (A) (A) (A) (A) (A) (A) (A) (A) (A) (A) (A) (A)
                 (A) (A) (A) (A) (A) (A)
       Virtual   (A) (A) (A) (A) (A) (A) (A) (A) (A) (A) (A) (A)
                 (A) (A) (A) (A) (A) (A) (A) (A) (A) (A) (A) (A)
                 (A) (A) (A) (A) (A) (A) (A) (A) (A) (A) (A) (A)
                 (A) (A) (A) (A) (A) (A) (A) (A) (A) (A) (A) (A)
                 (A) (A) (A) (A) (A) (A) (A) (A) (A) (A) (A) (A)
                 (A) (A) (A) (A) (A) (A) (A) (A) (A) (A) (A) (A)
                 (A) (A) (A) (A) (A) (A) (A) (A) (A) (A) (A) (A)
                 (A) (A) (A) (A) (A) (A) (A) (A) (A) (A) (A) (A)
                 (A) (A) (A) (A) (A) (A) (A) (A) (A) (A) (A) (A)
                 (A) (A) (A) (A) (A) (A) (A) (A) (A) (A) (A) (A)
                 (A) (A) (A) (A) (A) (A) (A) (A) (A) (A) (A) (A)
                 (A) (A) (A) (A) (A) (A) (A) (A) (A) (A) (A) (A)
[...]
 Alpha virt. eigenvalues --    1.14926   1.15418   1.16221   1.16400   1.16911
 Alpha virt. eigenvalues --    1.17602   1.17867   1.18711   1.18812   1.19235
 Alpha virt. eigenvalues --    1.19741   1.20144   1.20808   1.21200   1.21713
 Alpha virt. eigenvalues --    1.22168   1.22880   1.23110   1.23163   1.23835
 Alpha virt. eigenvalues --    1.24149   1.24465   1.25042   1.25214   1.25370
 Alpha virt. eigenvalues --    1.25574   1.25955   1.27084   1.27531   1.28475
 Alpha virt. eigenvalues --    1.29259   1.29616   1.29934   1.30145   1.30358
 Alpha virt. eigenvalues --    1.30835   1.31075   1.31627   1.32184   1.32433
 Alpha virt. eigenvalues --    1.32910   1.33563   1.33788   1.33944   1.34281
 Alpha virt. eigenvalues --    1.34399   1.34550   1.34982   1.35310   1.35681
 Alpha virt. eigenvalues --    1.36811   1.37380   1.37634   1.37834   1.38290
 Alpha virt. eigenvalues --    1.38323   1.38620   1.39085   1.39418   1.39769
 Alpha virt. eigenvalues --    1.40625   1.40877   1.41097   1.41158   1.41811
 Alpha virt. eigenvalues --    1.42134   1.42482   1.42698   1.43128   1.43698
 Alpha virt. eigenvalues --    1.44206   1.44582   1.45151   1.45444   1.45623
 Alpha virt. eigenvalues --    1.46190   1.46481   1.47185   1.47793   1.48161
 Alpha virt. eigenvalues --    1.48594   1.48990   1.50136   1.50842   1.50922
 Alpha virt. eigenvalues --    1.51399   1.51549   1.51986   1.52010   1.52163
 Alpha virt. eigenvalues --    1.52484   1.52650   1.53444   1.53680   1.53706
 Alpha virt. eigenvalues --    1.54097   1.54312   1.54468   1.54782   1.55050
 Alpha virt. eigenvalues --    1.55086   1.55434   1.55472   1.55797   1.55922
 Alpha virt. eigenvalues --    1.56124   1.56343   1.56385   1.56837   1.57014
 Alpha virt. eigenvalues --    1.57531   1.57804   1.58109   1.58385   1.58608
 Alpha virt. eigenvalues --    1.59105   1.59473   1.60192   1.60494   1.61006
 Alpha virt. eigenvalues --    1.61257   1.61767   1.62555   1.62786   1.63000
 Alpha virt. eigenvalues --    1.63046   1.64210   1.64438   1.65114   1.65335
 Alpha virt. eigenvalues --    1.66281   1.66891   1.67120   1.67393   1.67803
 Alpha virt. eigenvalues --    1.67915   1.68110   1.68350   1.68916   1.69458
 Alpha virt. eigenvalues --    1.70071   1.70208   1.70656   1.70846   1.70935
 Alpha virt. eigenvalues --    1.71205   1.71507   1.72208   1.72527   1.72678
 Alpha virt. eigenvalues --    1.73121   1.73579   1.73702   1.74189   1.74430
 Alpha virt. eigenvalues --    1.74773   1.74818   1.74976   1.75204   1.75326
 Alpha virt. eigenvalues --    1.75339   1.75425   1.75814   1.76079   1.76426
 Alpha virt. eigenvalues --    1.76580   1.76812   1.76904   1.76961   1.77316
 Alpha virt. eigenvalues --    1.77671   1.77859   1.78031   1.78149   1.78211
 Alpha virt. eigenvalues --    1.78620   1.78703   1.78958   1.79109   1.79235
 Alpha virt. eigenvalues --    1.79491   1.79872   1.79980   1.80010   1.80231
 Alpha virt. eigenvalues --    1.80562   1.80971   1.81090   1.81227   1.81501
 Alpha virt. eigenvalues --    1.81750   1.81956   1.82176   1.82365   1.82385
 Alpha virt. eigenvalues --    1.82583   1.82836   1.83286   1.83416   1.83721
 Alpha virt. eigenvalues --    1.83865   1.84047   1.84180   1.84787   1.84973
 Alpha virt. eigenvalues --    1.85152   1.85360   1.85525   1.85630   1.85730
 Alpha virt. eigenvalues --    1.86263   1.86525   1.86784   1.87096   1.87250
 Alpha virt. eigenvalues --    1.87393   1.87480   1.87820   1.88032   1.88075
 Alpha virt. eigenvalues --    1.88355   1.88684   1.88952   1.89015   1.89276
 Alpha virt. eigenvalues --    1.89491   1.90084   1.90283   1.90502   1.90773
 Alpha virt. eigenvalues --    1.90978   1.91250   1.91411   1.91519   1.91989
 Alpha virt. eigenvalues --    1.92114   1.92172   1.92799   1.92957   1.92998
 Alpha virt. eigenvalues --    1.93389   1.93496   1.93675   1.93963   1.94072
 Alpha virt. eigenvalues --    1.94731   1.94897   1.95194   1.95216   1.95298
 Alpha virt. eigenvalues --    1.95741   1.96165   1.96259   1.96415   1.96581
 Alpha virt. eigenvalues --    1.96874   1.97185   1.97391   1.97566   1.97834
 Alpha virt. eigenvalues --    1.98374   1.98557   1.99067   1.99110   1.99854
 Alpha virt. eigenvalues --    2.00197   2.00392   2.00923   2.01405   2.01616
 Alpha virt. eigenvalues --    2.01844   2.02231   2.02398   2.02673   2.02891
 Alpha virt. eigenvalues --    2.03261   2.03566   2.03866   2.04086   2.04350
 Alpha virt. eigenvalues --    2.04558   2.04896   2.05288   2.05480   2.05623
 Alpha virt. eigenvalues --    2.05778   2.05931   2.06873   2.07101   2.07272
 Alpha virt. eigenvalues --    2.07599   2.07727   2.07808   2.08121   2.08620
 Alpha virt. eigenvalues --    2.09002   2.09109   2.09342   2.09637   2.09924
 Alpha virt. eigenvalues --    2.10165   2.10764   2.11295   2.11529   2.11819
 Alpha virt. eigenvalues --    2.12222   2.12560   2.12601   2.13043   2.13139
 Alpha virt. eigenvalues --    2.13789   2.14034   2.14376   2.14758   2.15425
 Alpha virt. eigenvalues --    2.15461   2.15612   2.16237   2.16604   2.16772
 Alpha virt. eigenvalues --    2.17249   2.17326   2.17899   2.18106   2.19335
 Alpha virt. eigenvalues --    2.19489   2.19777   2.19851   2.20692   2.21123
 Alpha virt. eigenvalues --    2.21139   2.21358   2.21797   2.22107   2.22717
 Alpha virt. eigenvalues --    2.23261   2.23766   2.23977   2.24813   2.24880
 Alpha virt. eigenvalues --    2.25515   2.25786   2.25848   2.26354   2.27215
 Alpha virt. eigenvalues --    2.27394   2.27872   2.28408   2.29142   2.29599
 Alpha virt. eigenvalues --    2.30157   2.30483   2.30598   2.31500   2.31769
 Alpha virt. eigenvalues --    2.32009   2.32331   2.32558   2.32982   2.33059
 Alpha virt. eigenvalues --    2.33481   2.34066   2.34084   2.34493   2.34985
 Alpha virt. eigenvalues --    2.35004   2.35228   2.36232   2.36325   2.36481
 Alpha virt. eigenvalues --    2.36607   2.36958   2.37460   2.37655   2.38049
 Alpha virt. eigenvalues --    2.38199   2.38682   2.39307   2.40245   2.40496
 Alpha virt. eigenvalues --    2.40909   2.40963   2.41572   2.41926   2.42119
 Alpha virt. eigenvalues --    2.42229   2.42673   2.43023   2.43482   2.43547
 Alpha virt. eigenvalues --    2.44281   2.44445   2.44511   2.44587   2.44823
 Alpha virt. eigenvalues --    2.45822   2.45917   2.46096   2.46635   2.46729
 Alpha virt. eigenvalues --    2.47011   2.47735   2.47928   2.48579   2.49684
 Alpha virt. eigenvalues --    2.49825   2.50471   2.51163   2.51488   2.51733
 Alpha virt. eigenvalues --    2.52040   2.52214   2.52782   2.53529   2.53618
 Alpha virt. eigenvalues --    2.54264   2.54378   2.54842   2.55001   2.55293
 Alpha virt. eigenvalues --    2.55669   2.55940   2.56133   2.56417   2.57650
 Alpha virt. eigenvalues --    2.57825   2.58154   2.58623   2.59097   2.59166
 Alpha virt. eigenvalues --    2.59547   2.60063   2.60359   2.61044   2.61847
 Alpha virt. eigenvalues --    2.61970   2.62129   2.62720   2.62743   2.63046
 Alpha virt. eigenvalues --    2.63492   2.64198   2.64645   2.64768   2.65368
 Alpha virt. eigenvalues --    2.65502   2.65930   2.66251   2.66404   2.66904
 Alpha virt. eigenvalues --    2.67692   2.68112   2.68502   2.68582   2.69060
 Alpha virt. eigenvalues --    2.69549   2.70116   2.70544   2.70654   2.71156
 Alpha virt. eigenvalues --    2.71714   2.71867   2.72941   2.73326   2.73712
 Alpha virt. eigenvalues --    2.73911   2.74478   2.74548   2.74732   2.75473
 Alpha virt. eigenvalues --    2.75705   2.75923   2.76695   2.77592   2.77769
 Alpha virt. eigenvalues --    2.77888   2.78631   2.79447   2.80087   2.80364
 Alpha virt. eigenvalues --    2.81255   2.81443   2.82155   2.83278   2.83477
 Alpha virt. eigenvalues --    2.83760   2.83865   2.84610   2.85391   2.85473
 Alpha virt. eigenvalues --    2.86339   2.86803   2.87925   2.88088   2.88829
 Alpha virt. eigenvalues --    2.89175   2.89478   2.89720   2.90036   2.90155
 Alpha virt. eigenvalues --    2.90707   2.90810   2.91383   2.91458   2.92218
 Alpha virt. eigenvalues --    2.92397   2.92637   2.93408   2.93705   2.94103
 Alpha virt. eigenvalues --    2.94252   2.94544   2.94699   2.94857   2.95018
 Alpha virt. eigenvalues --    2.95570   2.95980   2.96324   2.96666   2.96817
 Alpha virt. eigenvalues --    2.96930   2.96987   2.97595   2.98177   2.98232
 Alpha virt. eigenvalues --    2.98572   2.98905   2.99173   2.99433   2.99689
 Alpha virt. eigenvalues --    3.00012   3.00308   3.00581   3.01359   3.01436
 Alpha virt. eigenvalues --    3.01595   3.02081   3.02433   3.02928   3.03109
 Alpha virt. eigenvalues --    3.03550   3.03724   3.03801   3.04707   3.04886
 Alpha virt. eigenvalues --    3.05852   3.07204   3.07518   3.07681   3.07821
 Alpha virt. eigenvalues --    3.08086   3.08475   3.08613   3.09588   3.09879
 Alpha virt. eigenvalues --    3.10261   3.10697   3.10879   3.12339   3.12822
 Alpha virt. eigenvalues --    3.13059   3.13158   3.13718   3.14549   3.14787
 Alpha virt. eigenvalues --    3.15011   3.15664   3.16024   3.18633   3.19315
 Alpha virt. eigenvalues --    3.20857   3.21426   3.21732   3.22615   3.24546
 Alpha virt. eigenvalues --    3.25648   3.26802   3.36524   3.38289   3.41566
 Alpha virt. eigenvalues --    3.44561   3.44834   3.47008   3.49277   3.52978
 Alpha virt. eigenvalues --    3.57660   3.58502   3.62590   3.63163   3.66088
 Alpha virt. eigenvalues --    3.67368   3.70019
          Condensed to atoms (all electrons):
 Mulliken charges:
               1
     1  Mg   1.017308
     2  C   -0.002263
     3  C   -0.107540
     4  C   -0.054154
     5  C   -0.070086
     6  N   -0.390361
     7  C    0.030188
     8  C   -0.081310
     9  C   -0.139638
    10  C    0.070127
    11  C    0.010255
    12  C   -0.002339
    13  C   -0.035980
    14  C    0.247997
    15  O   -0.266288
    16  O   -0.372620
    17  N   -0.506275
    18  C    0.216177
    19  C   -0.188994
    20  C   -0.094448
    21  C    0.144666
    22  C    0.058895
    23  C    0.070808
    24  O   -0.244767
    25  C   -0.029441
    26  N   -0.373211
    27  C    0.059867
    28  C   -0.093876
    29  C   -0.062044
    30  C    0.070040
    31  C   -0.002600
    32  C   -0.014070
    33  C   -0.084502
    34  N   -0.535587
    35  C    0.142480
    36  C   -0.167375
    37  C    0.011514
    38  C    0.153584
    39  C    0.074868
    40  C    0.096492
    41  O   -0.260653
    42  C   -0.134415
    43  C    0.302665
    44  O   -0.267915
    45  O   -0.368897
    46  C    0.120507
    47  C    0.270103
    48  C   -0.155099
    49  C   -0.231001
    50  C    0.009883
    51  C   -0.007140
    52  C   -0.009332
    53  C    0.012607
    54  C   -0.207389
    55  C   -0.018996
    56  C   -0.006791
    57  C   -0.078152
    58  C    0.004912
    59  C   -0.217763
    60  C   -0.017872
    61  C    0.021006
    62  C   -0.119401
    63  C    0.005950
    64  C   -0.223597
    65  C   -0.050732
    66  C   -0.009733
    67  H    0.000111
    68  H    0.022215
    69  H   -0.010428
    70  H    0.082746
    71  H    0.052104
    72  H    0.062118
    73  H    0.037889
    74  H    0.062808
    75  H    0.037347
    76  H    0.061725
    77  H    0.062631
    78  H    0.054959
    79  H    0.055567
    80  H    0.063608
    81  H    0.050035
    82  H    0.052864
    83  H    0.052385
    84  H    0.084441
    85  H    0.055509
    86  H    0.047673
    87  H    0.050070
    88  H    0.051309
    89  H    0.072813
    90  H    0.042184
    91  H    0.039432
    92  H    0.046096
    93  H    0.025406
    94  H    0.032915
    95  H    0.040440
    96  H    0.057721
    97  H    0.056676
    98  H    0.086933
    99  H    0.048215
   100  H    0.077839
   101  H    0.055535
   102  H    0.047197
   103  H    0.069100
   104  H    0.020612
   105  H    0.049296
   106  H    0.053900
   107  H    0.033702
   108  H    0.032570
   109  H    0.012179
   110  H    0.030219
   111  H    0.036444
   112  H    0.031139
   113  H    0.025282
   114  H    0.028825
   115  H    0.027966
   116  H    0.029607
   117  H    0.025630
   118  H    0.029534
   119  H    0.038055
   120  H    0.030197
   121  H    0.027892
   122  H    0.026106
   123  H    0.027621
   124  H    0.045941
   125  H    0.036170
   126  H    0.026512
   127  H    0.044632
   128  H    0.029089
   129  H    0.027109
   130  H    0.027500
   131  H    0.030620
   132  H    0.030231
   133  H    0.019754
   134  H    0.040714
   135  H    0.035436
   136  H    0.030553
   137  H    0.037391
   138  H    0.034579
   139  H    0.043176
   140  H    0.037375
 Sum of Mulliken charges =  -0.00000
 Mulliken charges with hydrogens summed into heavy atoms:
               1
     1  Mg   1.017308
     2  C   -0.002263
     3  C   -0.107429
     4  C   -0.031940
     5  C   -0.080514
     6  N   -0.390361
     7  C    0.030188
     8  C    0.001436
     9  C   -0.087534
    10  C    0.070127
    11  C    0.173070
    12  C    0.096734
    13  C    0.081610
    14  C    0.247997
    15  O   -0.266288
    16  O   -0.372620
    17  N   -0.506275
    18  C    0.216177
    19  C   -0.188994
    20  C   -0.094448
    21  C    0.144666
    22  C    0.228106
    23  C    0.070808
    24  O   -0.244767
    25  C    0.160249
    26  N   -0.373211
    27  C    0.059867
    28  C   -0.038366
    29  C   -0.014371
    30  C    0.070040
    31  C    0.171593
    32  C    0.067545
    33  C    0.019914
    34  N   -0.535587
    35  C    0.142480
    36  C   -0.167375
    37  C    0.011514
    38  C    0.153584
    39  C    0.229705
    40  C    0.096492
    41  O   -0.260653
    42  C   -0.047482
    43  C    0.302665
    44  O   -0.267915
    45  O   -0.368897
    46  C    0.302097
    47  C    0.386400
    48  C   -0.134487
    49  C   -0.231001
    50  C    0.146781
    51  C    0.037609
    52  C    0.057332
    53  C    0.069028
    54  C   -0.178564
    55  C    0.064206
    56  C    0.060798
    57  C   -0.020063
    58  C    0.058639
    59  C   -0.171822
    60  C    0.089442
    61  C    0.077203
    62  C   -0.061281
    63  C    0.055935
    64  C   -0.182883
    65  C    0.052648
    66  C    0.105397
 Electronic spatial extent (au):  <R**2>=         147973.2196
 Charge=             -0.0000 electrons
 Dipole moment (field-independent basis, Debye):
    X=             -3.2056    Y=              5.9659    Z=             -1.1419  Tot=              6.8682
 Quadrupole moment (field-independent basis, Debye-Ang):
   XX=           -377.0264   YY=           -430.7832   ZZ=           -389.4048
   XY=             20.4069   XZ=             15.3102   YZ=             -6.8103
 Traceless Quadrupole moment (field-independent basis, Debye-Ang):
   XX=             22.0451   YY=            -31.7117   ZZ=              9.6667
   XY=             20.4069   XZ=             15.3102   YZ=             -6.8103
 Octapole moment (field-independent basis, Debye-Ang**2):
  XXX=            179.6277  YYY=             63.0132  ZZZ=            -30.9740  XYY=           -207.1443
  XXY=           -174.4696  XXZ=            200.3339  XZZ=            118.7926  YZZ=             68.5918
  YYZ=           -130.1250  XYZ=            -23.5981
 Hexadecapole moment (field-independent basis, Debye-Ang**3):
 XXXX=        -167639.0040 YYYY=         -20456.4984 ZZZZ=         -12484.5926 XXXY=          -1020.7488
 XXXZ=           2187.9486 YYYX=            506.5650 YYYZ=            -84.1768 ZZZX=            166.6234
 ZZZY=           -205.0520 XXYY=         -33808.3733 XXZZ=         -29829.9548 YYZZ=          -5337.4455
 XXYZ=           -578.8073 YYXZ=           -366.3400 ZZXY=            563.8406
 N-N= 9.243806627282D+03 E-N=-2.547895394225D+04  KE= 2.974867571217D+03
 Leave Link  601 at Thu Apr 28 03:12:55 2022, MaxMem= 10066329600 cpu:              10.4 elap:               0.5
 (Enter /sw/apps/gaussian-16.0/g16/l9999.exe)
 1\1\GINC-BP1-COMPUTE132\SP\RPBE1PBE TD-FC\def2SVP\C55H74Mg1N4O6\OF1564
 1\28-Apr-2022\0\\#p PBE1PBE/Def2SVP td=(nstates=5)\\step_1401_chromoph
 ore_7 TDDFT with PBE1PBE functional\\0,1\Mg,0,26.5,-0.442,29.118\C,0,2
 8.129,-0.897,32.123\C,0,23.53,-0.6,30.871\C,0,24.771,-0.219,26.172\C,0
 ,29.259,-1.062,27.371\N,0,25.948,-0.72,31.223\C,0,26.801,-0.765,32.312
 \C,0,26.116,-0.792,33.706\C,0,24.574,-0.679,33.25\C,0,24.673,-0.622,31
 .69\C,0,23.682,-1.79,33.848\C,0,26.491,0.331,34.685\C,0,25.672,0.38,35
 .991\C,0,26.471,0.228,37.27\O,0,26.873,-0.811,37.772\O,0,26.381,1.38,3
 8.02\N,0,24.505,-0.255,28.634\C,0,23.413,-0.438,29.489\C,0,22.145,-0.2
 75,28.752\C,0,22.454,0.016,27.378\C,0,24.009,-0.157,27.352\C,0,20.771,
 -0.439,29.396\C,0,21.493,0.306,26.195\O,0,21.851,0.482,25.027\C,0,20.0
 6,0.349,26.445\N,0,26.966,-0.757,27.07\C,0,26.151,-0.399,26.059\C,0,26
 .859,-0.236,24.715\C,0,28.368,-0.4,25.101\C,0,28.22,-0.696,26.624\C,0,
 26.269,-1.366,23.697\C,0,29.318,0.849,24.911\C,0,30.762,0.624,24.656\N
 ,0,28.329,-0.875,29.591\C,0,29.361,-1.123,28.768\C,0,30.537,-1.454,29.
 515\C,0,30.103,-1.355,30.876\C,0,28.759,-0.978,30.873\C,0,31.91,-1.764
 ,28.944\C,0,30.542,-1.463,32.197\O,0,31.678,-1.637,32.705\C,0,29.302,-
 1.094,33.132\C,0,29.088,-2.253,34.049\O,0,28.689,-3.381,33.768\O,0,29.
 408,-1.823,35.297\C,0,29.198,-2.825,36.439\C,0,26.567,1.278,39.459\C,0
 ,25.267,1.723,40.116\C,0,24.816,1.557,41.366\C,0,25.57,0.794,42.483\C,
 0,23.497,2.152,41.826\C,0,23.625,3.405,42.756\C,0,22.958,3.126,44.078\
 C,0,23.804,3.322,45.399\C,0,24.152,1.994,46.022\C,0,23.022,4.173,46.43
 1\C,0,23.225,5.657,45.975\C,0,22.194,6.645,46.661\C,0,23.035,7.77,47.5
 96\C,0,22.783,7.466,49.096\C,0,22.518,9.2,47.268\C,0,23.707,10.141,46.
 88\C,0,23.437,11.061,45.696\C,0,24.546,12.204,45.64\C,0,23.892,13.644,
 45.921\C,0,25.258,12.292,44.311\H,0,22.62,-0.583,31.474\H,0,24.158,-0.
 162,25.27\H,0,30.202,-1.203,26.839\H,0,26.348,-1.753,34.166\H,0,24.125
 ,0.291,33.463\H,0,23.557,-2.532,33.059\H,0,22.729,-1.332,34.112\H,0,24
 .135,-2.141,34.776\H,0,26.595,1.382,34.414\H,0,27.55,0.143,34.866\H,0,
 24.812,-0.29,36.01\H,0,25.169,1.334,36.15\H,0,20.146,-1.117,28.814\H,0
 ,20.224,0.504,29.432\H,0,21.001,-0.897,30.358\H,0,19.627,0.79,25.547\H
 ,0,20.017,1.118,27.216\H,0,19.474,-0.553,26.623\H,0,26.611,0.784,24.42
 1\H,0,28.887,-1.255,24.667\H,0,25.909,-2.111,24.406\H,0,27.086,-1.831,
 23.145\H,0,25.395,-1.013,23.149\H,0,29.421,1.477,25.796\H,0,29.085,1.5
 43,24.104\H,0,31.348,1.361,25.206\H,0,31.065,0.801,23.624\H,0,31.077,-
 0.419,24.696\H,0,32.114,-1.516,27.903\H,0,32.037,-2.837,29.089\H,0,32.
 705,-1.333,29.552\H,0,29.565,-0.202,33.7\H,0,29.538,-3.802,36.095\H,0,
 28.171,-2.943,36.785\H,0,29.879,-2.793,37.29\H,0,27.199,2.142,39.665\H
 ,0,27.033,0.439,39.974\H,0,24.583,2.247,39.448\H,0,24.827,0.184,42.999
 \H,0,26.011,1.49,43.197\H,0,26.402,0.163,42.171\H,0,22.876,1.341,42.20
 5\H,0,22.922,2.36,40.924\H,0,23.181,4.24,42.216\H,0,24.68,3.663,42.666
 \H,0,22.502,2.142,44.188\H,0,22.123,3.825,44.034\H,0,24.76,3.805,45.19
 5\H,0,23.358,1.536,46.611\H,0,24.967,2.199,46.716\H,0,24.491,1.163,45.
 403\H,0,23.547,3.996,47.37\H,0,21.959,3.933,46.421\H,0,23.159,5.703,44
 .888\H,0,24.226,5.999,46.241\H,0,21.479,6.087,47.266\H,0,21.568,7.066,
 45.875\H,0,24.107,7.724,47.403\H,0,23.205,8.207,49.775\H,0,23.351,6.55
 9,49.304\H,0,21.727,7.28,49.29\H,0,22.048,9.721,48.102\H,0,21.856,9.20
 4,46.402\H,0,24.577,9.516,46.676\H,0,23.928,10.666,47.81\H,0,22.402,11
 .394,45.773\H,0,23.493,10.473,44.78\H,0,25.188,12.07,46.51\H,0,23.72,1
 4.229,45.017\H,0,24.654,14.18,46.486\H,0,22.991,13.599,46.532\H,0,25.6
 81,11.332,44.016\H,0,25.996,13.089,44.403\H,0,24.507,12.491,43.547\\Ve
 rsion=ES64L-G16RevA.03\State=1-A\HF=-3005.3318699\RMSD=6.712e-09\PG=C0
 1 [X(C55H74Mg1N4O6)]\\@


 The most important thing in communication is to hear what isn't being said.
 -- Peter F. Drucker
 Job cpu time:       0 days  8 hours 10 minutes 30.3 seconds.
 Elapsed time:       0 days  0 hours 20 minutes 29.8 seconds.
 File lengths (MBytes):  RWF=   8929 Int=      0 D2E=      0 Chk=    390 Scr=      1
 Normal termination of Gaussian 16 at Thu Apr 28 03:12:56 2022.
