 Entering Gaussian System, Link 0=g16
 Initial command:
 /sw/apps/gaussian-16.0/g16/l1.exe "/tmp/Gau-176957.inp" -scrdir="/tmp/"
 Entering Link 1 = /sw/apps/gaussian-16.0/g16/l1.exe PID=    176958.
  
 Copyright (c) 1988,1990,1992,1993,1995,1998,2003,2009,2016,
            Gaussian, Inc.  All Rights Reserved.
  
 This is part of the Gaussian(R) 16 program.  It is based on
 the Gaussian(R) 09 system (copyright 2009, Gaussian, Inc.),
 the Gaussian(R) 03 system (copyright 2003, Gaussian, Inc.),
 the Gaussian(R) 98 system (copyright 1998, Gaussian, Inc.),
 the Gaussian(R) 94 system (copyright 1995, Gaussian, Inc.),
 the Gaussian 92(TM) system (copyright 1992, Gaussian, Inc.),
 the Gaussian 90(TM) system (copyright 1990, Gaussian, Inc.),
 the Gaussian 88(TM) system (copyright 1988, Gaussian, Inc.),
 the Gaussian 86(TM) system (copyright 1986, Carnegie Mellon
 University), and the Gaussian 82(TM) system (copyright 1983,
 Carnegie Mellon University). Gaussian is a federally registered
 trademark of Gaussian, Inc.
  
 This software contains proprietary and confidential information,
 including trade secrets, belonging to Gaussian, Inc.
  
 This software is provided under written license and may be
 used, copied, transmitted, or stored only in accord with that
 written license.
  
 The following legend is applicable only to US Government
 contracts under FAR:
  
                    RESTRICTED RIGHTS LEGEND
  
 Use, reproduction and disclosure by the US Government is
 subject to restrictions as set forth in subparagraphs (a)
 and (c) of the Commercial Computer Software - Restricted
 Rights clause in FAR 52.227-19.
  
 Gaussian, Inc.
 340 Quinnipiac St., Bldg. 40, Wallingford CT 06492
  
  
 ---------------------------------------------------------------
 Warning -- This program may not be used in any manner that
 competes with the business of Gaussian, Inc. or will provide
 assistance to any competitor of Gaussian, Inc.  The licensee
 of this program is prohibited from giving any competitor of
 Gaussian, Inc. access to this program.  By using this program,
 the user acknowledges that Gaussian, Inc. is engaged in the
 business of creating and licensing software in the field of
 computational chemistry and represents and warrants to the
 licensee that it is not a competitor of Gaussian, Inc. and that
 it will not use this program in any manner prohibited above.
 ---------------------------------------------------------------
  

 Cite this work as:
 Gaussian 16, Revision A.03,
 M. J. Frisch, G. W. Trucks, H. B. Schlegel, G. E. Scuseria, 
 M. A. Robb, J. R. Cheeseman, G. Scalmani, V. Barone, 
 G. A. Petersson, H. Nakatsuji, X. Li, M. Caricato, A. V. Marenich, 
 J. Bloino, B. G. Janesko, R. Gomperts, B. Mennucci, H. P. Hratchian, 
 J. V. Ortiz, A. F. Izmaylov, J. L. Sonnenberg, D. Williams-Young, 
 F. Ding, F. Lipparini, F. Egidi, J. Goings, B. Peng, A. Petrone, 
 T. Henderson, D. Ranasinghe, V. G. Zakrzewski, J. Gao, N. Rega, 
 G. Zheng, W. Liang, M. Hada, M. Ehara, K. Toyota, R. Fukuda, 
 J. Hasegawa, M. Ishida, T. Nakajima, Y. Honda, O. Kitao, H. Nakai, 
 T. Vreven, K. Throssell, J. A. Montgomery, Jr., J. E. Peralta, 
 F. Ogliaro, M. J. Bearpark, J. J. Heyd, E. N. Brothers, K. N. Kudin, 
 V. N. Staroverov, T. A. Keith, R. Kobayashi, J. Normand, 
 K. Raghavachari, A. P. Rendell, J. C. Burant, S. S. Iyengar, 
 J. Tomasi, M. Cossi, J. M. Millam, M. Klene, C. Adamo, R. Cammi, 
 J. W. Ochterski, R. L. Martin, K. Morokuma, O. Farkas, 
 J. B. Foresman, and D. J. Fox, Gaussian, Inc., Wallingford CT, 2016.
 
 ******************************************
 Gaussian 16:  ES64L-G16RevA.03 25-Dec-2016
                 5-May-2022 
 ******************************************
 %nproc=24
 Will use up to   24 processors via shared memory.
 %mem=75GB
 --------------------------------
 #p wB97XD/Def2SVP td=(nstates=5)
 --------------------------------
 1/38=1,172=1/1;
 2/12=2,17=6,18=5,40=1/2;
 3/5=43,7=101,11=9,25=1,30=1,74=-58/1,2,3,8;
 4//1;
 5/5=2,38=5/2;
 8/6=1,10=1,108=5/1;
 9/41=5,42=1,70=2/14;
 6/7=2,8=2,9=2,10=2/1;
 99/5=1,9=1/99;
 Leave Link    1 at Thu May  5 10:24:00 2022, MaxMem= 10066329600 cpu:               1.0 elap:               0.0
 (Enter /sw/apps/gaussian-16.0/g16/l101.exe)
 ----------------------------------------------------
 step_801_chromophore_26 TDDFT with wB97XD functional
 ----------------------------------------------------
 Symbolic Z-matrix:
 Charge =  0 Multiplicity = 1
 Mg                   -9.52      18.419    42.396 
 C                    -6.064     18.176    42.656 
 C                    -9.202     21.81     41.773 
 C                    -12.807    18.614    41.751 
 C                    -9.687     14.954    42.774 
 N                    -7.87      19.724    42.087 
 C                    -6.504     19.45     42.255 
 C                    -5.678     20.689    41.967 
 C                    -6.684     21.905    41.989 
 C                    -8.005     21.124    42.018 
 C                    -6.478     22.896    43.224 
 C                    -4.855     20.545    40.643 
 C                    -5.579     19.827    39.468 
 C                    -5.343     20.308    38.009 
 O                    -4.249     20.761    37.561 
 O                    -6.421     20.095    37.254 
 N                    -10.825    20.031    41.835 
 C                    -10.541    21.345    41.676 
 C                    -11.767    22.14     41.408 
 C                    -12.824    21.177    41.468 
 C                    -12.175    19.847    41.709 
 C                    -11.84     23.548    41.048 
 C                    -14.277    21.428    41.446 
 O                    -14.626    22.602    41.239 
 C                    -15.362    20.476    41.63 
 N                    -10.979    17.065    42.074 
 C                    -12.255    17.385    41.989 
 C                    -13.165    16.246    42.317 
 C                    -12.206    14.981    42.301 
 C                    -10.836    15.674    42.412 
 C                    -14.032    16.337    43.596 
 C                    -12.265    14.043    41.02 
 C                    -13.176    12.794    41.051 
 N                    -8.16      16.836    42.735 
 C                    -8.384     15.474    42.967 
 C                    -7.138     14.843    43.347 
 C                    -6.167     15.89     43.203 
 C                    -6.882     17.073    42.883 
 C                    -6.99      13.403    43.667 
 C                    -4.744     16.166    43.268 
 O                    -3.733     15.481    43.496 
 C                    -4.622     17.653    42.944 
 C                    -3.92      18.333    44.051 
 O                    -2.945     19.066    43.893 
 O                    -4.383     17.984    45.266 
 C                    -3.458     18.22     46.394 
 C                    -6.336     20.403    35.829 
 C                    -7.16      19.467    34.946 
 C                    -7.824     19.768    33.794 
 C                    -7.867     21.154    33.198 
 C                    -8.73      18.778    33.03 
 C                    -10.149    18.948    33.491 
 C                    -11.176    19.394    32.483 
 C                    -11.779    20.748    32.839 
 C                    -13.377    20.656    32.847 
 C                    -11.412    21.806    31.795 
 C                    -11.582    23.284    32.375 
 C                    -10.272    24.057    32.238 
 C                    -10.32     25.266    31.329 
 C                    -9.327     26.342    31.749 
 C                    -10.268    24.793    29.806 
 C                    -11.589    24.941    29.025 
 C                    -12.004    23.617    28.267 
 C                    -12.384    23.903    26.787 
 C                    -13.383    22.823    26.316 
 C                    -11.094    24.032    25.863 
 H                    -9.108     22.894    41.678 
 H                    -13.899    18.601    41.76 
 H                    -9.95      13.901    42.894 
 H                    -4.938     20.735    42.766 
 H                    -6.704     22.547    41.109 
 H                    -7.218     22.66     43.989 
 H                    -6.607     23.957    43.009 
 H                    -5.506     22.902    43.718 
 H                    -3.932     20.021    40.892 
 H                    -4.573     21.519    40.244 
 H                    -6.659     19.756    39.596 
 H                    -5.116     18.841    39.43 
 H                    -10.879    24.047    41.18 
 H                    -12.439    24.133    41.746 
 H                    -12.132    23.859    40.045 
 H                    -15.278    19.856    42.523 
 H                    -15.386    19.934    40.685 
 H                    -16.318    20.977    41.78 
 H                    -13.863    16.028    41.509 
 H                    -12.391    14.347    43.168 
 H                    -14.923    16.87     43.264 
 H                    -13.559    17.005    44.315 
 H                    -14.4      15.377    43.961 
 H                    -11.274    13.669    40.762 
 H                    -12.521    14.628    40.136 
 H                    -13.441    12.54     42.078 
 H                    -12.522    11.965    40.778 
 H                    -14.066    12.916    40.435 
 H                    -6.007     13.143    43.274 
 H                    -7.727     12.781    43.159 
 H                    -7.015     13.146    44.726 
 H                    -4.017     17.7      42.039 
 H                    -3.355     17.183    46.716 
 H                    -3.922     18.828    47.171 
 H                    -2.479     18.627    46.142 
 H                    -5.331     20.282    35.424 
 H                    -6.396     21.486    35.72 
 H                    -7.35      18.475    35.355 
 H                    -8.635     21.705    33.741 
 H                    -8.038     21.165    32.122 
 H                    -6.928     21.662    33.42 
 H                    -8.441     17.735    33.161 
 H                    -8.583     19.005    31.974 
 H                    -10.235    19.457    34.451 
 H                    -10.469    17.918    33.646 
 H                    -11.935    18.612    32.504 
 H                    -10.665    19.412    31.52 
 H                    -11.306    20.988    33.79 
 H                    -13.717    20.993    31.867 
 H                    -13.617    21.506    33.486 
 H                    -13.855    19.739    33.191 
 H                    -11.931    21.752    30.838 
 H                    -10.368    21.523    31.653 
 H                    -11.833    23.149    33.427 
 H                    -12.347    23.721    31.733 
 H                    -9.486     23.372    31.922 
 H                    -10.124    24.245    33.302 
 H                    -11.278    25.767    31.467 
 H                    -8.645     26.071    32.555 
 H                    -9.812     27.267    32.062 
 H                    -8.845     26.625    30.813 
 H                    -9.761     23.828    29.834 
 H                    -9.649     25.402    29.147 
 H                    -11.463    25.739    28.294 
 H                    -12.456    25.208    29.631 
 H                    -12.914    23.228    28.724 
 H                    -11.312    22.775    28.283 
 H                    -12.874    24.877    26.789 
 H                    -13.336    22.57     25.257 
 H                    -14.406    22.991    26.652 
 H                    -13.049    21.878    26.745 
 H                    -10.263    24.137    26.56 
 H                    -11.157    24.851    25.146 
 H                    -10.848    23.096    25.361 
 
 ITRead=  0  0  0  0  0  0  0  0  0  0  0  0  0  0  0  0  0  0  0  0
 ITRead=  0  0  0  0  0  0  0  0  0  0  0  0  0  0  0  0  0  0  0  0
 ITRead=  0  0  0  0  0  0  0  0  0  0  0  0  0  0  0  0  0  0  0  0
 ITRead=  0  0  0  0  0  0  0  0  0  0  0  0  0  0  0  0  0  0  0  0
 ITRead=  0  0  0  0  0  0  0  0  0  0  0  0  0  0  0  0  0  0  0  0
 ITRead=  0  0  0  0  0  0  0  0  0  0  0  0  0  0  0  0  0  0  0  0
 ITRead=  0  0  0  0  0  0  0  0  0  0  0  0  0  0  0  0  0  0  0  0
 MicOpt= -1 -1 -1 -1 -1 -1 -1 -1 -1 -1 -1 -1 -1 -1 -1 -1 -1 -1 -1 -1
 MicOpt= -1 -1 -1 -1 -1 -1 -1 -1 -1 -1 -1 -1 -1 -1 -1 -1 -1 -1 -1 -1
 MicOpt= -1 -1 -1 -1 -1 -1 -1 -1 -1 -1 -1 -1 -1 -1 -1 -1 -1 -1 -1 -1
 MicOpt= -1 -1 -1 -1 -1 -1 -1 -1 -1 -1 -1 -1 -1 -1 -1 -1 -1 -1 -1 -1
 MicOpt= -1 -1 -1 -1 -1 -1 -1 -1 -1 -1 -1 -1 -1 -1 -1 -1 -1 -1 -1 -1
 MicOpt= -1 -1 -1 -1 -1 -1 -1 -1 -1 -1 -1 -1 -1 -1 -1 -1 -1 -1 -1 -1
 MicOpt= -1 -1 -1 -1 -1 -1 -1 -1 -1 -1 -1 -1 -1 -1 -1 -1 -1 -1 -1 -1
 NAtoms=    140 NQM=      140 NQMF=       0 NMMI=      0 NMMIF=      0
                NMic=       0 NMicF=      0.
                    Isotopes and Nuclear Properties:
 (Nuclear quadrupole moments (NQMom) in fm**2, nuclear magnetic moments (NMagM)
  in nuclear magnetons)

  Atom         1           2           3           4           5           6           7           8           9          10
 IAtWgt=          24          12          12          12          12          14          12          12          12          12
 AtmWgt=  23.9850450  12.0000000  12.0000000  12.0000000  12.0000000  14.0030740  12.0000000  12.0000000  12.0000000  12.0000000
 NucSpn=           0           0           0           0           0           2           0           0           0           0
 AtZEff=  -0.0000000  -0.0000000  -0.0000000  -0.0000000  -0.0000000  -0.0000000  -0.0000000  -0.0000000  -0.0000000  -0.0000000
 NQMom=    0.0000000   0.0000000   0.0000000   0.0000000   0.0000000   2.0440000   0.0000000   0.0000000   0.0000000   0.0000000
 NMagM=    0.0000000   0.0000000   0.0000000   0.0000000   0.0000000   0.4037610   0.0000000   0.0000000   0.0000000   0.0000000
 AtZNuc=  12.0000000   6.0000000   6.0000000   6.0000000   6.0000000   7.0000000   6.0000000   6.0000000   6.0000000   6.0000000

  Atom        11          12          13          14          15          16          17          18          19          20
 IAtWgt=          12          12          12          12          16          16          14          12          12          12
 AtmWgt=  12.0000000  12.0000000  12.0000000  12.0000000  15.9949146  15.9949146  14.0030740  12.0000000  12.0000000  12.0000000
 NucSpn=           0           0           0           0           0           0           2           0           0           0
 AtZEff=  -0.0000000  -0.0000000  -0.0000000  -0.0000000  -0.0000000  -0.0000000  -0.0000000  -0.0000000  -0.0000000  -0.0000000
 NQMom=    0.0000000   0.0000000   0.0000000   0.0000000   0.0000000   0.0000000   2.0440000   0.0000000   0.0000000   0.0000000
 NMagM=    0.0000000   0.0000000   0.0000000   0.0000000   0.0000000   0.0000000   0.4037610   0.0000000   0.0000000   0.0000000
 AtZNuc=   6.0000000   6.0000000   6.0000000   6.0000000   8.0000000   8.0000000   7.0000000   6.0000000   6.0000000   6.0000000

  Atom        21          22          23          24          25          26          27          28          29          30
 IAtWgt=          12          12          12          16          12          14          12          12          12          12
 AtmWgt=  12.0000000  12.0000000  12.0000000  15.9949146  12.0000000  14.0030740  12.0000000  12.0000000  12.0000000  12.0000000
 NucSpn=           0           0           0           0           0           2           0           0           0           0
 AtZEff=  -0.0000000  -0.0000000  -0.0000000  -0.0000000  -0.0000000  -0.0000000  -0.0000000  -0.0000000  -0.0000000  -0.0000000
 NQMom=    0.0000000   0.0000000   0.0000000   0.0000000   0.0000000   2.0440000   0.0000000   0.0000000   0.0000000   0.0000000
 NMagM=    0.0000000   0.0000000   0.0000000   0.0000000   0.0000000   0.4037610   0.0000000   0.0000000   0.0000000   0.0000000
 AtZNuc=   6.0000000   6.0000000   6.0000000   8.0000000   6.0000000   7.0000000   6.0000000   6.0000000   6.0000000   6.0000000

  Atom        31          32          33          34          35          36          37          38          39          40
 IAtWgt=          12          12          12          14          12          12          12          12          12          12
 AtmWgt=  12.0000000  12.0000000  12.0000000  14.0030740  12.0000000  12.0000000  12.0000000  12.0000000  12.0000000  12.0000000
 NucSpn=           0           0           0           2           0           0           0           0           0           0
 AtZEff=  -0.0000000  -0.0000000  -0.0000000  -0.0000000  -0.0000000  -0.0000000  -0.0000000  -0.0000000  -0.0000000  -0.0000000
 NQMom=    0.0000000   0.0000000   0.0000000   2.0440000   0.0000000   0.0000000   0.0000000   0.0000000   0.0000000   0.0000000
 NMagM=    0.0000000   0.0000000   0.0000000   0.4037610   0.0000000   0.0000000   0.0000000   0.0000000   0.0000000   0.0000000
 AtZNuc=   6.0000000   6.0000000   6.0000000   7.0000000   6.0000000   6.0000000   6.0000000   6.0000000   6.0000000   6.0000000

  Atom        41          42          43          44          45          46          47          48          49          50
 IAtWgt=          16          12          12          16          16          12          12          12          12          12
 AtmWgt=  15.9949146  12.0000000  12.0000000  15.9949146  15.9949146  12.0000000  12.0000000  12.0000000  12.0000000  12.0000000
 NucSpn=           0           0           0           0           0           0           0           0           0           0
 AtZEff=  -0.0000000  -0.0000000  -0.0000000  -0.0000000  -0.0000000  -0.0000000  -0.0000000  -0.0000000  -0.0000000  -0.0000000
 NQMom=    0.0000000   0.0000000   0.0000000   0.0000000   0.0000000   0.0000000   0.0000000   0.0000000   0.0000000   0.0000000
 NMagM=    0.0000000   0.0000000   0.0000000   0.0000000   0.0000000   0.0000000   0.0000000   0.0000000   0.0000000   0.0000000
 AtZNuc=   8.0000000   6.0000000   6.0000000   8.0000000   8.0000000   6.0000000   6.0000000   6.0000000   6.0000000   6.0000000

  Atom        51          52          53          54          55          56          57          58          59          60
 IAtWgt=          12          12          12          12          12          12          12          12          12          12
 AtmWgt=  12.0000000  12.0000000  12.0000000  12.0000000  12.0000000  12.0000000  12.0000000  12.0000000  12.0000000  12.0000000
 NucSpn=           0           0           0           0           0           0           0           0           0           0
 AtZEff=  -0.0000000  -0.0000000  -0.0000000  -0.0000000  -0.0000000  -0.0000000  -0.0000000  -0.0000000  -0.0000000  -0.0000000
 NQMom=    0.0000000   0.0000000   0.0000000   0.0000000   0.0000000   0.0000000   0.0000000   0.0000000   0.0000000   0.0000000
 NMagM=    0.0000000   0.0000000   0.0000000   0.0000000   0.0000000   0.0000000   0.0000000   0.0000000   0.0000000   0.0000000
 AtZNuc=   6.0000000   6.0000000   6.0000000   6.0000000   6.0000000   6.0000000   6.0000000   6.0000000   6.0000000   6.0000000

  Atom        61          62          63          64          65          66          67          68          69          70
 IAtWgt=          12          12          12          12          12          12           1           1           1           1
 AtmWgt=  12.0000000  12.0000000  12.0000000  12.0000000  12.0000000  12.0000000   1.0078250   1.0078250   1.0078250   1.0078250
 NucSpn=           0           0           0           0           0           0           1           1           1           1
 AtZEff=  -0.0000000  -0.0000000  -0.0000000  -0.0000000  -0.0000000  -0.0000000  -0.0000000  -0.0000000  -0.0000000  -0.0000000
 NQMom=    0.0000000   0.0000000   0.0000000   0.0000000   0.0000000   0.0000000   0.0000000   0.0000000   0.0000000   0.0000000
 NMagM=    0.0000000   0.0000000   0.0000000   0.0000000   0.0000000   0.0000000   2.7928460   2.7928460   2.7928460   2.7928460
 AtZNuc=   6.0000000   6.0000000   6.0000000   6.0000000   6.0000000   6.0000000   1.0000000   1.0000000   1.0000000   1.0000000

  Atom        71          72          73          74          75          76          77          78          79          80
 IAtWgt=           1           1           1           1           1           1           1           1           1           1
 AtmWgt=   1.0078250   1.0078250   1.0078250   1.0078250   1.0078250   1.0078250   1.0078250   1.0078250   1.0078250   1.0078250
 NucSpn=           1           1           1           1           1           1           1           1           1           1
 AtZEff=  -0.0000000  -0.0000000  -0.0000000  -0.0000000  -0.0000000  -0.0000000  -0.0000000  -0.0000000  -0.0000000  -0.0000000
 NQMom=    0.0000000   0.0000000   0.0000000   0.0000000   0.0000000   0.0000000   0.0000000   0.0000000   0.0000000   0.0000000
 NMagM=    2.7928460   2.7928460   2.7928460   2.7928460   2.7928460   2.7928460   2.7928460   2.7928460   2.7928460   2.7928460
 AtZNuc=   1.0000000   1.0000000   1.0000000   1.0000000   1.0000000   1.0000000   1.0000000   1.0000000   1.0000000   1.0000000

  Atom        81          82          83          84          85          86          87          88          89          90
 IAtWgt=           1           1           1           1           1           1           1           1           1           1
 AtmWgt=   1.0078250   1.0078250   1.0078250   1.0078250   1.0078250   1.0078250   1.0078250   1.0078250   1.0078250   1.0078250
 NucSpn=           1           1           1           1           1           1           1           1           1           1
 AtZEff=  -0.0000000  -0.0000000  -0.0000000  -0.0000000  -0.0000000  -0.0000000  -0.0000000  -0.0000000  -0.0000000  -0.0000000
 NQMom=    0.0000000   0.0000000   0.0000000   0.0000000   0.0000000   0.0000000   0.0000000   0.0000000   0.0000000   0.0000000
 NMagM=    2.7928460   2.7928460   2.7928460   2.7928460   2.7928460   2.7928460   2.7928460   2.7928460   2.7928460   2.7928460
 AtZNuc=   1.0000000   1.0000000   1.0000000   1.0000000   1.0000000   1.0000000   1.0000000   1.0000000   1.0000000   1.0000000

  Atom        91          92          93          94          95          96          97          98          99         100
 IAtWgt=           1           1           1           1           1           1           1           1           1           1
 AtmWgt=   1.0078250   1.0078250   1.0078250   1.0078250   1.0078250   1.0078250   1.0078250   1.0078250   1.0078250   1.0078250
 NucSpn=           1           1           1           1           1           1           1           1           1           1
 AtZEff=  -0.0000000  -0.0000000  -0.0000000  -0.0000000  -0.0000000  -0.0000000  -0.0000000  -0.0000000  -0.0000000  -0.0000000
 NQMom=    0.0000000   0.0000000   0.0000000   0.0000000   0.0000000   0.0000000   0.0000000   0.0000000   0.0000000   0.0000000
 NMagM=    2.7928460   2.7928460   2.7928460   2.7928460   2.7928460   2.7928460   2.7928460   2.7928460   2.7928460   2.7928460
 AtZNuc=   1.0000000   1.0000000   1.0000000   1.0000000   1.0000000   1.0000000   1.0000000   1.0000000   1.0000000   1.0000000

  Atom       101         102         103         104         105         106         107         108         109         110
 IAtWgt=           1           1           1           1           1           1           1           1           1           1
 AtmWgt=   1.0078250   1.0078250   1.0078250   1.0078250   1.0078250   1.0078250   1.0078250   1.0078250   1.0078250   1.0078250
 NucSpn=           1           1           1           1           1           1           1           1           1           1
 AtZEff=  -0.0000000  -0.0000000  -0.0000000  -0.0000000  -0.0000000  -0.0000000  -0.0000000  -0.0000000  -0.0000000  -0.0000000
 NQMom=    0.0000000   0.0000000   0.0000000   0.0000000   0.0000000   0.0000000   0.0000000   0.0000000   0.0000000   0.0000000
 NMagM=    2.7928460   2.7928460   2.7928460   2.7928460   2.7928460   2.7928460   2.7928460   2.7928460   2.7928460   2.7928460
 AtZNuc=   1.0000000   1.0000000   1.0000000   1.0000000   1.0000000   1.0000000   1.0000000   1.0000000   1.0000000   1.0000000

  Atom       111         112         113         114         115         116         117         118         119         120
 IAtWgt=           1           1           1           1           1           1           1           1           1           1
 AtmWgt=   1.0078250   1.0078250   1.0078250   1.0078250   1.0078250   1.0078250   1.0078250   1.0078250   1.0078250   1.0078250
 NucSpn=           1           1           1           1           1           1           1           1           1           1
 AtZEff=  -0.0000000  -0.0000000  -0.0000000  -0.0000000  -0.0000000  -0.0000000  -0.0000000  -0.0000000  -0.0000000  -0.0000000
 NQMom=    0.0000000   0.0000000   0.0000000   0.0000000   0.0000000   0.0000000   0.0000000   0.0000000   0.0000000   0.0000000
 NMagM=    2.7928460   2.7928460   2.7928460   2.7928460   2.7928460   2.7928460   2.7928460   2.7928460   2.7928460   2.7928460
 AtZNuc=   1.0000000   1.0000000   1.0000000   1.0000000   1.0000000   1.0000000   1.0000000   1.0000000   1.0000000   1.0000000

  Atom       121         122         123         124         125         126         127         128         129         130
 IAtWgt=           1           1           1           1           1           1           1           1           1           1
 AtmWgt=   1.0078250   1.0078250   1.0078250   1.0078250   1.0078250   1.0078250   1.0078250   1.0078250   1.0078250   1.0078250
 NucSpn=           1           1           1           1           1           1           1           1           1           1
 AtZEff=  -0.0000000  -0.0000000  -0.0000000  -0.0000000  -0.0000000  -0.0000000  -0.0000000  -0.0000000  -0.0000000  -0.0000000
 NQMom=    0.0000000   0.0000000   0.0000000   0.0000000   0.0000000   0.0000000   0.0000000   0.0000000   0.0000000   0.0000000
 NMagM=    2.7928460   2.7928460   2.7928460   2.7928460   2.7928460   2.7928460   2.7928460   2.7928460   2.7928460   2.7928460
 AtZNuc=   1.0000000   1.0000000   1.0000000   1.0000000   1.0000000   1.0000000   1.0000000   1.0000000   1.0000000   1.0000000

  Atom       131         132         133         134         135         136         137         138         139         140
 IAtWgt=           1           1           1           1           1           1           1           1           1           1
 AtmWgt=   1.0078250   1.0078250   1.0078250   1.0078250   1.0078250   1.0078250   1.0078250   1.0078250   1.0078250   1.0078250
 NucSpn=           1           1           1           1           1           1           1           1           1           1
 AtZEff=  -0.0000000  -0.0000000  -0.0000000  -0.0000000  -0.0000000  -0.0000000  -0.0000000  -0.0000000  -0.0000000  -0.0000000
 NQMom=    0.0000000   0.0000000   0.0000000   0.0000000   0.0000000   0.0000000   0.0000000   0.0000000   0.0000000   0.0000000
 NMagM=    2.7928460   2.7928460   2.7928460   2.7928460   2.7928460   2.7928460   2.7928460   2.7928460   2.7928460   2.7928460
 AtZNuc=   1.0000000   1.0000000   1.0000000   1.0000000   1.0000000   1.0000000   1.0000000   1.0000000   1.0000000   1.0000000
 Leave Link  101 at Thu May  5 10:24:00 2022, MaxMem= 10066329600 cpu:               2.8 elap:               0.1
 (Enter /sw/apps/gaussian-16.0/g16/l202.exe)
 Stoichiometry    C55H74MgN4O6
 Framework group  C1[X(C55H74MgN4O6)]
 Deg. of freedom   414
 Full point group                 C1      NOp   1
 Largest Abelian subgroup         C1      NOp   1
 Largest concise Abelian subgroup C1      NOp   1
                         Standard orientation:                         
 ---------------------------------------------------------------------
 Center     Atomic      Atomic             Coordinates (Angstroms)
 Number     Number       Type             X           Y           Z
 ---------------------------------------------------------------------
      1         12           0       -3.818720    1.107322    0.516558
      2          6           0       -4.958695   -2.100107   -0.178742
      3          6           0       -2.014137   -0.149071    3.191084
      4          6           0       -2.394687    4.110963    0.973380
      5          6           0       -5.469749    2.203537   -2.355621
      6          7           0       -3.422273   -0.847313    1.253604
      7          6           0       -4.000440   -2.060501    0.849682
      8          6           0       -3.454474   -3.207099    1.678884
      9          6           0       -2.762046   -2.551549    2.936650
     10          6           0       -2.782028   -1.084718    2.485153
     11          6           0       -3.522303   -2.826828    4.313593
     12          6           0       -2.526307   -4.144611    0.835903
     13          6           0       -1.590812   -3.434911   -0.184637
     14          6           0       -0.160090   -3.989237   -0.432618
     15          8           0        0.158025   -5.214474   -0.414045
     16          8           0        0.682332   -3.010307   -0.763525
     17          7           0       -2.382360    1.865669    1.922996
     18          6           0       -1.794278    1.236655    2.967521
     19          6           0       -0.956499    2.169016    3.764864
     20          6           0       -1.137339    3.434062    3.120524
     21          6           0       -2.024302    3.186208    1.937288
     22          6           0       -0.068771    1.829180    4.866609
     23          6           0       -0.677599    4.756949    3.582370
     24          8           0        0.047520    4.762377    4.590884
     25          6           0       -0.957893    6.063483    3.006358
     26          7           0       -3.717769    2.802649   -0.570344
     27          6           0       -3.216676    3.929736   -0.105175
     28          6           0       -3.739385    5.136850   -0.814157
     29          6           0       -4.445234    4.539597   -2.104594
     30          6           0       -4.595757    3.068084   -1.678611
     31          6           0       -4.637859    6.123608   -0.030024
     32          6           0       -3.657941    4.654251   -3.479843
     33          6           0       -3.959104    5.848428   -4.414790
     34          7           0       -5.059144    0.257628   -0.969975
     35          6           0       -5.745069    0.851785   -2.035587
     36          6           0       -6.623139   -0.125694   -2.642716
     37          6           0       -6.314478   -1.341738   -1.945757
     38          6           0       -5.399118   -1.004435   -0.915487
     39          6           0       -7.505433    0.144904   -3.802990
     40          6           0       -6.599491   -2.764169   -1.917665
     41          8           0       -7.308073   -3.524540   -2.598163
     42          6           0       -5.758838   -3.305597   -0.763894
     43          6           0       -6.643490   -3.994166    0.197311
     44          8           0       -6.446011   -5.135986    0.609775
     45          8           0       -7.752060   -3.290777    0.495158
     46          6           0       -8.881397   -4.076548    1.034479
     47          6           0        2.050748   -3.371292   -1.123861
     48          6           0        2.664756   -2.469147   -2.193388
     49          6           0        3.963839   -2.073302   -2.312935
     50          6           0        5.045919   -2.469547   -1.338176
     51          6           0        4.470157   -1.062153   -3.364529
     52          6           0        4.460431    0.317041   -2.770635
     53          6           0        5.773493    1.043513   -2.637157
     54          6           0        6.127747    1.325528   -1.181605
     55          6           0        6.460899    2.878778   -0.985244
     56          6           0        7.383796    0.557418   -0.761679
     57          6           0        7.485229    0.425239    0.826409
     58          6           0        7.600782   -1.044277    1.225867
     59          6           0        8.893406   -1.434816    1.909145
     60          6           0        8.706328   -2.599674    2.872646
     61          6           0       10.051617   -1.579022    0.821159
     62          6           0       11.115449   -0.463309    0.839987
     63          6           0       11.370318    0.164112   -0.588701
     64          6           0       12.888556    0.245796   -0.912547
     65          6           0       13.120867    1.410213   -1.900680
     66          6           0       13.457503   -1.151563   -1.420686
     67          1           0       -1.528149   -0.528675    4.092546
     68          1           0       -2.150684    5.160172    1.153206
     69          1           0       -5.926083    2.740438   -3.189813
     70          1           0       -4.321731   -3.813919    1.939177
     71          1           0       -1.723380   -2.820273    3.126186
     72          1           0       -4.121058   -1.950785    4.563718
     73          1           0       -2.886016   -3.004186    5.180928
     74          1           0       -4.188398   -3.688448    4.366376
     75          1           0       -3.169946   -4.858867    0.322024
     76          1           0       -1.857040   -4.718941    1.475925
     77          1           0       -1.478194   -2.365600   -0.006549
     78          1           0       -2.051288   -3.631896   -1.152712
     79          1           0       -0.217497    0.801331    5.200305
     80          1           0       -0.320289    2.351640    5.789650
     81          1           0        1.014047    1.887651    4.756699
     82          1           0       -2.014599    6.267212    2.830936
     83          1           0       -0.323100    6.091166    2.121126
     84          1           0       -0.670533    6.871499    3.678646
     85          1           0       -2.941218    5.746058   -1.237698
     86          1           0       -5.420942    5.000552   -2.257510
     87          1           0       -3.924376    6.793242    0.450317
     88          1           0       -5.128014    5.602386    0.791554
     89          1           0       -5.251152    6.771839   -0.657652
     90          1           0       -3.807809    3.765139   -4.092657
     91          1           0       -2.582426    4.625251   -3.301954
     92          1           0       -4.909870    6.311653   -4.148454
     93          1           0       -4.194078    5.395540   -5.378723
     94          1           0       -3.153733    6.581759   -4.421355
     95          1           0       -7.488738   -0.784668   -4.372161
     96          1           0       -7.122913    0.936737   -4.447037
     97          1           0       -8.542351    0.383824   -3.566616
     98          1           0       -5.077570   -4.024092   -1.218754
     99          1           0       -9.597402   -3.865329    0.239252
    100          1           0       -9.226010   -3.677941    1.988964
    101          1           0       -8.728598   -5.152381    1.117128
    102          1           0        2.127257   -4.359029   -1.579066
    103          1           0        2.585060   -3.605298   -0.202926
    104          1           0        1.957898   -1.976827   -2.860784
    105          1           0        4.958834   -1.798636   -0.483442
    106          1           0        6.047983   -2.460674   -1.765874
    107          1           0        4.825800   -3.465938   -0.953701
    108          1           0        3.877984   -1.054300   -4.279844
    109          1           0        5.463960   -1.409711   -3.647076
    110          1           0        3.825291    0.405114   -1.889205
    111          1           0        3.995358    0.907549   -3.559516
    112          1           0        5.627926    1.971851   -3.189465
    113          1           0        6.517172    0.414142   -3.126696
    114          1           0        5.263896    0.946140   -0.637954
    115          1           0        7.544710    2.979787   -1.053942
    116          1           0        6.280914    2.981944    0.084981
    117          1           0        5.908993    3.618313   -1.565069
    118          1           0        8.336496    0.932560   -1.135519
    119          1           0        7.153783   -0.389210   -1.252777
    120          1           0        6.555420    0.848273    1.206445
    121          1           0        8.407396    0.955041    1.065732
    122          1           0        7.429265   -1.666209    0.347995
    123          1           0        6.692571   -1.083560    1.828324
    124          1           0        9.191916   -0.626582    2.576570
    125          1           0        7.722627   -3.069231    2.865541
    126          1           0        8.903431   -2.327274    3.909838
    127          1           0        9.536359   -3.265030    2.634192
    128          1           0        9.530256   -1.814131   -0.107261
    129          1           0       10.730285   -2.419413    0.967707
    130          1           0       12.048109   -0.890422    1.207086
    131          1           0       10.884635    0.383582    1.487841
    132          1           0       11.025883    1.198292   -0.578341
    133          1           0       10.864143   -0.281014   -1.445284
    134          1           0       13.382735    0.466585    0.033930
    135          1           0       13.953320    1.280227   -2.591929
    136          1           0       13.128363    2.393450   -1.430746
    137          1           0       12.291210    1.392112   -2.607761
    138          1           0       12.682644   -1.874872   -1.168074
    139          1           0       14.430406   -1.401251   -0.996501
    140          1           0       13.480556   -1.219210   -2.508578
 ---------------------------------------------------------------------
 Rotational constants (GHZ):           0.0393747           0.0138293           0.0124673
 Leave Link  202 at Thu May  5 10:24:00 2022, MaxMem= 10066329600 cpu:               0.2 elap:               0.0
 (Enter /sw/apps/gaussian-16.0/g16/l301.exe)
 Standard basis: def2SVP (5D, 7F)
 Ernie: Thresh=  0.10000D-02 Tol=  0.10000D-05 Strict=F.
 There are  1364 symmetry adapted cartesian basis functions of A   symmetry.
 There are  1298 symmetry adapted basis functions of A   symmetry.
  1298 basis functions,  2180 primitive gaussians,  1364 cartesian basis functions
   246 alpha electrons      246 beta electrons
       nuclear repulsion energy      9944.9428458670 Hartrees.
 IExCor= 4639 DFT=T Ex+Corr=wB97XD ExCW=0 ScaHFX=  1.000000
 ScaDFX=  1.000000  1.000000  1.000000  1.000000 ScalE2=  1.000000  1.000000
 IRadAn=      5 IRanWt=     -1 IRanGd=            0 ICorTp=0 IEmpDi=121
 HFx  wShort=  0.000000 wLong=  0.200000 cFull=  0.222036 cShort=  0.000000 cLong=  0.777964
 DFx  wShort=  0.000000 wLong=  0.200000 cFull=  0.000000 cShort=  0.000000 cLong=  1.000000
 NAtoms=  140 NActive=  140 NUniq=  140 SFac= 1.00D+00 NAtFMM=   60 NAOKFM=T Big=T
 Integral buffers will be    131072 words long.
 Raffenetti 1 integral format.
 Two-electron integral symmetry is turned on.
 R6Disp:  Grimme-D2 Dispersion energy=       -0.1369590583 Hartrees.
 Nuclear repulsion after empirical dispersion term =     9944.8058868087 Hartrees.
 Leave Link  301 at Thu May  5 10:24:00 2022, MaxMem= 10066329600 cpu:               1.3 elap:               0.1
 (Enter /sw/apps/gaussian-16.0/g16/l302.exe)
 NPDir=0 NMtPBC=     1 NCelOv=     1 NCel=       1 NClECP=     1 NCelD=      1
         NCelK=      1 NCelE2=     1 NClLst=     1 CellRange=     0.0.
 One-electron integrals computed using PRISM.
 One-electron integral symmetry used in STVInt
   1 Symmetry operations used in ECPInt.
 ECPInt:  NShTT=  192510 NPrTT=  683786 LenC2=  106332 LenP2D=  228414.
 LDataN:  DoStor=T MaxTD1= 4 Len=   56
 NBasis=  1298 RedAO= T EigKep=  2.67D-04  NBF=  1298
 NBsUse=  1298 1.00D-06 EigRej= -1.00D+00 NBFU=  1298
 Precomputing XC quadrature grid using
 IXCGrd= 4 IRadAn=           5 IRanWt=          -1 IRanGd=           0 AccXCQ= 0.00D+00.
 Generated NRdTot=       0 NPtTot=           0 NUsed=           0 NTot=          32
 NSgBfM=  1127  1125  1125  1126  1127 MxSgAt=   140 MxSgA2=   140.
 Leave Link  302 at Thu May  5 10:24:03 2022, MaxMem= 10066329600 cpu:              85.1 elap:               3.6
 (Enter /sw/apps/gaussian-16.0/g16/l303.exe)
 DipDrv:  MaxL=1.
 Leave Link  303 at Thu May  5 10:24:04 2022, MaxMem= 10066329600 cpu:               7.5 elap:               0.4
 (Enter /sw/apps/gaussian-16.0/g16/l308.exe)
 Leave Link  308 at Thu May  5 10:24:04 2022, MaxMem= 10066329600 cpu:               9.3 elap:               0.5
 (Enter /sw/apps/gaussian-16.0/g16/l401.exe)
 ExpMin= 3.36D-02 ExpMax= 4.95D+03 ExpMxC= 7.45D+02 IAcc=3 IRadAn=         5 AccDes= 0.00D+00
 Harris functional with IExCor= 4639 and IRadAn=       5 diagonalized for initial guess.
 HarFok:  IExCor= 4639 AccDes= 0.00D+00 IRadAn=         5 IDoV= 1 UseB2=F ITyADJ=14
 ICtDFT=  3500011 ScaDFX=  1.000000  1.000000  1.000000  1.000000
 FoFCou: FMM=F IPFlag=           0 FMFlag=      100000 FMFlg1=        2001
         NFxFlg=           0 DoJE=T BraDBF=F KetDBF=T FulRan=T
         wScrn=  0.000000 ICntrl=       500 IOpCl=  0 I1Cent=   200000004 NGrid=           0
         NMat0=    1 NMatS0=      1 NMatT0=    0 NMatD0=    1 NMtDS0=    0 NMtDT0=    0
 Petite list used in FoFCou.
 Harris En= -2878.00507648383    
 JPrj=0 DoOrth=F DoCkMO=F.
 Leave Link  401 at Thu May  5 10:24:10 2022, MaxMem= 10066329600 cpu:             145.9 elap:               6.1
 (Enter /sw/apps/gaussian-16.0/g16/l502.exe)
 Integral symmetry usage will be decided dynamically.
 Closed shell SCF:
 Using DIIS extrapolation, IDIIS=  1040.
 NGot= 10066329600 LenX= 10062561258 LenY= 10060699398
 Requested convergence on RMS density matrix=1.00D-08 within 128 cycles.
 Requested convergence on MAX density matrix=1.00D-06.
 Requested convergence on             energy=1.00D-06.
 No special actions if energy rises.
 Fock matrices will be formed incrementally for  20 cycles.

 Cycle   1  Pass 1  IDiag  1:
 FoFJK:  IHMeth= 1 ICntrl=       0 DoSepK=T KAlg= 0 I1Cent=           0 FoldK=F
 IRaf=         1 NMat=       1 IRICut=       1 DoRegI=T DoRafI=F ISym2E= 0 IDoP0=0 IntGTp=1.
 FoFCou: FMM=T IPFlag=           0 FMFlag=      100000 FMFlg1=        2001
         NFxFlg=           0 DoJE=T BraDBF=F KetDBF=F FulRan=T
         wScrn=  0.000000 ICntrl=       500 IOpCl=  0 I1Cent=           0 NGrid=           0
         NMat0=    1 NMatS0=      1 NMatT0=    0 NMatD0=    1 NMtDS0=    0 NMtDT0=    0
 Symmetry not used in FoFCou.
 FMM levels:  10  Number of levels for PrismC:   9
 E= -3007.19121860080    
 DIIS: error= 2.22D-02 at cycle   1 NSaved=   1.
 NSaved= 1 IEnMin= 1 EnMin= -3007.19121860080     IErMin= 1 ErrMin= 2.22D-02
 ErrMax= 2.22D-02  0.00D+00 EMaxC= 1.00D-01 BMatC= 1.49D+00 BMatP= 1.49D+00
 IDIUse=3 WtCom= 7.78D-01 WtEn= 2.22D-01
 Coeff-Com:  0.100D+01
 Coeff-En:   0.100D+01
 Coeff:      0.100D+01
 Gap=     0.152 Goal=   None    Shift=    0.000
 GapD=    0.152 DampG=1.000 DampE=0.500 DampFc=0.5000 IDamp=-1.
 Damping current iteration by 5.00D-01
 RMSDP=1.52D-03 MaxDP=1.54D-01              OVMax= 1.66D-01

 Cycle   2  Pass 1  IDiag  1:
 RMSU=  7.55D-04    CP:  9.88D-01
 E= -3007.51035412021     Delta-E=       -0.319135519416 Rises=F Damp=T
 DIIS: error= 1.17D-02 at cycle   2 NSaved=   2.
 NSaved= 2 IEnMin= 2 EnMin= -3007.51035412021     IErMin= 2 ErrMin= 1.17D-02
 ErrMax= 1.17D-02  0.00D+00 EMaxC= 1.00D-01 BMatC= 2.90D-01 BMatP= 1.49D+00
 IDIUse=3 WtCom= 8.83D-01 WtEn= 1.17D-01
 Coeff-Com: -0.340D+00 0.134D+01
 Coeff-En:   0.000D+00 0.100D+01
 Coeff:     -0.300D+00 0.130D+01
 Gap=     0.176 Goal=   None    Shift=    0.000
 RMSDP=7.22D-04 MaxDP=9.94D-02 DE=-3.19D-01 OVMax= 1.64D-01

 Cycle   3  Pass 1  IDiag  1:
 RMSU=  6.90D-04    CP:  9.80D-01  1.26D+00
 E= -3007.73825724311     Delta-E=       -0.227903122895 Rises=F Damp=F
 DIIS: error= 1.49D-02 at cycle   3 NSaved=   3.
 NSaved= 3 IEnMin= 3 EnMin= -3007.73825724311     IErMin= 2 ErrMin= 1.17D-02
 ErrMax= 1.49D-02  0.00D+00 EMaxC= 1.00D-01 BMatC= 1.50D-01 BMatP= 2.90D-01
 IDIUse=3 WtCom= 8.51D-01 WtEn= 1.49D-01
 Coeff-Com: -0.313D+00 0.696D+00 0.617D+00
 Coeff-En:   0.000D+00 0.000D+00 0.100D+01
 Coeff:     -0.266D+00 0.593D+00 0.674D+00
 Gap=     0.157 Goal=   None    Shift=    0.000
 RMSDP=4.48D-04 MaxDP=4.76D-02 DE=-2.28D-01 OVMax= 8.34D-02

 Cycle   4  Pass 1  IDiag  1:
 RMSU=  2.20D-04    CP:  9.77D-01  1.59D+00  5.62D-01
 E= -3007.84732179083     Delta-E=       -0.109064547722 Rises=F Damp=F
 DIIS: error= 5.98D-03 at cycle   4 NSaved=   4.
 NSaved= 4 IEnMin= 4 EnMin= -3007.84732179083     IErMin= 4 ErrMin= 5.98D-03
 ErrMax= 5.98D-03  0.00D+00 EMaxC= 1.00D-01 BMatC= 2.42D-02 BMatP= 1.50D-01
 IDIUse=3 WtCom= 9.40D-01 WtEn= 5.98D-02
 Coeff-Com: -0.116D+00 0.232D+00 0.375D+00 0.509D+00
 Coeff-En:   0.000D+00 0.000D+00 0.114D+00 0.886D+00
 Coeff:     -0.109D+00 0.218D+00 0.359D+00 0.531D+00
 Gap=     0.155 Goal=   None    Shift=    0.000
 RMSDP=1.38D-04 MaxDP=2.06D-02 DE=-1.09D-01 OVMax= 2.70D-02

 Cycle   5  Pass 1  IDiag  1:
 RMSU=  6.32D-05    CP:  9.77D-01  1.54D+00  6.97D-01  6.76D-01
 E= -3007.86702965407     Delta-E=       -0.019707863245 Rises=F Damp=F
 DIIS: error= 7.48D-04 at cycle   5 NSaved=   5.
 NSaved= 5 IEnMin= 5 EnMin= -3007.86702965407     IErMin= 5 ErrMin= 7.48D-04
 ErrMax= 7.48D-04  0.00D+00 EMaxC= 1.00D-01 BMatC= 4.99D-04 BMatP= 2.42D-02
 IDIUse=3 WtCom= 9.93D-01 WtEn= 7.48D-03
 Coeff-Com: -0.280D-01 0.529D-01 0.118D+00 0.229D+00 0.627D+00
 Coeff-En:   0.000D+00 0.000D+00 0.000D+00 0.000D+00 0.100D+01
 Coeff:     -0.278D-01 0.525D-01 0.118D+00 0.228D+00 0.630D+00
 Gap=     0.155 Goal=   None    Shift=    0.000
 RMSDP=2.52D-05 MaxDP=4.84D-03 DE=-1.97D-02 OVMax= 7.53D-03

 Cycle   6  Pass 1  IDiag  1:
 RMSU=  2.16D-05    CP:  9.77D-01  1.55D+00  6.98D-01  7.25D-01  9.06D-01
 E= -3007.86745476490     Delta-E=       -0.000425110824 Rises=F Damp=F
 DIIS: error= 3.45D-04 at cycle   6 NSaved=   6.
 NSaved= 6 IEnMin= 6 EnMin= -3007.86745476490     IErMin= 6 ErrMin= 3.45D-04
 ErrMax= 3.45D-04  0.00D+00 EMaxC= 1.00D-01 BMatC= 7.88D-05 BMatP= 4.99D-04
 IDIUse=3 WtCom= 9.97D-01 WtEn= 3.45D-03
 Coeff-Com:  0.985D-02-0.213D-01-0.163D-01 0.243D-02 0.295D+00 0.730D+00
 Coeff-En:   0.000D+00 0.000D+00 0.000D+00 0.000D+00 0.000D+00 0.100D+01
 Coeff:      0.981D-02-0.212D-01-0.162D-01 0.242D-02 0.294D+00 0.731D+00
 Gap=     0.156 Goal=   None    Shift=    0.000
 RMSDP=1.40D-05 MaxDP=2.92D-03 DE=-4.25D-04 OVMax= 5.06D-03

 Cycle   7  Pass 1  IDiag  1:
 RMSU=  1.02D-05    CP:  9.77D-01  1.55D+00  7.03D-01  7.46D-01  1.02D+00
                    CP:  9.93D-01
 E= -3007.86756450707     Delta-E=       -0.000109742172 Rises=F Damp=F
 DIIS: error= 9.13D-05 at cycle   7 NSaved=   7.
 NSaved= 7 IEnMin= 7 EnMin= -3007.86756450707     IErMin= 7 ErrMin= 9.13D-05
 ErrMax= 9.13D-05  0.00D+00 EMaxC= 1.00D-01 BMatC= 9.15D-06 BMatP= 7.88D-05
 IDIUse=1 WtCom= 1.00D+00 WtEn= 0.00D+00
 Coeff-Com:  0.682D-02-0.138D-01-0.180D-01-0.236D-01 0.559D-01 0.288D+00
 Coeff-Com:  0.705D+00
 Coeff:      0.682D-02-0.138D-01-0.180D-01-0.236D-01 0.559D-01 0.288D+00
 Coeff:      0.705D+00
 Gap=     0.156 Goal=   None    Shift=    0.000
 RMSDP=6.34D-06 MaxDP=3.80D-04 DE=-1.10D-04 OVMax= 3.74D-03

 Cycle   8  Pass 1  IDiag  1:
 RMSU=  4.53D-06    CP:  9.77D-01  1.55D+00  7.05D-01  7.49D-01  1.05D+00
                    CP:  1.15D+00  1.11D+00
 E= -3007.86759003750     Delta-E=       -0.000025530431 Rises=F Damp=F
 DIIS: error= 4.91D-05 at cycle   8 NSaved=   8.
 NSaved= 8 IEnMin= 8 EnMin= -3007.86759003750     IErMin= 8 ErrMin= 4.91D-05
 ErrMax= 4.91D-05  0.00D+00 EMaxC= 1.00D-01 BMatC= 3.11D-06 BMatP= 9.15D-06
 IDIUse=1 WtCom= 1.00D+00 WtEn= 0.00D+00
 Coeff-Com:  0.981D-03-0.166D-02-0.489D-02-0.130D-01-0.423D-01-0.472D-01
 Coeff-Com:  0.338D+00 0.770D+00
 Coeff:      0.981D-03-0.166D-02-0.489D-02-0.130D-01-0.423D-01-0.472D-01
 Coeff:      0.338D+00 0.770D+00
 Gap=     0.156 Goal=   None    Shift=    0.000
 RMSDP=5.10D-06 MaxDP=5.52D-04 DE=-2.55D-05 OVMax= 3.17D-03

 Cycle   9  Pass 1  IDiag  1:
 RMSU=  2.38D-06    CP:  9.77D-01  1.55D+00  7.05D-01  7.53D-01  1.08D+00
                    CP:  1.24D+00  1.44D+00  1.36D+00
 E= -3007.86760476104     Delta-E=       -0.000014723542 Rises=F Damp=F
 DIIS: error= 4.22D-05 at cycle   9 NSaved=   9.
 NSaved= 9 IEnMin= 9 EnMin= -3007.86760476104     IErMin= 9 ErrMin= 4.22D-05
 ErrMax= 4.22D-05  0.00D+00 EMaxC= 1.00D-01 BMatC= 8.16D-07 BMatP= 3.11D-06
 IDIUse=1 WtCom= 1.00D+00 WtEn= 0.00D+00
 Coeff-Com: -0.189D-02 0.387D-02 0.441D-02 0.407D-02-0.234D-01-0.110D+00
 Coeff-Com: -0.115D+00 0.172D+00 0.107D+01
 Coeff:     -0.189D-02 0.387D-02 0.441D-02 0.407D-02-0.234D-01-0.110D+00
 Coeff:     -0.115D+00 0.172D+00 0.107D+01
 Gap=     0.156 Goal=   None    Shift=    0.000
 RMSDP=4.86D-06 MaxDP=3.34D-04 DE=-1.47D-05 OVMax= 3.53D-03

 Cycle  10  Pass 1  IDiag  1:
 RMSU=  1.62D-06    CP:  9.77D-01  1.55D+00  7.06D-01  7.53D-01  1.09D+00
                    CP:  1.32D+00  1.67D+00  2.05D+00  1.63D+00
 E= -3007.86761385165     Delta-E=       -0.000009090611 Rises=F Damp=F
 DIIS: error= 2.22D-05 at cycle  10 NSaved=  10.
 NSaved=10 IEnMin=10 EnMin= -3007.86761385165     IErMin=10 ErrMin= 2.22D-05
 ErrMax= 2.22D-05  0.00D+00 EMaxC= 1.00D-01 BMatC= 4.60D-07 BMatP= 8.16D-07
 IDIUse=1 WtCom= 1.00D+00 WtEn= 0.00D+00
 Coeff-Com: -0.152D-02 0.295D-02 0.463D-02 0.824D-02 0.825D-02-0.442D-01
 Coeff-Com: -0.217D+00-0.279D+00 0.599D+00 0.918D+00
 Coeff:     -0.152D-02 0.295D-02 0.463D-02 0.824D-02 0.825D-02-0.442D-01
 Coeff:     -0.217D+00-0.279D+00 0.599D+00 0.918D+00
 Gap=     0.156 Goal=   None    Shift=    0.000
 RMSDP=4.11D-06 MaxDP=2.41D-04 DE=-9.09D-06 OVMax= 2.86D-03

 Cycle  11  Pass 1  IDiag  1:
 RMSU=  8.65D-07    CP:  9.77D-01  1.55D+00  7.06D-01  7.54D-01  1.10D+00
                    CP:  1.37D+00  1.89D+00  2.56D+00  2.43D+00  1.45D+00
 E= -3007.86761822132     Delta-E=       -0.000004369665 Rises=F Damp=F
 DIIS: error= 1.33D-05 at cycle  11 NSaved=  11.
 NSaved=11 IEnMin=11 EnMin= -3007.86761822132     IErMin=11 ErrMin= 1.33D-05
 ErrMax= 1.33D-05  0.00D+00 EMaxC= 1.00D-01 BMatC= 1.18D-07 BMatP= 4.60D-07
 IDIUse=1 WtCom= 1.00D+00 WtEn= 0.00D+00
 Coeff-Com: -0.111D-03 0.161D-03 0.745D-03 0.282D-02 0.128D-01 0.142D-01
 Coeff-Com: -0.646D-01-0.189D+00-0.416D-01 0.416D+00 0.848D+00
 Coeff:     -0.111D-03 0.161D-03 0.745D-03 0.282D-02 0.128D-01 0.142D-01
 Coeff:     -0.646D-01-0.189D+00-0.416D-01 0.416D+00 0.848D+00
 Gap=     0.156 Goal=   None    Shift=    0.000
 RMSDP=2.07D-06 MaxDP=2.86D-04 DE=-4.37D-06 OVMax= 1.52D-03

 Cycle  12  Pass 1  IDiag  1:
 RMSU=  4.76D-07    CP:  9.77D-01  1.55D+00  7.06D-01  7.54D-01  1.10D+00
                    CP:  1.40D+00  1.96D+00  2.85D+00  2.79D+00  1.97D+00
                    CP:  1.31D+00
 E= -3007.86761927274     Delta-E=       -0.000001051423 Rises=F Damp=F
 DIIS: error= 4.98D-06 at cycle  12 NSaved=  12.
 NSaved=12 IEnMin=12 EnMin= -3007.86761927274     IErMin=12 ErrMin= 4.98D-06
 ErrMax= 4.98D-06  0.00D+00 EMaxC= 1.00D-01 BMatC= 3.21D-08 BMatP= 1.18D-07
 IDIUse=1 WtCom= 1.00D+00 WtEn= 0.00D+00
 Coeff-Com:  0.446D-03-0.889D-03-0.127D-02-0.157D-02 0.178D-02 0.194D-01
 Coeff-Com:  0.477D-01 0.304D-01-0.219D+00-0.202D+00 0.307D+00 0.102D+01
 Coeff:      0.446D-03-0.889D-03-0.127D-02-0.157D-02 0.178D-02 0.194D-01
 Coeff:      0.477D-01 0.304D-01-0.219D+00-0.202D+00 0.307D+00 0.102D+01
 Gap=     0.156 Goal=   None    Shift=    0.000
 RMSDP=1.35D-06 MaxDP=1.47D-04 DE=-1.05D-06 OVMax= 9.23D-04

 Cycle  13  Pass 1  IDiag  1:
 RMSU=  2.75D-07    CP:  9.77D-01  1.55D+00  7.06D-01  7.54D-01  1.10D+00
                    CP:  1.41D+00  2.00D+00  3.00D+00  3.00D+00  2.33D+00
                    CP:  1.78D+00  1.39D+00
 E= -3007.86761955690     Delta-E=       -0.000000284153 Rises=F Damp=F
 DIIS: error= 2.33D-06 at cycle  13 NSaved=  13.
 NSaved=13 IEnMin=13 EnMin= -3007.86761955690     IErMin=13 ErrMin= 2.33D-06
 ErrMax= 2.33D-06  0.00D+00 EMaxC= 1.00D-01 BMatC= 7.58D-09 BMatP= 3.21D-08
 IDIUse=1 WtCom= 1.00D+00 WtEn= 0.00D+00
 Coeff-Com:  0.228D-03-0.446D-03-0.737D-03-0.122D-02-0.159D-02 0.597D-02
 Coeff-Com:  0.335D-01 0.520D-01-0.872D-01-0.170D+00-0.226D-01 0.482D+00
 Coeff-Com:  0.710D+00
 Coeff:      0.228D-03-0.446D-03-0.737D-03-0.122D-02-0.159D-02 0.597D-02
 Coeff:      0.335D-01 0.520D-01-0.872D-01-0.170D+00-0.226D-01 0.482D+00
 Coeff:      0.710D+00
 Gap=     0.156 Goal=   None    Shift=    0.000
 RMSDP=3.13D-07 MaxDP=5.87D-05 DE=-2.84D-07 OVMax= 2.11D-04

 Cycle  14  Pass 1  IDiag  1:
 RMSU=  1.81D-07    CP:  9.77D-01  1.55D+00  7.06D-01  7.54D-01  1.10D+00
                    CP:  1.41D+00  2.00D+00  3.00D+00  3.00D+00  2.42D+00
                    CP:  1.92D+00  1.64D+00  1.31D+00
 E= -3007.86761958264     Delta-E=       -0.000000025741 Rises=F Damp=F
 DIIS: error= 1.00D-06 at cycle  14 NSaved=  14.
 NSaved=14 IEnMin=14 EnMin= -3007.86761958264     IErMin=14 ErrMin= 1.00D-06
 ErrMax= 1.00D-06  0.00D+00 EMaxC= 1.00D-01 BMatC= 1.28D-09 BMatP= 7.58D-09
 IDIUse=1 WtCom= 1.00D+00 WtEn= 0.00D+00
 Coeff-Com:  0.393D-05-0.394D-05-0.494D-04-0.172D-03-0.987D-03-0.146D-02
 Coeff-Com:  0.325D-02 0.139D-01 0.863D-02-0.305D-01-0.725D-01-0.376D-02
 Coeff-Com:  0.269D+00 0.814D+00
 Coeff:      0.393D-05-0.394D-05-0.494D-04-0.172D-03-0.987D-03-0.146D-02
 Coeff:      0.325D-02 0.139D-01 0.863D-02-0.305D-01-0.725D-01-0.376D-02
 Coeff:      0.269D+00 0.814D+00
 Gap=     0.156 Goal=   None    Shift=    0.000
 RMSDP=1.54D-07 MaxDP=2.50D-05 DE=-2.57D-08 OVMax= 9.14D-05

 Cycle  15  Pass 1  IDiag  1:
 RMSU=  5.48D-08    CP:  9.77D-01  1.55D+00  7.06D-01  7.54D-01  1.10D+00
                    CP:  1.41D+00  2.01D+00  3.00D+00  3.00D+00  2.47D+00
                    CP:  1.98D+00  1.76D+00  1.60D+00  1.28D+00
 E= -3007.86761958875     Delta-E=       -0.000000006114 Rises=F Damp=F
 DIIS: error= 6.01D-07 at cycle  15 NSaved=  15.
 NSaved=15 IEnMin=15 EnMin= -3007.86761958875     IErMin=15 ErrMin= 6.01D-07
 ErrMax= 6.01D-07  0.00D+00 EMaxC= 1.00D-01 BMatC= 3.30D-10 BMatP= 1.28D-09
 IDIUse=1 WtCom= 1.00D+00 WtEn= 0.00D+00
 Coeff-Com: -0.602D-04 0.119D-03 0.178D-03 0.257D-03-0.165D-05-0.215D-02
 Coeff-Com: -0.762D-02-0.827D-02 0.277D-01 0.317D-01-0.201D-01-0.119D+00
 Coeff-Com: -0.886D-01 0.317D+00 0.868D+00
 Coeff:     -0.602D-04 0.119D-03 0.178D-03 0.257D-03-0.165D-05-0.215D-02
 Coeff:     -0.762D-02-0.827D-02 0.277D-01 0.317D-01-0.201D-01-0.119D+00
 Coeff:     -0.886D-01 0.317D+00 0.868D+00
 Gap=     0.156 Goal=   None    Shift=    0.000
 RMSDP=6.82D-08 MaxDP=8.66D-06 DE=-6.11D-09 OVMax= 4.00D-05

 Cycle  16  Pass 1  IDiag  1:
 RMSU=  4.47D-08    CP:  9.77D-01  1.55D+00  7.06D-01  7.54D-01  1.10D+00
                    CP:  1.41D+00  2.01D+00  3.00D+00  3.00D+00  2.48D+00
                    CP:  2.00D+00  1.81D+00  1.70D+00  1.38D+00  1.28D+00
 E= -3007.86761959075     Delta-E=       -0.000000001999 Rises=F Damp=F
 DIIS: error= 3.58D-07 at cycle  16 NSaved=  16.
 NSaved=16 IEnMin=16 EnMin= -3007.86761959075     IErMin=16 ErrMin= 3.58D-07
 ErrMax= 3.58D-07  0.00D+00 EMaxC= 1.00D-01 BMatC= 8.23D-11 BMatP= 3.30D-10
 IDIUse=1 WtCom= 1.00D+00 WtEn= 0.00D+00
 Coeff-Com: -0.151D-04 0.289D-04 0.526D-04 0.951D-04 0.206D-03-0.104D-03
 Coeff-Com: -0.249D-02-0.513D-02 0.565D-02 0.127D-01 0.939D-02-0.266D-01
 Coeff-Com: -0.838D-01-0.110D+00 0.203D+00 0.997D+00
 Coeff:     -0.151D-04 0.289D-04 0.526D-04 0.951D-04 0.206D-03-0.104D-03
 Coeff:     -0.249D-02-0.513D-02 0.565D-02 0.127D-01 0.939D-02-0.266D-01
 Coeff:     -0.838D-01-0.110D+00 0.203D+00 0.997D+00
 Gap=     0.156 Goal=   None    Shift=    0.000
 RMSDP=4.74D-08 MaxDP=5.03D-06 DE=-2.00D-09 OVMax= 2.81D-05

 Cycle  17  Pass 1  IDiag  1:
 RMSU=  1.42D-08    CP:  9.77D-01  1.55D+00  7.06D-01  7.54D-01  1.10D+00
                    CP:  1.41D+00  2.01D+00  3.00D+00  3.00D+00  2.48D+00
                    CP:  2.01D+00  1.84D+00  1.77D+00  1.47D+00  1.66D+00
                    CP:  1.61D+00
 E= -3007.86761959159     Delta-E=       -0.000000000844 Rises=F Damp=F
 DIIS: error= 1.91D-07 at cycle  17 NSaved=  17.
 NSaved=17 IEnMin=17 EnMin= -3007.86761959159     IErMin=17 ErrMin= 1.91D-07
 ErrMax= 1.91D-07  0.00D+00 EMaxC= 1.00D-01 BMatC= 3.15D-11 BMatP= 8.23D-11
 IDIUse=1 WtCom= 1.00D+00 WtEn= 0.00D+00
 Coeff-Com:  0.159D-04-0.319D-04-0.455D-04-0.585D-04 0.793D-04 0.788D-03
 Coeff-Com:  0.185D-02 0.941D-03-0.794D-02-0.765D-02 0.112D-01 0.371D-01
 Coeff-Com:  0.199D-02-0.160D+00-0.242D+00 0.355D+00 0.101D+01
 Coeff:      0.159D-04-0.319D-04-0.455D-04-0.585D-04 0.793D-04 0.788D-03
 Coeff:      0.185D-02 0.941D-03-0.794D-02-0.765D-02 0.112D-01 0.371D-01
 Coeff:      0.199D-02-0.160D+00-0.242D+00 0.355D+00 0.101D+01
 Gap=     0.156 Goal=   None    Shift=    0.000
 RMSDP=3.36D-08 MaxDP=1.79D-06 DE=-8.44D-10 OVMax= 2.16D-05

 Cycle  18  Pass 1  IDiag  1:
 RMSU=  9.88D-09    CP:  9.77D-01  1.55D+00  7.06D-01  7.54D-01  1.10D+00
                    CP:  1.41D+00  2.01D+00  3.00D+00  3.00D+00  2.48D+00
                    CP:  2.01D+00  1.85D+00  1.81D+00  1.51D+00  1.94D+00
                    CP:  2.11D+00  1.49D+00
 E= -3007.86761959192     Delta-E=       -0.000000000324 Rises=F Damp=F
 DIIS: error= 8.09D-08 at cycle  18 NSaved=  18.
 NSaved=18 IEnMin=18 EnMin= -3007.86761959192     IErMin=18 ErrMin= 8.09D-08
 ErrMax= 8.09D-08  0.00D+00 EMaxC= 1.00D-01 BMatC= 9.62D-12 BMatP= 3.15D-11
 IDIUse=1 WtCom= 1.00D+00 WtEn= 0.00D+00
 Coeff-Com:  0.117D-04-0.229D-04-0.378D-04-0.569D-04-0.333D-04 0.380D-03
 Coeff-Com:  0.166D-02 0.221D-02-0.515D-02-0.777D-02 0.152D-02 0.261D-01
 Coeff-Com:  0.298D-01-0.338D-01-0.176D+00-0.184D+00 0.438D+00 0.908D+00
 Coeff:      0.117D-04-0.229D-04-0.378D-04-0.569D-04-0.333D-04 0.380D-03
 Coeff:      0.166D-02 0.221D-02-0.515D-02-0.777D-02 0.152D-02 0.261D-01
 Coeff:      0.298D-01-0.338D-01-0.176D+00-0.184D+00 0.438D+00 0.908D+00
 Gap=     0.156 Goal=   None    Shift=    0.000
 RMSDP=1.89D-08 MaxDP=1.05D-06 DE=-3.24D-10 OVMax= 1.25D-05

 Cycle  19  Pass 1  IDiag  1:
 RMSU=  4.29D-09    CP:  9.77D-01  1.55D+00  7.06D-01  7.54D-01  1.10D+00
                    CP:  1.41D+00  2.00D+00  3.00D+00  3.00D+00  2.48D+00
                    CP:  2.01D+00  1.85D+00  1.82D+00  1.53D+00  2.09D+00
                    CP:  2.41D+00  1.95D+00  1.36D+00
 E= -3007.86761959203     Delta-E=       -0.000000000111 Rises=F Damp=F
 DIIS: error= 3.41D-08 at cycle  19 NSaved=  19.
 NSaved=19 IEnMin=19 EnMin= -3007.86761959203     IErMin=19 ErrMin= 3.41D-08
 ErrMax= 3.41D-08  0.00D+00 EMaxC= 1.00D-01 BMatC= 2.24D-12 BMatP= 9.62D-12
 IDIUse=1 WtCom= 1.00D+00 WtEn= 0.00D+00
 Coeff-Com: -0.138D-06 0.459D-06-0.163D-05-0.369D-05-0.344D-04-0.758D-04
 Coeff-Com:  0.546D-04 0.485D-03 0.238D-03-0.798D-03-0.243D-02-0.713D-03
 Coeff-Com:  0.883D-02 0.277D-01 0.269D-02-0.149D+00-0.121D+00 0.341D+00
 Coeff-Com:  0.893D+00
 Coeff:     -0.138D-06 0.459D-06-0.163D-05-0.369D-05-0.344D-04-0.758D-04
 Coeff:      0.546D-04 0.485D-03 0.238D-03-0.798D-03-0.243D-02-0.713D-03
 Coeff:      0.883D-02 0.277D-01 0.269D-02-0.149D+00-0.121D+00 0.341D+00
 Coeff:      0.893D+00
 Gap=     0.156 Goal=   None    Shift=    0.000
 RMSDP=8.27D-09 MaxDP=4.83D-07 DE=-1.11D-10 OVMax= 4.98D-06

 SCF Done:  E(RwB97XD) =  -3007.86761959     A.U. after   19 cycles
            NFock= 19  Conv=0.83D-08     -V/T= 2.0108
 KE= 2.975631111286D+03 PE=-2.688174345685D+04 EE= 1.095343883916D+04
 Leave Link  502 at Thu May  5 10:31:44 2022, MaxMem= 10066329600 cpu:           10424.0 elap:             453.3
 (Enter /sw/apps/gaussian-16.0/g16/l801.exe)
 DoSCS=F DFT=T ScalE2(SS,OS)=  1.000000  1.000000
 ExpMin= 3.36D-02 ExpMax= 4.95D+03 ExpMxC= 7.45D+02 IAcc=3 IRadAn=         5 AccDes= 0.00D+00
 HarFok:  IExCor=  205 AccDes= 0.00D+00 IRadAn=         5 IDoV=-2 UseB2=F ITyADJ=14
 ICtDFT= 12500011 ScaDFX=  1.000000  1.000000  1.000000  1.000000
 GSVD:  LWork=       -5460 too small for GESVD, short by       25550 words or       25550 for optimal perf.
 Largest valence mixing into a core orbital is  1.72D-04
 Largest core mixing into a valence orbital is  5.58D-05
 Range of M.O.s used for correlation:    71  1298
 NBasis=  1298 NAE=   246 NBE=   246 NFC=    70 NFV=     0
 NROrb=   1228 NOA=   176 NOB=   176 NVA=  1052 NVB=  1052
 Leave Link  801 at Thu May  5 10:31:44 2022, MaxMem= 10066329600 cpu:               7.5 elap:               0.3
 (Enter /sw/apps/gaussian-16.0/g16/l914.exe)
 RHF ground state
 Two-electron integrals replicated using symmetry.
 MDV= 10066329600 DFT=T DoStab=F Mixed=T DoRPA=T DoScal=F NonHer=T
 Making orbital integer symmetry assigments:
 Orbital symmetries:
       Occupied  (A) (A) (A) (A) (A) (A) (A) (A) (A) (A) (A) (A)
                 (A) (A) (A) (A) (A) (A) (A) (A) (A) (A) (A) (A)
                 (A) (A) (A) (A) (A) (A) (A) (A) (A) (A) (A) (A)
                 (A) (A) (A) (A) (A) (A) (A) (A) (A) (A) (A) (A)
                 (A) (A) (A) (A) (A) (A) (A) (A) (A) (A) (A) (A)
                 (A) (A) (A) (A) (A) (A) (A) (A) (A) (A) (A) (A)
                 (A) (A) (A) (A) (A) (A) (A) (A) (A) (A) (A) (A)
                 (A) (A) (A) (A) (A) (A) (A) (A) (A) (A) (A) (A)
                 (A) (A) (A) (A) (A) (A) (A) (A) (A) (A) (A) (A)
                 (A) (A) (A) (A) (A) (A) (A) (A) (A) (A) (A) (A)
                 (A) (A) (A) (A) (A) (A) (A) (A) (A) (A) (A) (A)
                 (A) (A) (A) (A) (A) (A) (A) (A) (A) (A) (A) (A)
                 (A) (A) (A) (A) (A) (A) (A) (A) (A) (A) (A) (A)
                 (A) (A) (A) (A) (A) (A) (A) (A) (A) (A) (A) (A)
                 (A) (A) (A) (A) (A) (A) (A) (A) (A) (A) (A) (A)
                 (A) (A) (A) (A) (A) (A) (A) (A) (A) (A) (A) (A)
                 (A) (A) (A) (A) (A) (A) (A) (A) (A) (A) (A) (A)
                 (A) (A) (A) (A) (A) (A) (A) (A) (A) (A) (A) (A)
                 (A) (A) (A) (A) (A) (A) (A) (A) (A) (A) (A) (A)
                 (A) (A) (A) (A) (A) (A) (A) (A) (A) (A) (A) (A)
                 (A) (A) (A) (A) (A) (A)
       Virtual   (A) (A) (A) (A) (A) (A) (A) (A) (A) (A) (A) (A)
                 (A) (A) (A) (A) (A) (A) (A) (A) (A) (A) (A) (A)
                 (A) (A) (A) (A) (A) (A) (A) (A) (A) (A) (A) (A)
                 (A) (A) (A) (A) (A) (A) (A) (A) (A) (A) (A) (A)
                 (A) (A) (A) (A) (A) (A) (A) (A) (A) (A) (A) (A)
                 (A) (A) (A) (A) (A) (A) (A) (A) (A) (A) (A) (A)
                 (A) (A) (A) (A) (A) (A) (A) (A) (A) (A) (A) (A)
                 (A) (A) (A) (A) (A) (A) (A) (A) (A) (A) (A) (A)
                 (A) (A) (A) (A) (A) (A) (A) (A) (A) (A) (A) (A)
                 (A) (A) (A) (A) (A) (A) (A) (A) (A) (A) (A) (A)
                 (A) (A) (A) (A) (A) (A) (A) (A) (A) (A) (A) (A)
                 (A) (A) (A) (A) (A) (A) (A) (A) (A) (A) (A) (A)
                 (A) (A) (A) (A) (A) (A) (A) (A) (A) (A) (A) (A)
                 (A) (A) (A) (A) (A) (A) (A) (A) (A) (A) (A) (A)
                 (A) (A) (A) (A) (A) (A) (A) (A) (A) (A) (A) (A)
                 (A) (A) (A) (A) (A) (A) (A) (A) (A) (A) (A) (A)
                 (A) (A) (A) (A) (A) (A) (A) (A) (A) (A) (A) (A)
                 (A) (A) (A) (A) (A) (A) (A) (A) (A) (A) (A) (A)
                 (A) (A) (A) (A) (A) (A) (A) (A) (A) (A) (A) (A)
                 (A) (A) (A) (A) (A) (A) (A) (A) (A) (A) (A) (A)
                 (A) (A) (A) (A) (A) (A) (A) (A) (A) (A) (A) (A)
                 (A) (A) (A) (A) (A) (A) (A) (A) (A) (A) (A) (A)
                 (A) (A) (A) (A) (A) (A) (A) (A) (A) (A) (A) (A)
                 (A) (A) (A) (A) (A) (A) (A) (A) (A) (A) (A) (A)
                 (A) (A) (A) (A) (A) (A) (A) (A) (A) (A) (A) (A)
                 (A) (A) (A) (A) (A) (A) (A) (A) (A) (A) (A) (A)
                 (A) (A) (A) (A) (A) (A) (A) (A) (A) (A) (A) (A)
                 (A) (A) (A) (A) (A) (A) (A) (A) (A) (A) (A) (A)
                 (A) (A) (A) (A) (A) (A) (A) (A) (A) (A) (A) (A)
                 (A) (A) (A) (A) (A) (A) (A) (A) (A) (A) (A) (A)
                 (A) (A) (A) (A) (A) (A) (A) (A) (A) (A) (A) (A)
                 (A) (A) (A) (A) (A) (A) (A) (A) (A) (A) (A) (A)
                 (A) (A) (A) (A) (A) (A) (A) (A) (A) (A) (A) (A)
                 (A) (A) (A) (A) (A) (A) (A) (A) (A) (A) (A) (A)
                 (A) (A) (A) (A) (A) (A) (A) (A) (A) (A) (A) (A)
                 (A) (A) (A) (A) (A) (A) (A) (A) (A) (A) (A) (A)
                 (A) (A) (A) (A) (A) (A) (A) (A) (A) (A) (A) (A)
                 (A) (A) (A) (A) (A) (A) (A) (A) (A) (A) (A) (A)
                 (A) (A) (A) (A) (A) (A) (A) (A) (A) (A) (A) (A)
                 (A) (A) (A) (A) (A) (A) (A) (A) (A) (A) (A) (A)
                 (A) (A) (A) (A) (A) (A) (A) (A) (A) (A) (A) (A)
                 (A) (A) (A) (A) (A) (A) (A) (A) (A) (A) (A) (A)
                 (A) (A) (A) (A) (A) (A) (A) (A) (A) (A) (A) (A)
                 (A) (A) (A) (A) (A) (A) (A) (A) (A) (A) (A) (A)
                 (A) (A) (A) (A) (A) (A) (A) (A) (A) (A) (A) (A)
                 (A) (A) (A) (A) (A) (A) (A) (A) (A) (A) (A) (A)
                 (A) (A) (A) (A) (A) (A) (A) (A) (A) (A) (A) (A)
                 (A) (A) (A) (A) (A) (A) (A) (A) (A) (A) (A) (A)
                 (A) (A) (A) (A) (A) (A) (A) (A) (A) (A) (A) (A)
                 (A) (A) (A) (A) (A) (A) (A) (A) (A) (A) (A) (A)
                 (A) (A) (A) (A) (A) (A) (A) (A) (A) (A) (A) (A)
                 (A) (A) (A) (A) (A) (A) (A) (A) (A) (A) (A) (A)
                 (A) (A) (A) (A) (A) (A) (A) (A) (A) (A) (A) (A)
                 (A) (A) (A) (A) (A) (A) (A) (A) (A) (A) (A) (A)
                 (A) (A) (A) (A) (A) (A) (A) (A) (A) (A) (A) (A)
                 (A) (A) (A) (A) (A) (A) (A) (A) (A) (A) (A) (A)
                 (A) (A) (A) (A) (A) (A) (A) (A) (A) (A) (A) (A)
                 (A) (A) (A) (A) (A) (A) (A) (A) (A) (A) (A) (A)
                 (A) (A) (A) (A) (A) (A) (A) (A) (A) (A) (A) (A)
                 (A) (A) (A) (A) (A) (A) (A) (A) (A) (A) (A) (A)
                 (A) (A) (A) (A) (A) (A) (A) (A) (A) (A) (A) (A)
                 (A) (A) (A) (A) (A) (A) (A) (A) (A) (A) (A) (A)
                 (A) (A) (A) (A) (A) (A) (A) (A) (A) (A) (A) (A)
                 (A) (A) (A) (A) (A) (A) (A) (A) (A) (A) (A) (A)
                 (A) (A) (A) (A) (A) (A) (A) (A) (A) (A) (A) (A)
                 (A) (A) (A) (A) (A) (A) (A) (A) (A) (A) (A) (A)
                 (A) (A) (A) (A) (A) (A) (A) (A) (A) (A) (A) (A)
                 (A) (A) (A) (A) (A) (A) (A) (A) (A) (A) (A) (A)
                 (A) (A) (A) (A) (A) (A) (A) (A) (A) (A) (A) (A)
                 (A) (A) (A) (A) (A) (A) (A) (A) (A) (A) (A) (A)
                 (A) (A) (A) (A) (A) (A) (A) (A) (A) (A) (A) (A)
                 (A) (A) (A) (A) (A) (A) (A) (A) (A) (A) (A) (A)
                 (A) (A) (A) (A) (A) (A) (A) (A) (A) (A) (A) (A)
                 (A) (A) (A) (A) (A) (A) (A) (A) (A) (A) (A) (A)
                 (A) (A) (A) (A) (A) (A) (A) (A) (A) (A) (A) (A)
                 (A) (A) (A) (A) (A) (A) (A) (A) (A) (A) (A) (A)
                 (A) (A) (A) (A) (A) (A) (A) (A) (A) (A) (A) (A)
                 (A) (A) (A) (A) (A) (A) (A) (A) (A) (A) (A) (A)
                 (A) (A) (A) (A) (A) (A) (A) (A) (A) (A) (A) (A)
                 (A) (A) (A) (A) (A) (A) (A) (A) (A) (A) (A) (A)
                 (A) (A) (A) (A) (A) (A) (A) (A) (A) (A) (A) (A)
                 (A) (A) (A) (A) (A) (A) (A) (A) (A) (A) (A) (A)
                 (A) (A) (A) (A) (A) (A) (A) (A) (A) (A) (A) (A)
                 (A) (A) (A) (A) (A) (A) (A) (A) (A) (A) (A) (A)
                 (A) (A) (A) (A) (A) (A) (A) (A) (A) (A) (A) (A)
                 (A) (A) (A) (A) (A) (A) (A) (A) (A) (A) (A) (A)
                 (A) (A) (A) (A) (A) (A) (A) (A) (A) (A) (A) (A)
                 (A) (A) (A) (A) (A) (A) (A) (A)
    20 initial guesses have been made.
 Convergence on wavefunction:    0.001000000000000
 Davidson Disk Diagonalization:  ConvIn= 1.00D-03 SkipCon=T Conv= 1.00D-03.
 Max sub-space:  2000 roots to seek:    20 dimension of matrix:       370304
 Iteration     1 Dimension    20 NMult     0 NNew     20
 CISAX will form    20 AO SS matrices at one time.
 NMat=    20 NSing=    20 JSym2X= 0.
 FoFJK:  IHMeth= 1 ICntrl=       0 DoSepK=T KAlg= 0 I1Cent=           0 FoldK=F
 IRaf=         1 NMat=      40 IRICut=       1 DoRegI=T DoRafI=F ISym2E= 0 IDoP0=3 IntGTp=3.
 FoFCou: FMM=T IPFlag=           0 FMFlag=      100000 FMFlg1=        2001
         NFxFlg=           0 DoJE=F BraDBF=F KetDBF=F FulRan=T
         wScrn=  0.000000 ICntrl=       500 IOpCl=  0 I1Cent=           0 NGrid=           0
         NMat0=   20 NMatS0=     20 NMatT0=    0 NMatD0=   20 NMtDS0=    0 NMtDT0=    0
 Symmetry not used in FoFCou.
 FMM levels:  10  Number of levels for PrismC:   9
 New state      3 was old state      5
 New state      4 was old state      7
 New state      5 was old state      9
 Excitation Energies [eV] at current iteration:
 Root      1 :     2.176051382902737
 Root      2 :     2.627472239162028
 Root      3 :     3.730618899126076
 Root      4 :     3.881759572381850
 Root      5 :     4.034301124867248
 Root      6 :     4.158679699541002
 Root      7 :     4.395028822288103
 Root      8 :     4.490296347348990
 Root      9 :     4.649730712956358
 Root     10 :     4.702609640878121
 Root     11 :     4.715903546500777
 Root     12 :     4.817682245293293
 Root     13 :     5.061676398984584
 Root     14 :     5.195533537085643
 Root     15 :     5.267740449476864
 Root     16 :     5.384768987745871
 Root     17 :     5.447903555678982
 Root     18 :     6.168330900952615
 Root     19 :     6.471059949371218
 Root     20 :     6.843817234595123
 Iteration     2 Dimension    30 NMult    20 NNew     10
 CISAX will form    10 AO SS matrices at one time.
 NMat=    10 NSing=    10 JSym2X= 0.
 Root      1 not converged, maximum delta is    0.071856074262408
 Root      2 not converged, maximum delta is    0.054293064959465
 Root      3 not converged, maximum delta is    0.243119315171405
 Root      4 not converged, maximum delta is    0.465817295687614
 Root      5 not converged, maximum delta is    0.320404851378627
 Excitation Energies [eV] at current iteration:
 Root      1 :     1.686563057448196   Change is   -0.489488325454541
 Root      2 :     2.227507265739313   Change is   -0.399964973422714
 Root      3 :     3.333215296133038   Change is   -0.397403602993039
 Root      4 :     3.447718336481946   Change is   -0.434041235899903
 Root      5 :     3.520117016186259   Change is   -0.514184108680989
 Iteration     3 Dimension    40 NMult    30 NNew     10
 CISAX will form    10 AO SS matrices at one time.
 NMat=    10 NSing=    10 JSym2X= 0.
 Root      1 not converged, maximum delta is    0.013719835840907
 Root      2 not converged, maximum delta is    0.020628333171012
 Root      3 not converged, maximum delta is    0.343467220278929
 Root      4 not converged, maximum delta is    0.474310297808635
 Root      5 not converged, maximum delta is    0.197597604829825
 Excitation Energies [eV] at current iteration:
 Root      1 :     1.652833055912071   Change is   -0.033730001536125
 Root      2 :     2.204398838710859   Change is   -0.023108427028454
 Root      3 :     3.233408083276566   Change is   -0.099807212856472
 Root      4 :     3.363087864330898   Change is   -0.084630472151048
 Root      5 :     3.484499593516486   Change is   -0.035617422669773
 Iteration     4 Dimension    50 NMult    40 NNew     10
 CISAX will form    10 AO SS matrices at one time.
 NMat=    10 NSing=    10 JSym2X= 0.
 Root      1 not converged, maximum delta is    0.003063466215232
 Root      2 not converged, maximum delta is    0.002587102041200
 Root      3 not converged, maximum delta is    0.019743024664051
 Root      4 not converged, maximum delta is    0.029644343628034
 Root      5 not converged, maximum delta is    0.028362128437580
 Excitation Energies [eV] at current iteration:
 Root      1 :     1.649283181527456   Change is   -0.003549874384616
 Root      2 :     2.201756063022439   Change is   -0.002642775688420
 Root      3 :     3.217918189925161   Change is   -0.015489893351404
 Root      4 :     3.357179656892491   Change is   -0.005908207438407
 Root      5 :     3.478130822888337   Change is   -0.006368770628149
 Iteration     5 Dimension    60 NMult    50 NNew     10
 CISAX will form    10 AO SS matrices at one time.
 NMat=    10 NSing=    10 JSym2X= 0.
 Root      1 not converged, maximum delta is    0.001213607263831
 Root      2 has converged.
 Root      3 not converged, maximum delta is    0.006733435239321
 Root      4 not converged, maximum delta is    0.004581445871805
 Root      5 not converged, maximum delta is    0.013341388507105
 Excitation Energies [eV] at current iteration:
 Root      1 :     1.648928537243104   Change is   -0.000354644284352
 Root      2 :     2.201542654133244   Change is   -0.000213408889195
 Root      3 :     3.216580453787771   Change is   -0.001337736137390
 Root      4 :     3.356433448301965   Change is   -0.000746208590526
 Root      5 :     3.476647766785939   Change is   -0.001483056102398
 Iteration     6 Dimension    68 NMult    60 NNew      8
 CISAX will form     8 AO SS matrices at one time.
 NMat=     8 NSing=     8 JSym2X= 0.
 Root      1 has converged.
 Root      2 has converged.
 Root      3 not converged, maximum delta is    0.005210536476661
 Root      4 not converged, maximum delta is    0.004175815997114
 Root      5 not converged, maximum delta is    0.008808577774984
 Excitation Energies [eV] at current iteration:
 Root      1 :     1.648892012877373   Change is   -0.000036524365731
 Root      2 :     2.201540503274054   Change is   -0.000002150859190
 Root      3 :     3.216285674584913   Change is   -0.000294779202858
 Root      4 :     3.356216227690048   Change is   -0.000217220611917
 Root      5 :     3.476024861076537   Change is   -0.000622905709401
 Iteration     7 Dimension    74 NMult    68 NNew      6
 CISAX will form     6 AO SS matrices at one time.
 NMat=     6 NSing=     6 JSym2X= 0.
 Root      1 has converged.
 Root      2 has converged.
 Root      3 not converged, maximum delta is    0.001423664153632
 Root      4 not converged, maximum delta is    0.004850663800893
 Root      5 not converged, maximum delta is    0.012262356533997
 Excitation Energies [eV] at current iteration:
 Root      1 :     1.648891861678670   Change is   -0.000000151198703
 Root      2 :     2.201539455811631   Change is   -0.000001047462423
 Root      3 :     3.216239309386653   Change is   -0.000046365198260
 Root      4 :     3.356129006210667   Change is   -0.000087221479382
 Root      5 :     3.475772332075603   Change is   -0.000252529000934
 Iteration     8 Dimension    80 NMult    74 NNew      6
 CISAX will form     6 AO SS matrices at one time.
 NMat=     6 NSing=     6 JSym2X= 0.
 Root      1 has converged.
 Root      2 has converged.
 Root      3 has converged.
 Root      4 not converged, maximum delta is    0.004365277076361
 Root      5 not converged, maximum delta is    0.025166307099412
 Excitation Energies [eV] at current iteration:
 Root      1 :     1.648891781396443   Change is   -0.000000080282227
 Root      2 :     2.201539264057842   Change is   -0.000000191753789
 Root      3 :     3.216233721695946   Change is   -0.000005587690707
 Root      4 :     3.356085882014301   Change is   -0.000043124196365
 Root      5 :     3.475484874390870   Change is   -0.000287457684734
 Iteration     9 Dimension    84 NMult    80 NNew      4
 CISAX will form     4 AO SS matrices at one time.
 NMat=     4 NSing=     4 JSym2X= 0.
 Root      1 has converged.
 Root      2 has converged.
 Root      3 has converged.
 Root      4 not converged, maximum delta is    0.001406506911586
 Root      5 not converged, maximum delta is    0.018934111992802
 Excitation Energies [eV] at current iteration:
 Root      1 :     1.648891694389903   Change is   -0.000000087006539
 Root      2 :     2.201538415699871   Change is   -0.000000848357971
 Root      3 :     3.216233478897529   Change is   -0.000000242798417
 Root      4 :     3.356074575880388   Change is   -0.000011306133914
 Root      5 :     3.475295271754461   Change is   -0.000189602636409
 Iteration    10 Dimension    88 NMult    84 NNew      4
 CISAX will form     4 AO SS matrices at one time.
 NMat=     4 NSing=     4 JSym2X= 0.
 Root      1 has converged.
 Root      2 has converged.
 Root      3 has converged.
 Root      4 has converged.
 Root      5 not converged, maximum delta is    0.004301406951679
 Excitation Energies [eV] at current iteration:
 Root      1 :     1.648891618193386   Change is   -0.000000076196517
 Root      2 :     2.201537752251661   Change is   -0.000000663448209
 Root      3 :     3.216233438952637   Change is   -0.000000039944892
 Root      4 :     3.356073054687331   Change is   -0.000001521193057
 Root      5 :     3.475255905942186   Change is   -0.000039365812275
 Iteration    11 Dimension    90 NMult    88 NNew      2
 CISAX will form     2 AO SS matrices at one time.
 NMat=     2 NSing=     2 JSym2X= 0.
 Root      1 has converged.
 Root      2 has converged.
 Root      3 has converged.
 Root      4 has converged.
 Root      5 has converged.
 Excitation Energies [eV] at current iteration:
 Root      1 :     1.648891584933050   Change is   -0.000000033260336
 Root      2 :     2.201537731110633   Change is   -0.000000021141028
 Root      3 :     3.216233436540880   Change is   -0.000000002411757
 Root      4 :     3.356072924495895   Change is   -0.000000130191436
 Root      5 :     3.475249272328393   Change is   -0.000006633613793
 Convergence achieved on expansion vectors.
 ***********************************************************************
 Excited states from <AA,BB:AA,BB> singles matrix:
 ***********************************************************************
 
 1PDM for each excited state written to RWF  633
 Ground to excited state transition densities written to RWF  633
 Ground to excited state transition electric dipole moments (Au):
       state          X           Y           Z        Dip. S.      Osc.
         1        -1.9219     -1.3108     -2.1185      9.8998      0.3999
         2         0.0237      1.2966     -0.3949      1.8377      0.0991
         3         0.0024      0.0131     -0.0472      0.0024      0.0002
         4         0.0424     -0.1594      0.1368      0.0459      0.0038
         5        -0.1461      0.3865     -0.3247      0.2761      0.0235
 Ground to excited state transition velocity dipole moments (Au):
       state          X           Y           Z        Dip. S.      Osc.
         1         0.1119      0.0778      0.1252      0.0343      0.3771
         2        -0.0018     -0.0992      0.0299      0.0107      0.0884
         3         0.0025     -0.0019      0.0024      0.0000      0.0001
         4        -0.0046      0.0193     -0.0169      0.0007      0.0037
         5         0.0153     -0.0473      0.0371      0.0039      0.0201
 Ground to excited state transition magnetic dipole moments (Au):
       state          X           Y           Z
         1         0.2689      0.9357     -0.8440
         2         0.9489      0.0459      0.2252
         3         0.1423      0.1985      0.7639
         4         0.8391     -0.2757     -0.5559
         5        -0.0641      0.2312      0.3438
 Ground to excited state transition velocity quadrupole moments (Au):
       state          XX          YY          ZZ          XY          XZ          YZ
         1        -1.6336      0.2631      0.3027     -0.4070     -0.7993      0.3466
         2         0.0860     -0.3251     -0.0148      0.7142     -0.3245     -0.0723
         3        -0.0305      0.0812     -0.0462      0.0685     -0.0357      0.0703
         4         0.1007     -0.3257      0.0280     -0.4386      0.1709     -0.2275
         5        -0.0094     -0.2998      0.1149      0.3053     -0.1770      0.1342
 <0|del|b> * <b|rxdel|0> + <0|del|b> * <b|delr+rdel|0>
[...]
 Alpha virt. eigenvalues --    1.28345   1.29189   1.29535   1.29779   1.29973
 Alpha virt. eigenvalues --    1.30841   1.31449   1.31701   1.32373   1.32754
 Alpha virt. eigenvalues --    1.32992   1.34058   1.34188   1.34800   1.35570
 Alpha virt. eigenvalues --    1.36084   1.36668   1.37206   1.37511   1.37743
 Alpha virt. eigenvalues --    1.38167   1.38331   1.38404   1.38802   1.39759
 Alpha virt. eigenvalues --    1.40143   1.40505   1.40788   1.41307   1.41425
 Alpha virt. eigenvalues --    1.41651   1.42531   1.42705   1.43032   1.43565
 Alpha virt. eigenvalues --    1.44102   1.44400   1.44580   1.44956   1.45529
 Alpha virt. eigenvalues --    1.45821   1.46437   1.46822   1.47113   1.47466
 Alpha virt. eigenvalues --    1.47597   1.47905   1.48074   1.48800   1.49154
 Alpha virt. eigenvalues --    1.49653   1.50169   1.50529   1.50943   1.52379
 Alpha virt. eigenvalues --    1.52749   1.52842   1.53529   1.53647   1.53815
 Alpha virt. eigenvalues --    1.54672   1.54852   1.55340   1.55955   1.56642
 Alpha virt. eigenvalues --    1.56765   1.57000   1.57397   1.57852   1.58195
 Alpha virt. eigenvalues --    1.59037   1.59223   1.59652   1.59735   1.59932
 Alpha virt. eigenvalues --    1.60085   1.60516   1.60694   1.61095   1.61295
 Alpha virt. eigenvalues --    1.61622   1.61960   1.62096   1.62573   1.62981
 Alpha virt. eigenvalues --    1.63149   1.63296   1.63485   1.63765   1.63971
 Alpha virt. eigenvalues --    1.64332   1.64511   1.64585   1.65120   1.65590
 Alpha virt. eigenvalues --    1.65848   1.65893   1.66043   1.66285   1.66584
 Alpha virt. eigenvalues --    1.66864   1.67670   1.67935   1.68392   1.68707
 Alpha virt. eigenvalues --    1.69190   1.69380   1.69904   1.70167   1.70362
 Alpha virt. eigenvalues --    1.71231   1.71907   1.72222   1.72278   1.72593
 Alpha virt. eigenvalues --    1.73027   1.73941   1.74669   1.74982   1.75350
 Alpha virt. eigenvalues --    1.75664   1.76116   1.76396   1.76732   1.77143
 Alpha virt. eigenvalues --    1.77852   1.78053   1.78134   1.78535   1.78793
 Alpha virt. eigenvalues --    1.78868   1.79298   1.79511   1.80140   1.80852
 Alpha virt. eigenvalues --    1.80963   1.81163   1.81214   1.81308   1.81588
 Alpha virt. eigenvalues --    1.81706   1.81965   1.82270   1.82307   1.82733
 Alpha virt. eigenvalues --    1.83312   1.83546   1.83618   1.83713   1.83761
 Alpha virt. eigenvalues --    1.83923   1.84189   1.84372   1.84606   1.84755
 Alpha virt. eigenvalues --    1.84820   1.85225   1.85602   1.85822   1.86185
 Alpha virt. eigenvalues --    1.86359   1.86473   1.87032   1.87224   1.87380
 Alpha virt. eigenvalues --    1.87579   1.87776   1.87864   1.87914   1.88077
 Alpha virt. eigenvalues --    1.88319   1.88691   1.88923   1.89078   1.89171
 Alpha virt. eigenvalues --    1.89258   1.89630   1.89802   1.89871   1.90043
 Alpha virt. eigenvalues --    1.90143   1.90254   1.90369   1.90773   1.91172
 Alpha virt. eigenvalues --    1.91256   1.91370   1.91529   1.91732   1.91908
 Alpha virt. eigenvalues --    1.92197   1.92274   1.92406   1.92725   1.93302
 Alpha virt. eigenvalues --    1.93540   1.93566   1.93839   1.94014   1.94243
 Alpha virt. eigenvalues --    1.94311   1.94789   1.95274   1.95419   1.95499
 Alpha virt. eigenvalues --    1.95681   1.95910   1.96271   1.96785   1.97001
 Alpha virt. eigenvalues --    1.97075   1.97087   1.97688   1.97848   1.98019
 Alpha virt. eigenvalues --    1.98232   1.98311   1.98364   1.99002   1.99170
 Alpha virt. eigenvalues --    1.99345   1.99458   1.99790   2.00175   2.00404
 Alpha virt. eigenvalues --    2.00685   2.00877   2.01124   2.01234   2.01612
 Alpha virt. eigenvalues --    2.01960   2.02027   2.02209   2.02406   2.02608
 Alpha virt. eigenvalues --    2.02962   2.03279   2.03532   2.03788   2.04119
 Alpha virt. eigenvalues --    2.04342   2.04688   2.05145   2.05568   2.05856
 Alpha virt. eigenvalues --    2.06022   2.06328   2.06783   2.06886   2.07127
 Alpha virt. eigenvalues --    2.07477   2.07823   2.08203   2.08364   2.08849
 Alpha virt. eigenvalues --    2.09036   2.09361   2.09653   2.09927   2.10001
 Alpha virt. eigenvalues --    2.10461   2.10619   2.10863   2.11197   2.11280
 Alpha virt. eigenvalues --    2.12076   2.12270   2.12540   2.12777   2.13086
 Alpha virt. eigenvalues --    2.13567   2.14091   2.14252   2.14659   2.15075
 Alpha virt. eigenvalues --    2.15193   2.15540   2.15919   2.16009   2.16236
 Alpha virt. eigenvalues --    2.16664   2.16994   2.17351   2.17688   2.17755
 Alpha virt. eigenvalues --    2.17960   2.18571   2.18778   2.19142   2.19415
 Alpha virt. eigenvalues --    2.19680   2.20311   2.20547   2.20656   2.21326
 Alpha virt. eigenvalues --    2.21411   2.21727   2.21922   2.22138   2.22354
 Alpha virt. eigenvalues --    2.22571   2.22766   2.23421   2.23855   2.24113
 Alpha virt. eigenvalues --    2.24207   2.24835   2.25194   2.25793   2.26106
 Alpha virt. eigenvalues --    2.26470   2.26810   2.27205   2.27800   2.28016
 Alpha virt. eigenvalues --    2.28614   2.28858   2.29391   2.29861   2.31031
 Alpha virt. eigenvalues --    2.31252   2.31596   2.31855   2.32173   2.32527
 Alpha virt. eigenvalues --    2.33258   2.33604   2.33853   2.34249   2.34936
 Alpha virt. eigenvalues --    2.35351   2.35450   2.35699   2.36117   2.36498
 Alpha virt. eigenvalues --    2.36590   2.37282   2.37638   2.38049   2.38341
 Alpha virt. eigenvalues --    2.38608   2.38898   2.39692   2.40201   2.40301
 Alpha virt. eigenvalues --    2.41014   2.41193   2.41304   2.41591   2.42291
 Alpha virt. eigenvalues --    2.42332   2.42575   2.42932   2.43471   2.43706
 Alpha virt. eigenvalues --    2.44075   2.44269   2.44467   2.44699   2.44942
 Alpha virt. eigenvalues --    2.45162   2.45336   2.45683   2.46043   2.46950
 Alpha virt. eigenvalues --    2.47205   2.47550   2.47889   2.49067   2.49370
 Alpha virt. eigenvalues --    2.49776   2.50273   2.50374   2.51209   2.51654
 Alpha virt. eigenvalues --    2.51733   2.52005   2.52495   2.52743   2.53277
 Alpha virt. eigenvalues --    2.53510   2.53638   2.54156   2.54336   2.54612
 Alpha virt. eigenvalues --    2.55077   2.55602   2.55753   2.56438   2.56500
 Alpha virt. eigenvalues --    2.56718   2.57198   2.57583   2.58401   2.58836
 Alpha virt. eigenvalues --    2.59418   2.60043   2.60992   2.61089   2.61231
 Alpha virt. eigenvalues --    2.61331   2.61705   2.61863   2.62107   2.62636
 Alpha virt. eigenvalues --    2.62875   2.63392   2.63586   2.63846   2.64285
 Alpha virt. eigenvalues --    2.64551   2.65392   2.65449   2.65614   2.66765
 Alpha virt. eigenvalues --    2.67120   2.67428   2.67723   2.68563   2.68684
 Alpha virt. eigenvalues --    2.69291   2.69370   2.69764   2.69902   2.70655
 Alpha virt. eigenvalues --    2.71437   2.71490   2.72230   2.72318   2.72692
 Alpha virt. eigenvalues --    2.73319   2.73379   2.73800   2.74282   2.75252
 Alpha virt. eigenvalues --    2.75363   2.75611   2.76513   2.76567   2.77168
 Alpha virt. eigenvalues --    2.77324   2.77462   2.77784   2.77902   2.78755
 Alpha virt. eigenvalues --    2.79288   2.79535   2.79804   2.80218   2.80743
 Alpha virt. eigenvalues --    2.81038   2.81423   2.81649   2.81958   2.82592
 Alpha virt. eigenvalues --    2.82980   2.83264   2.83627   2.84172   2.84757
 Alpha virt. eigenvalues --    2.85276   2.86105   2.86354   2.86785   2.88453
 Alpha virt. eigenvalues --    2.88721   2.89140   2.89162   2.89258   2.90151
 Alpha virt. eigenvalues --    2.90910   2.92912   2.93346   2.94034   2.94104
 Alpha virt. eigenvalues --    2.94427   2.94752   2.95079   2.95639   2.96164
 Alpha virt. eigenvalues --    2.96524   2.97207   2.97428   2.97513   2.97734
 Alpha virt. eigenvalues --    2.98450   2.98526   2.98792   2.99174   2.99298
 Alpha virt. eigenvalues --    2.99524   3.00020   3.00252   3.00726   3.00844
 Alpha virt. eigenvalues --    3.01298   3.01592   3.01833   3.02434   3.02919
 Alpha virt. eigenvalues --    3.03184   3.03691   3.03902   3.04071   3.04186
 Alpha virt. eigenvalues --    3.04459   3.04768   3.05244   3.05494   3.05621
 Alpha virt. eigenvalues --    3.05909   3.06553   3.06642   3.07094   3.07426
 Alpha virt. eigenvalues --    3.07799   3.08069   3.08336   3.08342   3.08691
 Alpha virt. eigenvalues --    3.08876   3.09440   3.09760   3.10275   3.10333
 Alpha virt. eigenvalues --    3.10368   3.10758   3.10927   3.11128   3.11468
 Alpha virt. eigenvalues --    3.12197   3.12325   3.12790   3.13096   3.13443
 Alpha virt. eigenvalues --    3.13957   3.14591   3.14771   3.15910   3.16256
 Alpha virt. eigenvalues --    3.16617   3.16870   3.17080   3.17571   3.17949
 Alpha virt. eigenvalues --    3.19889   3.20680   3.21562   3.22018   3.22192
 Alpha virt. eigenvalues --    3.23455   3.24139   3.25107   3.25604   3.25844
 Alpha virt. eigenvalues --    3.26556   3.26913   3.27435   3.29518   3.30463
 Alpha virt. eigenvalues --    3.31105   3.33001   3.47156   3.47690   3.47804
 Alpha virt. eigenvalues --    3.49381   3.50797   3.53357   3.56518   3.60252
 Alpha virt. eigenvalues --    3.63047   3.65364   3.69166   3.70532   3.70907
 Alpha virt. eigenvalues --    3.73823   3.76415
          Condensed to atoms (all electrons):
 Mulliken charges:
               1
     1  Mg   0.968231
     2  C   -0.067415
     3  C   -0.087069
     4  C   -0.082290
     5  C   -0.069494
     6  N   -0.410602
     7  C   -0.012309
     8  C   -0.012084
     9  C   -0.097964
    10  C    0.103359
    11  C   -0.006965
    12  C    0.019937
    13  C   -0.042131
    14  C    0.211909
    15  O   -0.312946
    16  O   -0.322459
    17  N   -0.412923
    18  C    0.133100
    19  C   -0.107040
    20  C   -0.036934
    21  C    0.187958
    22  C    0.081112
    23  C   -0.014293
    24  O   -0.263340
    25  C    0.036578
    26  N   -0.425516
    27  C    0.093623
    28  C   -0.101386
    29  C   -0.077069
    30  C    0.050582
    31  C    0.036283
    32  C   -0.039387
    33  C   -0.036275
    34  N   -0.409820
    35  C    0.138061
    36  C   -0.156936
    37  C   -0.086898
    38  C    0.170590
    39  C    0.070561
    40  C    0.125512
    41  O   -0.231249
    42  C   -0.033867
    43  C    0.250963
    44  O   -0.265807
    45  O   -0.354348
    46  C    0.125677
    47  C    0.228693
    48  C   -0.088931
    49  C   -0.250766
    50  C    0.012168
    51  C    0.056721
    52  C   -0.054497
    53  C    0.051936
    54  C   -0.201996
    55  C    0.016266
    56  C   -0.039041
    57  C   -0.012445
    58  C    0.002449
    59  C   -0.172434
    60  C    0.022386
    61  C    0.014388
    62  C   -0.025801
    63  C   -0.048136
    64  C   -0.211306
    65  C   -0.002240
    66  C   -0.004412
    67  H   -0.006234
    68  H   -0.039629
    69  H    0.000264
    70  H    0.044680
    71  H    0.051845
    72  H    0.038288
    73  H    0.036603
    74  H    0.050746
    75  H    0.055663
    76  H    0.046195
    77  H    0.070492
    78  H    0.068476
    79  H    0.001839
    80  H    0.056678
    81  H    0.068567
    82  H    0.057799
    83  H    0.068684
    84  H    0.052997
    85  H    0.029915
    86  H    0.021965
    87  H    0.026914
    88  H    0.044885
    89  H    0.051390
    90  H    0.030826
    91  H    0.024581
    92  H    0.021447
    93  H    0.037888
    94  H    0.051245
    95  H    0.056215
    96  H    0.029804
    97  H    0.056284
    98  H    0.069578
    99  H    0.064208
   100  H    0.057622
   101  H    0.078086
   102  H    0.060597
   103  H    0.038553
   104  H    0.024511
   105  H    0.053568
   106  H    0.055187
   107  H    0.040576
   108  H    0.025588
   109  H    0.018474
   110  H    0.036040
   111  H    0.016948
   112  H    0.011813
   113  H    0.007764
   114  H    0.012463
   115  H    0.023837
   116  H    0.019666
   117  H    0.042373
   118  H    0.030332
   119  H   -0.010425
   120  H    0.028048
   121  H    0.022296
   122  H    0.018740
   123  H    0.013072
   124  H    0.014468
   125  H    0.032500
   126  H    0.021472
   127  H    0.012606
   128  H    0.019498
   129  H    0.019422
   130  H    0.029266
   131  H    0.030653
   132  H    0.021223
   133  H    0.026791
   134  H    0.022057
   135  H    0.023791
   136  H    0.038703
   137  H    0.012629
   138  H    0.017933
   139  H    0.045831
   140  H    0.024106
 Sum of Mulliken charges =  -0.00000
 Mulliken charges with hydrogens summed into heavy atoms:
               1
     1  Mg   0.968231
     2  C   -0.067415
     3  C   -0.093304
     4  C   -0.121918
     5  C   -0.069230
     6  N   -0.410602
     7  C   -0.012309
     8  C    0.032596
     9  C   -0.046118
    10  C    0.103359
    11  C    0.118673
    12  C    0.121795
    13  C    0.096837
    14  C    0.211909
    15  O   -0.312946
    16  O   -0.322459
    17  N   -0.412923
    18  C    0.133100
    19  C   -0.107040
    20  C   -0.036934
    21  C    0.187958
    22  C    0.208195
    23  C   -0.014293
    24  O   -0.263340
    25  C    0.216058
    26  N   -0.425516
    27  C    0.093623
    28  C   -0.071471
    29  C   -0.055103
    30  C    0.050582
    31  C    0.159472
    32  C    0.016020
    33  C    0.074306
    34  N   -0.409820
    35  C    0.138061
    36  C   -0.156936
    37  C   -0.086898
    38  C    0.170590
    39  C    0.212864
    40  C    0.125512
    41  O   -0.231249
    42  C    0.035711
    43  C    0.250963
    44  O   -0.265807
    45  O   -0.354348
    46  C    0.325594
    47  C    0.327843
    48  C   -0.064419
    49  C   -0.250766
    50  C    0.161500
    51  C    0.100782
    52  C   -0.001509
    53  C    0.071512
    54  C   -0.189533
    55  C    0.102142
    56  C   -0.019134
    57  C    0.037899
    58  C    0.034262
    59  C   -0.157966
    60  C    0.088964
    61  C    0.053308
    62  C    0.034119
    63  C   -0.000122
    64  C   -0.189249
    65  C    0.072882
    66  C    0.083457
 Electronic spatial extent (au):  <R**2>=          90402.0690
 Charge=             -0.0000 electrons
 Dipole moment (field-independent basis, Debye):
    X=              0.9520    Y=              7.8675    Z=              1.2020  Tot=              8.0155
 Quadrupole moment (field-independent basis, Debye-Ang):
   XX=           -389.1458   YY=           -421.9593   ZZ=           -399.7055
   XY=            -42.0265   XZ=            -21.4953   YZ=            -32.4135
 Traceless Quadrupole moment (field-independent basis, Debye-Ang):
   XX=             14.4577   YY=            -18.3558   ZZ=              3.8980
   XY=            -42.0265   XZ=            -21.4953   YZ=            -32.4135
 Octapole moment (field-independent basis, Debye-Ang**2):
  XXX=            -26.4737  YYY=            361.2931  ZZZ=            -29.1961  XYY=            -45.9964
  XXY=            135.1451  XXZ=            149.9022  XZZ=            -54.6451  YZZ=            -71.2633
  YYZ=            -15.8551  XYZ=            118.1093
 Hexadecapole moment (field-independent basis, Debye-Ang**3):
 XXXX=         -86416.5892 YYYY=         -23225.6020 ZZZZ=         -12554.0778 XXXY=           -614.9564
 XXXZ=           -848.6149 YYYX=           -946.7040 YYYZ=           -340.3235 ZZZX=           -125.8215
 ZZZY=           -635.4221 XXYY=         -18832.5956 XXZZ=         -16705.3251 YYZZ=          -6201.6948
 XXYZ=           -819.5696 YYXZ=           -361.4848 ZZXY=           -204.9277
 N-N= 9.944805886809D+03 E-N=-2.688174345375D+04  KE= 2.975631111286D+03
 Leave Link  601 at Thu May  5 10:55:38 2022, MaxMem= 10066329600 cpu:              12.8 elap:               0.6
 (Enter /sw/apps/gaussian-16.0/g16/l9999.exe)
 1\1\GINC-BP1-COMPUTE063\SP\RwB97XD TD-FC\def2SVP\C55H74Mg1N4O6\OF15641
 \05-May-2022\0\\#p wB97XD/Def2SVP td=(nstates=5)\\step_801_chromophore
 _26 TDDFT with wB97XD functional\\0,1\Mg,0,-9.52,18.419,42.396\C,0,-6.
 064,18.176,42.656\C,0,-9.202,21.81,41.773\C,0,-12.807,18.614,41.751\C,
 0,-9.687,14.954,42.774\N,0,-7.87,19.724,42.087\C,0,-6.504,19.45,42.255
 \C,0,-5.678,20.689,41.967\C,0,-6.684,21.905,41.989\C,0,-8.005,21.124,4
 2.018\C,0,-6.478,22.896,43.224\C,0,-4.855,20.545,40.643\C,0,-5.579,19.
 827,39.468\C,0,-5.343,20.308,38.009\O,0,-4.249,20.761,37.561\O,0,-6.42
 1,20.095,37.254\N,0,-10.825,20.031,41.835\C,0,-10.541,21.345,41.676\C,
 0,-11.767,22.14,41.408\C,0,-12.824,21.177,41.468\C,0,-12.175,19.847,41
 .709\C,0,-11.84,23.548,41.048\C,0,-14.277,21.428,41.446\O,0,-14.626,22
 .602,41.239\C,0,-15.362,20.476,41.63\N,0,-10.979,17.065,42.074\C,0,-12
 .255,17.385,41.989\C,0,-13.165,16.246,42.317\C,0,-12.206,14.981,42.301
 \C,0,-10.836,15.674,42.412\C,0,-14.032,16.337,43.596\C,0,-12.265,14.04
 3,41.02\C,0,-13.176,12.794,41.051\N,0,-8.16,16.836,42.735\C,0,-8.384,1
 5.474,42.967\C,0,-7.138,14.843,43.347\C,0,-6.167,15.89,43.203\C,0,-6.8
 82,17.073,42.883\C,0,-6.99,13.403,43.667\C,0,-4.744,16.166,43.268\O,0,
 -3.733,15.481,43.496\C,0,-4.622,17.653,42.944\C,0,-3.92,18.333,44.051\
 O,0,-2.945,19.066,43.893\O,0,-4.383,17.984,45.266\C,0,-3.458,18.22,46.
 394\C,0,-6.336,20.403,35.829\C,0,-7.16,19.467,34.946\C,0,-7.824,19.768
 ,33.794\C,0,-7.867,21.154,33.198\C,0,-8.73,18.778,33.03\C,0,-10.149,18
 .948,33.491\C,0,-11.176,19.394,32.483\C,0,-11.779,20.748,32.839\C,0,-1
 3.377,20.656,32.847\C,0,-11.412,21.806,31.795\C,0,-11.582,23.284,32.37
 5\C,0,-10.272,24.057,32.238\C,0,-10.32,25.266,31.329\C,0,-9.327,26.342
 ,31.749\C,0,-10.268,24.793,29.806\C,0,-11.589,24.941,29.025\C,0,-12.00
 4,23.617,28.267\C,0,-12.384,23.903,26.787\C,0,-13.383,22.823,26.316\C,
 0,-11.094,24.032,25.863\H,0,-9.108,22.894,41.678\H,0,-13.899,18.601,41
 .76\H,0,-9.95,13.901,42.894\H,0,-4.938,20.735,42.766\H,0,-6.704,22.547
 ,41.109\H,0,-7.218,22.66,43.989\H,0,-6.607,23.957,43.009\H,0,-5.506,22
 .902,43.718\H,0,-3.932,20.021,40.892\H,0,-4.573,21.519,40.244\H,0,-6.6
 59,19.756,39.596\H,0,-5.116,18.841,39.43\H,0,-10.879,24.047,41.18\H,0,
 -12.439,24.133,41.746\H,0,-12.132,23.859,40.045\H,0,-15.278,19.856,42.
 523\H,0,-15.386,19.934,40.685\H,0,-16.318,20.977,41.78\H,0,-13.863,16.
 028,41.509\H,0,-12.391,14.347,43.168\H,0,-14.923,16.87,43.264\H,0,-13.
 559,17.005,44.315\H,0,-14.4,15.377,43.961\H,0,-11.274,13.669,40.762\H,
 0,-12.521,14.628,40.136\H,0,-13.441,12.54,42.078\H,0,-12.522,11.965,40
 .778\H,0,-14.066,12.916,40.435\H,0,-6.007,13.143,43.274\H,0,-7.727,12.
 781,43.159\H,0,-7.015,13.146,44.726\H,0,-4.017,17.7,42.039\H,0,-3.355,
 17.183,46.716\H,0,-3.922,18.828,47.171\H,0,-2.479,18.627,46.142\H,0,-5
 .331,20.282,35.424\H,0,-6.396,21.486,35.72\H,0,-7.35,18.475,35.355\H,0
 ,-8.635,21.705,33.741\H,0,-8.038,21.165,32.122\H,0,-6.928,21.662,33.42
 \H,0,-8.441,17.735,33.161\H,0,-8.583,19.005,31.974\H,0,-10.235,19.457,
 34.451\H,0,-10.469,17.918,33.646\H,0,-11.935,18.612,32.504\H,0,-10.665
 ,19.412,31.52\H,0,-11.306,20.988,33.79\H,0,-13.717,20.993,31.867\H,0,-
 13.617,21.506,33.486\H,0,-13.855,19.739,33.191\H,0,-11.931,21.752,30.8
 38\H,0,-10.368,21.523,31.653\H,0,-11.833,23.149,33.427\H,0,-12.347,23.
 721,31.733\H,0,-9.486,23.372,31.922\H,0,-10.124,24.245,33.302\H,0,-11.
 278,25.767,31.467\H,0,-8.645,26.071,32.555\H,0,-9.812,27.267,32.062\H,
 0,-8.845,26.625,30.813\H,0,-9.761,23.828,29.834\H,0,-9.649,25.402,29.1
 47\H,0,-11.463,25.739,28.294\H,0,-12.456,25.208,29.631\H,0,-12.914,23.
 228,28.724\H,0,-11.312,22.775,28.283\H,0,-12.874,24.877,26.789\H,0,-13
 .336,22.57,25.257\H,0,-14.406,22.991,26.652\H,0,-13.049,21.878,26.745\
 H,0,-10.263,24.137,26.56\H,0,-11.157,24.851,25.146\H,0,-10.848,23.096,
 25.361\\Version=ES64L-G16RevA.03\State=1-A\HF=-3007.8676196\RMSD=8.267
 e-09\PG=C01 [X(C55H74Mg1N4O6)]\\@


 ADVERTISING--  HE WHO HAS SOMETHING TO SELL AND GOES AND WHISPERS
                IN A WELL, IS NOT SO APT TO GET THE DOLLARS AS HE
                WHO CLIMBS A TREE AND HOLLERS.

                   -- FROM THE BACK OF A SUGAR PACKET
 Job cpu time:       0 days 12 hours 26 minutes 22.4 seconds.
 Elapsed time:       0 days  0 hours 31 minutes 38.7 seconds.
 File lengths (MBytes):  RWF=   8929 Int=      0 D2E=      0 Chk=    390 Scr=      1
 Normal termination of Gaussian 16 at Thu May  5 10:55:39 2022.
