 Entering Gaussian System, Link 0=g16
 Initial command:
 /sw/apps/gaussian-16.0/g16/l1.exe "/tmp/Gau-85775.inp" -scrdir="/tmp/"
 Entering Link 1 = /sw/apps/gaussian-16.0/g16/l1.exe PID=     85776.
  
 Copyright (c) 1988,1990,1992,1993,1995,1998,2003,2009,2016,
            Gaussian, Inc.  All Rights Reserved.
  
 This is part of the Gaussian(R) 16 program.  It is based on
 the Gaussian(R) 09 system (copyright 2009, Gaussian, Inc.),
 the Gaussian(R) 03 system (copyright 2003, Gaussian, Inc.),
 the Gaussian(R) 98 system (copyright 1998, Gaussian, Inc.),
 the Gaussian(R) 94 system (copyright 1995, Gaussian, Inc.),
 the Gaussian 92(TM) system (copyright 1992, Gaussian, Inc.),
 the Gaussian 90(TM) system (copyright 1990, Gaussian, Inc.),
 the Gaussian 88(TM) system (copyright 1988, Gaussian, Inc.),
 the Gaussian 86(TM) system (copyright 1986, Carnegie Mellon
 University), and the Gaussian 82(TM) system (copyright 1983,
 Carnegie Mellon University). Gaussian is a federally registered
 trademark of Gaussian, Inc.
  
 This software contains proprietary and confidential information,
 including trade secrets, belonging to Gaussian, Inc.
  
 This software is provided under written license and may be
 used, copied, transmitted, or stored only in accord with that
 written license.
  
 The following legend is applicable only to US Government
 contracts under FAR:
  
                    RESTRICTED RIGHTS LEGEND
  
 Use, reproduction and disclosure by the US Government is
 subject to restrictions as set forth in subparagraphs (a)
 and (c) of the Commercial Computer Software - Restricted
 Rights clause in FAR 52.227-19.
  
 Gaussian, Inc.
 340 Quinnipiac St., Bldg. 40, Wallingford CT 06492
  
  
 ---------------------------------------------------------------
 Warning -- This program may not be used in any manner that
 competes with the business of Gaussian, Inc. or will provide
 assistance to any competitor of Gaussian, Inc.  The licensee
 of this program is prohibited from giving any competitor of
 Gaussian, Inc. access to this program.  By using this program,
 the user acknowledges that Gaussian, Inc. is engaged in the
 business of creating and licensing software in the field of
 computational chemistry and represents and warrants to the
 licensee that it is not a competitor of Gaussian, Inc. and that
 it will not use this program in any manner prohibited above.
 ---------------------------------------------------------------
  

 Cite this work as:
 Gaussian 16, Revision A.03,
 M. J. Frisch, G. W. Trucks, H. B. Schlegel, G. E. Scuseria, 
 M. A. Robb, J. R. Cheeseman, G. Scalmani, V. Barone, 
 G. A. Petersson, H. Nakatsuji, X. Li, M. Caricato, A. V. Marenich, 
 J. Bloino, B. G. Janesko, R. Gomperts, B. Mennucci, H. P. Hratchian, 
 J. V. Ortiz, A. F. Izmaylov, J. L. Sonnenberg, D. Williams-Young, 
 F. Ding, F. Lipparini, F. Egidi, J. Goings, B. Peng, A. Petrone, 
 T. Henderson, D. Ranasinghe, V. G. Zakrzewski, J. Gao, N. Rega, 
 G. Zheng, W. Liang, M. Hada, M. Ehara, K. Toyota, R. Fukuda, 
 J. Hasegawa, M. Ishida, T. Nakajima, Y. Honda, O. Kitao, H. Nakai, 
 T. Vreven, K. Throssell, J. A. Montgomery, Jr., J. E. Peralta, 
 F. Ogliaro, M. J. Bearpark, J. J. Heyd, E. N. Brothers, K. N. Kudin, 
 V. N. Staroverov, T. A. Keith, R. Kobayashi, J. Normand, 
 K. Raghavachari, A. P. Rendell, J. C. Burant, S. S. Iyengar, 
 J. Tomasi, M. Cossi, J. M. Millam, M. Klene, C. Adamo, R. Cammi, 
 J. W. Ochterski, R. L. Martin, K. Morokuma, O. Farkas, 
 J. B. Foresman, and D. J. Fox, Gaussian, Inc., Wallingford CT, 2016.
 
 ******************************************
 Gaussian 16:  ES64L-G16RevA.03 25-Dec-2016
                 4-May-2022 
 ******************************************
 %nproc=24
 Will use up to   24 processors via shared memory.
 %mem=75GB
 --------------------------------
 #p wB97XD/Def2SVP td=(nstates=5)
 --------------------------------
 1/38=1,172=1/1;
 2/12=2,17=6,18=5,40=1/2;
 3/5=43,7=101,11=9,25=1,30=1,74=-58/1,2,3,8;
 4//1;
 5/5=2,38=5/2;
 8/6=1,10=1,108=5/1;
 9/41=5,42=1,70=2/14;
 6/7=2,8=2,9=2,10=2/1;
 99/5=1,9=1/99;
 Leave Link    1 at Wed May  4 13:17:26 2022, MaxMem= 10066329600 cpu:               0.7 elap:               0.0
 (Enter /sw/apps/gaussian-16.0/g16/l101.exe)
 -----------------------------------------------------
 step_1751_chromophore_21 TDDFT with wB97XD functional
 -----------------------------------------------------
 Symbolic Z-matrix:
 Charge =  0 Multiplicity = 1
 Mg                    15.748    50.626    26.432 
 C                     17.773    49.566    29.043 
 C                     13.332    51.394    28.804 
 C                     13.711    51.435    23.906 
 C                     18.3      49.79     24.165 
 N                     15.704    50.699    28.719 
 C                     16.655    50.249    29.593 
 C                     16.39     50.696    31.041 
 C                     14.827    50.938    30.837 
 C                     14.6      51.042    29.357 
 C                     13.871    49.927    31.476 
 C                     17.165    52.046    31.34 
 C                     17.206    52.471    32.815 
 C                     16.564    51.532    33.974 
 O                     16.965    50.483    34.496 
 O                     15.429    52.249    34.284 
 N                     13.808    51.188    26.335 
 C                     12.946    51.432    27.415 
 C                     11.551    51.588    26.888 
 C                     11.626    51.567    25.48 
 C                     13.076    51.414    25.174 
 C                     10.332    51.659    27.831 
 C                     10.434    51.58     24.46 
 O                     10.671    51.62     23.211 
 C                     8.998     51.527    24.824 
 N                     15.953    50.522    24.298 
 C                     15.       50.936    23.468 
 C                     15.448    50.827    21.958 
 C                     16.838    50.163    21.988 
 C                     17.075    50.132    23.586 
 C                     14.5      49.978    21.101 
 C                     17.905    51.079    21.363 
 C                     19.09     50.386    20.585 
 N                     17.64     49.89     26.59 
 C                     18.592    49.617    25.569 
 C                     19.692    48.965    26.178 
 C                     19.443    48.875    27.546 
 C                     18.182    49.499    27.73 
 C                     20.767    48.229    25.504 
 C                     19.95     48.497    28.826 
 O                     20.975    47.861    29.121 
 C                     18.924    49.053    29.869 
 C                     18.642    47.974    30.847 
 O                     18.409    46.781    30.485 
 O                     18.66     48.421    32.16 
 C                     18.556    47.302    33.098 
 C                     14.66     51.523    35.323 
 C                     13.358    52.236    35.403 
 C                     12.946    53.037    36.393 
 C                     13.723    53.284    37.688 
 C                     11.513    53.595    36.355 
 C                     11.496    55.051    36.006 
 C                     10.497    55.89     36.873 
 C                     9.338     56.477    36.083 
 C                     9.754     57.512    35.05 
 C                     8.253     57.095    36.989 
 C                     7.035     56.15     37.18 
 C                     5.9       56.841    38. 
 C                     4.387     56.844    37.539 
 C                     4.172     57.87     36.454 
 C                     3.544     57.038    38.786 
 C                     2.106     56.528    38.504 
 C                     0.977     57.456    39.077 
 C                    -0.121     56.568    39.787 
 C                    -1.14      56.055    38.659 
 C                    -0.768     57.274    40.984 
 H                     12.603    51.426    29.616 
 H                     13.03     51.535    23.058 
 H                     19.158    49.552    23.533 
 H                     16.557    49.905    31.771 
 H                     14.574    51.921    31.234 
 H                     13.153    50.46     32.099 
 H                     14.384    49.185    32.088 
 H                     13.41     49.378    30.656 
 H                     16.728    52.822    30.712 
 H                     18.146    51.769    30.952 
 H                     17.005    53.532    32.962 
 H                     18.264    52.403    33.069 
 H                     9.733     52.499    27.478 
 H                     10.711    51.825    28.84 
 H                     9.766     50.73     27.765 
 H                     8.222     51.838    24.124 
 H                     8.952     52.385    25.494 
 H                     8.784     50.626    25.4 
 H                     15.643    51.835    21.594 
 H                     16.906    49.13     21.645 
 H                     14.335    50.359    20.093 
 H                     13.588    49.746    21.652 
 H                     14.894    48.966    21.01 
 H                     18.355    51.735    22.108 
 H                     17.499    51.862    20.723 
 H                     18.842    49.372    20.271 
 H                     20.004    50.404    21.179 
 H                     19.288    51.056    19.748 
 H                     21.617    48.888    25.326 
 H                     20.327    47.679    24.672 
 H                     21.15     47.487    26.204 
 H                     19.303    49.86     30.495 
 H                     19.5      47.097    33.603 
 H                     18.304    46.335    32.664 
 H                     17.741    47.549    33.778 
 H                     15.147    51.384    36.289 
 H                     14.421    50.515    34.985 
 H                     12.728    52.021    34.54 
 H                     14.785    53.495    37.561 
 H                     13.645    52.418    38.344 
 H                     13.365    54.086    38.332 
 H                     11.038    53.475    37.329 
 H                     11.058    53.034    35.539 
 H                     11.222    55.184    34.959 
 H                     12.49     55.489    36.084 
 H                     11.035    56.722    37.326 
 H                     10.144    55.366    37.761 
 H                     8.953     55.658    35.475 
 H                     9.951     57.092    34.064 
 H                     10.708    57.968    35.316 
 H                     9.052     58.293    34.758 
 H                     7.919     58.051    36.585 
 H                     8.767     57.298    37.928 
 H                     7.361     55.302    37.782 
 H                     6.625     55.811    36.229 
 H                     6.194     57.887    38.078 
 H                     6.002     56.35     38.968 
 H                     4.242     55.892    37.029 
 H                     4.859     57.821    35.609 
 H                     4.523     58.82     36.858 
 H                     3.109     57.888    36.211 
 H                     3.522     58.077    39.114 
 H                     3.821     56.46     39.668 
 H                     2.167     55.513    38.897 
 H                     1.878     56.451    37.441 
 H                     0.485     58.062    38.317 
 H                     1.514     58.06     39.808 
 H                     0.352     55.619    40.039 
 H                    -1.404     55.001    38.749 
 H                    -0.612     56.159    37.711 
 H                    -1.937     56.795    38.586 
 H                    -0.443     58.264    41.303 
 H                    -0.546     56.65     41.849 
 H                    -1.848     57.275    40.838 
 
 ITRead=  0  0  0  0  0  0  0  0  0  0  0  0  0  0  0  0  0  0  0  0
 ITRead=  0  0  0  0  0  0  0  0  0  0  0  0  0  0  0  0  0  0  0  0
 ITRead=  0  0  0  0  0  0  0  0  0  0  0  0  0  0  0  0  0  0  0  0
 ITRead=  0  0  0  0  0  0  0  0  0  0  0  0  0  0  0  0  0  0  0  0
 ITRead=  0  0  0  0  0  0  0  0  0  0  0  0  0  0  0  0  0  0  0  0
 ITRead=  0  0  0  0  0  0  0  0  0  0  0  0  0  0  0  0  0  0  0  0
 ITRead=  0  0  0  0  0  0  0  0  0  0  0  0  0  0  0  0  0  0  0  0
 MicOpt= -1 -1 -1 -1 -1 -1 -1 -1 -1 -1 -1 -1 -1 -1 -1 -1 -1 -1 -1 -1
 MicOpt= -1 -1 -1 -1 -1 -1 -1 -1 -1 -1 -1 -1 -1 -1 -1 -1 -1 -1 -1 -1
 MicOpt= -1 -1 -1 -1 -1 -1 -1 -1 -1 -1 -1 -1 -1 -1 -1 -1 -1 -1 -1 -1
 MicOpt= -1 -1 -1 -1 -1 -1 -1 -1 -1 -1 -1 -1 -1 -1 -1 -1 -1 -1 -1 -1
 MicOpt= -1 -1 -1 -1 -1 -1 -1 -1 -1 -1 -1 -1 -1 -1 -1 -1 -1 -1 -1 -1
 MicOpt= -1 -1 -1 -1 -1 -1 -1 -1 -1 -1 -1 -1 -1 -1 -1 -1 -1 -1 -1 -1
 MicOpt= -1 -1 -1 -1 -1 -1 -1 -1 -1 -1 -1 -1 -1 -1 -1 -1 -1 -1 -1 -1
 NAtoms=    140 NQM=      140 NQMF=       0 NMMI=      0 NMMIF=      0
                NMic=       0 NMicF=      0.
                    Isotopes and Nuclear Properties:
 (Nuclear quadrupole moments (NQMom) in fm**2, nuclear magnetic moments (NMagM)
  in nuclear magnetons)

  Atom         1           2           3           4           5           6           7           8           9          10
 IAtWgt=          24          12          12          12          12          14          12          12          12          12
 AtmWgt=  23.9850450  12.0000000  12.0000000  12.0000000  12.0000000  14.0030740  12.0000000  12.0000000  12.0000000  12.0000000
 NucSpn=           0           0           0           0           0           2           0           0           0           0
 AtZEff=  -0.0000000  -0.0000000  -0.0000000  -0.0000000  -0.0000000  -0.0000000  -0.0000000  -0.0000000  -0.0000000  -0.0000000
 NQMom=    0.0000000   0.0000000   0.0000000   0.0000000   0.0000000   2.0440000   0.0000000   0.0000000   0.0000000   0.0000000
 NMagM=    0.0000000   0.0000000   0.0000000   0.0000000   0.0000000   0.4037610   0.0000000   0.0000000   0.0000000   0.0000000
 AtZNuc=  12.0000000   6.0000000   6.0000000   6.0000000   6.0000000   7.0000000   6.0000000   6.0000000   6.0000000   6.0000000

  Atom        11          12          13          14          15          16          17          18          19          20
 IAtWgt=          12          12          12          12          16          16          14          12          12          12
 AtmWgt=  12.0000000  12.0000000  12.0000000  12.0000000  15.9949146  15.9949146  14.0030740  12.0000000  12.0000000  12.0000000
 NucSpn=           0           0           0           0           0           0           2           0           0           0
 AtZEff=  -0.0000000  -0.0000000  -0.0000000  -0.0000000  -0.0000000  -0.0000000  -0.0000000  -0.0000000  -0.0000000  -0.0000000
 NQMom=    0.0000000   0.0000000   0.0000000   0.0000000   0.0000000   0.0000000   2.0440000   0.0000000   0.0000000   0.0000000
 NMagM=    0.0000000   0.0000000   0.0000000   0.0000000   0.0000000   0.0000000   0.4037610   0.0000000   0.0000000   0.0000000
 AtZNuc=   6.0000000   6.0000000   6.0000000   6.0000000   8.0000000   8.0000000   7.0000000   6.0000000   6.0000000   6.0000000

  Atom        21          22          23          24          25          26          27          28          29          30
 IAtWgt=          12          12          12          16          12          14          12          12          12          12
 AtmWgt=  12.0000000  12.0000000  12.0000000  15.9949146  12.0000000  14.0030740  12.0000000  12.0000000  12.0000000  12.0000000
 NucSpn=           0           0           0           0           0           2           0           0           0           0
 AtZEff=  -0.0000000  -0.0000000  -0.0000000  -0.0000000  -0.0000000  -0.0000000  -0.0000000  -0.0000000  -0.0000000  -0.0000000
 NQMom=    0.0000000   0.0000000   0.0000000   0.0000000   0.0000000   2.0440000   0.0000000   0.0000000   0.0000000   0.0000000
 NMagM=    0.0000000   0.0000000   0.0000000   0.0000000   0.0000000   0.4037610   0.0000000   0.0000000   0.0000000   0.0000000
 AtZNuc=   6.0000000   6.0000000   6.0000000   8.0000000   6.0000000   7.0000000   6.0000000   6.0000000   6.0000000   6.0000000

  Atom        31          32          33          34          35          36          37          38          39          40
 IAtWgt=          12          12          12          14          12          12          12          12          12          12
 AtmWgt=  12.0000000  12.0000000  12.0000000  14.0030740  12.0000000  12.0000000  12.0000000  12.0000000  12.0000000  12.0000000
 NucSpn=           0           0           0           2           0           0           0           0           0           0
 AtZEff=  -0.0000000  -0.0000000  -0.0000000  -0.0000000  -0.0000000  -0.0000000  -0.0000000  -0.0000000  -0.0000000  -0.0000000
 NQMom=    0.0000000   0.0000000   0.0000000   2.0440000   0.0000000   0.0000000   0.0000000   0.0000000   0.0000000   0.0000000
 NMagM=    0.0000000   0.0000000   0.0000000   0.4037610   0.0000000   0.0000000   0.0000000   0.0000000   0.0000000   0.0000000
 AtZNuc=   6.0000000   6.0000000   6.0000000   7.0000000   6.0000000   6.0000000   6.0000000   6.0000000   6.0000000   6.0000000

  Atom        41          42          43          44          45          46          47          48          49          50
 IAtWgt=          16          12          12          16          16          12          12          12          12          12
 AtmWgt=  15.9949146  12.0000000  12.0000000  15.9949146  15.9949146  12.0000000  12.0000000  12.0000000  12.0000000  12.0000000
 NucSpn=           0           0           0           0           0           0           0           0           0           0
 AtZEff=  -0.0000000  -0.0000000  -0.0000000  -0.0000000  -0.0000000  -0.0000000  -0.0000000  -0.0000000  -0.0000000  -0.0000000
 NQMom=    0.0000000   0.0000000   0.0000000   0.0000000   0.0000000   0.0000000   0.0000000   0.0000000   0.0000000   0.0000000
 NMagM=    0.0000000   0.0000000   0.0000000   0.0000000   0.0000000   0.0000000   0.0000000   0.0000000   0.0000000   0.0000000
 AtZNuc=   8.0000000   6.0000000   6.0000000   8.0000000   8.0000000   6.0000000   6.0000000   6.0000000   6.0000000   6.0000000

  Atom        51          52          53          54          55          56          57          58          59          60
 IAtWgt=          12          12          12          12          12          12          12          12          12          12
 AtmWgt=  12.0000000  12.0000000  12.0000000  12.0000000  12.0000000  12.0000000  12.0000000  12.0000000  12.0000000  12.0000000
 NucSpn=           0           0           0           0           0           0           0           0           0           0
 AtZEff=  -0.0000000  -0.0000000  -0.0000000  -0.0000000  -0.0000000  -0.0000000  -0.0000000  -0.0000000  -0.0000000  -0.0000000
 NQMom=    0.0000000   0.0000000   0.0000000   0.0000000   0.0000000   0.0000000   0.0000000   0.0000000   0.0000000   0.0000000
 NMagM=    0.0000000   0.0000000   0.0000000   0.0000000   0.0000000   0.0000000   0.0000000   0.0000000   0.0000000   0.0000000
 AtZNuc=   6.0000000   6.0000000   6.0000000   6.0000000   6.0000000   6.0000000   6.0000000   6.0000000   6.0000000   6.0000000

  Atom        61          62          63          64          65          66          67          68          69          70
 IAtWgt=          12          12          12          12          12          12           1           1           1           1
 AtmWgt=  12.0000000  12.0000000  12.0000000  12.0000000  12.0000000  12.0000000   1.0078250   1.0078250   1.0078250   1.0078250
 NucSpn=           0           0           0           0           0           0           1           1           1           1
 AtZEff=  -0.0000000  -0.0000000  -0.0000000  -0.0000000  -0.0000000  -0.0000000  -0.0000000  -0.0000000  -0.0000000  -0.0000000
 NQMom=    0.0000000   0.0000000   0.0000000   0.0000000   0.0000000   0.0000000   0.0000000   0.0000000   0.0000000   0.0000000
 NMagM=    0.0000000   0.0000000   0.0000000   0.0000000   0.0000000   0.0000000   2.7928460   2.7928460   2.7928460   2.7928460
 AtZNuc=   6.0000000   6.0000000   6.0000000   6.0000000   6.0000000   6.0000000   1.0000000   1.0000000   1.0000000   1.0000000

  Atom        71          72          73          74          75          76          77          78          79          80
 IAtWgt=           1           1           1           1           1           1           1           1           1           1
 AtmWgt=   1.0078250   1.0078250   1.0078250   1.0078250   1.0078250   1.0078250   1.0078250   1.0078250   1.0078250   1.0078250
 NucSpn=           1           1           1           1           1           1           1           1           1           1
 AtZEff=  -0.0000000  -0.0000000  -0.0000000  -0.0000000  -0.0000000  -0.0000000  -0.0000000  -0.0000000  -0.0000000  -0.0000000
 NQMom=    0.0000000   0.0000000   0.0000000   0.0000000   0.0000000   0.0000000   0.0000000   0.0000000   0.0000000   0.0000000
 NMagM=    2.7928460   2.7928460   2.7928460   2.7928460   2.7928460   2.7928460   2.7928460   2.7928460   2.7928460   2.7928460
 AtZNuc=   1.0000000   1.0000000   1.0000000   1.0000000   1.0000000   1.0000000   1.0000000   1.0000000   1.0000000   1.0000000

  Atom        81          82          83          84          85          86          87          88          89          90
 IAtWgt=           1           1           1           1           1           1           1           1           1           1
 AtmWgt=   1.0078250   1.0078250   1.0078250   1.0078250   1.0078250   1.0078250   1.0078250   1.0078250   1.0078250   1.0078250
 NucSpn=           1           1           1           1           1           1           1           1           1           1
 AtZEff=  -0.0000000  -0.0000000  -0.0000000  -0.0000000  -0.0000000  -0.0000000  -0.0000000  -0.0000000  -0.0000000  -0.0000000
 NQMom=    0.0000000   0.0000000   0.0000000   0.0000000   0.0000000   0.0000000   0.0000000   0.0000000   0.0000000   0.0000000
 NMagM=    2.7928460   2.7928460   2.7928460   2.7928460   2.7928460   2.7928460   2.7928460   2.7928460   2.7928460   2.7928460
 AtZNuc=   1.0000000   1.0000000   1.0000000   1.0000000   1.0000000   1.0000000   1.0000000   1.0000000   1.0000000   1.0000000

  Atom        91          92          93          94          95          96          97          98          99         100
 IAtWgt=           1           1           1           1           1           1           1           1           1           1
 AtmWgt=   1.0078250   1.0078250   1.0078250   1.0078250   1.0078250   1.0078250   1.0078250   1.0078250   1.0078250   1.0078250
 NucSpn=           1           1           1           1           1           1           1           1           1           1
 AtZEff=  -0.0000000  -0.0000000  -0.0000000  -0.0000000  -0.0000000  -0.0000000  -0.0000000  -0.0000000  -0.0000000  -0.0000000
 NQMom=    0.0000000   0.0000000   0.0000000   0.0000000   0.0000000   0.0000000   0.0000000   0.0000000   0.0000000   0.0000000
 NMagM=    2.7928460   2.7928460   2.7928460   2.7928460   2.7928460   2.7928460   2.7928460   2.7928460   2.7928460   2.7928460
 AtZNuc=   1.0000000   1.0000000   1.0000000   1.0000000   1.0000000   1.0000000   1.0000000   1.0000000   1.0000000   1.0000000

  Atom       101         102         103         104         105         106         107         108         109         110
 IAtWgt=           1           1           1           1           1           1           1           1           1           1
 AtmWgt=   1.0078250   1.0078250   1.0078250   1.0078250   1.0078250   1.0078250   1.0078250   1.0078250   1.0078250   1.0078250
 NucSpn=           1           1           1           1           1           1           1           1           1           1
 AtZEff=  -0.0000000  -0.0000000  -0.0000000  -0.0000000  -0.0000000  -0.0000000  -0.0000000  -0.0000000  -0.0000000  -0.0000000
 NQMom=    0.0000000   0.0000000   0.0000000   0.0000000   0.0000000   0.0000000   0.0000000   0.0000000   0.0000000   0.0000000
 NMagM=    2.7928460   2.7928460   2.7928460   2.7928460   2.7928460   2.7928460   2.7928460   2.7928460   2.7928460   2.7928460
 AtZNuc=   1.0000000   1.0000000   1.0000000   1.0000000   1.0000000   1.0000000   1.0000000   1.0000000   1.0000000   1.0000000

  Atom       111         112         113         114         115         116         117         118         119         120
 IAtWgt=           1           1           1           1           1           1           1           1           1           1
 AtmWgt=   1.0078250   1.0078250   1.0078250   1.0078250   1.0078250   1.0078250   1.0078250   1.0078250   1.0078250   1.0078250
 NucSpn=           1           1           1           1           1           1           1           1           1           1
 AtZEff=  -0.0000000  -0.0000000  -0.0000000  -0.0000000  -0.0000000  -0.0000000  -0.0000000  -0.0000000  -0.0000000  -0.0000000
 NQMom=    0.0000000   0.0000000   0.0000000   0.0000000   0.0000000   0.0000000   0.0000000   0.0000000   0.0000000   0.0000000
 NMagM=    2.7928460   2.7928460   2.7928460   2.7928460   2.7928460   2.7928460   2.7928460   2.7928460   2.7928460   2.7928460
 AtZNuc=   1.0000000   1.0000000   1.0000000   1.0000000   1.0000000   1.0000000   1.0000000   1.0000000   1.0000000   1.0000000

  Atom       121         122         123         124         125         126         127         128         129         130
 IAtWgt=           1           1           1           1           1           1           1           1           1           1
 AtmWgt=   1.0078250   1.0078250   1.0078250   1.0078250   1.0078250   1.0078250   1.0078250   1.0078250   1.0078250   1.0078250
 NucSpn=           1           1           1           1           1           1           1           1           1           1
 AtZEff=  -0.0000000  -0.0000000  -0.0000000  -0.0000000  -0.0000000  -0.0000000  -0.0000000  -0.0000000  -0.0000000  -0.0000000
 NQMom=    0.0000000   0.0000000   0.0000000   0.0000000   0.0000000   0.0000000   0.0000000   0.0000000   0.0000000   0.0000000
 NMagM=    2.7928460   2.7928460   2.7928460   2.7928460   2.7928460   2.7928460   2.7928460   2.7928460   2.7928460   2.7928460
 AtZNuc=   1.0000000   1.0000000   1.0000000   1.0000000   1.0000000   1.0000000   1.0000000   1.0000000   1.0000000   1.0000000

  Atom       131         132         133         134         135         136         137         138         139         140
 IAtWgt=           1           1           1           1           1           1           1           1           1           1
 AtmWgt=   1.0078250   1.0078250   1.0078250   1.0078250   1.0078250   1.0078250   1.0078250   1.0078250   1.0078250   1.0078250
 NucSpn=           1           1           1           1           1           1           1           1           1           1
 AtZEff=  -0.0000000  -0.0000000  -0.0000000  -0.0000000  -0.0000000  -0.0000000  -0.0000000  -0.0000000  -0.0000000  -0.0000000
 NQMom=    0.0000000   0.0000000   0.0000000   0.0000000   0.0000000   0.0000000   0.0000000   0.0000000   0.0000000   0.0000000
 NMagM=    2.7928460   2.7928460   2.7928460   2.7928460   2.7928460   2.7928460   2.7928460   2.7928460   2.7928460   2.7928460
 AtZNuc=   1.0000000   1.0000000   1.0000000   1.0000000   1.0000000   1.0000000   1.0000000   1.0000000   1.0000000   1.0000000
 Leave Link  101 at Wed May  4 13:17:26 2022, MaxMem= 10066329600 cpu:               3.1 elap:               0.2
 (Enter /sw/apps/gaussian-16.0/g16/l202.exe)
 Stoichiometry    C55H74MgN4O6
 Framework group  C1[X(C55H74MgN4O6)]
 Deg. of freedom   414
 Full point group                 C1      NOp   1
 Largest Abelian subgroup         C1      NOp   1
 Largest concise Abelian subgroup C1      NOp   1
                         Standard orientation:                         
 ---------------------------------------------------------------------
 Center     Atomic      Atomic             Coordinates (Angstroms)
 Number     Number       Type             X           Y           Z
 ---------------------------------------------------------------------
      1         12           0        5.051758    1.281588    0.124223
      2          6           0        5.100468   -2.155410   -0.351402
      3          6           0        1.612220    1.154102   -0.330299
      4          6           0        5.028040    4.617808    0.355740
      5          6           0        8.539041    1.231896    0.556984
      6          7           0        3.514301   -0.403515   -0.060945
      7          6           0        3.748624   -1.743435   -0.204069
      8          6           0        2.474144   -2.589843   -0.042724
      9          6           0        1.465162   -1.405315   -0.392008
     10          6           0        2.234341   -0.126696   -0.230006
     11          6           0        0.760260   -1.461350   -1.750076
     12          6           0        2.329774   -3.067491    1.461781
     13          6           0        1.252298   -4.131569    1.716177
     14          6           0        0.397295   -4.765787    0.489840
     15          8           0        0.698525   -5.597972   -0.376425
     16          8           0       -0.822451   -4.155972    0.686714
     17          7           0        3.606262    2.680049   -0.084826
     18          6           0        2.238174    2.452926   -0.298668
     19          6           0        1.582247    3.759849   -0.630036
     20          6           0        2.552752    4.771223   -0.475848
     21          6           0        3.784610    4.058648   -0.035046
     22          6           0        0.122486    3.831282   -1.124247
     23          6           0        2.403724    6.296656   -0.810924
     24          8           0        3.359226    7.096397   -0.555581
     25          6           0        1.216112    6.920321   -1.441814
     26          7           0        6.609748    2.744009    0.326189
     27          6           0        6.358208    4.045648    0.430919
     28          6           0        7.677776    4.882719    0.656170
     29          6           0        8.830876    3.864494    0.569723
     30          6           0        7.966339    2.503373    0.466484
     31          6           0        7.890838    5.979054   -0.395784
     32          6           0        9.635088    3.823065    1.881095
     33          6           0       11.183474    3.539028    1.773467
     34          7           0        6.486420   -0.163219    0.148785
     35          6           0        7.887278   -0.042615    0.364018
     36          6           0        8.464984   -1.312335    0.118964
     37          6           0        7.441822   -2.203098   -0.199166
     38          6           0        6.251262   -1.434945   -0.122618
     39          6           0        9.886750   -1.612897   -0.080639
     40          6           0        7.087720   -3.556054   -0.486314
     41          8           0        7.812612   -4.538604   -0.712754
     42          6           0        5.523176   -3.596626   -0.471654
     43          6           0        5.077916   -4.346479   -1.671535
     44          8           0        5.574198   -4.136221   -2.819611
     45          8           0        4.082152   -5.269896   -1.388944
     46          6           0        3.797147   -6.109124   -2.553972
     47          6           0       -1.760340   -4.581837   -0.379570
     48          6           0       -2.942476   -3.693609   -0.226021
     49          6           0       -4.143854   -4.039124    0.252264
     50          6           0       -4.544810   -5.463949    0.640683
     51          6           0       -5.283585   -3.006358    0.225757
     52          6           0       -5.580439   -2.475735    1.594093
     53          6           0       -7.112109   -2.350703    1.897351
     54          6           0       -7.589550   -0.918559    2.078904
     55          6           0       -7.002642   -0.219654    3.294816
     56          6           0       -9.126963   -0.807533    2.142310
     57          6           0       -9.741770   -0.348271    0.791710
     58          6           0      -11.282884   -0.127884    0.912136
     59          6           0      -12.007564    1.176865    0.388526
     60          6           0      -11.810179    2.312271    1.362189
     61          6           0      -13.453471    0.802905    0.118710
     62          6           0      -14.063240    1.834793   -0.866611
     63          6           0      -15.523498    2.279529   -0.500535
     64          6           0      -16.413578    2.281344   -1.806675
     65          6           0      -16.190918    3.686252   -2.548680
     66          6           0      -17.874520    1.911430   -1.526202
     67          1           0        0.582161    1.007795   -0.661026
     68          1           0        5.082279    5.705781    0.276758
     69          1           0        9.611995    1.124542    0.728673
     70          1           0        2.391818   -3.385621   -0.781932
     71          1           0        0.691574   -1.371787    0.375028
     72          1           0       -0.315902   -1.383723   -1.596478
     73          1           0        0.970989   -2.378154   -2.300838
     74          1           0        1.173025   -0.647907   -2.345271
     75          1           0        2.168823   -2.180662    2.074281
     76          1           0        3.341421   -3.443586    1.619124
     77          1           0        0.648455   -3.928516    2.600414
     78          1           0        1.826504   -5.003967    2.028768
     79          1           0       -0.348630    4.624270   -0.542672
     80          1           0       -0.333611    2.859573   -0.931802
     81          1           0        0.109179    4.075175   -2.186364
     82          1           0        1.036117    7.993836   -1.378054
     83          1           0        0.449399    6.594978   -0.739330
     84          1           0        1.014779    6.462197   -2.410814
     85          1           0        7.691292    5.211728    1.694513
     86          1           0        9.462027    3.898345   -0.319021
     87          1           0        8.298717    6.911113   -0.004183
     88          1           0        6.999011    6.098858   -1.011787
     89          1           0        8.571591    5.620384   -1.167531
     90          1           0        9.225901    3.092022    2.578234
     91          1           0        9.500402    4.700589    2.513026
     92          1           0       11.575626    3.754083    0.779352
     93          1           0       11.409825    2.516237    2.075493
     94          1           0       11.624291    4.163519    2.550876
     95          1           0       10.344944   -1.899749    0.866060
     96          1           0       10.321833   -0.803849   -0.667553
     97          1           0        9.952607   -2.513936   -0.689775
     98          1           0        5.090078   -4.166389    0.349663
     99          1           0        4.179792   -7.123006   -2.436453
    100          1           0        4.247849   -5.792708   -3.494024
    101          1           0        2.718981   -6.063585   -2.706021
    102          1           0       -2.008437   -5.643099   -0.422188
    103          1           0       -1.348661   -4.353303   -1.362282
    104          1           0       -2.733386   -2.682051   -0.573764
    105          1           0       -3.819017   -6.002218    1.250589
    106          1           0       -4.718384   -6.062239   -0.252792
    107          1           0       -5.485826   -5.582328    1.176014
    108          1           0       -6.193592   -3.462241   -0.165088
    109          1           0       -4.865142   -2.201840   -0.378609
    110          1           0       -5.133812   -1.489042    1.720327
    111          1           0       -5.113195   -3.085722    2.365821
    112          1           0       -7.334437   -2.886018    2.819785
    113          1           0       -7.742008   -2.889982    1.190149
    114          1           0       -7.167956   -0.360699    1.242423
    115          1           0       -6.082994    0.325866    3.084912
    116          1           0       -6.690584   -0.943052    4.048557
    117          1           0       -7.562160    0.582013    3.776789
    118          1           0       -9.426715   -0.123126    2.936315
    119          1           0       -9.459473   -1.805233    2.427192
    120          1           0       -9.613680   -1.158005    0.073581
    121          1           0       -9.283427    0.568786    0.422454
    122          1           0      -11.502257   -0.188290    1.977436
    123          1           0      -11.668765   -1.009317    0.399613
    124          1           0      -11.440577    1.485640   -0.489320
    125          1           0      -10.781142    2.507033    1.664754
    126          1           0      -12.168571    1.952921    2.327249
    127          1           0      -12.377326    3.170720    1.000593
    128          1           0      -14.045925    0.752354    1.031963
    129          1           0      -13.634803   -0.139576   -0.398577
    130          1           0      -13.920105    1.320852   -1.817280
    131          1           0      -13.501382    2.767485   -0.914382
    132          1           0      -15.576346    3.270781   -0.051617
    133          1           0      -15.846555    1.494897    0.183228
    134          1           0      -15.923856    1.625010   -2.525864
    135          1           0      -16.057334    3.599513   -3.627264
    136          1           0      -15.256326    4.086196   -2.155123
    137          1           0      -16.942148    4.375487   -2.163001
    138          1           0      -18.209450    1.639703   -0.525466
    139          1           0      -18.065839    1.008438   -2.104897
    140          1           0      -18.510042    2.704433   -1.919872
 ---------------------------------------------------------------------
 Rotational constants (GHZ):           0.0402047           0.0094062           0.0079407
 Leave Link  202 at Wed May  4 13:17:26 2022, MaxMem= 10066329600 cpu:               0.2 elap:               0.0
 (Enter /sw/apps/gaussian-16.0/g16/l301.exe)
 Standard basis: def2SVP (5D, 7F)
 Ernie: Thresh=  0.10000D-02 Tol=  0.10000D-05 Strict=F.
 There are  1364 symmetry adapted cartesian basis functions of A   symmetry.
 There are  1298 symmetry adapted basis functions of A   symmetry.
  1298 basis functions,  2180 primitive gaussians,  1364 cartesian basis functions
   246 alpha electrons      246 beta electrons
       nuclear repulsion energy      9432.5364287173 Hartrees.
 IExCor= 4639 DFT=T Ex+Corr=wB97XD ExCW=0 ScaHFX=  1.000000
 ScaDFX=  1.000000  1.000000  1.000000  1.000000 ScalE2=  1.000000  1.000000
 IRadAn=      5 IRanWt=     -1 IRanGd=            0 ICorTp=0 IEmpDi=121
 HFx  wShort=  0.000000 wLong=  0.200000 cFull=  0.222036 cShort=  0.000000 cLong=  0.777964
 DFx  wShort=  0.000000 wLong=  0.200000 cFull=  0.000000 cShort=  0.000000 cLong=  1.000000
 NAtoms=  140 NActive=  140 NUniq=  140 SFac= 1.00D+00 NAtFMM=   60 NAOKFM=T Big=T
 Integral buffers will be    131072 words long.
 Raffenetti 1 integral format.
 Two-electron integral symmetry is turned on.
 R6Disp:  Grimme-D2 Dispersion energy=       -0.1331459929 Hartrees.
 Nuclear repulsion after empirical dispersion term =     9432.4032827244 Hartrees.
 Leave Link  301 at Wed May  4 13:17:26 2022, MaxMem= 10066329600 cpu:               1.3 elap:               0.1
 (Enter /sw/apps/gaussian-16.0/g16/l302.exe)
 NPDir=0 NMtPBC=     1 NCelOv=     1 NCel=       1 NClECP=     1 NCelD=      1
         NCelK=      1 NCelE2=     1 NClLst=     1 CellRange=     0.0.
 One-electron integrals computed using PRISM.
 One-electron integral symmetry used in STVInt
   1 Symmetry operations used in ECPInt.
 ECPInt:  NShTT=  192510 NPrTT=  683786 LenC2=   91842 LenP2D=  201817.
 LDataN:  DoStor=T MaxTD1= 4 Len=   56
 NBasis=  1298 RedAO= T EigKep=  2.81D-04  NBF=  1298
 NBsUse=  1298 1.00D-06 EigRej= -1.00D+00 NBFU=  1298
 Precomputing XC quadrature grid using
 IXCGrd= 4 IRadAn=           5 IRanWt=          -1 IRanGd=           0 AccXCQ= 0.00D+00.
 Generated NRdTot=       0 NPtTot=           0 NUsed=           0 NTot=          32
 NSgBfM=  1102  1102  1102  1102  1102 MxSgAt=   140 MxSgA2=   139.
 Leave Link  302 at Wed May  4 13:17:29 2022, MaxMem= 10066329600 cpu:              76.5 elap:               3.2
 (Enter /sw/apps/gaussian-16.0/g16/l303.exe)
 DipDrv:  MaxL=1.
 Leave Link  303 at Wed May  4 13:17:30 2022, MaxMem= 10066329600 cpu:               6.0 elap:               0.3
 (Enter /sw/apps/gaussian-16.0/g16/l308.exe)
 Leave Link  308 at Wed May  4 13:17:30 2022, MaxMem= 10066329600 cpu:               8.9 elap:               0.5
 (Enter /sw/apps/gaussian-16.0/g16/l401.exe)
 ExpMin= 3.36D-02 ExpMax= 4.95D+03 ExpMxC= 7.45D+02 IAcc=3 IRadAn=         5 AccDes= 0.00D+00
 Harris functional with IExCor= 4639 and IRadAn=       5 diagonalized for initial guess.
 HarFok:  IExCor= 4639 AccDes= 0.00D+00 IRadAn=         5 IDoV= 1 UseB2=F ITyADJ=14
 ICtDFT=  3500011 ScaDFX=  1.000000  1.000000  1.000000  1.000000
 FoFCou: FMM=F IPFlag=           0 FMFlag=      100000 FMFlg1=        2001
         NFxFlg=           0 DoJE=T BraDBF=F KetDBF=T FulRan=T
         wScrn=  0.000000 ICntrl=       500 IOpCl=  0 I1Cent=   200000004 NGrid=           0
         NMat0=    1 NMatS0=      1 NMatT0=    0 NMatD0=    1 NMtDS0=    0 NMtDT0=    0
 Petite list used in FoFCou.
 Harris En= -2878.03887928560    
 JPrj=0 DoOrth=F DoCkMO=F.
 Leave Link  401 at Wed May  4 13:17:35 2022, MaxMem= 10066329600 cpu:             128.1 elap:               5.4
 (Enter /sw/apps/gaussian-16.0/g16/l502.exe)
 Integral symmetry usage will be decided dynamically.
 Closed shell SCF:
 Using DIIS extrapolation, IDIIS=  1040.
 NGot= 10066329600 LenX= 10062561258 LenY= 10060699398
 Requested convergence on RMS density matrix=1.00D-08 within 128 cycles.
 Requested convergence on MAX density matrix=1.00D-06.
 Requested convergence on             energy=1.00D-06.
 No special actions if energy rises.
 Fock matrices will be formed incrementally for  20 cycles.

 Cycle   1  Pass 1  IDiag  1:
 FoFJK:  IHMeth= 1 ICntrl=       0 DoSepK=T KAlg= 0 I1Cent=           0 FoldK=F
 IRaf=         1 NMat=       1 IRICut=       1 DoRegI=T DoRafI=F ISym2E= 0 IDoP0=0 IntGTp=1.
 FoFCou: FMM=T IPFlag=           0 FMFlag=      100000 FMFlg1=        2001
         NFxFlg=           0 DoJE=T BraDBF=F KetDBF=F FulRan=T
         wScrn=  0.000000 ICntrl=       500 IOpCl=  0 I1Cent=           0 NGrid=           0
         NMat0=    1 NMatS0=      1 NMatT0=    0 NMatD0=    1 NMtDS0=    0 NMtDT0=    0
 Symmetry not used in FoFCou.
 FMM levels:  10  Number of levels for PrismC:   9
 E= -3007.13498126281    
 DIIS: error= 2.22D-02 at cycle   1 NSaved=   1.
 NSaved= 1 IEnMin= 1 EnMin= -3007.13498126281     IErMin= 1 ErrMin= 2.22D-02
 ErrMax= 2.22D-02  0.00D+00 EMaxC= 1.00D-01 BMatC= 1.53D+00 BMatP= 1.53D+00
 IDIUse=3 WtCom= 7.78D-01 WtEn= 2.22D-01
 Coeff-Com:  0.100D+01
 Coeff-En:   0.100D+01
 Coeff:      0.100D+01
 Gap=     0.150 Goal=   None    Shift=    0.000
 GapD=    0.150 DampG=1.000 DampE=0.500 DampFc=0.5000 IDamp=-1.
 Damping current iteration by 5.00D-01
 RMSDP=1.58D-03 MaxDP=1.98D-01              OVMax= 2.31D-01

 Cycle   2  Pass 1  IDiag  1:
 RMSU=  7.81D-04    CP:  9.86D-01
 E= -3007.47411805184     Delta-E=       -0.339136789024 Rises=F Damp=T
 DIIS: error= 1.07D-02 at cycle   2 NSaved=   2.
 NSaved= 2 IEnMin= 2 EnMin= -3007.47411805184     IErMin= 2 ErrMin= 1.07D-02
 ErrMax= 1.07D-02  0.00D+00 EMaxC= 1.00D-01 BMatC= 2.91D-01 BMatP= 1.53D+00
 IDIUse=3 WtCom= 8.93D-01 WtEn= 1.07D-01
 Coeff-Com: -0.325D+00 0.133D+01
 Coeff-En:   0.000D+00 0.100D+01
 Coeff:     -0.291D+00 0.129D+01
 Gap=     0.187 Goal=   None    Shift=    0.000
 RMSDP=7.41D-04 MaxDP=1.05D-01 DE=-3.39D-01 OVMax= 1.97D-01

 Cycle   3  Pass 1  IDiag  1:
 RMSU=  6.96D-04    CP:  9.77D-01  1.31D+00
 E= -3007.72075757073     Delta-E=       -0.246639518895 Rises=F Damp=F
 DIIS: error= 1.38D-02 at cycle   3 NSaved=   3.
 NSaved= 3 IEnMin= 3 EnMin= -3007.72075757073     IErMin= 2 ErrMin= 1.07D-02
 ErrMax= 1.38D-02  0.00D+00 EMaxC= 1.00D-01 BMatC= 1.50D-01 BMatP= 2.91D-01
 IDIUse=3 WtCom= 8.62D-01 WtEn= 1.38D-01
 Coeff-Com: -0.303D+00 0.683D+00 0.620D+00
 Coeff-En:   0.000D+00 0.000D+00 0.100D+01
 Coeff:     -0.261D+00 0.588D+00 0.673D+00
 Gap=     0.163 Goal=   None    Shift=    0.000
 RMSDP=4.41D-04 MaxDP=4.59D-02 DE=-2.47D-01 OVMax= 1.22D-01

 Cycle   4  Pass 1  IDiag  1:
 RMSU=  2.34D-04    CP:  9.74D-01  1.59D+00  5.66D-01
 E= -3007.82989122801     Delta-E=       -0.109133657275 Rises=F Damp=F
 DIIS: error= 6.15D-03 at cycle   4 NSaved=   4.
 NSaved= 4 IEnMin= 4 EnMin= -3007.82989122801     IErMin= 4 ErrMin= 6.15D-03
 ErrMax= 6.15D-03  0.00D+00 EMaxC= 1.00D-01 BMatC= 2.47D-02 BMatP= 1.50D-01
 IDIUse=3 WtCom= 9.38D-01 WtEn= 6.15D-02
 Coeff-Com: -0.115D+00 0.231D+00 0.377D+00 0.507D+00
 Coeff-En:   0.000D+00 0.000D+00 0.116D+00 0.884D+00
 Coeff:     -0.108D+00 0.217D+00 0.361D+00 0.530D+00
 Gap=     0.162 Goal=   None    Shift=    0.000
 RMSDP=1.48D-04 MaxDP=1.83D-02 DE=-1.09D-01 OVMax= 3.37D-02

 Cycle   5  Pass 1  IDiag  1:
 RMSU=  6.87D-05    CP:  9.73D-01  1.56D+00  7.06D-01  6.36D-01
 E= -3007.85007609108     Delta-E=       -0.020184863077 Rises=F Damp=F
 DIIS: error= 9.68D-04 at cycle   5 NSaved=   5.
 NSaved= 5 IEnMin= 5 EnMin= -3007.85007609108     IErMin= 5 ErrMin= 9.68D-04
 ErrMax= 9.68D-04  0.00D+00 EMaxC= 1.00D-01 BMatC= 6.90D-04 BMatP= 2.47D-02
 IDIUse=3 WtCom= 9.90D-01 WtEn= 9.68D-03
 Coeff-Com: -0.334D-01 0.637D-01 0.136D+00 0.253D+00 0.580D+00
 Coeff-En:   0.000D+00 0.000D+00 0.000D+00 0.000D+00 0.100D+01
 Coeff:     -0.331D-01 0.631D-01 0.135D+00 0.251D+00 0.584D+00
 Gap=     0.163 Goal=   None    Shift=    0.000
 RMSDP=2.97D-05 MaxDP=4.04D-03 DE=-2.02D-02 OVMax= 6.21D-03

 Cycle   6  Pass 1  IDiag  1:
 RMSU=  2.44D-05    CP:  9.73D-01  1.56D+00  7.06D-01  6.95D-01  8.62D-01
 E= -3007.85063068723     Delta-E=       -0.000554596143 Rises=F Damp=F
 DIIS: error= 2.68D-04 at cycle   6 NSaved=   6.
 NSaved= 6 IEnMin= 6 EnMin= -3007.85063068723     IErMin= 6 ErrMin= 2.68D-04
 ErrMax= 2.68D-04  0.00D+00 EMaxC= 1.00D-01 BMatC= 7.26D-05 BMatP= 6.90D-04
 IDIUse=3 WtCom= 9.97D-01 WtEn= 2.68D-03
 Coeff-Com:  0.106D-01-0.228D-01-0.198D-01-0.267D-02 0.246D+00 0.789D+00
 Coeff-En:   0.000D+00 0.000D+00 0.000D+00 0.000D+00 0.000D+00 0.100D+01
 Coeff:      0.105D-01-0.227D-01-0.197D-01-0.266D-02 0.245D+00 0.789D+00
 Gap=     0.163 Goal=   None    Shift=    0.000
 RMSDP=1.39D-05 MaxDP=1.69D-03 DE=-5.55D-04 OVMax= 6.02D-03

 Cycle   7  Pass 1  IDiag  1:
 RMSU=  9.42D-06    CP:  9.73D-01  1.56D+00  7.11D-01  7.11D-01  9.78D-01
                    CP:  9.91D-01
 E= -3007.85073688778     Delta-E=       -0.000106200554 Rises=F Damp=F
 DIIS: error= 6.71D-05 at cycle   7 NSaved=   7.
 NSaved= 7 IEnMin= 7 EnMin= -3007.85073688778     IErMin= 7 ErrMin= 6.71D-05
 ErrMax= 6.71D-05  0.00D+00 EMaxC= 1.00D-01 BMatC= 7.48D-06 BMatP= 7.26D-05
 IDIUse=1 WtCom= 1.00D+00 WtEn= 0.00D+00
 Coeff-Com:  0.658D-02-0.133D-01-0.183D-01-0.247D-01 0.263D-01 0.272D+00
 Coeff-Com:  0.751D+00
 Coeff:      0.658D-02-0.133D-01-0.183D-01-0.247D-01 0.263D-01 0.272D+00
 Coeff:      0.751D+00
 Gap=     0.164 Goal=   None    Shift=    0.000
 RMSDP=5.87D-06 MaxDP=7.29D-04 DE=-1.06D-04 OVMax= 2.78D-03

 Cycle   8  Pass 1  IDiag  1:
 RMSU=  3.82D-06    CP:  9.73D-01  1.56D+00  7.13D-01  7.16D-01  1.00D+00
                    CP:  1.13D+00  1.15D+00
 E= -3007.85075698945     Delta-E=       -0.000020101668 Rises=F Damp=F
 DIIS: error= 2.59D-05 at cycle   8 NSaved=   8.
 NSaved= 8 IEnMin= 8 EnMin= -3007.85075698945     IErMin= 8 ErrMin= 2.59D-05
 ErrMax= 2.59D-05  0.00D+00 EMaxC= 1.00D-01 BMatC= 2.05D-06 BMatP= 7.48D-06
 IDIUse=1 WtCom= 1.00D+00 WtEn= 0.00D+00
 Coeff-Com:  0.889D-03-0.149D-02-0.436D-02-0.110D-01-0.388D-01-0.396D-01
 Coeff-Com:  0.321D+00 0.773D+00
 Coeff:      0.889D-03-0.149D-02-0.436D-02-0.110D-01-0.388D-01-0.396D-01
 Coeff:      0.321D+00 0.773D+00
 Gap=     0.164 Goal=   None    Shift=    0.000
 RMSDP=3.85D-06 MaxDP=2.89D-04 DE=-2.01D-05 OVMax= 2.63D-03

 Cycle   9  Pass 1  IDiag  1:
 RMSU=  2.11D-06    CP:  9.73D-01  1.56D+00  7.13D-01  7.18D-01  1.02D+00
                    CP:  1.18D+00  1.40D+00  1.33D+00
 E= -3007.85076625783     Delta-E=       -0.000009268379 Rises=F Damp=F
 DIIS: error= 2.16D-05 at cycle   9 NSaved=   9.
 NSaved= 9 IEnMin= 9 EnMin= -3007.85076625783     IErMin= 9 ErrMin= 2.16D-05
 ErrMax= 2.16D-05  0.00D+00 EMaxC= 1.00D-01 BMatC= 5.65D-07 BMatP= 2.05D-06
 IDIUse=1 WtCom= 1.00D+00 WtEn= 0.00D+00
 Coeff-Com: -0.142D-02 0.292D-02 0.327D-02 0.319D-02-0.175D-01-0.814D-01
 Coeff-Com: -0.898D-01 0.231D+00 0.949D+00
 Coeff:     -0.142D-02 0.292D-02 0.327D-02 0.319D-02-0.175D-01-0.814D-01
 Coeff:     -0.898D-01 0.231D+00 0.949D+00
 Gap=     0.164 Goal=   None    Shift=    0.000
 RMSDP=3.18D-06 MaxDP=2.54D-04 DE=-9.27D-06 OVMax= 2.15D-03

 Cycle  10  Pass 1  IDiag  1:
 RMSU=  1.17D-06    CP:  9.73D-01  1.56D+00  7.13D-01  7.18D-01  1.02D+00
                    CP:  1.22D+00  1.58D+00  1.81D+00  1.61D+00
 E= -3007.85077120730     Delta-E=       -0.000004949472 Rises=F Damp=F
 DIIS: error= 1.49D-05 at cycle  10 NSaved=  10.
 NSaved=10 IEnMin=10 EnMin= -3007.85077120730     IErMin=10 ErrMin= 1.49D-05
 ErrMax= 1.49D-05  0.00D+00 EMaxC= 1.00D-01 BMatC= 2.23D-07 BMatP= 5.65D-07
 IDIUse=1 WtCom= 1.00D+00 WtEn= 0.00D+00
 Coeff-Com: -0.982D-03 0.189D-02 0.304D-02 0.591D-02 0.786D-02-0.214D-01
 Coeff-Com: -0.165D+00-0.194D+00 0.377D+00 0.985D+00
 Coeff:     -0.982D-03 0.189D-02 0.304D-02 0.591D-02 0.786D-02-0.214D-01
 Coeff:     -0.165D+00-0.194D+00 0.377D+00 0.985D+00
 Gap=     0.164 Goal=   None    Shift=    0.000
 RMSDP=2.81D-06 MaxDP=2.21D-04 DE=-4.95D-06 OVMax= 2.10D-03

 Cycle  11  Pass 1  IDiag  1:
 RMSU=  7.18D-07    CP:  9.73D-01  1.56D+00  7.13D-01  7.18D-01  1.03D+00
                    CP:  1.24D+00  1.72D+00  2.20D+00  2.36D+00  1.63D+00
 E= -3007.85077385929     Delta-E=       -0.000002651987 Rises=F Damp=F
 DIIS: error= 7.83D-06 at cycle  11 NSaved=  11.
 NSaved=11 IEnMin=11 EnMin= -3007.85077385929     IErMin=11 ErrMin= 7.83D-06
 ErrMax= 7.83D-06  0.00D+00 EMaxC= 1.00D-01 BMatC= 9.79D-08 BMatP= 2.23D-07
 IDIUse=1 WtCom= 1.00D+00 WtEn= 0.00D+00
 Coeff-Com:  0.138D-04-0.767D-04 0.236D-03 0.181D-02 0.922D-02 0.165D-01
 Coeff-Com: -0.461D-01-0.151D+00-0.158D+00 0.451D+00 0.876D+00
 Coeff:      0.138D-04-0.767D-04 0.236D-03 0.181D-02 0.922D-02 0.165D-01
 Coeff:     -0.461D-01-0.151D+00-0.158D+00 0.451D+00 0.876D+00
 Gap=     0.164 Goal=   None    Shift=    0.000
 RMSDP=1.72D-06 MaxDP=1.35D-04 DE=-2.65D-06 OVMax= 1.18D-03

 Cycle  12  Pass 1  IDiag  1:
 RMSU=  3.80D-07    CP:  9.73D-01  1.56D+00  7.13D-01  7.17D-01  1.03D+00
                    CP:  1.25D+00  1.79D+00  2.42D+00  2.81D+00  2.28D+00
                    CP:  1.48D+00
 E= -3007.85077476063     Delta-E=       -0.000000901346 Rises=F Damp=F
 DIIS: error= 5.66D-06 at cycle  12 NSaved=  12.
 NSaved=12 IEnMin=12 EnMin= -3007.85077476063     IErMin=12 ErrMin= 5.66D-06
 ErrMax= 5.66D-06  0.00D+00 EMaxC= 1.00D-01 BMatC= 2.93D-08 BMatP= 9.79D-08
 IDIUse=1 WtCom= 1.00D+00 WtEn= 0.00D+00
 Coeff-Com:  0.445D-03-0.881D-03-0.132D-02-0.177D-02 0.352D-03 0.168D-01
 Coeff-Com:  0.558D-01 0.330D-01-0.269D+00-0.269D+00 0.390D+00 0.105D+01
 Coeff:      0.445D-03-0.881D-03-0.132D-02-0.177D-02 0.352D-03 0.168D-01
 Coeff:      0.558D-01 0.330D-01-0.269D+00-0.269D+00 0.390D+00 0.105D+01
 Gap=     0.164 Goal=   None    Shift=    0.000
 RMSDP=1.41D-06 MaxDP=1.04D-04 DE=-9.01D-07 OVMax= 1.02D-03

 Cycle  13  Pass 1  IDiag  1:
 RMSU=  4.57D-07    CP:  9.73D-01  1.56D+00  7.13D-01  7.17D-01  1.03D+00
                    CP:  1.25D+00  1.84D+00  2.58D+00  3.00D+00  2.85D+00
                    CP:  2.16D+00  1.44D+00
 E= -3007.85077509411     Delta-E=       -0.000000333479 Rises=F Damp=F
 DIIS: error= 1.75D-06 at cycle  13 NSaved=  13.
 NSaved=13 IEnMin=13 EnMin= -3007.85077509411     IErMin=13 ErrMin= 1.75D-06
 ErrMax= 1.75D-06  0.00D+00 EMaxC= 1.00D-01 BMatC= 6.71D-09 BMatP= 2.93D-08
 IDIUse=1 WtCom= 1.00D+00 WtEn= 0.00D+00
 Coeff-Com:  0.207D-03-0.403D-03-0.684D-03-0.118D-02-0.174D-02 0.379D-02
 Coeff-Com:  0.347D-01 0.506D-01-0.822D-01-0.216D+00-0.344D-01 0.479D+00
 Coeff-Com:  0.768D+00
 Coeff:      0.207D-03-0.403D-03-0.684D-03-0.118D-02-0.174D-02 0.379D-02
 Coeff:      0.347D-01 0.506D-01-0.822D-01-0.216D+00-0.344D-01 0.479D+00
 Coeff:      0.768D+00
 Gap=     0.164 Goal=   None    Shift=    0.000
 RMSDP=4.20D-07 MaxDP=4.00D-05 DE=-3.33D-07 OVMax= 2.82D-04

 Cycle  14  Pass 1  IDiag  1:
 RMSU=  1.30D-07    CP:  9.73D-01  1.56D+00  7.13D-01  7.17D-01  1.03D+00
                    CP:  1.25D+00  1.85D+00  2.62D+00  3.00D+00  3.00D+00
                    CP:  2.41D+00  1.74D+00  1.43D+00
 E= -3007.85077512608     Delta-E=       -0.000000031967 Rises=F Damp=F
 DIIS: error= 5.38D-07 at cycle  14 NSaved=  14.
 NSaved=14 IEnMin=14 EnMin= -3007.85077512608     IErMin=14 ErrMin= 5.38D-07
 ErrMax= 5.38D-07  0.00D+00 EMaxC= 1.00D-01 BMatC= 6.50D-10 BMatP= 6.71D-09
 IDIUse=1 WtCom= 1.00D+00 WtEn= 0.00D+00
 Coeff-Com: -0.169D-04 0.365D-04 0.257D-04-0.388D-04-0.530D-03-0.197D-02
 Coeff-Com: -0.103D-03 0.873D-02 0.204D-01-0.193D-01-0.740D-01-0.294D-01
 Coeff-Com:  0.197D+00 0.899D+00
 Coeff:     -0.169D-04 0.365D-04 0.257D-04-0.388D-04-0.530D-03-0.197D-02
 Coeff:     -0.103D-03 0.873D-02 0.204D-01-0.193D-01-0.740D-01-0.294D-01
 Coeff:      0.197D+00 0.899D+00
 Gap=     0.164 Goal=   None    Shift=    0.000
 RMSDP=1.35D-07 MaxDP=1.65D-05 DE=-3.20D-08 OVMax= 8.56D-05

 Cycle  15  Pass 1  IDiag  1:
 RMSU=  7.52D-08    CP:  9.73D-01  1.56D+00  7.13D-01  7.17D-01  1.03D+00
                    CP:  1.25D+00  1.85D+00  2.63D+00  3.00D+00  3.00D+00
                    CP:  2.48D+00  1.85D+00  1.58D+00  1.18D+00
 E= -3007.85077512944     Delta-E=       -0.000000003363 Rises=F Damp=F
 DIIS: error= 2.90D-07 at cycle  15 NSaved=  15.
 NSaved=15 IEnMin=15 EnMin= -3007.85077512944     IErMin=15 ErrMin= 2.90D-07
 ErrMax= 2.90D-07  0.00D+00 EMaxC= 1.00D-01 BMatC= 2.52D-10 BMatP= 6.50D-10
 IDIUse=1 WtCom= 1.00D+00 WtEn= 0.00D+00
 Coeff-Com: -0.459D-04 0.912D-04 0.136D-03 0.191D-03 0.567D-04-0.169D-02
 Coeff-Com: -0.636D-02-0.465D-02 0.260D-01 0.299D-01-0.265D-01-0.983D-01
 Coeff-Com: -0.571D-01 0.442D+00 0.696D+00
 Coeff:     -0.459D-04 0.912D-04 0.136D-03 0.191D-03 0.567D-04-0.169D-02
 Coeff:     -0.636D-02-0.465D-02 0.260D-01 0.299D-01-0.265D-01-0.983D-01
 Coeff:     -0.571D-01 0.442D+00 0.696D+00
 Gap=     0.164 Goal=   None    Shift=    0.000
 RMSDP=3.68D-08 MaxDP=4.08D-06 DE=-3.36D-09 OVMax= 1.87D-05

 Cycle  16  Pass 1  IDiag  1:
 RMSU=  2.77D-08    CP:  9.73D-01  1.56D+00  7.13D-01  7.17D-01  1.03D+00
                    CP:  1.25D+00  1.85D+00  2.63D+00  3.00D+00  3.00D+00
                    CP:  2.50D+00  1.88D+00  1.60D+00  1.25D+00  1.09D+00
 E= -3007.85077513015     Delta-E=       -0.000000000709 Rises=F Damp=F
 DIIS: error= 1.61D-07 at cycle  16 NSaved=  16.
 NSaved=16 IEnMin=16 EnMin= -3007.85077513015     IErMin=16 ErrMin= 1.61D-07
 ErrMax= 1.61D-07  0.00D+00 EMaxC= 1.00D-01 BMatC= 3.72D-11 BMatP= 2.52D-10
 IDIUse=1 WtCom= 1.00D+00 WtEn= 0.00D+00
 Coeff-Com: -0.108D-04 0.208D-04 0.363D-04 0.607D-04 0.128D-03-0.142D-03
 Coeff-Com: -0.200D-02-0.303D-02 0.473D-02 0.113D-01 0.475D-02-0.254D-01
 Coeff-Com: -0.625D-01-0.138D-01 0.224D+00 0.862D+00
 Coeff:     -0.108D-04 0.208D-04 0.363D-04 0.607D-04 0.128D-03-0.142D-03
 Coeff:     -0.200D-02-0.303D-02 0.473D-02 0.113D-01 0.475D-02-0.254D-01
 Coeff:     -0.625D-01-0.138D-01 0.224D+00 0.862D+00
 Gap=     0.164 Goal=   None    Shift=    0.000
 RMSDP=2.36D-08 MaxDP=2.31D-06 DE=-7.09D-10 OVMax= 1.27D-05

 Cycle  17  Pass 1  IDiag  1:
 RMSU=  1.14D-08    CP:  9.73D-01  1.56D+00  7.13D-01  7.17D-01  1.03D+00
                    CP:  1.25D+00  1.85D+00  2.63D+00  3.00D+00  3.00D+00
                    CP:  2.50D+00  1.89D+00  1.62D+00  1.29D+00  1.25D+00
                    CP:  1.31D+00
 E= -3007.85077513038     Delta-E=       -0.000000000229 Rises=F Damp=F
 DIIS: error= 7.71D-08 at cycle  17 NSaved=  17.
 NSaved=17 IEnMin=17 EnMin= -3007.85077513038     IErMin=17 ErrMin= 7.71D-08
 ErrMax= 7.71D-08  0.00D+00 EMaxC= 1.00D-01 BMatC= 1.13D-11 BMatP= 3.72D-11
 IDIUse=1 WtCom= 1.00D+00 WtEn= 0.00D+00
 Coeff-Com:  0.802D-05-0.161D-04-0.234D-04-0.314D-04 0.366D-04 0.386D-03
 Coeff-Com:  0.951D-03 0.376D-03-0.492D-02-0.451D-02 0.931D-02 0.194D-01
 Coeff-Com: -0.923D-02-0.114D+00-0.997D-01 0.270D+00 0.932D+00
 Coeff:      0.802D-05-0.161D-04-0.234D-04-0.314D-04 0.366D-04 0.386D-03
 Coeff:      0.951D-03 0.376D-03-0.492D-02-0.451D-02 0.931D-02 0.194D-01
 Coeff:     -0.923D-02-0.114D+00-0.997D-01 0.270D+00 0.932D+00
 Gap=     0.164 Goal=   None    Shift=    0.000
 RMSDP=1.45D-08 MaxDP=1.06D-06 DE=-2.29D-10 OVMax= 9.09D-06

 Cycle  18  Pass 1  IDiag  1:
 RMSU=  6.17D-09    CP:  9.73D-01  1.56D+00  7.13D-01  7.17D-01  1.03D+00
                    CP:  1.25D+00  1.85D+00  2.63D+00  3.00D+00  3.00D+00
                    CP:  2.51D+00  1.89D+00  1.63D+00  1.31D+00  1.30D+00
                    CP:  1.66D+00  1.60D+00
 E= -3007.85077513044     Delta-E=       -0.000000000062 Rises=F Damp=F
 DIIS: error= 6.12D-08 at cycle  18 NSaved=  18.
 NSaved=18 IEnMin=18 EnMin= -3007.85077513044     IErMin=18 ErrMin= 6.12D-08
 ErrMax= 6.12D-08  0.00D+00 EMaxC= 1.00D-01 BMatC= 4.99D-12 BMatP= 1.13D-11
 IDIUse=1 WtCom= 1.00D+00 WtEn= 0.00D+00
 Coeff-Com:  0.719D-05-0.141D-04-0.234D-04-0.359D-04-0.219D-04 0.224D-03
 Coeff-Com:  0.106D-02 0.126D-02-0.392D-02-0.637D-02 0.276D-02 0.181D-01
 Coeff-Com:  0.142D-01-0.454D-01-0.115D+00-0.172D+00 0.439D+00 0.866D+00
 Coeff:      0.719D-05-0.141D-04-0.234D-04-0.359D-04-0.219D-04 0.224D-03
 Coeff:      0.106D-02 0.126D-02-0.392D-02-0.637D-02 0.276D-02 0.181D-01
 Coeff:      0.142D-01-0.454D-01-0.115D+00-0.172D+00 0.439D+00 0.866D+00
 Gap=     0.164 Goal=   None    Shift=    0.000
 RMSDP=1.04D-08 MaxDP=8.79D-07 DE=-6.18D-11 OVMax= 6.64D-06

 Cycle  19  Pass 1  IDiag  1:
 RMSU=  3.52D-09    CP:  9.73D-01  1.56D+00  7.13D-01  7.17D-01  1.03D+00
                    CP:  1.25D+00  1.85D+00  2.63D+00  3.00D+00  3.00D+00
                    CP:  2.51D+00  1.90D+00  1.63D+00  1.32D+00  1.35D+00
                    CP:  1.84D+00  2.17D+00  1.37D+00
 E= -3007.85077513052     Delta-E=       -0.000000000078 Rises=F Damp=F
 DIIS: error= 3.58D-08 at cycle  19 NSaved=  19.
 NSaved=19 IEnMin=19 EnMin= -3007.85077513052     IErMin=19 ErrMin= 3.58D-08
 ErrMax= 3.58D-08  0.00D+00 EMaxC= 1.00D-01 BMatC= 1.73D-12 BMatP= 4.99D-12
 IDIUse=1 WtCom= 1.00D+00 WtEn= 0.00D+00
 Coeff-Com:  0.471D-06-0.750D-06-0.308D-05-0.627D-05-0.264D-04-0.413D-04
 Coeff-Com:  0.139D-03 0.618D-03 0.153D-04-0.165D-02-0.233D-02 0.185D-02
 Coeff-Com:  0.959D-02 0.219D-01-0.165D-01-0.209D+00-0.136D+00 0.443D+00
 Coeff-Com:  0.888D+00
 Coeff:      0.471D-06-0.750D-06-0.308D-05-0.627D-05-0.264D-04-0.413D-04
 Coeff:      0.139D-03 0.618D-03 0.153D-04-0.165D-02-0.233D-02 0.185D-02
 Coeff:      0.959D-02 0.219D-01-0.165D-01-0.209D+00-0.136D+00 0.443D+00
 Coeff:      0.888D+00
 Gap=     0.164 Goal=   None    Shift=    0.000
 RMSDP=7.28D-09 MaxDP=5.82D-07 DE=-7.82D-11 OVMax= 4.60D-06

 SCF Done:  E(RwB97XD) =  -3007.85077513     A.U. after   19 cycles
            NFock= 19  Conv=0.73D-08     -V/T= 2.0110
 KE= 2.975072071796D+03 PE=-2.585686201707D+04 EE= 1.044153588742D+04
 Leave Link  502 at Wed May  4 13:24:13 2022, MaxMem= 10066329600 cpu:            9082.2 elap:             397.2
 (Enter /sw/apps/gaussian-16.0/g16/l801.exe)
 DoSCS=F DFT=T ScalE2(SS,OS)=  1.000000  1.000000
 ExpMin= 3.36D-02 ExpMax= 4.95D+03 ExpMxC= 7.45D+02 IAcc=3 IRadAn=         5 AccDes= 0.00D+00
 HarFok:  IExCor=  205 AccDes= 0.00D+00 IRadAn=         5 IDoV=-2 UseB2=F ITyADJ=14
 ICtDFT= 12500011 ScaDFX=  1.000000  1.000000  1.000000  1.000000
 GSVD:  LWork=       -5460 too small for GESVD, short by       25550 words or       25550 for optimal perf.
 Largest valence mixing into a core orbital is  2.01D-04
 Largest core mixing into a valence orbital is  5.72D-05
 Range of M.O.s used for correlation:    71  1298
 NBasis=  1298 NAE=   246 NBE=   246 NFC=    70 NFV=     0
 NROrb=   1228 NOA=   176 NOB=   176 NVA=  1052 NVB=  1052
 Leave Link  801 at Wed May  4 13:24:13 2022, MaxMem= 10066329600 cpu:               6.5 elap:               0.3
 (Enter /sw/apps/gaussian-16.0/g16/l914.exe)
 RHF ground state
 Two-electron integrals replicated using symmetry.
 MDV= 10066329600 DFT=T DoStab=F Mixed=T DoRPA=T DoScal=F NonHer=T
 Making orbital integer symmetry assigments:
 Orbital symmetries:
       Occupied  (A) (A) (A) (A) (A) (A) (A) (A) (A) (A) (A) (A)
                 (A) (A) (A) (A) (A) (A) (A) (A) (A) (A) (A) (A)
                 (A) (A) (A) (A) (A) (A) (A) (A) (A) (A) (A) (A)
                 (A) (A) (A) (A) (A) (A) (A) (A) (A) (A) (A) (A)
                 (A) (A) (A) (A) (A) (A) (A) (A) (A) (A) (A) (A)
                 (A) (A) (A) (A) (A) (A) (A) (A) (A) (A) (A) (A)
                 (A) (A) (A) (A) (A) (A) (A) (A) (A) (A) (A) (A)
                 (A) (A) (A) (A) (A) (A) (A) (A) (A) (A) (A) (A)
                 (A) (A) (A) (A) (A) (A) (A) (A) (A) (A) (A) (A)
                 (A) (A) (A) (A) (A) (A) (A) (A) (A) (A) (A) (A)
                 (A) (A) (A) (A) (A) (A) (A) (A) (A) (A) (A) (A)
                 (A) (A) (A) (A) (A) (A) (A) (A) (A) (A) (A) (A)
                 (A) (A) (A) (A) (A) (A) (A) (A) (A) (A) (A) (A)
                 (A) (A) (A) (A) (A) (A) (A) (A) (A) (A) (A) (A)
                 (A) (A) (A) (A) (A) (A) (A) (A) (A) (A) (A) (A)
                 (A) (A) (A) (A) (A) (A) (A) (A) (A) (A) (A) (A)
                 (A) (A) (A) (A) (A) (A) (A) (A) (A) (A) (A) (A)
                 (A) (A) (A) (A) (A) (A) (A) (A) (A) (A) (A) (A)
                 (A) (A) (A) (A) (A) (A) (A) (A) (A) (A) (A) (A)
                 (A) (A) (A) (A) (A) (A) (A) (A) (A) (A) (A) (A)
                 (A) (A) (A) (A) (A) (A)
       Virtual   (A) (A) (A) (A) (A) (A) (A) (A) (A) (A) (A) (A)
                 (A) (A) (A) (A) (A) (A) (A) (A) (A) (A) (A) (A)
                 (A) (A) (A) (A) (A) (A) (A) (A) (A) (A) (A) (A)
                 (A) (A) (A) (A) (A) (A) (A) (A) (A) (A) (A) (A)
                 (A) (A) (A) (A) (A) (A) (A) (A) (A) (A) (A) (A)
                 (A) (A) (A) (A) (A) (A) (A) (A) (A) (A) (A) (A)
                 (A) (A) (A) (A) (A) (A) (A) (A) (A) (A) (A) (A)
                 (A) (A) (A) (A) (A) (A) (A) (A) (A) (A) (A) (A)
                 (A) (A) (A) (A) (A) (A) (A) (A) (A) (A) (A) (A)
                 (A) (A) (A) (A) (A) (A) (A) (A) (A) (A) (A) (A)
                 (A) (A) (A) (A) (A) (A) (A) (A) (A) (A) (A) (A)
                 (A) (A) (A) (A) (A) (A) (A) (A) (A) (A) (A) (A)
                 (A) (A) (A) (A) (A) (A) (A) (A) (A) (A) (A) (A)
                 (A) (A) (A) (A) (A) (A) (A) (A) (A) (A) (A) (A)
                 (A) (A) (A) (A) (A) (A) (A) (A) (A) (A) (A) (A)
                 (A) (A) (A) (A) (A) (A) (A) (A) (A) (A) (A) (A)
                 (A) (A) (A) (A) (A) (A) (A) (A) (A) (A) (A) (A)
                 (A) (A) (A) (A) (A) (A) (A) (A) (A) (A) (A) (A)
                 (A) (A) (A) (A) (A) (A) (A) (A) (A) (A) (A) (A)
                 (A) (A) (A) (A) (A) (A) (A) (A) (A) (A) (A) (A)
                 (A) (A) (A) (A) (A) (A) (A) (A) (A) (A) (A) (A)
                 (A) (A) (A) (A) (A) (A) (A) (A) (A) (A) (A) (A)
                 (A) (A) (A) (A) (A) (A) (A) (A) (A) (A) (A) (A)
                 (A) (A) (A) (A) (A) (A) (A) (A) (A) (A) (A) (A)
                 (A) (A) (A) (A) (A) (A) (A) (A) (A) (A) (A) (A)
                 (A) (A) (A) (A) (A) (A) (A) (A) (A) (A) (A) (A)
                 (A) (A) (A) (A) (A) (A) (A) (A) (A) (A) (A) (A)
                 (A) (A) (A) (A) (A) (A) (A) (A) (A) (A) (A) (A)
                 (A) (A) (A) (A) (A) (A) (A) (A) (A) (A) (A) (A)
                 (A) (A) (A) (A) (A) (A) (A) (A) (A) (A) (A) (A)
                 (A) (A) (A) (A) (A) (A) (A) (A) (A) (A) (A) (A)
                 (A) (A) (A) (A) (A) (A) (A) (A) (A) (A) (A) (A)
                 (A) (A) (A) (A) (A) (A) (A) (A) (A) (A) (A) (A)
                 (A) (A) (A) (A) (A) (A) (A) (A) (A) (A) (A) (A)
                 (A) (A) (A) (A) (A) (A) (A) (A) (A) (A) (A) (A)
                 (A) (A) (A) (A) (A) (A) (A) (A) (A) (A) (A) (A)
                 (A) (A) (A) (A) (A) (A) (A) (A) (A) (A) (A) (A)
                 (A) (A) (A) (A) (A) (A) (A) (A) (A) (A) (A) (A)
                 (A) (A) (A) (A) (A) (A) (A) (A) (A) (A) (A) (A)
                 (A) (A) (A) (A) (A) (A) (A) (A) (A) (A) (A) (A)
                 (A) (A) (A) (A) (A) (A) (A) (A) (A) (A) (A) (A)
                 (A) (A) (A) (A) (A) (A) (A) (A) (A) (A) (A) (A)
                 (A) (A) (A) (A) (A) (A) (A) (A) (A) (A) (A) (A)
                 (A) (A) (A) (A) (A) (A) (A) (A) (A) (A) (A) (A)
                 (A) (A) (A) (A) (A) (A) (A) (A) (A) (A) (A) (A)
                 (A) (A) (A) (A) (A) (A) (A) (A) (A) (A) (A) (A)
                 (A) (A) (A) (A) (A) (A) (A) (A) (A) (A) (A) (A)
                 (A) (A) (A) (A) (A) (A) (A) (A) (A) (A) (A) (A)
                 (A) (A) (A) (A) (A) (A) (A) (A) (A) (A) (A) (A)
                 (A) (A) (A) (A) (A) (A) (A) (A) (A) (A) (A) (A)
                 (A) (A) (A) (A) (A) (A) (A) (A) (A) (A) (A) (A)
                 (A) (A) (A) (A) (A) (A) (A) (A) (A) (A) (A) (A)
                 (A) (A) (A) (A) (A) (A) (A) (A) (A) (A) (A) (A)
                 (A) (A) (A) (A) (A) (A) (A) (A) (A) (A) (A) (A)
                 (A) (A) (A) (A) (A) (A) (A) (A) (A) (A) (A) (A)
                 (A) (A) (A) (A) (A) (A) (A) (A) (A) (A) (A) (A)
                 (A) (A) (A) (A) (A) (A) (A) (A) (A) (A) (A) (A)
                 (A) (A) (A) (A) (A) (A) (A) (A) (A) (A) (A) (A)
                 (A) (A) (A) (A) (A) (A) (A) (A) (A) (A) (A) (A)
                 (A) (A) (A) (A) (A) (A) (A) (A) (A) (A) (A) (A)
                 (A) (A) (A) (A) (A) (A) (A) (A) (A) (A) (A) (A)
                 (A) (A) (A) (A) (A) (A) (A) (A) (A) (A) (A) (A)
                 (A) (A) (A) (A) (A) (A) (A) (A) (A) (A) (A) (A)
                 (A) (A) (A) (A) (A) (A) (A) (A) (A) (A) (A) (A)
                 (A) (A) (A) (A) (A) (A) (A) (A) (A) (A) (A) (A)
                 (A) (A) (A) (A) (A) (A) (A) (A) (A) (A) (A) (A)
                 (A) (A) (A) (A) (A) (A) (A) (A) (A) (A) (A) (A)
                 (A) (A) (A) (A) (A) (A) (A) (A) (A) (A) (A) (A)
                 (A) (A) (A) (A) (A) (A) (A) (A) (A) (A) (A) (A)
                 (A) (A) (A) (A) (A) (A) (A) (A) (A) (A) (A) (A)
                 (A) (A) (A) (A) (A) (A) (A) (A) (A) (A) (A) (A)
                 (A) (A) (A) (A) (A) (A) (A) (A) (A) (A) (A) (A)
                 (A) (A) (A) (A) (A) (A) (A) (A) (A) (A) (A) (A)
                 (A) (A) (A) (A) (A) (A) (A) (A) (A) (A) (A) (A)
                 (A) (A) (A) (A) (A) (A) (A) (A) (A) (A) (A) (A)
                 (A) (A) (A) (A) (A) (A) (A) (A) (A) (A) (A) (A)
                 (A) (A) (A) (A) (A) (A) (A) (A) (A) (A) (A) (A)
                 (A) (A) (A) (A) (A) (A) (A) (A) (A) (A) (A) (A)
                 (A) (A) (A) (A) (A) (A) (A) (A) (A) (A) (A) (A)
                 (A) (A) (A) (A) (A) (A) (A) (A) (A) (A) (A) (A)
                 (A) (A) (A) (A) (A) (A) (A) (A) (A) (A) (A) (A)
                 (A) (A) (A) (A) (A) (A) (A) (A) (A) (A) (A) (A)
                 (A) (A) (A) (A) (A) (A) (A) (A) (A) (A) (A) (A)
                 (A) (A) (A) (A) (A) (A) (A) (A) (A) (A) (A) (A)
                 (A) (A) (A) (A) (A) (A) (A) (A) (A) (A) (A) (A)
                 (A) (A) (A) (A) (A) (A) (A) (A) (A) (A) (A) (A)
                 (A) (A) (A) (A) (A) (A) (A) (A) (A) (A) (A) (A)
                 (A) (A) (A) (A) (A) (A) (A) (A)
    20 initial guesses have been made.
 Convergence on wavefunction:    0.001000000000000
 Davidson Disk Diagonalization:  ConvIn= 1.00D-03 SkipCon=T Conv= 1.00D-03.
 Max sub-space:  2000 roots to seek:    20 dimension of matrix:       370304
 Iteration     1 Dimension    20 NMult     0 NNew     20
 CISAX will form    20 AO SS matrices at one time.
 NMat=    20 NSing=    20 JSym2X= 0.
 FoFJK:  IHMeth= 1 ICntrl=       0 DoSepK=T KAlg= 0 I1Cent=           0 FoldK=F
 IRaf=         1 NMat=      40 IRICut=       1 DoRegI=T DoRafI=F ISym2E= 0 IDoP0=3 IntGTp=3.
 FoFCou: FMM=T IPFlag=           0 FMFlag=      100000 FMFlg1=        2001
         NFxFlg=           0 DoJE=F BraDBF=F KetDBF=F FulRan=T
         wScrn=  0.000000 ICntrl=       500 IOpCl=  0 I1Cent=           0 NGrid=           0
         NMat0=   20 NMatS0=     20 NMatT0=    0 NMatD0=   20 NMtDS0=    0 NMtDT0=    0
 Symmetry not used in FoFCou.
 FMM levels:  10  Number of levels for PrismC:   9
 New state      3 was old state      4
 New state      4 was old state      3
 New state      5 was old state     10
 Excitation Energies [eV] at current iteration:
 Root      1 :     2.260797053279089
 Root      2 :     2.647374639431336
 Root      3 :     3.971978536986404
 Root      4 :     4.114335245178809
 Root      5 :     4.357230659124706
 Root      6 :     4.373637283783138
 Root      7 :     4.397602319089754
 Root      8 :     4.470358594804050
 Root      9 :     4.631405182578479
 Root     10 :     4.879589517197182
 Root     11 :     4.920387216261116
 Root     12 :     4.933987096621404
 Root     13 :     5.073647421943555
 Root     14 :     5.132714948928061
 Root     15 :     5.335510429405510
 Root     16 :     5.575806575992432
 Root     17 :     5.708427842001979
 Root     18 :     5.891880330174090
 Root     19 :     6.635825412477746
 Root     20 :     6.903972240416209
 Iteration     2 Dimension    30 NMult    20 NNew     10
 CISAX will form    10 AO SS matrices at one time.
 NMat=    10 NSing=    10 JSym2X= 0.
 Root      1 not converged, maximum delta is    0.065135091481960
 Root      2 not converged, maximum delta is    0.057556407684434
 New state      3 was old state      4
 Root      3 not converged, maximum delta is    0.187111413694362
 New state      4 was old state      3
 Root      4 not converged, maximum delta is    0.115533765379289
 Root      5 not converged, maximum delta is    0.219923110890960
 Excitation Energies [eV] at current iteration:
 Root      1 :     1.806763522914187   Change is   -0.454033530364903
 Root      2 :     2.239000453997043   Change is   -0.408374185434293
 Root      3 :     3.534394966382282   Change is   -0.579940278796528
 Root      4 :     3.635560778537516   Change is   -0.336417758448888
 Root      5 :     3.846297522123190   Change is   -0.510933137001517
 Iteration     3 Dimension    40 NMult    30 NNew     10
 CISAX will form    10 AO SS matrices at one time.
 NMat=    10 NSing=    10 JSym2X= 0.
 Root      1 not converged, maximum delta is    0.017619368734090
 Root      2 not converged, maximum delta is    0.007804597553449
 Root      3 not converged, maximum delta is    0.053221386018718
 New state      4 was old state      5
 Root      4 not converged, maximum delta is    0.180342665796600
 New state      5 was old state      4
 Root      5 not converged, maximum delta is    0.071611753480592
 Excitation Energies [eV] at current iteration:
 Root      1 :     1.772569883436614   Change is   -0.034193639477572
 Root      2 :     2.221669987186190   Change is   -0.017330466810852
 Root      3 :     3.489405635216723   Change is   -0.044989331165558
 Root      4 :     3.590548083010758   Change is   -0.255749439112432
 Root      5 :     3.616550002392400   Change is   -0.019010776145116
 Iteration     4 Dimension    50 NMult    40 NNew     10
 CISAX will form    10 AO SS matrices at one time.
 NMat=    10 NSing=    10 JSym2X= 0.
 Root      1 not converged, maximum delta is    0.003068323907294
 Root      2 not converged, maximum delta is    0.004834460131021
 Root      3 not converged, maximum delta is    0.086509364747395
 Root      4 not converged, maximum delta is    0.139833667972494
 Root      5 not converged, maximum delta is    0.068103642922404
 Excitation Energies [eV] at current iteration:
 Root      1 :     1.768848917509189   Change is   -0.003720965927425
 Root      2 :     2.219149822421858   Change is   -0.002520164764332
 Root      3 :     3.479212703848853   Change is   -0.010192931367869
 Root      4 :     3.511424614947901   Change is   -0.079123468062857
 Root      5 :     3.609241501438098   Change is   -0.007308500954302
 Iteration     5 Dimension    60 NMult    50 NNew     10
 CISAX will form    10 AO SS matrices at one time.
 NMat=    10 NSing=    10 JSym2X= 0.
 Root      1 not converged, maximum delta is    0.001161823118696
 Root      2 not converged, maximum delta is    0.001012707448903
 Root      3 not converged, maximum delta is    0.030486602436681
 Root      4 not converged, maximum delta is    0.038014250395071
 Root      5 not converged, maximum delta is    0.019169560201312
 Excitation Energies [eV] at current iteration:
 Root      1 :     1.768511643557286   Change is   -0.000337273951903
 Root      2 :     2.218908088042898   Change is   -0.000241734378960
 Root      3 :     3.477087826162474   Change is   -0.002124877686380
 Root      4 :     3.503818158389851   Change is   -0.007606456558049
 Root      5 :     3.606953724508595   Change is   -0.002287776929503
 Iteration     6 Dimension    70 NMult    60 NNew     10
 CISAX will form    10 AO SS matrices at one time.
 NMat=    10 NSing=    10 JSym2X= 0.
 Root      1 has converged.
 Root      2 has converged.
 Root      3 not converged, maximum delta is    0.018249520946497
 Root      4 not converged, maximum delta is    0.007927965120254
 Root      5 not converged, maximum delta is    0.066637749080504
 Excitation Energies [eV] at current iteration:
 Root      1 :     1.768480395387017   Change is   -0.000031248170269
 Root      2 :     2.218883923947836   Change is   -0.000024164095062
 Root      3 :     3.476151255012133   Change is   -0.000936571150340
 Root      4 :     3.502763811269553   Change is   -0.001054347120298
 Root      5 :     3.603375471665471   Change is   -0.003578252843124
 Iteration     7 Dimension    76 NMult    70 NNew      6
 CISAX will form     6 AO SS matrices at one time.
 NMat=     6 NSing=     6 JSym2X= 0.
 Root      1 has converged.
 Root      2 has converged.
 Root      3 not converged, maximum delta is    0.013212649682669
 Root      4 not converged, maximum delta is    0.001579316831920
 Root      5 not converged, maximum delta is    0.110872021822428
 Excitation Energies [eV] at current iteration:
 Root      1 :     1.768480153624591   Change is   -0.000000241762427
 Root      2 :     2.218883392538409   Change is   -0.000000531409427
 Root      3 :     3.475718733567219   Change is   -0.000432521444915
 Root      4 :     3.502629138272347   Change is   -0.000134672997206
 Root      5 :     3.597560795640962   Change is   -0.005814676024509
 Iteration     8 Dimension    82 NMult    76 NNew      6
 CISAX will form     6 AO SS matrices at one time.
 NMat=     6 NSing=     6 JSym2X= 0.
 Root      1 has converged.
 Root      2 has converged.
 Root      3 not converged, maximum delta is    0.002638480672768
 Root      4 has converged.
 Root      5 not converged, maximum delta is    0.034874380406945
 Excitation Energies [eV] at current iteration:
 Root      1 :     1.768479862014013   Change is   -0.000000291610578
 Root      2 :     2.218883315966289   Change is   -0.000000076572120
 Root      3 :     3.475638689709891   Change is   -0.000080043857328
 Root      4 :     3.502610943929489   Change is   -0.000018194342858
 Root      5 :     3.595494481417465   Change is   -0.002066314223496
 Iteration     9 Dimension    86 NMult    82 NNew      4
 CISAX will form     4 AO SS matrices at one time.
 NMat=     4 NSing=     4 JSym2X= 0.
 Root      1 has converged.
 Root      2 has converged.
 Root      3 has converged.
 Root      4 has converged.
 Root      5 not converged, maximum delta is    0.005841492964620
 Excitation Energies [eV] at current iteration:
 Root      1 :     1.768479830462562   Change is   -0.000000031551451
 Root      2 :     2.218883299733989   Change is   -0.000000016232300
 Root      3 :     3.475626678663339   Change is   -0.000012011046553
 Root      4 :     3.502610270250373   Change is   -0.000000673679116
 Root      5 :     3.595127836516779   Change is   -0.000366644900687
 Iteration    10 Dimension    88 NMult    86 NNew      2
 CISAX will form     2 AO SS matrices at one time.
 NMat=     2 NSing=     2 JSym2X= 0.
 Root      1 has converged.
 Root      2 has converged.
 Root      3 has converged.
 Root      4 has converged.
 Root      5 not converged, maximum delta is    0.001328630941652
 Excitation Energies [eV] at current iteration:
 Root      1 :     1.768479806973071   Change is   -0.000000023489491
 Root      2 :     2.218883298881935   Change is   -0.000000000852054
 Root      3 :     3.475625140311296   Change is   -0.000001538352043
 Root      4 :     3.502610195973238   Change is   -0.000000074277135
 Root      5 :     3.595060565501627   Change is   -0.000067271015152
 Iteration    11 Dimension    90 NMult    88 NNew      2
 CISAX will form     2 AO SS matrices at one time.
 NMat=     2 NSing=     2 JSym2X= 0.
 Root      1 has converged.
 Root      2 has converged.
 Root      3 has converged.
 Root      4 has converged.
 Root      5 has converged.
 Excitation Energies [eV] at current iteration:
 Root      1 :     1.768479778355743   Change is   -0.000000028617328
 Root      2 :     2.218883297201834   Change is   -0.000000001680100
 Root      3 :     3.475624900402394   Change is   -0.000000239908902
 Root      4 :     3.502610182834109   Change is   -0.000000013139129
 Root      5 :     3.595048347701197   Change is   -0.000012217800430
 Convergence achieved on expansion vectors.
 ***********************************************************************
 Excited states from <AA,BB:AA,BB> singles matrix:
 ***********************************************************************
 
 1PDM for each excited state written to RWF  633
 Ground to excited state transition densities written to RWF  633
 Ground to excited state transition electric dipole moments (Au):
       state          X           Y           Z        Dip. S.      Osc.
         1         1.8875     -2.1470      0.1592      8.1977      0.3552
         2        -0.8351     -0.9423     -0.2164      1.6322      0.0887
         3        -1.7752     -1.7296     -0.2337      6.1974      0.5277
         4        -0.8314     -0.7548     -0.1254      1.2767      0.1096
         5        -0.0552      0.0058      0.0737      0.0085      0.0008
 Ground to excited state transition velocity dipole moments (Au):
       state          X           Y           Z        Dip. S.      Osc.
         1        -0.1186      0.1354     -0.0108      0.0325      0.3334
         2         0.0647      0.0719      0.0168      0.0096      0.0788
         3         0.2177      0.2143      0.0293      0.0942      0.4917
         4         0.1046      0.0945      0.0149      0.0201      0.1040
         5         0.0039     -0.0015     -0.0083      0.0001      0.0004
 Ground to excited state transition magnetic dipole moments (Au):
       state          X           Y           Z
         1        -0.1123      0.0689      1.5159
         2         0.1703     -0.1441     -0.5818
         3        -0.1512     -0.7187      2.2609
         4         0.5945      0.2796      1.0176
         5         0.3199     -0.2222     -1.0220
 Ground to excited state transition velocity quadrupole moments (Au):
       state          XX          YY          ZZ          XY          XZ          YZ
         1        -2.2270      0.5946     -0.0015      1.0095     -0.0207     -0.1626
         2         1.1397      0.2542     -0.0110      0.8194      0.1987      0.0003
         3         3.6080      0.6663     -0.0096      2.4667      0.4736      0.1894
         4         1.7885      0.2731     -0.0287      1.0745      0.2238      0.1330
[...]
 Alpha virt. eigenvalues --    1.26251   1.26800   1.27451   1.27691   1.27976
 Alpha virt. eigenvalues --    1.28144   1.28912   1.29562   1.29876   1.30132
 Alpha virt. eigenvalues --    1.31003   1.31441   1.31734   1.32025   1.32480
 Alpha virt. eigenvalues --    1.33704   1.33935   1.34468   1.34894   1.35059
 Alpha virt. eigenvalues --    1.35472   1.35577   1.36118   1.36409   1.36870
 Alpha virt. eigenvalues --    1.37496   1.37674   1.38083   1.38270   1.39573
 Alpha virt. eigenvalues --    1.40096   1.40245   1.40266   1.40824   1.40922
 Alpha virt. eigenvalues --    1.40959   1.42047   1.42566   1.42972   1.43503
 Alpha virt. eigenvalues --    1.43691   1.43972   1.44367   1.44903   1.44995
 Alpha virt. eigenvalues --    1.45762   1.45983   1.46302   1.46554   1.47312
 Alpha virt. eigenvalues --    1.47557   1.48099   1.48518   1.48667   1.49000
 Alpha virt. eigenvalues --    1.49466   1.49677   1.50239   1.51400   1.51698
 Alpha virt. eigenvalues --    1.52118   1.52320   1.53084   1.53282   1.54125
 Alpha virt. eigenvalues --    1.54272   1.55321   1.55811   1.56081   1.56419
 Alpha virt. eigenvalues --    1.57042   1.57424   1.57820   1.57977   1.58382
 Alpha virt. eigenvalues --    1.58738   1.59444   1.59960   1.60224   1.60639
 Alpha virt. eigenvalues --    1.60892   1.61085   1.61287   1.61776   1.61851
 Alpha virt. eigenvalues --    1.62078   1.62443   1.62522   1.62666   1.62923
 Alpha virt. eigenvalues --    1.63221   1.63311   1.63385   1.63423   1.63973
 Alpha virt. eigenvalues --    1.64032   1.64513   1.64610   1.64770   1.64852
 Alpha virt. eigenvalues --    1.65024   1.65417   1.65652   1.66339   1.67192
 Alpha virt. eigenvalues --    1.67396   1.67411   1.67891   1.68195   1.68837
 Alpha virt. eigenvalues --    1.68907   1.69184   1.69205   1.69595   1.70087
 Alpha virt. eigenvalues --    1.70405   1.71218   1.72242   1.72492   1.73031
 Alpha virt. eigenvalues --    1.73527   1.74011   1.74198   1.74415   1.75027
 Alpha virt. eigenvalues --    1.75825   1.75907   1.76579   1.76696   1.77289
 Alpha virt. eigenvalues --    1.77333   1.77517   1.78015   1.78537   1.78821
 Alpha virt. eigenvalues --    1.79119   1.79635   1.79792   1.80127   1.80550
 Alpha virt. eigenvalues --    1.80926   1.81058   1.81213   1.81665   1.81825
 Alpha virt. eigenvalues --    1.81927   1.82127   1.82543   1.82598   1.82696
 Alpha virt. eigenvalues --    1.82817   1.83069   1.83180   1.83387   1.83496
 Alpha virt. eigenvalues --    1.83885   1.83986   1.84533   1.84964   1.85110
 Alpha virt. eigenvalues --    1.85298   1.85491   1.85612   1.86032   1.86372
 Alpha virt. eigenvalues --    1.86455   1.86547   1.86843   1.86963   1.87049
 Alpha virt. eigenvalues --    1.87262   1.87504   1.87604   1.87844   1.87953
 Alpha virt. eigenvalues --    1.88132   1.88341   1.88622   1.88794   1.88930
 Alpha virt. eigenvalues --    1.89178   1.89353   1.89578   1.89602   1.90038
 Alpha virt. eigenvalues --    1.90424   1.90517   1.90707   1.90815   1.91251
 Alpha virt. eigenvalues --    1.91432   1.91697   1.91784   1.91838   1.92003
 Alpha virt. eigenvalues --    1.92064   1.92478   1.92613   1.93007   1.93183
 Alpha virt. eigenvalues --    1.93359   1.93448   1.93702   1.93832   1.94094
 Alpha virt. eigenvalues --    1.94254   1.94321   1.94564   1.95018   1.95147
 Alpha virt. eigenvalues --    1.95490   1.95847   1.96028   1.96203   1.96268
 Alpha virt. eigenvalues --    1.96626   1.96779   1.96955   1.97218   1.97798
 Alpha virt. eigenvalues --    1.97923   1.98161   1.98337   1.98620   1.98724
 Alpha virt. eigenvalues --    1.99175   1.99231   1.99276   1.99409   1.99666
 Alpha virt. eigenvalues --    1.99968   2.00172   2.00500   2.00713   2.00981
 Alpha virt. eigenvalues --    2.01205   2.01486   2.01799   2.02268   2.02378
 Alpha virt. eigenvalues --    2.02787   2.03157   2.03533   2.03721   2.04242
 Alpha virt. eigenvalues --    2.04260   2.04345   2.04578   2.04870   2.05353
 Alpha virt. eigenvalues --    2.05931   2.06051   2.06221   2.06765   2.07054
 Alpha virt. eigenvalues --    2.07366   2.07601   2.07773   2.08013   2.08176
 Alpha virt. eigenvalues --    2.08640   2.08799   2.09299   2.09505   2.09722
 Alpha virt. eigenvalues --    2.10027   2.10201   2.10526   2.10762   2.11027
 Alpha virt. eigenvalues --    2.11496   2.11593   2.11684   2.12002   2.12482
 Alpha virt. eigenvalues --    2.12638   2.12751   2.13003   2.13334   2.13914
 Alpha virt. eigenvalues --    2.14564   2.15173   2.15442   2.15865   2.16301
 Alpha virt. eigenvalues --    2.16423   2.16628   2.17243   2.17636   2.18040
 Alpha virt. eigenvalues --    2.18217   2.18690   2.18814   2.19127   2.19346
 Alpha virt. eigenvalues --    2.19977   2.20336   2.20530   2.20830   2.20882
 Alpha virt. eigenvalues --    2.20942   2.20970   2.21352   2.21724   2.21822
 Alpha virt. eigenvalues --    2.22465   2.22934   2.23087   2.23804   2.23955
 Alpha virt. eigenvalues --    2.24262   2.24420   2.25082   2.25290   2.25983
 Alpha virt. eigenvalues --    2.26092   2.26624   2.27058   2.27658   2.28015
 Alpha virt. eigenvalues --    2.28208   2.29049   2.29538   2.29750   2.30589
 Alpha virt. eigenvalues --    2.30840   2.30980   2.31249   2.32333   2.32793
 Alpha virt. eigenvalues --    2.32977   2.33156   2.33751   2.33935   2.34401
 Alpha virt. eigenvalues --    2.34907   2.35432   2.35809   2.35961   2.36253
 Alpha virt. eigenvalues --    2.36749   2.37090   2.37198   2.37859   2.38080
 Alpha virt. eigenvalues --    2.38198   2.38654   2.38864   2.39340   2.39635
 Alpha virt. eigenvalues --    2.40115   2.40393   2.41300   2.41910   2.42081
 Alpha virt. eigenvalues --    2.42125   2.42257   2.43011   2.43259   2.43413
 Alpha virt. eigenvalues --    2.43556   2.43633   2.44371   2.44717   2.44871
 Alpha virt. eigenvalues --    2.45480   2.45748   2.46278   2.46536   2.46795
 Alpha virt. eigenvalues --    2.47479   2.47664   2.48230   2.48800   2.48850
 Alpha virt. eigenvalues --    2.49436   2.49672   2.49944   2.50480   2.50791
 Alpha virt. eigenvalues --    2.51401   2.51739   2.52331   2.52637   2.53445
 Alpha virt. eigenvalues --    2.53636   2.54011   2.54083   2.54638   2.54866
 Alpha virt. eigenvalues --    2.54983   2.55662   2.56056   2.56369   2.56917
 Alpha virt. eigenvalues --    2.56980   2.57179   2.57733   2.57816   2.57870
 Alpha virt. eigenvalues --    2.59089   2.59597   2.59686   2.61223   2.61537
 Alpha virt. eigenvalues --    2.61856   2.61949   2.62644   2.63181   2.63854
 Alpha virt. eigenvalues --    2.63967   2.64282   2.64554   2.65066   2.65520
 Alpha virt. eigenvalues --    2.65640   2.65702   2.66189   2.66931   2.67413
 Alpha virt. eigenvalues --    2.67752   2.67825   2.68209   2.68412   2.68696
 Alpha virt. eigenvalues --    2.68901   2.69356   2.69937   2.70313   2.70474
 Alpha virt. eigenvalues --    2.70892   2.71311   2.71339   2.72011   2.72118
 Alpha virt. eigenvalues --    2.72501   2.72871   2.73160   2.73791   2.74396
 Alpha virt. eigenvalues --    2.74655   2.75769   2.76008   2.76648   2.76926
 Alpha virt. eigenvalues --    2.77452   2.77818   2.78328   2.78570   2.78781
 Alpha virt. eigenvalues --    2.78920   2.79463   2.80095   2.80292   2.80299
 Alpha virt. eigenvalues --    2.80965   2.81894   2.82320   2.82399   2.82947
 Alpha virt. eigenvalues --    2.83378   2.84302   2.84690   2.85143   2.85714
 Alpha virt. eigenvalues --    2.86038   2.86454   2.87308   2.87405   2.88037
 Alpha virt. eigenvalues --    2.88599   2.88977   2.89167   2.90193   2.90666
 Alpha virt. eigenvalues --    2.90705   2.91196   2.91906   2.91924   2.92699
 Alpha virt. eigenvalues --    2.93122   2.93466   2.93649   2.94364   2.95279
 Alpha virt. eigenvalues --    2.95812   2.96389   2.97445   2.97578   2.97697
 Alpha virt. eigenvalues --    2.97914   2.98237   2.98686   2.98727   2.98846
 Alpha virt. eigenvalues --    2.99589   2.99871   3.00158   3.00550   3.00636
 Alpha virt. eigenvalues --    3.00936   3.01433   3.01844   3.01932   3.02083
 Alpha virt. eigenvalues --    3.02211   3.02654   3.02751   3.03353   3.03644
 Alpha virt. eigenvalues --    3.03750   3.04000   3.04446   3.04833   3.04965
 Alpha virt. eigenvalues --    3.05206   3.05511   3.05802   3.06097   3.06348
 Alpha virt. eigenvalues --    3.06486   3.07043   3.07248   3.07280   3.07874
 Alpha virt. eigenvalues --    3.08530   3.09049   3.09231   3.09543   3.09983
 Alpha virt. eigenvalues --    3.10191   3.10627   3.10690   3.11119   3.11628
 Alpha virt. eigenvalues --    3.11960   3.12642   3.12997   3.13042   3.13296
 Alpha virt. eigenvalues --    3.13882   3.14624   3.14669   3.15181   3.15201
 Alpha virt. eigenvalues --    3.16005   3.16330   3.16976   3.17850   3.18146
 Alpha virt. eigenvalues --    3.18558   3.19013   3.19757   3.21410   3.21682
 Alpha virt. eigenvalues --    3.22438   3.22930   3.23504   3.23875   3.24149
 Alpha virt. eigenvalues --    3.26040   3.26108   3.27305   3.27576   3.31545
 Alpha virt. eigenvalues --    3.34191   3.34748   3.39440   3.41191   3.42336
 Alpha virt. eigenvalues --    3.45425   3.48591   3.52841   3.53356   3.55249
 Alpha virt. eigenvalues --    3.63231   3.65826   3.66323   3.66784   3.70606
 Alpha virt. eigenvalues --    3.71763   3.76230
          Condensed to atoms (all electrons):
 Mulliken charges:
               1
     1  Mg   0.983302
     2  C   -0.009246
     3  C   -0.091871
     4  C   -0.056919
     5  C   -0.069138
     6  N   -0.297647
     7  C   -0.040607
     8  C   -0.077816
     9  C   -0.135248
    10  C    0.028961
    11  C    0.022759
    12  C    0.059821
    13  C    0.033083
    14  C    0.217662
    15  O   -0.263019
    16  O   -0.349502
    17  N   -0.512055
    18  C    0.199287
    19  C   -0.187428
    20  C   -0.060550
    21  C    0.148297
    22  C    0.074475
    23  C    0.072915
    24  O   -0.271891
    25  C    0.025542
    26  N   -0.343815
    27  C    0.039621
    28  C   -0.067327
    29  C   -0.076380
    30  C    0.053073
    31  C    0.036526
    32  C   -0.043525
    33  C   -0.048536
    34  N   -0.456963
    35  C    0.116621
    36  C   -0.215384
    37  C   -0.009554
    38  C    0.138733
    39  C    0.076260
    40  C    0.144293
    41  O   -0.228602
    42  C   -0.087690
    43  C    0.253705
    44  O   -0.285612
    45  O   -0.356119
    46  C    0.124935
    47  C    0.239722
    48  C   -0.141976
    49  C   -0.181615
    50  C    0.004829
    51  C    0.069300
    52  C   -0.019249
    53  C   -0.003005
    54  C   -0.164637
    55  C   -0.008841
    56  C    0.000939
    57  C   -0.013009
    58  C   -0.018099
    59  C   -0.160960
    60  C    0.019574
    61  C    0.010243
    62  C   -0.059053
    63  C   -0.005646
    64  C   -0.223825
    65  C   -0.021695
    66  C    0.017706
    67  H   -0.003961
    68  H    0.027980
    69  H   -0.002996
    70  H    0.047915
    71  H    0.033291
    72  H    0.044795
    73  H    0.045077
    74  H    0.045121
    75  H    0.038566
    76  H    0.034397
    77  H    0.058105
    78  H    0.044615
    79  H    0.053688
    80  H    0.047189
    81  H    0.066407
    82  H    0.063785
    83  H    0.029381
    84  H    0.068901
    85  H    0.045714
    86  H    0.050675
    87  H    0.051758
    88  H    0.043317
    89  H    0.016499
    90  H    0.030260
    91  H    0.025027
    92  H    0.043092
    93  H    0.043620
    94  H    0.033711
    95  H    0.046579
    96  H    0.044529
    97  H    0.051092
    98  H    0.063180
    99  H    0.055441
   100  H    0.063845
   101  H    0.058440
   102  H    0.046354
   103  H    0.040068
   104  H    0.016394
   105  H    0.052464
   106  H    0.052685
   107  H    0.029971
   108  H    0.029617
   109  H    0.020042
   110  H    0.020351
   111  H    0.029267
   112  H    0.010147
   113  H    0.012179
   114  H    0.012101
   115  H    0.014545
   116  H    0.019919
   117  H    0.029401
   118  H    0.016363
   119  H    0.015047
   120  H    0.017663
   121  H    0.018126
   122  H    0.007913
   123  H    0.012014
   124  H    0.016025
   125  H    0.027850
   126  H    0.006815
   127  H    0.034440
   128  H    0.017825
   129  H    0.022832
   130  H    0.024802
   131  H    0.021987
   132  H    0.031376
   133  H    0.019453
   134  H    0.023560
   135  H    0.044197
   136  H    0.015433
   137  H    0.030102
   138  H    0.035335
   139  H    0.024870
   140  H    0.023306
 Sum of Mulliken charges =  -0.00000
 Mulliken charges with hydrogens summed into heavy atoms:
               1
     1  Mg   0.983302
     2  C   -0.009246
     3  C   -0.095832
     4  C   -0.028939
     5  C   -0.072134
     6  N   -0.297647
     7  C   -0.040607
     8  C   -0.029901
     9  C   -0.101957
    10  C    0.028961
    11  C    0.157753
    12  C    0.132784
    13  C    0.135804
    14  C    0.217662
    15  O   -0.263019
    16  O   -0.349502
    17  N   -0.512055
    18  C    0.199287
    19  C   -0.187428
    20  C   -0.060550
    21  C    0.148297
    22  C    0.241758
    23  C    0.072915
    24  O   -0.271891
    25  C    0.187609
    26  N   -0.343815
    27  C    0.039621
    28  C   -0.021613
    29  C   -0.025704
    30  C    0.053073
    31  C    0.148099
    32  C    0.011762
    33  C    0.071888
    34  N   -0.456963
    35  C    0.116621
    36  C   -0.215384
    37  C   -0.009554
    38  C    0.138733
    39  C    0.218460
    40  C    0.144293
    41  O   -0.228602
    42  C   -0.024510
    43  C    0.253705
    44  O   -0.285612
    45  O   -0.356119
    46  C    0.302661
    47  C    0.326143
    48  C   -0.125582
    49  C   -0.181615
    50  C    0.139949
    51  C    0.118959
    52  C    0.030369
    53  C    0.019321
    54  C   -0.152536
    55  C    0.055023
    56  C    0.032349
    57  C    0.022779
    58  C    0.001828
    59  C   -0.144935
    60  C    0.088678
    61  C    0.050900
    62  C   -0.012264
    63  C    0.045183
    64  C   -0.200266
    65  C    0.068037
    66  C    0.101217
 Electronic spatial extent (au):  <R**2>=         130589.9199
 Charge=             -0.0000 electrons
 Dipole moment (field-independent basis, Debye):
    X=             -7.9190    Y=              3.7999    Z=              1.9176  Tot=              8.9904
 Quadrupole moment (field-independent basis, Debye-Ang):
   XX=           -422.0996   YY=           -420.2078   ZZ=           -401.7957
   XY=             49.8546   XZ=             23.7624   YZ=            -11.4877
 Traceless Quadrupole moment (field-independent basis, Debye-Ang):
   XX=             -7.3986   YY=             -5.5068   ZZ=             12.9053
   XY=             49.8546   XZ=             23.7624   YZ=            -11.4877
 Octapole moment (field-independent basis, Debye-Ang**2):
  XXX=             32.6896  YYY=           -130.8734  ZZZ=             -4.1860  XYY=           -259.6934
  XXY=            326.3811  XXZ=            178.1592  XZZ=              5.7610  YZZ=            -12.8514
  YYZ=              4.3935  XYZ=            -49.4214
 Hexadecapole moment (field-independent basis, Debye-Ang**3):
 XXXX=        -147102.2927 YYYY=         -30680.3007 ZZZZ=          -4180.4302 XXXY=           5017.0657
 XXXZ=            949.8208 YYYX=            162.0699 YYYZ=             70.0059 ZZZX=            104.9402
 ZZZY=             38.1602 XXYY=         -30319.4921 XXZZ=         -25302.6138 YYZZ=          -5420.5239
 XXYZ=            -48.3754 YYXZ=            219.4694 ZZXY=            160.5913
 N-N= 9.432403282724D+03 E-N=-2.585686201749D+04  KE= 2.975072071796D+03
 Leave Link  601 at Wed May  4 13:45:29 2022, MaxMem= 10066329600 cpu:              13.2 elap:               0.6
 (Enter /sw/apps/gaussian-16.0/g16/l9999.exe)
 1\1\GINC-BP1-COMPUTE089\SP\RwB97XD TD-FC\def2SVP\C55H74Mg1N4O6\OF15641
 \04-May-2022\0\\#p wB97XD/Def2SVP td=(nstates=5)\\step_1751_chromophor
 e_21 TDDFT with wB97XD functional\\0,1\Mg,0,15.748,50.626,26.432\C,0,1
 7.773,49.566,29.043\C,0,13.332,51.394,28.804\C,0,13.711,51.435,23.906\
 C,0,18.3,49.79,24.165\N,0,15.704,50.699,28.719\C,0,16.655,50.249,29.59
 3\C,0,16.39,50.696,31.041\C,0,14.827,50.938,30.837\C,0,14.6,51.042,29.
 357\C,0,13.871,49.927,31.476\C,0,17.165,52.046,31.34\C,0,17.206,52.471
 ,32.815\C,0,16.564,51.532,33.974\O,0,16.965,50.483,34.496\O,0,15.429,5
 2.249,34.284\N,0,13.808,51.188,26.335\C,0,12.946,51.432,27.415\C,0,11.
 551,51.588,26.888\C,0,11.626,51.567,25.48\C,0,13.076,51.414,25.174\C,0
 ,10.332,51.659,27.831\C,0,10.434,51.58,24.46\O,0,10.671,51.62,23.211\C
 ,0,8.998,51.527,24.824\N,0,15.953,50.522,24.298\C,0,15.,50.936,23.468\
 C,0,15.448,50.827,21.958\C,0,16.838,50.163,21.988\C,0,17.075,50.132,23
 .586\C,0,14.5,49.978,21.101\C,0,17.905,51.079,21.363\C,0,19.09,50.386,
 20.585\N,0,17.64,49.89,26.59\C,0,18.592,49.617,25.569\C,0,19.692,48.96
 5,26.178\C,0,19.443,48.875,27.546\C,0,18.182,49.499,27.73\C,0,20.767,4
 8.229,25.504\C,0,19.95,48.497,28.826\O,0,20.975,47.861,29.121\C,0,18.9
 24,49.053,29.869\C,0,18.642,47.974,30.847\O,0,18.409,46.781,30.485\O,0
 ,18.66,48.421,32.16\C,0,18.556,47.302,33.098\C,0,14.66,51.523,35.323\C
 ,0,13.358,52.236,35.403\C,0,12.946,53.037,36.393\C,0,13.723,53.284,37.
 688\C,0,11.513,53.595,36.355\C,0,11.496,55.051,36.006\C,0,10.497,55.89
 ,36.873\C,0,9.338,56.477,36.083\C,0,9.754,57.512,35.05\C,0,8.253,57.09
 5,36.989\C,0,7.035,56.15,37.18\C,0,5.9,56.841,38.\C,0,4.387,56.844,37.
 539\C,0,4.172,57.87,36.454\C,0,3.544,57.038,38.786\C,0,2.106,56.528,38
 .504\C,0,0.977,57.456,39.077\C,0,-0.121,56.568,39.787\C,0,-1.14,56.055
 ,38.659\C,0,-0.768,57.274,40.984\H,0,12.603,51.426,29.616\H,0,13.03,51
 .535,23.058\H,0,19.158,49.552,23.533\H,0,16.557,49.905,31.771\H,0,14.5
 74,51.921,31.234\H,0,13.153,50.46,32.099\H,0,14.384,49.185,32.088\H,0,
 13.41,49.378,30.656\H,0,16.728,52.822,30.712\H,0,18.146,51.769,30.952\
 H,0,17.005,53.532,32.962\H,0,18.264,52.403,33.069\H,0,9.733,52.499,27.
 478\H,0,10.711,51.825,28.84\H,0,9.766,50.73,27.765\H,0,8.222,51.838,24
 .124\H,0,8.952,52.385,25.494\H,0,8.784,50.626,25.4\H,0,15.643,51.835,2
 1.594\H,0,16.906,49.13,21.645\H,0,14.335,50.359,20.093\H,0,13.588,49.7
 46,21.652\H,0,14.894,48.966,21.01\H,0,18.355,51.735,22.108\H,0,17.499,
 51.862,20.723\H,0,18.842,49.372,20.271\H,0,20.004,50.404,21.179\H,0,19
 .288,51.056,19.748\H,0,21.617,48.888,25.326\H,0,20.327,47.679,24.672\H
 ,0,21.15,47.487,26.204\H,0,19.303,49.86,30.495\H,0,19.5,47.097,33.603\
 H,0,18.304,46.335,32.664\H,0,17.741,47.549,33.778\H,0,15.147,51.384,36
 .289\H,0,14.421,50.515,34.985\H,0,12.728,52.021,34.54\H,0,14.785,53.49
 5,37.561\H,0,13.645,52.418,38.344\H,0,13.365,54.086,38.332\H,0,11.038,
 53.475,37.329\H,0,11.058,53.034,35.539\H,0,11.222,55.184,34.959\H,0,12
 .49,55.489,36.084\H,0,11.035,56.722,37.326\H,0,10.144,55.366,37.761\H,
 0,8.953,55.658,35.475\H,0,9.951,57.092,34.064\H,0,10.708,57.968,35.316
 \H,0,9.052,58.293,34.758\H,0,7.919,58.051,36.585\H,0,8.767,57.298,37.9
 28\H,0,7.361,55.302,37.782\H,0,6.625,55.811,36.229\H,0,6.194,57.887,38
 .078\H,0,6.002,56.35,38.968\H,0,4.242,55.892,37.029\H,0,4.859,57.821,3
 5.609\H,0,4.523,58.82,36.858\H,0,3.109,57.888,36.211\H,0,3.522,58.077,
 39.114\H,0,3.821,56.46,39.668\H,0,2.167,55.513,38.897\H,0,1.878,56.451
 ,37.441\H,0,0.485,58.062,38.317\H,0,1.514,58.06,39.808\H,0,0.352,55.61
 9,40.039\H,0,-1.404,55.001,38.749\H,0,-0.612,56.159,37.711\H,0,-1.937,
 56.795,38.586\H,0,-0.443,58.264,41.303\H,0,-0.546,56.65,41.849\H,0,-1.
 848,57.275,40.838\\Version=ES64L-G16RevA.03\State=1-A\HF=-3007.8507751
 \RMSD=7.280e-09\PG=C01 [X(C55H74Mg1N4O6)]\\@


 IT IS THE BEHAVIOR AND DISTRIBUTION OF THE ELECTRONS 
 AROUND THE NUCLEUS THAT GIVES THE FUNDAMENTAL 
 CHARACTER OF AN ATOM:  IT MUST BE THE SAME FOR MOLECULES.

                               -- C. A. COULSON, 1951
 Job cpu time:       0 days 11 hours  0 minutes 33.5 seconds.
 Elapsed time:       0 days  0 hours 28 minutes  3.4 seconds.
 File lengths (MBytes):  RWF=   8929 Int=      0 D2E=      0 Chk=    390 Scr=      1
 Normal termination of Gaussian 16 at Wed May  4 13:45:30 2022.
