 Entering Gaussian System, Link 0=g16
 Initial command:
 /sw/apps/gaussian-16.0/g16/l1.exe "/tmp/Gau-79455.inp" -scrdir="/tmp/"
 Entering Link 1 = /sw/apps/gaussian-16.0/g16/l1.exe PID=     79456.
  
 Copyright (c) 1988,1990,1992,1993,1995,1998,2003,2009,2016,
            Gaussian, Inc.  All Rights Reserved.
  
 This is part of the Gaussian(R) 16 program.  It is based on
 the Gaussian(R) 09 system (copyright 2009, Gaussian, Inc.),
 the Gaussian(R) 03 system (copyright 2003, Gaussian, Inc.),
 the Gaussian(R) 98 system (copyright 1998, Gaussian, Inc.),
 the Gaussian(R) 94 system (copyright 1995, Gaussian, Inc.),
 the Gaussian 92(TM) system (copyright 1992, Gaussian, Inc.),
 the Gaussian 90(TM) system (copyright 1990, Gaussian, Inc.),
 the Gaussian 88(TM) system (copyright 1988, Gaussian, Inc.),
 the Gaussian 86(TM) system (copyright 1986, Carnegie Mellon
 University), and the Gaussian 82(TM) system (copyright 1983,
 Carnegie Mellon University). Gaussian is a federally registered
 trademark of Gaussian, Inc.
  
 This software contains proprietary and confidential information,
 including trade secrets, belonging to Gaussian, Inc.
  
 This software is provided under written license and may be
 used, copied, transmitted, or stored only in accord with that
 written license.
  
 The following legend is applicable only to US Government
 contracts under FAR:
  
                    RESTRICTED RIGHTS LEGEND
  
 Use, reproduction and disclosure by the US Government is
 subject to restrictions as set forth in subparagraphs (a)
 and (c) of the Commercial Computer Software - Restricted
 Rights clause in FAR 52.227-19.
  
 Gaussian, Inc.
 340 Quinnipiac St., Bldg. 40, Wallingford CT 06492
  
  
 ---------------------------------------------------------------
 Warning -- This program may not be used in any manner that
 competes with the business of Gaussian, Inc. or will provide
 assistance to any competitor of Gaussian, Inc.  The licensee
 of this program is prohibited from giving any competitor of
 Gaussian, Inc. access to this program.  By using this program,
 the user acknowledges that Gaussian, Inc. is engaged in the
 business of creating and licensing software in the field of
 computational chemistry and represents and warrants to the
 licensee that it is not a competitor of Gaussian, Inc. and that
 it will not use this program in any manner prohibited above.
 ---------------------------------------------------------------
  

 Cite this work as:
 Gaussian 16, Revision A.03,
 M. J. Frisch, G. W. Trucks, H. B. Schlegel, G. E. Scuseria, 
 M. A. Robb, J. R. Cheeseman, G. Scalmani, V. Barone, 
 G. A. Petersson, H. Nakatsuji, X. Li, M. Caricato, A. V. Marenich, 
 J. Bloino, B. G. Janesko, R. Gomperts, B. Mennucci, H. P. Hratchian, 
 J. V. Ortiz, A. F. Izmaylov, J. L. Sonnenberg, D. Williams-Young, 
 F. Ding, F. Lipparini, F. Egidi, J. Goings, B. Peng, A. Petrone, 
 T. Henderson, D. Ranasinghe, V. G. Zakrzewski, J. Gao, N. Rega, 
 G. Zheng, W. Liang, M. Hada, M. Ehara, K. Toyota, R. Fukuda, 
 J. Hasegawa, M. Ishida, T. Nakajima, Y. Honda, O. Kitao, H. Nakai, 
 T. Vreven, K. Throssell, J. A. Montgomery, Jr., J. E. Peralta, 
 F. Ogliaro, M. J. Bearpark, J. J. Heyd, E. N. Brothers, K. N. Kudin, 
 V. N. Staroverov, T. A. Keith, R. Kobayashi, J. Normand, 
 K. Raghavachari, A. P. Rendell, J. C. Burant, S. S. Iyengar, 
 J. Tomasi, M. Cossi, J. M. Millam, M. Klene, C. Adamo, R. Cammi, 
 J. W. Ochterski, R. L. Martin, K. Morokuma, O. Farkas, 
 J. B. Foresman, and D. J. Fox, Gaussian, Inc., Wallingford CT, 2016.
 
 ******************************************
 Gaussian 16:  ES64L-G16RevA.03 25-Dec-2016
                 3-May-2022 
 ******************************************
 %nproc=24
 Will use up to   24 processors via shared memory.
 %mem=75GB
 --------------------------------
 #p wB97XD/Def2SVP td=(nstates=5)
 --------------------------------
 1/38=1,172=1/1;
 2/12=2,17=6,18=5,40=1/2;
 3/5=43,7=101,11=9,25=1,30=1,74=-58/1,2,3,8;
 4//1;
 5/5=2,38=5/2;
 8/6=1,10=1,108=5/1;
 9/41=5,42=1,70=2/14;
 6/7=2,8=2,9=2,10=2/1;
 99/5=1,9=1/99;
 Leave Link    1 at Tue May  3 17:08:19 2022, MaxMem= 10066329600 cpu:               1.7 elap:               0.1
 (Enter /sw/apps/gaussian-16.0/g16/l101.exe)
 -----------------------------------------------------
 step_1001_chromophore_24 TDDFT with wB97XD functional
 -----------------------------------------------------
 Symbolic Z-matrix:
 Charge =  0 Multiplicity = 1
 Mg                   -1.129     43.961    25.179 
 C                     1.285     43.517    27.573 
 C                    -3.595     43.363    27.6 
 C                    -3.389     43.749    22.774 
 C                     1.447     44.245    22.806 
 N                    -1.133     43.401    27.323 
 C                    -0.028     43.532    28.095 
 C                    -0.39      43.501    29.592 
 C                    -1.937     43.263    29.61 
 C                    -2.265     43.341    28.062 
 C                    -2.309     41.975    30.317 
 C                    -0.058     44.792    30.336 
 C                     0.12      44.663    31.858 
 C                     0.17      43.265    32.495 
 O                     1.131     42.515    32.374 
 O                    -0.928     43.064    33.266 
 N                    -3.2       43.623    25.198 
 C                    -4.02      43.373    26.299 
 C                    -5.449     43.246    25.84 
 C                    -5.367     43.269    24.41 
 C                    -3.975     43.522    24.029 
 C                    -6.709     43.189    26.76 
 C                    -6.523     43.177    23.417 
 O                    -6.384     43.492    22.283 
 C                    -7.952     42.744    23.849 
 N                    -0.973     44.157    23.129 
 C                    -2.068     43.922    22.353 
 C                    -1.676     43.905    20.801 
 C                    -0.217     44.487    20.897 
 C                     0.152     44.35     22.337 
 C                    -1.941     42.595    19.988 
 C                     0.074     45.923    20.265 
 C                    -0.019     47.169    21.103 
 N                     0.94      43.845    25.109 
 C                     1.873     44.019    24.089 
 C                     3.222     43.837    24.624 
 C                     3.016     43.658    26.003 
 C                     1.684     43.694    26.179 
 C                     4.42      43.747    23.81 
 C                     3.699     43.296    27.28 
 O                     4.838     43.009    27.537 
 C                     2.565     43.273    28.358 
 C                     2.584     41.947    29.095 
 O                     1.971     40.934    28.773 
 O                     3.449     41.958    30.143 
 C                     3.674     40.681    30.787 
 C                    -0.928     41.828    34.085 
 C                    -2.313     41.687    34.697 
 C                    -2.959     40.587    35.129 
 C                    -2.33      39.181    35.277 
 C                    -4.341     40.822    35.619 
 C                    -4.484     41.765    36.895 
 C                    -4.908     43.211    36.655 
 C                    -6.213     43.731    37.408 
 C                    -5.84      44.957    38.283 
 C                    -7.417     43.775    36.436 
 C                    -8.159     42.435    36.401 
 C                    -9.606     42.515    36.915 
 C                    -10.669    41.584    36.176 
 C                    -11.251    42.179    34.797 
 C                    -11.714    41.053    37.212 
 C                    -11.479    39.631    37.782 
 C                    -12.811    38.918    38.165 
 C                    -12.906    38.574    39.698 
 C                    -12.563    37.142    39.888 
 C                    -14.209    39.032    40.253 
 H                    -4.4       43.443    28.333 
 H                    -4.094     43.56     21.962 
 H                     2.281     44.285    22.102 
 H                     0.124     42.615    29.966 
 H                    -2.418     44.153    30.017 
 H                    -3.118     41.498    29.764 
 H                    -2.75      42.207    31.286 
 H                    -1.494     41.264    30.458 
 H                    -0.784     45.598    30.224 
 H                     0.893     45.155    29.947 
 H                    -0.403     45.523    32.275 
 H                     1.042     45.165    32.148 
 H                    -6.487     43.692    27.702 
 H                    -6.987     42.172    27.035 
 H                    -7.567     43.686    26.308 
 H                    -8.687     43.504    24.114 
 H                    -7.857     42.02     24.659 
 H                    -8.401     42.228    23. 
 H                    -2.336     44.634    20.331 
 H                     0.451     43.775    20.413 
 H                    -2.48      41.958    20.69 
 H                    -0.937     42.269    19.714 
 H                    -2.453     42.86     19.063 
 H                    -0.62      46.036    19.433 
 H                     1.086     45.783    19.885 
 H                     0.848     47.806    20.928 
 H                    -0.038     46.919    22.164 
 H                    -0.935     47.734    20.931 
 H                     4.517     42.676    23.63 
 H                     5.379     43.969    24.277 
 H                     4.37      44.06     22.767 
 H                     2.632     44.022    29.148 
 H                     3.928     39.883    30.09 
 H                     2.825     40.45     31.431 
 H                     4.547     40.854    31.417 
 H                    -0.336     41.765    34.997 
 H                    -0.675     41.034    33.382 
 H                    -2.794     42.664    34.744 
 H                    -1.489     38.952    34.622 
 H                    -3.096     38.45     35.018 
 H                    -1.957     39.155    36.3 
 H                    -4.827     39.847    35.608 
 H                    -4.852     41.358    34.819 
 H                    -3.482     41.718    37.321 
 H                    -5.112     41.15     37.538 
 H                    -5.051     43.381    35.588 
 H                    -4.055     43.873    36.798 
 H                    -6.442     42.95     38.133 
 H                    -4.763     45.124    38.311 
 H                    -6.083     44.721    39.319 
 H                    -6.422     45.823    37.966 
 H                    -7.049     44.091    35.46 
 H                    -8.016     44.624    36.766 
 H                    -7.672     41.667    37.002 
 H                    -8.133     42.035    35.388 
 H                    -10.018    43.524    36.875 
 H                    -9.683     42.215    37.959 
 H                    -10.089    40.729    35.831 
 H                    -12.267    41.818    34.637 
 H                    -10.609    41.776    34.014 
 H                    -11.252    43.269    34.805 
 H                    -12.705    41.049    36.758 
 H                    -11.618    41.718    38.07 
 H                    -10.892    39.819    38.68 
 H                    -10.909    39.058    37.05 
 H                    -12.804    37.949    37.666 
 H                    -13.655    39.499    37.793 
 H                    -12.096    39.115    40.187 
 H                    -13.088    36.504    39.177 
 H                    -12.896    36.98     40.913 
 H                    -11.501    36.898    39.892 
 H                    -13.921    39.842    40.922 
 H                    -14.678    38.243    40.84 
 H                    -14.936    39.37     39.515 
 
 ITRead=  0  0  0  0  0  0  0  0  0  0  0  0  0  0  0  0  0  0  0  0
 ITRead=  0  0  0  0  0  0  0  0  0  0  0  0  0  0  0  0  0  0  0  0
 ITRead=  0  0  0  0  0  0  0  0  0  0  0  0  0  0  0  0  0  0  0  0
 ITRead=  0  0  0  0  0  0  0  0  0  0  0  0  0  0  0  0  0  0  0  0
 ITRead=  0  0  0  0  0  0  0  0  0  0  0  0  0  0  0  0  0  0  0  0
 ITRead=  0  0  0  0  0  0  0  0  0  0  0  0  0  0  0  0  0  0  0  0
 ITRead=  0  0  0  0  0  0  0  0  0  0  0  0  0  0  0  0  0  0  0  0
 MicOpt= -1 -1 -1 -1 -1 -1 -1 -1 -1 -1 -1 -1 -1 -1 -1 -1 -1 -1 -1 -1
 MicOpt= -1 -1 -1 -1 -1 -1 -1 -1 -1 -1 -1 -1 -1 -1 -1 -1 -1 -1 -1 -1
 MicOpt= -1 -1 -1 -1 -1 -1 -1 -1 -1 -1 -1 -1 -1 -1 -1 -1 -1 -1 -1 -1
 MicOpt= -1 -1 -1 -1 -1 -1 -1 -1 -1 -1 -1 -1 -1 -1 -1 -1 -1 -1 -1 -1
 MicOpt= -1 -1 -1 -1 -1 -1 -1 -1 -1 -1 -1 -1 -1 -1 -1 -1 -1 -1 -1 -1
 MicOpt= -1 -1 -1 -1 -1 -1 -1 -1 -1 -1 -1 -1 -1 -1 -1 -1 -1 -1 -1 -1
 MicOpt= -1 -1 -1 -1 -1 -1 -1 -1 -1 -1 -1 -1 -1 -1 -1 -1 -1 -1 -1 -1
 NAtoms=    140 NQM=      140 NQMF=       0 NMMI=      0 NMMIF=      0
                NMic=       0 NMicF=      0.
                    Isotopes and Nuclear Properties:
 (Nuclear quadrupole moments (NQMom) in fm**2, nuclear magnetic moments (NMagM)
  in nuclear magnetons)

  Atom         1           2           3           4           5           6           7           8           9          10
 IAtWgt=          24          12          12          12          12          14          12          12          12          12
 AtmWgt=  23.9850450  12.0000000  12.0000000  12.0000000  12.0000000  14.0030740  12.0000000  12.0000000  12.0000000  12.0000000
 NucSpn=           0           0           0           0           0           2           0           0           0           0
 AtZEff=  -0.0000000  -0.0000000  -0.0000000  -0.0000000  -0.0000000  -0.0000000  -0.0000000  -0.0000000  -0.0000000  -0.0000000
 NQMom=    0.0000000   0.0000000   0.0000000   0.0000000   0.0000000   2.0440000   0.0000000   0.0000000   0.0000000   0.0000000
 NMagM=    0.0000000   0.0000000   0.0000000   0.0000000   0.0000000   0.4037610   0.0000000   0.0000000   0.0000000   0.0000000
 AtZNuc=  12.0000000   6.0000000   6.0000000   6.0000000   6.0000000   7.0000000   6.0000000   6.0000000   6.0000000   6.0000000

  Atom        11          12          13          14          15          16          17          18          19          20
 IAtWgt=          12          12          12          12          16          16          14          12          12          12
 AtmWgt=  12.0000000  12.0000000  12.0000000  12.0000000  15.9949146  15.9949146  14.0030740  12.0000000  12.0000000  12.0000000
 NucSpn=           0           0           0           0           0           0           2           0           0           0
 AtZEff=  -0.0000000  -0.0000000  -0.0000000  -0.0000000  -0.0000000  -0.0000000  -0.0000000  -0.0000000  -0.0000000  -0.0000000
 NQMom=    0.0000000   0.0000000   0.0000000   0.0000000   0.0000000   0.0000000   2.0440000   0.0000000   0.0000000   0.0000000
 NMagM=    0.0000000   0.0000000   0.0000000   0.0000000   0.0000000   0.0000000   0.4037610   0.0000000   0.0000000   0.0000000
 AtZNuc=   6.0000000   6.0000000   6.0000000   6.0000000   8.0000000   8.0000000   7.0000000   6.0000000   6.0000000   6.0000000

  Atom        21          22          23          24          25          26          27          28          29          30
 IAtWgt=          12          12          12          16          12          14          12          12          12          12
 AtmWgt=  12.0000000  12.0000000  12.0000000  15.9949146  12.0000000  14.0030740  12.0000000  12.0000000  12.0000000  12.0000000
 NucSpn=           0           0           0           0           0           2           0           0           0           0
 AtZEff=  -0.0000000  -0.0000000  -0.0000000  -0.0000000  -0.0000000  -0.0000000  -0.0000000  -0.0000000  -0.0000000  -0.0000000
 NQMom=    0.0000000   0.0000000   0.0000000   0.0000000   0.0000000   2.0440000   0.0000000   0.0000000   0.0000000   0.0000000
 NMagM=    0.0000000   0.0000000   0.0000000   0.0000000   0.0000000   0.4037610   0.0000000   0.0000000   0.0000000   0.0000000
 AtZNuc=   6.0000000   6.0000000   6.0000000   8.0000000   6.0000000   7.0000000   6.0000000   6.0000000   6.0000000   6.0000000

  Atom        31          32          33          34          35          36          37          38          39          40
 IAtWgt=          12          12          12          14          12          12          12          12          12          12
 AtmWgt=  12.0000000  12.0000000  12.0000000  14.0030740  12.0000000  12.0000000  12.0000000  12.0000000  12.0000000  12.0000000
 NucSpn=           0           0           0           2           0           0           0           0           0           0
 AtZEff=  -0.0000000  -0.0000000  -0.0000000  -0.0000000  -0.0000000  -0.0000000  -0.0000000  -0.0000000  -0.0000000  -0.0000000
 NQMom=    0.0000000   0.0000000   0.0000000   2.0440000   0.0000000   0.0000000   0.0000000   0.0000000   0.0000000   0.0000000
 NMagM=    0.0000000   0.0000000   0.0000000   0.4037610   0.0000000   0.0000000   0.0000000   0.0000000   0.0000000   0.0000000
 AtZNuc=   6.0000000   6.0000000   6.0000000   7.0000000   6.0000000   6.0000000   6.0000000   6.0000000   6.0000000   6.0000000

  Atom        41          42          43          44          45          46          47          48          49          50
 IAtWgt=          16          12          12          16          16          12          12          12          12          12
 AtmWgt=  15.9949146  12.0000000  12.0000000  15.9949146  15.9949146  12.0000000  12.0000000  12.0000000  12.0000000  12.0000000
 NucSpn=           0           0           0           0           0           0           0           0           0           0
 AtZEff=  -0.0000000  -0.0000000  -0.0000000  -0.0000000  -0.0000000  -0.0000000  -0.0000000  -0.0000000  -0.0000000  -0.0000000
 NQMom=    0.0000000   0.0000000   0.0000000   0.0000000   0.0000000   0.0000000   0.0000000   0.0000000   0.0000000   0.0000000
 NMagM=    0.0000000   0.0000000   0.0000000   0.0000000   0.0000000   0.0000000   0.0000000   0.0000000   0.0000000   0.0000000
 AtZNuc=   8.0000000   6.0000000   6.0000000   8.0000000   8.0000000   6.0000000   6.0000000   6.0000000   6.0000000   6.0000000

  Atom        51          52          53          54          55          56          57          58          59          60
 IAtWgt=          12          12          12          12          12          12          12          12          12          12
 AtmWgt=  12.0000000  12.0000000  12.0000000  12.0000000  12.0000000  12.0000000  12.0000000  12.0000000  12.0000000  12.0000000
 NucSpn=           0           0           0           0           0           0           0           0           0           0
 AtZEff=  -0.0000000  -0.0000000  -0.0000000  -0.0000000  -0.0000000  -0.0000000  -0.0000000  -0.0000000  -0.0000000  -0.0000000
 NQMom=    0.0000000   0.0000000   0.0000000   0.0000000   0.0000000   0.0000000   0.0000000   0.0000000   0.0000000   0.0000000
 NMagM=    0.0000000   0.0000000   0.0000000   0.0000000   0.0000000   0.0000000   0.0000000   0.0000000   0.0000000   0.0000000
 AtZNuc=   6.0000000   6.0000000   6.0000000   6.0000000   6.0000000   6.0000000   6.0000000   6.0000000   6.0000000   6.0000000

  Atom        61          62          63          64          65          66          67          68          69          70
 IAtWgt=          12          12          12          12          12          12           1           1           1           1
 AtmWgt=  12.0000000  12.0000000  12.0000000  12.0000000  12.0000000  12.0000000   1.0078250   1.0078250   1.0078250   1.0078250
 NucSpn=           0           0           0           0           0           0           1           1           1           1
 AtZEff=  -0.0000000  -0.0000000  -0.0000000  -0.0000000  -0.0000000  -0.0000000  -0.0000000  -0.0000000  -0.0000000  -0.0000000
 NQMom=    0.0000000   0.0000000   0.0000000   0.0000000   0.0000000   0.0000000   0.0000000   0.0000000   0.0000000   0.0000000
 NMagM=    0.0000000   0.0000000   0.0000000   0.0000000   0.0000000   0.0000000   2.7928460   2.7928460   2.7928460   2.7928460
 AtZNuc=   6.0000000   6.0000000   6.0000000   6.0000000   6.0000000   6.0000000   1.0000000   1.0000000   1.0000000   1.0000000

  Atom        71          72          73          74          75          76          77          78          79          80
 IAtWgt=           1           1           1           1           1           1           1           1           1           1
 AtmWgt=   1.0078250   1.0078250   1.0078250   1.0078250   1.0078250   1.0078250   1.0078250   1.0078250   1.0078250   1.0078250
 NucSpn=           1           1           1           1           1           1           1           1           1           1
 AtZEff=  -0.0000000  -0.0000000  -0.0000000  -0.0000000  -0.0000000  -0.0000000  -0.0000000  -0.0000000  -0.0000000  -0.0000000
 NQMom=    0.0000000   0.0000000   0.0000000   0.0000000   0.0000000   0.0000000   0.0000000   0.0000000   0.0000000   0.0000000
 NMagM=    2.7928460   2.7928460   2.7928460   2.7928460   2.7928460   2.7928460   2.7928460   2.7928460   2.7928460   2.7928460
 AtZNuc=   1.0000000   1.0000000   1.0000000   1.0000000   1.0000000   1.0000000   1.0000000   1.0000000   1.0000000   1.0000000

  Atom        81          82          83          84          85          86          87          88          89          90
 IAtWgt=           1           1           1           1           1           1           1           1           1           1
 AtmWgt=   1.0078250   1.0078250   1.0078250   1.0078250   1.0078250   1.0078250   1.0078250   1.0078250   1.0078250   1.0078250
 NucSpn=           1           1           1           1           1           1           1           1           1           1
 AtZEff=  -0.0000000  -0.0000000  -0.0000000  -0.0000000  -0.0000000  -0.0000000  -0.0000000  -0.0000000  -0.0000000  -0.0000000
 NQMom=    0.0000000   0.0000000   0.0000000   0.0000000   0.0000000   0.0000000   0.0000000   0.0000000   0.0000000   0.0000000
 NMagM=    2.7928460   2.7928460   2.7928460   2.7928460   2.7928460   2.7928460   2.7928460   2.7928460   2.7928460   2.7928460
 AtZNuc=   1.0000000   1.0000000   1.0000000   1.0000000   1.0000000   1.0000000   1.0000000   1.0000000   1.0000000   1.0000000

  Atom        91          92          93          94          95          96          97          98          99         100
 IAtWgt=           1           1           1           1           1           1           1           1           1           1
 AtmWgt=   1.0078250   1.0078250   1.0078250   1.0078250   1.0078250   1.0078250   1.0078250   1.0078250   1.0078250   1.0078250
 NucSpn=           1           1           1           1           1           1           1           1           1           1
 AtZEff=  -0.0000000  -0.0000000  -0.0000000  -0.0000000  -0.0000000  -0.0000000  -0.0000000  -0.0000000  -0.0000000  -0.0000000
 NQMom=    0.0000000   0.0000000   0.0000000   0.0000000   0.0000000   0.0000000   0.0000000   0.0000000   0.0000000   0.0000000
 NMagM=    2.7928460   2.7928460   2.7928460   2.7928460   2.7928460   2.7928460   2.7928460   2.7928460   2.7928460   2.7928460
 AtZNuc=   1.0000000   1.0000000   1.0000000   1.0000000   1.0000000   1.0000000   1.0000000   1.0000000   1.0000000   1.0000000

  Atom       101         102         103         104         105         106         107         108         109         110
 IAtWgt=           1           1           1           1           1           1           1           1           1           1
 AtmWgt=   1.0078250   1.0078250   1.0078250   1.0078250   1.0078250   1.0078250   1.0078250   1.0078250   1.0078250   1.0078250
 NucSpn=           1           1           1           1           1           1           1           1           1           1
 AtZEff=  -0.0000000  -0.0000000  -0.0000000  -0.0000000  -0.0000000  -0.0000000  -0.0000000  -0.0000000  -0.0000000  -0.0000000
 NQMom=    0.0000000   0.0000000   0.0000000   0.0000000   0.0000000   0.0000000   0.0000000   0.0000000   0.0000000   0.0000000
 NMagM=    2.7928460   2.7928460   2.7928460   2.7928460   2.7928460   2.7928460   2.7928460   2.7928460   2.7928460   2.7928460
 AtZNuc=   1.0000000   1.0000000   1.0000000   1.0000000   1.0000000   1.0000000   1.0000000   1.0000000   1.0000000   1.0000000

  Atom       111         112         113         114         115         116         117         118         119         120
 IAtWgt=           1           1           1           1           1           1           1           1           1           1
 AtmWgt=   1.0078250   1.0078250   1.0078250   1.0078250   1.0078250   1.0078250   1.0078250   1.0078250   1.0078250   1.0078250
 NucSpn=           1           1           1           1           1           1           1           1           1           1
 AtZEff=  -0.0000000  -0.0000000  -0.0000000  -0.0000000  -0.0000000  -0.0000000  -0.0000000  -0.0000000  -0.0000000  -0.0000000
 NQMom=    0.0000000   0.0000000   0.0000000   0.0000000   0.0000000   0.0000000   0.0000000   0.0000000   0.0000000   0.0000000
 NMagM=    2.7928460   2.7928460   2.7928460   2.7928460   2.7928460   2.7928460   2.7928460   2.7928460   2.7928460   2.7928460
 AtZNuc=   1.0000000   1.0000000   1.0000000   1.0000000   1.0000000   1.0000000   1.0000000   1.0000000   1.0000000   1.0000000

  Atom       121         122         123         124         125         126         127         128         129         130
 IAtWgt=           1           1           1           1           1           1           1           1           1           1
 AtmWgt=   1.0078250   1.0078250   1.0078250   1.0078250   1.0078250   1.0078250   1.0078250   1.0078250   1.0078250   1.0078250
 NucSpn=           1           1           1           1           1           1           1           1           1           1
 AtZEff=  -0.0000000  -0.0000000  -0.0000000  -0.0000000  -0.0000000  -0.0000000  -0.0000000  -0.0000000  -0.0000000  -0.0000000
 NQMom=    0.0000000   0.0000000   0.0000000   0.0000000   0.0000000   0.0000000   0.0000000   0.0000000   0.0000000   0.0000000
 NMagM=    2.7928460   2.7928460   2.7928460   2.7928460   2.7928460   2.7928460   2.7928460   2.7928460   2.7928460   2.7928460
 AtZNuc=   1.0000000   1.0000000   1.0000000   1.0000000   1.0000000   1.0000000   1.0000000   1.0000000   1.0000000   1.0000000

  Atom       131         132         133         134         135         136         137         138         139         140
 IAtWgt=           1           1           1           1           1           1           1           1           1           1
 AtmWgt=   1.0078250   1.0078250   1.0078250   1.0078250   1.0078250   1.0078250   1.0078250   1.0078250   1.0078250   1.0078250
 NucSpn=           1           1           1           1           1           1           1           1           1           1
 AtZEff=  -0.0000000  -0.0000000  -0.0000000  -0.0000000  -0.0000000  -0.0000000  -0.0000000  -0.0000000  -0.0000000  -0.0000000
 NQMom=    0.0000000   0.0000000   0.0000000   0.0000000   0.0000000   0.0000000   0.0000000   0.0000000   0.0000000   0.0000000
 NMagM=    2.7928460   2.7928460   2.7928460   2.7928460   2.7928460   2.7928460   2.7928460   2.7928460   2.7928460   2.7928460
 AtZNuc=   1.0000000   1.0000000   1.0000000   1.0000000   1.0000000   1.0000000   1.0000000   1.0000000   1.0000000   1.0000000
 Leave Link  101 at Tue May  3 17:08:19 2022, MaxMem= 10066329600 cpu:               3.6 elap:               0.2
 (Enter /sw/apps/gaussian-16.0/g16/l202.exe)
 Stoichiometry    C55H74MgN4O6
 Framework group  C1[X(C55H74MgN4O6)]
 Deg. of freedom   414
 Full point group                 C1      NOp   1
 Largest Abelian subgroup         C1      NOp   1
 Largest concise Abelian subgroup C1      NOp   1
                         Standard orientation:                         
 ---------------------------------------------------------------------
 Center     Atomic      Atomic             Coordinates (Angstroms)
 Number     Number       Type             X           Y           Z
 ---------------------------------------------------------------------
      1         12           0        4.901554    1.080492    0.278925
      2          6           0        4.294734   -2.288320    0.082353
      3          6           0        1.444386    1.670251    0.292300
      4          6           0        5.484934    4.302893   -0.181914
      5          6           0        8.325818    0.360319   -0.042524
      6          7           0        3.085301   -0.176549    0.101650
      7          6           0        3.127419   -1.517915    0.283672
      8          6           0        1.719304   -2.087721    0.539693
      9          6           0        0.773408   -0.846097    0.422095
     10          6           0        1.834893    0.317902    0.253780
     11          6           0       -0.241066   -1.003913   -0.692854
     12          6           0        1.553410   -2.734410    1.912541
     13          6           0        0.417218   -3.763164    2.037212
     14          6           0       -0.319441   -4.229357    0.771246
     15          8           0        0.190738   -4.974441   -0.056540
     16          8           0       -1.601796   -3.786939    0.787977
     17          7           0        3.635769    2.744818    0.101572
     18          6           0        2.240588    2.768032    0.107191
     19          6           0        1.763483    4.193238    0.007133
     20          6           0        2.955974    4.952443   -0.224652
     21          6           0        4.105368    4.047328   -0.144052
     22          6           0        0.295724    4.687778    0.203000
     23          6           0        3.068127    6.464544   -0.403034
     24          8           0        4.110787    7.018540   -0.300801
     25          6           0        1.823710    7.362962   -0.648849
     26          7           0        6.663104    2.144248    0.103943
     27          6           0        6.610798    3.475462   -0.181641
     28          6           0        8.071198    4.050547   -0.496547
     29          6           0        8.938854    2.829157   -0.014882
     30          6           0        7.976241    1.691593    0.073736
     31          6           0        8.327114    4.681614   -1.904935
     32          6           0        9.874199    3.015891    1.264360
     33          6           0        9.381121    2.659764    2.640390
     34          7           0        6.123432   -0.571560    0.001698
     35          6           0        7.504847   -0.736830   -0.072746
     36          6           0        7.818587   -2.153420   -0.257108
     37          6           0        6.566958   -2.788508   -0.178327
     38          6           0        5.668724   -1.802087   -0.015096
     39          6           0        9.139149   -2.664636   -0.574400
     40          6           0        5.873259   -4.097452   -0.361930
     41          8           0        6.269041   -5.186682   -0.682356
     42          6           0        4.357968   -3.795449   -0.114433
     43          6           0        3.536950   -4.291079   -1.290055
     44          8           0        3.255915   -3.647183   -2.296056
     45          8           0        3.199018   -5.600905   -1.160411
     46          6           0        2.579443   -6.208875   -2.319112
     47          6           0       -2.482612   -4.310663   -0.283626
     48          6           0       -3.791748   -3.539916   -0.214621
     49          6           0       -4.709440   -3.307775   -1.172687
     50          6           0       -4.725054   -3.964416   -2.573744
     51          6           0       -5.850372   -2.453520   -0.755828
     52          6           0       -6.777389   -3.034135    0.402360
     53          6           0       -6.563357   -2.489968    1.811745
     54          6           0       -7.817595   -1.838484    2.548556
     55          6           0       -8.076453   -2.596895    3.877328
     56          6           0       -7.724746   -0.293720    2.510892
     57          6           0       -8.368962    0.276264    1.243022
     58          6           0       -9.594842    1.163276    1.516576
     59          6           0       -9.786259    2.418239    0.551548
     60          6           0       -8.910366    3.713297    0.938882
     61          6           0      -11.310345    2.650861    0.286348
     62          6           0      -11.891781    2.071434   -1.028340
     63          6           0      -13.092901    2.907419   -1.564736
     64          6           0      -14.434062    2.086102   -1.629360
     65          6           0      -14.652101    1.637435   -3.027763
     66          6           0      -15.540537    2.847640   -0.987976
     67          1           0        0.412159    1.907228    0.556992
     68          1           0        5.693625    5.338668   -0.457066
     69          1           0        9.373604    0.087918   -0.186448
     70          1           0        1.552929   -2.759448   -0.303023
     71          1           0        0.336182   -0.651774    1.401984
     72          1           0       -0.351696   -0.044672   -1.198262
     73          1           0       -1.224801   -1.193730   -0.264484
     74          1           0       -0.016591   -1.779473   -1.426164
     75          1           0        1.374330   -2.044248    2.737685
     76          1           0        2.476332   -3.270641    2.131998
     77          1           0       -0.057606   -3.541595    2.992443
     78          1           0        0.807178   -4.661786    2.513236
     79          1           0       -0.236168    3.983958    0.844392
     80          1           0       -0.270232    4.713775   -0.727707
     81          1           0        0.255425    5.669011    0.675266
     82          1           0        1.330145    7.841025    0.197260
     83          1           0        1.098716    6.788128   -1.226127
     84          1           0        2.148726    8.197742   -1.270271
     85          1           0        8.201539    4.890261    0.185972
     86          1           0        9.577566    2.534099   -0.846995
     87          1           0        7.340468    4.689840   -2.369215
     88          1           0        9.062016    4.007285   -2.346032
     89          1           0        8.820200    5.643952   -1.767946
     90          1           0       10.160680    4.066730    1.281521
     91          1           0       10.732477    2.403896    0.986935
     92          1           0       10.135427    2.079905    3.172245
     93          1           0        8.477532    2.052699    2.580546
     94          1           0        9.096585    3.529554    3.232310
     95          1           0        9.141579   -2.684210   -1.664566
     96          1           0        9.357615   -3.707156   -0.345319
     97          1           0       10.000357   -2.009068   -0.444518
     98          1           0        3.903651   -4.274953    0.753474
     99          1           0        3.134746   -6.046895   -3.242438
    100          1           0        1.535819   -5.897522   -2.372093
    101          1           0        2.609466   -7.277329   -2.103559
    102          1           0       -2.882280   -5.322396   -0.230335
    103          1           0       -1.922359   -4.144240   -1.203992
    104          1           0       -3.925684   -3.134266    0.788180
    105          1           0       -3.761806   -4.281931   -2.973849
    106          1           0       -5.092327   -3.220404   -3.280678
    107          1           0       -5.332181   -4.860033   -2.448838
    108          1           0       -6.299731   -2.091096   -1.679769
    109          1           0       -5.406649   -1.552912   -0.331055
    110          1           0       -6.550978   -4.099203    0.356997
    111          1           0       -7.763980   -2.918360   -0.044060
    112          1           0       -5.762654   -1.750611    1.803814
    113          1           0       -6.066269   -3.240865    2.424410
    114          1           0       -8.671168   -2.102350    1.924204
    115          1           0       -7.450039   -3.484630    3.967521
    116          1           0       -9.086064   -3.006243    3.843255
    117          1           0       -7.998267   -1.903420    4.715270
    118          1           0       -6.676577   -0.017643    2.624822
    119          1           0       -8.175776    0.039587    3.445761
    120          1           0       -8.710296   -0.499541    0.557594
    121          1           0       -7.619153    0.823026    0.672336
    122          1           0       -9.613869    1.564168    2.530651
    123          1           0      -10.527340    0.611261    1.408912
    124          1           0       -9.335264    2.108837   -0.390431
    125          1           0       -9.432095    4.619414    0.630779
    126          1           0       -7.991155    3.624761    0.360198
    127          1           0       -8.716947    3.754599    2.010818
    128          1           0      -11.517473    3.721002    0.275958
    129          1           0      -11.817729    2.104989    1.081452
    130          1           0      -12.237004    1.082244   -0.730612
    131          1           0      -11.085841    2.005164   -1.759860
    132          1           0      -12.868793    3.149546   -2.603563
    133          1           0      -13.173569    3.834546   -0.997102
    134          1           0      -14.260018    1.165624   -1.072288
    135          1           0      -14.503258    2.449530   -3.739478
    136          1           0      -15.690979    1.310908   -2.984497
    137          1           0      -14.090698    0.758778   -3.344279
    138          1           0      -15.760251    2.260214   -0.097324
    139          1           0      -16.423179    2.858835   -1.626622
    140          1           0      -15.306647    3.880467   -0.731108
 ---------------------------------------------------------------------
 Rotational constants (GHZ):           0.0408261           0.0114065           0.0094203
 Leave Link  202 at Tue May  3 17:08:19 2022, MaxMem= 10066329600 cpu:               0.2 elap:               0.0
 (Enter /sw/apps/gaussian-16.0/g16/l301.exe)
 Standard basis: def2SVP (5D, 7F)
 Ernie: Thresh=  0.10000D-02 Tol=  0.10000D-05 Strict=F.
 There are  1364 symmetry adapted cartesian basis functions of A   symmetry.
 There are  1298 symmetry adapted basis functions of A   symmetry.
  1298 basis functions,  2180 primitive gaussians,  1364 cartesian basis functions
   246 alpha electrons      246 beta electrons
       nuclear repulsion energy      9675.8769813262 Hartrees.
 IExCor= 4639 DFT=T Ex+Corr=wB97XD ExCW=0 ScaHFX=  1.000000
 ScaDFX=  1.000000  1.000000  1.000000  1.000000 ScalE2=  1.000000  1.000000
 IRadAn=      5 IRanWt=     -1 IRanGd=            0 ICorTp=0 IEmpDi=121
 HFx  wShort=  0.000000 wLong=  0.200000 cFull=  0.222036 cShort=  0.000000 cLong=  0.777964
 DFx  wShort=  0.000000 wLong=  0.200000 cFull=  0.000000 cShort=  0.000000 cLong=  1.000000
 NAtoms=  140 NActive=  140 NUniq=  140 SFac= 1.00D+00 NAtFMM=   60 NAOKFM=T Big=T
 Integral buffers will be    131072 words long.
 Raffenetti 1 integral format.
 Two-electron integral symmetry is turned on.
 R6Disp:  Grimme-D2 Dispersion energy=       -0.1337981665 Hartrees.
 Nuclear repulsion after empirical dispersion term =     9675.7431831598 Hartrees.
 Leave Link  301 at Tue May  3 17:08:19 2022, MaxMem= 10066329600 cpu:               1.6 elap:               0.1
 (Enter /sw/apps/gaussian-16.0/g16/l302.exe)
 NPDir=0 NMtPBC=     1 NCelOv=     1 NCel=       1 NClECP=     1 NCelD=      1
         NCelK=      1 NCelE2=     1 NClLst=     1 CellRange=     0.0.
 One-electron integrals computed using PRISM.
 One-electron integral symmetry used in STVInt
   1 Symmetry operations used in ECPInt.
 ECPInt:  NShTT=  192510 NPrTT=  683786 LenC2=   97220 LenP2D=  211927.
 LDataN:  DoStor=T MaxTD1= 4 Len=   56
 NBasis=  1298 RedAO= T EigKep=  2.83D-04  NBF=  1298
 NBsUse=  1298 1.00D-06 EigRej= -1.00D+00 NBFU=  1298
 Precomputing XC quadrature grid using
 IXCGrd= 4 IRadAn=           5 IRanWt=          -1 IRanGd=           0 AccXCQ= 0.00D+00.
 Generated NRdTot=       0 NPtTot=           0 NUsed=           0 NTot=          32
 NSgBfM=  1164  1164  1164  1164  1164 MxSgAt=   140 MxSgA2=   140.
 Leave Link  302 at Tue May  3 17:08:23 2022, MaxMem= 10066329600 cpu:             101.6 elap:               4.3
 (Enter /sw/apps/gaussian-16.0/g16/l303.exe)
 DipDrv:  MaxL=1.
 Leave Link  303 at Tue May  3 17:08:24 2022, MaxMem= 10066329600 cpu:               8.8 elap:               0.4
 (Enter /sw/apps/gaussian-16.0/g16/l308.exe)
 Leave Link  308 at Tue May  3 17:08:24 2022, MaxMem= 10066329600 cpu:              13.2 elap:               0.6
 (Enter /sw/apps/gaussian-16.0/g16/l401.exe)
 ExpMin= 3.36D-02 ExpMax= 4.95D+03 ExpMxC= 7.45D+02 IAcc=3 IRadAn=         5 AccDes= 0.00D+00
 Harris functional with IExCor= 4639 and IRadAn=       5 diagonalized for initial guess.
 HarFok:  IExCor= 4639 AccDes= 0.00D+00 IRadAn=         5 IDoV= 1 UseB2=F ITyADJ=14
 ICtDFT=  3500011 ScaDFX=  1.000000  1.000000  1.000000  1.000000
 FoFCou: FMM=F IPFlag=           0 FMFlag=      100000 FMFlg1=        2001
         NFxFlg=           0 DoJE=T BraDBF=F KetDBF=T FulRan=T
         wScrn=  0.000000 ICntrl=       500 IOpCl=  0 I1Cent=   200000004 NGrid=           0
         NMat0=    1 NMatS0=      1 NMatT0=    0 NMatD0=    1 NMtDS0=    0 NMtDT0=    0
 Petite list used in FoFCou.
 Harris En= -2877.99597874835    
 JPrj=0 DoOrth=F DoCkMO=F.
 Leave Link  401 at Tue May  3 17:08:30 2022, MaxMem= 10066329600 cpu:             146.7 elap:               6.2
 (Enter /sw/apps/gaussian-16.0/g16/l502.exe)
 Integral symmetry usage will be decided dynamically.
 Closed shell SCF:
 Using DIIS extrapolation, IDIIS=  1040.
 NGot= 10066329600 LenX= 10062561258 LenY= 10060699398
 Requested convergence on RMS density matrix=1.00D-08 within 128 cycles.
 Requested convergence on MAX density matrix=1.00D-06.
 Requested convergence on             energy=1.00D-06.
 No special actions if energy rises.
 Fock matrices will be formed incrementally for  20 cycles.

 Cycle   1  Pass 1  IDiag  1:
 FoFJK:  IHMeth= 1 ICntrl=       0 DoSepK=T KAlg= 0 I1Cent=           0 FoldK=F
 IRaf=         1 NMat=       1 IRICut=       1 DoRegI=T DoRafI=F ISym2E= 0 IDoP0=0 IntGTp=1.
 FoFCou: FMM=T IPFlag=           0 FMFlag=      100000 FMFlg1=        2001
         NFxFlg=           0 DoJE=T BraDBF=F KetDBF=F FulRan=T
         wScrn=  0.000000 ICntrl=       500 IOpCl=  0 I1Cent=           0 NGrid=           0
         NMat0=    1 NMatS0=      1 NMatT0=    0 NMatD0=    1 NMtDS0=    0 NMtDT0=    0
 Symmetry not used in FoFCou.
 FMM levels:  10  Number of levels for PrismC:   9
 E= -3007.19006900789    
 DIIS: error= 2.08D-02 at cycle   1 NSaved=   1.
 NSaved= 1 IEnMin= 1 EnMin= -3007.19006900789     IErMin= 1 ErrMin= 2.08D-02
 ErrMax= 2.08D-02  0.00D+00 EMaxC= 1.00D-01 BMatC= 1.48D+00 BMatP= 1.48D+00
 IDIUse=3 WtCom= 7.92D-01 WtEn= 2.08D-01
 Coeff-Com:  0.100D+01
 Coeff-En:   0.100D+01
 Coeff:      0.100D+01
 Gap=     0.155 Goal=   None    Shift=    0.000
 GapD=    0.155 DampG=1.000 DampE=0.500 DampFc=0.5000 IDamp=-1.
 Damping current iteration by 5.00D-01
 RMSDP=1.51D-03 MaxDP=1.91D-01              OVMax= 1.77D-01

 Cycle   2  Pass 1  IDiag  1:
 RMSU=  7.48D-04    CP:  9.87D-01
 E= -3007.51253840350     Delta-E=       -0.322469395609 Rises=F Damp=T
 DIIS: error= 1.17D-02 at cycle   2 NSaved=   2.
 NSaved= 2 IEnMin= 2 EnMin= -3007.51253840350     IErMin= 2 ErrMin= 1.17D-02
 ErrMax= 1.17D-02  0.00D+00 EMaxC= 1.00D-01 BMatC= 2.87D-01 BMatP= 1.48D+00
 IDIUse=3 WtCom= 8.83D-01 WtEn= 1.17D-01
 Coeff-Com: -0.365D+00 0.137D+01
 Coeff-En:   0.000D+00 0.100D+01
 Coeff:     -0.322D+00 0.132D+01
 Gap=     0.181 Goal=   None    Shift=    0.000
 RMSDP=7.06D-04 MaxDP=9.13D-02 DE=-3.22D-01 OVMax= 1.56D-01

 Cycle   3  Pass 1  IDiag  1:
 RMSU=  6.49D-04    CP:  9.79D-01  1.36D+00
 E= -3007.74785277450     Delta-E=       -0.235314371002 Rises=F Damp=F
 DIIS: error= 1.25D-02 at cycle   3 NSaved=   3.
 NSaved= 3 IEnMin= 3 EnMin= -3007.74785277450     IErMin= 2 ErrMin= 1.17D-02
 ErrMax= 1.25D-02  0.00D+00 EMaxC= 1.00D-01 BMatC= 1.31D-01 BMatP= 2.87D-01
 IDIUse=3 WtCom= 8.75D-01 WtEn= 1.25D-01
 Coeff-Com: -0.311D+00 0.688D+00 0.623D+00
 Coeff-En:   0.000D+00 0.000D+00 0.100D+01
 Coeff:     -0.272D+00 0.602D+00 0.671D+00
 Gap=     0.163 Goal=   None    Shift=    0.000
 RMSDP=4.11D-04 MaxDP=4.45D-02 DE=-2.35D-01 OVMax= 1.06D-01

 Cycle   4  Pass 1  IDiag  1:
 RMSU=  2.16D-04    CP:  9.75D-01  1.64D+00  5.72D-01
 E= -3007.84516356981     Delta-E=       -0.097310795307 Rises=F Damp=F
 DIIS: error= 4.43D-03 at cycle   4 NSaved=   4.
 NSaved= 4 IEnMin= 4 EnMin= -3007.84516356981     IErMin= 4 ErrMin= 4.43D-03
 ErrMax= 4.43D-03  0.00D+00 EMaxC= 1.00D-01 BMatC= 1.89D-02 BMatP= 1.31D-01
 IDIUse=3 WtCom= 9.56D-01 WtEn= 4.43D-02
 Coeff-Com: -0.118D+00 0.236D+00 0.368D+00 0.514D+00
 Coeff-En:   0.000D+00 0.000D+00 0.918D-01 0.908D+00
 Coeff:     -0.112D+00 0.225D+00 0.355D+00 0.532D+00
 Gap=     0.161 Goal=   None    Shift=    0.000
 RMSDP=1.30D-04 MaxDP=1.29D-02 DE=-9.73D-02 OVMax= 3.45D-02

 Cycle   5  Pass 1  IDiag  1:
 RMSU=  6.04D-05    CP:  9.75D-01  1.60D+00  7.01D-01  6.57D-01
 E= -3007.86117392803     Delta-E=       -0.016010358226 Rises=F Damp=F
 DIIS: error= 5.57D-04 at cycle   5 NSaved=   5.
 NSaved= 5 IEnMin= 5 EnMin= -3007.86117392803     IErMin= 5 ErrMin= 5.57D-04
 ErrMax= 5.57D-04  0.00D+00 EMaxC= 1.00D-01 BMatC= 4.17D-04 BMatP= 1.89D-02
 IDIUse=3 WtCom= 9.94D-01 WtEn= 5.57D-03
 Coeff-Com: -0.314D-01 0.600D-01 0.121D+00 0.230D+00 0.620D+00
 Coeff-En:   0.000D+00 0.000D+00 0.000D+00 0.000D+00 0.100D+01
 Coeff:     -0.312D-01 0.596D-01 0.120D+00 0.229D+00 0.622D+00
 Gap=     0.161 Goal=   None    Shift=    0.000
 RMSDP=2.59D-05 MaxDP=5.65D-03 DE=-1.60D-02 OVMax= 4.87D-03

 Cycle   6  Pass 1  IDiag  1:
 RMSU=  2.16D-05    CP:  9.75D-01  1.61D+00  7.02D-01  7.10D-01  8.96D-01
 E= -3007.86152082209     Delta-E=       -0.000346894056 Rises=F Damp=F
 DIIS: error= 2.57D-04 at cycle   6 NSaved=   6.
 NSaved= 6 IEnMin= 6 EnMin= -3007.86152082209     IErMin= 6 ErrMin= 2.57D-04
 ErrMax= 2.57D-04  0.00D+00 EMaxC= 1.00D-01 BMatC= 6.55D-05 BMatP= 4.17D-04
 IDIUse=3 WtCom= 9.97D-01 WtEn= 2.57D-03
 Coeff-Com:  0.998D-02-0.214D-01-0.170D-01 0.162D-03 0.290D+00 0.738D+00
 Coeff-En:   0.000D+00 0.000D+00 0.000D+00 0.000D+00 0.000D+00 0.100D+01
 Coeff:      0.995D-02-0.213D-01-0.170D-01 0.162D-03 0.289D+00 0.739D+00
 Gap=     0.162 Goal=   None    Shift=    0.000
 RMSDP=1.26D-05 MaxDP=1.36D-03 DE=-3.47D-04 OVMax= 5.47D-03

 Cycle   7  Pass 1  IDiag  1:
 RMSU=  8.82D-06    CP:  9.75D-01  1.61D+00  7.08D-01  7.23D-01  1.01D+00
                    CP:  9.21D-01
 E= -3007.86160770942     Delta-E=       -0.000086887336 Rises=F Damp=F
 DIIS: error= 6.31D-05 at cycle   7 NSaved=   7.
 NSaved= 7 IEnMin= 7 EnMin= -3007.86160770942     IErMin= 7 ErrMin= 6.31D-05
 ErrMax= 6.31D-05  0.00D+00 EMaxC= 1.00D-01 BMatC= 8.47D-06 BMatP= 6.55D-05
 IDIUse=1 WtCom= 1.00D+00 WtEn= 0.00D+00
 Coeff-Com:  0.705D-02-0.144D-01-0.178D-01-0.221D-01 0.567D-01 0.320D+00
 Coeff-Com:  0.670D+00
 Coeff:      0.705D-02-0.144D-01-0.178D-01-0.221D-01 0.567D-01 0.320D+00
 Coeff:      0.670D+00
 Gap=     0.162 Goal=   None    Shift=    0.000
 RMSDP=5.49D-06 MaxDP=1.26D-03 DE=-8.69D-05 OVMax= 1.94D-03

 Cycle   8  Pass 1  IDiag  1:
 RMSU=  3.82D-06    CP:  9.75D-01  1.61D+00  7.09D-01  7.28D-01  1.04D+00
                    CP:  1.07D+00  1.05D+00
 E= -3007.86162490166     Delta-E=       -0.000017192238 Rises=F Damp=F
 DIIS: error= 3.43D-05 at cycle   8 NSaved=   8.
 NSaved= 8 IEnMin= 8 EnMin= -3007.86162490166     IErMin= 8 ErrMin= 3.43D-05
 ErrMax= 3.43D-05  0.00D+00 EMaxC= 1.00D-01 BMatC= 1.68D-06 BMatP= 8.47D-06
 IDIUse=1 WtCom= 1.00D+00 WtEn= 0.00D+00
 Coeff-Com:  0.117D-02-0.208D-02-0.474D-02-0.110D-01-0.431D-01-0.144D-01
 Coeff-Com:  0.272D+00 0.802D+00
 Coeff:      0.117D-02-0.208D-02-0.474D-02-0.110D-01-0.431D-01-0.144D-01
 Coeff:      0.272D+00 0.802D+00
 Gap=     0.162 Goal=   None    Shift=    0.000
 RMSDP=3.75D-06 MaxDP=3.10D-04 DE=-1.72D-05 OVMax= 2.56D-03

 Cycle   9  Pass 1  IDiag  1:
 RMSU=  2.06D-06    CP:  9.75D-01  1.61D+00  7.10D-01  7.29D-01  1.06D+00
                    CP:  1.12D+00  1.32D+00  1.31D+00
 E= -3007.86163370237     Delta-E=       -0.000008800707 Rises=F Damp=F
 DIIS: error= 2.12D-05 at cycle   9 NSaved=   9.
 NSaved= 9 IEnMin= 9 EnMin= -3007.86163370237     IErMin= 9 ErrMin= 2.12D-05
 ErrMax= 2.12D-05  0.00D+00 EMaxC= 1.00D-01 BMatC= 5.84D-07 BMatP= 1.68D-06
 IDIUse=1 WtCom= 1.00D+00 WtEn= 0.00D+00
 Coeff-Com: -0.140D-02 0.288D-02 0.306D-02 0.299D-02-0.242D-01-0.707D-01
 Coeff-Com: -0.122D+00 0.237D+00 0.972D+00
 Coeff:     -0.140D-02 0.288D-02 0.306D-02 0.299D-02-0.242D-01-0.707D-01
 Coeff:     -0.122D+00 0.237D+00 0.972D+00
 Gap=     0.162 Goal=   None    Shift=    0.000
 RMSDP=3.21D-06 MaxDP=2.40D-04 DE=-8.80D-06 OVMax= 2.07D-03

 Cycle  10  Pass 1  IDiag  1:
 RMSU=  1.07D-06    CP:  9.75D-01  1.61D+00  7.10D-01  7.30D-01  1.06D+00
                    CP:  1.17D+00  1.50D+00  1.81D+00  1.64D+00
 E= -3007.86163865528     Delta-E=       -0.000004952908 Rises=F Damp=F
 DIIS: error= 1.57D-05 at cycle  10 NSaved=  10.
 NSaved=10 IEnMin=10 EnMin= -3007.86163865528     IErMin=10 ErrMin= 1.57D-05
 ErrMax= 1.57D-05  0.00D+00 EMaxC= 1.00D-01 BMatC= 2.21D-07 BMatP= 5.84D-07
 IDIUse=1 WtCom= 1.00D+00 WtEn= 0.00D+00
 Coeff-Com: -0.112D-02 0.215D-02 0.335D-02 0.659D-02 0.899D-02-0.196D-01
 Coeff-Com: -0.201D+00-0.233D+00 0.374D+00 0.106D+01
 Coeff:     -0.112D-02 0.215D-02 0.335D-02 0.659D-02 0.899D-02-0.196D-01
 Coeff:     -0.201D+00-0.233D+00 0.374D+00 0.106D+01
 Gap=     0.162 Goal=   None    Shift=    0.000
 RMSDP=3.12D-06 MaxDP=2.40D-04 DE=-4.95D-06 OVMax= 2.24D-03

 Cycle  11  Pass 1  IDiag  1:
 RMSU=  6.82D-07    CP:  9.75D-01  1.61D+00  7.10D-01  7.30D-01  1.07D+00
                    CP:  1.21D+00  1.67D+00  2.26D+00  2.47D+00  1.67D+00
 E= -3007.86164154065     Delta-E=       -0.000002885374 Rises=F Damp=F
 DIIS: error= 6.92D-06 at cycle  11 NSaved=  11.
 NSaved=11 IEnMin=11 EnMin= -3007.86164154065     IErMin=11 ErrMin= 6.92D-06
 ErrMax= 6.92D-06  0.00D+00 EMaxC= 1.00D-01 BMatC= 8.22D-08 BMatP= 2.21D-07
 IDIUse=1 WtCom= 1.00D+00 WtEn= 0.00D+00
 Coeff-Com: -0.696D-04 0.900D-04 0.479D-03 0.211D-02 0.105D-01 0.146D-01
 Coeff-Com: -0.563D-01-0.154D+00-0.156D+00 0.426D+00 0.913D+00
 Coeff:     -0.696D-04 0.900D-04 0.479D-03 0.211D-02 0.105D-01 0.146D-01
 Coeff:     -0.563D-01-0.154D+00-0.156D+00 0.426D+00 0.913D+00
 Gap=     0.162 Goal=   None    Shift=    0.000
 RMSDP=1.75D-06 MaxDP=1.29D-04 DE=-2.89D-06 OVMax= 1.18D-03

 Cycle  12  Pass 1  IDiag  1:
 RMSU=  3.76D-07    CP:  9.75D-01  1.61D+00  7.10D-01  7.30D-01  1.07D+00
                    CP:  1.22D+00  1.74D+00  2.52D+00  2.94D+00  2.27D+00
                    CP:  1.44D+00
 E= -3007.86164236570     Delta-E=       -0.000000825050 Rises=F Damp=F
 DIIS: error= 4.54D-06 at cycle  12 NSaved=  12.
 NSaved=12 IEnMin=12 EnMin= -3007.86164236570     IErMin=12 ErrMin= 4.54D-06
 ErrMax= 4.54D-06  0.00D+00 EMaxC= 1.00D-01 BMatC= 2.44D-08 BMatP= 8.22D-08
 IDIUse=1 WtCom= 1.00D+00 WtEn= 0.00D+00
 Coeff-Com:  0.449D-03-0.888D-03-0.128D-02-0.180D-02 0.353D-03 0.154D-01
 Coeff-Com:  0.591D-01 0.471D-01-0.222D+00-0.302D+00 0.406D+00 0.999D+00
 Coeff:      0.449D-03-0.888D-03-0.128D-02-0.180D-02 0.353D-03 0.154D-01
 Coeff:      0.591D-01 0.471D-01-0.222D+00-0.302D+00 0.406D+00 0.999D+00
 Gap=     0.162 Goal=   None    Shift=    0.000
 RMSDP=1.13D-06 MaxDP=9.16D-05 DE=-8.25D-07 OVMax= 8.18D-04

 Cycle  13  Pass 1  IDiag  1:
 RMSU=  5.53D-07    CP:  9.75D-01  1.61D+00  7.10D-01  7.30D-01  1.07D+00
                    CP:  1.22D+00  1.79D+00  2.64D+00  3.00D+00  2.72D+00
                    CP:  2.03D+00  1.34D+00
 E= -3007.86164259974     Delta-E=       -0.000000234038 Rises=F Damp=F
 DIIS: error= 1.48D-06 at cycle  13 NSaved=  13.
 NSaved=13 IEnMin=13 EnMin= -3007.86164259974     IErMin=13 ErrMin= 1.48D-06
 ErrMax= 1.48D-06  0.00D+00 EMaxC= 1.00D-01 BMatC= 5.08D-09 BMatP= 2.44D-08
 IDIUse=1 WtCom= 1.00D+00 WtEn= 0.00D+00
 Coeff-Com:  0.213D-03-0.416D-03-0.667D-03-0.116D-02-0.175D-02 0.400D-02
 Coeff-Com:  0.350D-01 0.491D-01-0.653D-01-0.221D+00 0.397D-02 0.450D+00
 Coeff-Com:  0.747D+00
 Coeff:      0.213D-03-0.416D-03-0.667D-03-0.116D-02-0.175D-02 0.400D-02
 Coeff:      0.350D-01 0.491D-01-0.653D-01-0.221D+00 0.397D-02 0.450D+00
 Coeff:      0.747D+00
 Gap=     0.162 Goal=   None    Shift=    0.000
 RMSDP=3.48D-07 MaxDP=2.45D-05 DE=-2.34D-07 OVMax= 2.32D-04

 Cycle  14  Pass 1  IDiag  1:
 RMSU=  9.58D-08    CP:  9.75D-01  1.61D+00  7.10D-01  7.30D-01  1.07D+00
                    CP:  1.22D+00  1.80D+00  2.68D+00  3.00D+00  2.86D+00
                    CP:  2.24D+00  1.58D+00  1.31D+00
 E= -3007.86164262500     Delta-E=       -0.000000025260 Rises=F Damp=F
 DIIS: error= 6.02D-07 at cycle  14 NSaved=  14.
 NSaved=14 IEnMin=14 EnMin= -3007.86164262500     IErMin=14 ErrMin= 6.02D-07
 ErrMax= 6.02D-07  0.00D+00 EMaxC= 1.00D-01 BMatC= 5.97D-10 BMatP= 5.08D-09
 IDIUse=1 WtCom= 1.00D+00 WtEn= 0.00D+00
 Coeff-Com: -0.256D-04 0.531D-04 0.508D-04 0.235D-04-0.524D-03-0.186D-02
 Coeff-Com: -0.212D-02 0.495D-02 0.270D-01-0.742D-02-0.753D-01-0.484D-01
 Coeff-Com:  0.159D+00 0.944D+00
 Coeff:     -0.256D-04 0.531D-04 0.508D-04 0.235D-04-0.524D-03-0.186D-02
 Coeff:     -0.212D-02 0.495D-02 0.270D-01-0.742D-02-0.753D-01-0.484D-01
 Coeff:      0.159D+00 0.944D+00
 Gap=     0.162 Goal=   None    Shift=    0.000
 RMSDP=1.18D-07 MaxDP=1.66D-05 DE=-2.53D-08 OVMax= 7.90D-05

 Cycle  15  Pass 1  IDiag  1:
 RMSU=  6.20D-08    CP:  9.75D-01  1.61D+00  7.10D-01  7.30D-01  1.07D+00
                    CP:  1.22D+00  1.81D+00  2.68D+00  3.00D+00  2.90D+00
                    CP:  2.30D+00  1.69D+00  1.41D+00  1.17D+00
 E= -3007.86164262937     Delta-E=       -0.000000004373 Rises=F Damp=F
 DIIS: error= 3.82D-07 at cycle  15 NSaved=  15.
 NSaved=15 IEnMin=15 EnMin= -3007.86164262937     IErMin=15 ErrMin= 3.82D-07
 ErrMax= 3.82D-07  0.00D+00 EMaxC= 1.00D-01 BMatC= 3.26D-10 BMatP= 5.97D-10
 IDIUse=1 WtCom= 1.00D+00 WtEn= 0.00D+00
 Coeff-Com: -0.593D-04 0.117D-03 0.169D-03 0.260D-03 0.131D-03-0.175D-02
 Coeff-Com: -0.882D-02-0.862D-02 0.274D-01 0.435D-01-0.342D-01-0.111D+00
 Coeff-Com: -0.119D+00 0.484D+00 0.727D+00
 Coeff:     -0.593D-04 0.117D-03 0.169D-03 0.260D-03 0.131D-03-0.175D-02
 Coeff:     -0.882D-02-0.862D-02 0.274D-01 0.435D-01-0.342D-01-0.111D+00
 Coeff:     -0.119D+00 0.484D+00 0.727D+00
 Gap=     0.162 Goal=   None    Shift=    0.000
 RMSDP=5.30D-08 MaxDP=4.24D-06 DE=-4.37D-09 OVMax= 3.39D-05

 Cycle  16  Pass 1  IDiag  1:
 RMSU=  2.65D-08    CP:  9.75D-01  1.61D+00  7.10D-01  7.30D-01  1.07D+00
                    CP:  1.22D+00  1.81D+00  2.69D+00  3.00D+00  2.91D+00
                    CP:  2.33D+00  1.74D+00  1.44D+00  1.39D+00  1.44D+00
 E= -3007.86164263081     Delta-E=       -0.000000001441 Rises=F Damp=F
 DIIS: error= 2.57D-07 at cycle  16 NSaved=  16.
 NSaved=16 IEnMin=16 EnMin= -3007.86164263081     IErMin=16 ErrMin= 2.57D-07
 ErrMax= 2.57D-07  0.00D+00 EMaxC= 1.00D-01 BMatC= 7.50D-11 BMatP= 3.26D-10
 IDIUse=1 WtCom= 1.00D+00 WtEn= 0.00D+00
 Coeff-Com: -0.778D-05 0.145D-04 0.275D-04 0.571D-04 0.210D-03 0.154D-03
 Coeff-Com: -0.177D-02-0.379D-02 0.735D-03 0.128D-01 0.970D-02-0.106D-01
 Coeff-Com: -0.105D+00-0.135D+00 0.168D+00 0.106D+01
 Coeff:     -0.778D-05 0.145D-04 0.275D-04 0.571D-04 0.210D-03 0.154D-03
 Coeff:     -0.177D-02-0.379D-02 0.735D-03 0.128D-01 0.970D-02-0.106D-01
 Coeff:     -0.105D+00-0.135D+00 0.168D+00 0.106D+01
 Gap=     0.162 Goal=   None    Shift=    0.000
 RMSDP=4.93D-08 MaxDP=3.97D-06 DE=-1.44D-09 OVMax= 3.11D-05

 Cycle  17  Pass 1  IDiag  1:
 RMSU=  1.37D-08    CP:  9.75D-01  1.61D+00  7.10D-01  7.30D-01  1.07D+00
                    CP:  1.22D+00  1.81D+00  2.69D+00  3.00D+00  2.91D+00
                    CP:  2.34D+00  1.77D+00  1.46D+00  1.59D+00  1.97D+00
                    CP:  1.55D+00
 E= -3007.86164263145     Delta-E=       -0.000000000637 Rises=F Damp=F
 DIIS: error= 1.49D-07 at cycle  17 NSaved=  17.
 NSaved=17 IEnMin=17 EnMin= -3007.86164263145     IErMin=17 ErrMin= 1.49D-07
 ErrMax= 1.49D-07  0.00D+00 EMaxC= 1.00D-01 BMatC= 2.67D-11 BMatP= 7.50D-11
 IDIUse=1 WtCom= 1.00D+00 WtEn= 0.00D+00
 Coeff-Com:  0.204D-04-0.408D-04-0.588D-04-0.841D-04 0.302D-04 0.762D-03
 Coeff-Com:  0.282D-02 0.210D-02-0.106D-01-0.135D-01 0.176D-01 0.470D-01
 Coeff-Com:  0.374D-02-0.221D+00-0.234D+00 0.360D+00 0.104D+01
 Coeff:      0.204D-04-0.408D-04-0.588D-04-0.841D-04 0.302D-04 0.762D-03
 Coeff:      0.282D-02 0.210D-02-0.106D-01-0.135D-01 0.176D-01 0.470D-01
 Coeff:      0.374D-02-0.221D+00-0.234D+00 0.360D+00 0.104D+01
 Gap=     0.162 Goal=   None    Shift=    0.000
 RMSDP=3.31D-08 MaxDP=2.47D-06 DE=-6.37D-10 OVMax= 2.07D-05

 Cycle  18  Pass 1  IDiag  1:
 RMSU=  8.51D-09    CP:  9.75D-01  1.61D+00  7.10D-01  7.30D-01  1.07D+00
                    CP:  1.22D+00  1.81D+00  2.69D+00  3.00D+00  2.92D+00
                    CP:  2.34D+00  1.79D+00  1.47D+00  1.71D+00  2.35D+00
                    CP:  2.07D+00  1.70D+00
 E= -3007.86164263171     Delta-E=       -0.000000000258 Rises=F Damp=F
 DIIS: error= 7.87D-08 at cycle  18 NSaved=  18.
 NSaved=18 IEnMin=18 EnMin= -3007.86164263171     IErMin=18 ErrMin= 7.87D-08
 ErrMax= 7.87D-08  0.00D+00 EMaxC= 1.00D-01 BMatC= 8.28D-12 BMatP= 2.67D-11
 IDIUse=1 WtCom= 1.00D+00 WtEn= 0.00D+00
 Coeff-Com:  0.111D-04-0.218D-04-0.349D-04-0.543D-04-0.513D-04 0.277D-03
 Coeff-Com:  0.176D-02 0.218D-02-0.466D-02-0.100D-01 0.389D-02 0.241D-01
 Coeff-Com:  0.314D-01-0.567D-01-0.154D+00-0.171D+00 0.462D+00 0.871D+00
 Coeff:      0.111D-04-0.218D-04-0.349D-04-0.543D-04-0.513D-04 0.277D-03
 Coeff:      0.176D-02 0.218D-02-0.466D-02-0.100D-01 0.389D-02 0.241D-01
 Coeff:      0.314D-01-0.567D-01-0.154D+00-0.171D+00 0.462D+00 0.871D+00
 Gap=     0.162 Goal=   None    Shift=    0.000
 RMSDP=1.73D-08 MaxDP=1.23D-06 DE=-2.58D-10 OVMax= 1.08D-05

 Cycle  19  Pass 1  IDiag  1:
 RMSU=  3.54D-09    CP:  9.75D-01  1.61D+00  7.10D-01  7.30D-01  1.07D+00
                    CP:  1.22D+00  1.81D+00  2.69D+00  3.00D+00  2.92D+00
                    CP:  2.35D+00  1.79D+00  1.47D+00  1.78D+00  2.53D+00
                    CP:  2.34D+00  2.22D+00  1.30D+00
 E= -3007.86164263186     Delta-E=       -0.000000000147 Rises=F Damp=F
 DIIS: error= 2.69D-08 at cycle  19 NSaved=  19.
 NSaved=19 IEnMin=19 EnMin= -3007.86164263186     IErMin=19 ErrMin= 2.69D-08
 ErrMax= 2.69D-08  0.00D+00 EMaxC= 1.00D-01 BMatC= 1.75D-12 BMatP= 8.28D-12
 IDIUse=1 WtCom= 1.00D+00 WtEn= 0.00D+00
 Coeff-Com: -0.291D-06 0.762D-06-0.867D-06-0.211D-05-0.300D-04-0.722D-04
 Coeff-Com:  0.518D-04 0.440D-03 0.582D-03-0.118D-02-0.258D-02-0.953D-03
 Coeff-Com:  0.124D-01 0.313D-01-0.432D-02-0.166D+00-0.565D-01 0.375D+00
 Coeff-Com:  0.812D+00
 Coeff:     -0.291D-06 0.762D-06-0.867D-06-0.211D-05-0.300D-04-0.722D-04
 Coeff:      0.518D-04 0.440D-03 0.582D-03-0.118D-02-0.258D-02-0.953D-03
 Coeff:      0.124D-01 0.313D-01-0.432D-02-0.166D+00-0.565D-01 0.375D+00
 Coeff:      0.812D+00
 Gap=     0.162 Goal=   None    Shift=    0.000
 RMSDP=5.95D-09 MaxDP=4.83D-07 DE=-1.47D-10 OVMax= 3.72D-06

 SCF Done:  E(RwB97XD) =  -3007.86164263     A.U. after   19 cycles
            NFock= 19  Conv=0.60D-08     -V/T= 2.0107
 KE= 2.975917813741D+03 PE=-2.634547088205D+04 EE= 1.068594824251D+04
 Leave Link  502 at Tue May  3 17:17:59 2022, MaxMem= 10066329600 cpu:           13191.6 elap:             568.9
 (Enter /sw/apps/gaussian-16.0/g16/l801.exe)
 DoSCS=F DFT=T ScalE2(SS,OS)=  1.000000  1.000000
 ExpMin= 3.36D-02 ExpMax= 4.95D+03 ExpMxC= 7.45D+02 IAcc=3 IRadAn=         5 AccDes= 0.00D+00
 HarFok:  IExCor=  205 AccDes= 0.00D+00 IRadAn=         5 IDoV=-2 UseB2=F ITyADJ=14
 ICtDFT= 12500011 ScaDFX=  1.000000  1.000000  1.000000  1.000000
 GSVD:  LWork=       -5460 too small for GESVD, short by       25550 words or       25550 for optimal perf.
 Largest valence mixing into a core orbital is  1.53D-04
 Largest core mixing into a valence orbital is  5.49D-05
 Range of M.O.s used for correlation:    71  1298
 NBasis=  1298 NAE=   246 NBE=   246 NFC=    70 NFV=     0
 NROrb=   1228 NOA=   176 NOB=   176 NVA=  1052 NVB=  1052
 Leave Link  801 at Tue May  3 17:18:00 2022, MaxMem= 10066329600 cpu:               9.6 elap:               0.4
 (Enter /sw/apps/gaussian-16.0/g16/l914.exe)
 RHF ground state
 Two-electron integrals replicated using symmetry.
 MDV= 10066329600 DFT=T DoStab=F Mixed=T DoRPA=T DoScal=F NonHer=T
 Making orbital integer symmetry assigments:
 Orbital symmetries:
       Occupied  (A) (A) (A) (A) (A) (A) (A) (A) (A) (A) (A) (A)
                 (A) (A) (A) (A) (A) (A) (A) (A) (A) (A) (A) (A)
                 (A) (A) (A) (A) (A) (A) (A) (A) (A) (A) (A) (A)
                 (A) (A) (A) (A) (A) (A) (A) (A) (A) (A) (A) (A)
                 (A) (A) (A) (A) (A) (A) (A) (A) (A) (A) (A) (A)
                 (A) (A) (A) (A) (A) (A) (A) (A) (A) (A) (A) (A)
                 (A) (A) (A) (A) (A) (A) (A) (A) (A) (A) (A) (A)
                 (A) (A) (A) (A) (A) (A) (A) (A) (A) (A) (A) (A)
                 (A) (A) (A) (A) (A) (A) (A) (A) (A) (A) (A) (A)
                 (A) (A) (A) (A) (A) (A) (A) (A) (A) (A) (A) (A)
                 (A) (A) (A) (A) (A) (A) (A) (A) (A) (A) (A) (A)
                 (A) (A) (A) (A) (A) (A) (A) (A) (A) (A) (A) (A)
                 (A) (A) (A) (A) (A) (A) (A) (A) (A) (A) (A) (A)
                 (A) (A) (A) (A) (A) (A) (A) (A) (A) (A) (A) (A)
                 (A) (A) (A) (A) (A) (A) (A) (A) (A) (A) (A) (A)
                 (A) (A) (A) (A) (A) (A) (A) (A) (A) (A) (A) (A)
                 (A) (A) (A) (A) (A) (A) (A) (A) (A) (A) (A) (A)
                 (A) (A) (A) (A) (A) (A) (A) (A) (A) (A) (A) (A)
                 (A) (A) (A) (A) (A) (A) (A) (A) (A) (A) (A) (A)
                 (A) (A) (A) (A) (A) (A) (A) (A) (A) (A) (A) (A)
                 (A) (A) (A) (A) (A) (A)
       Virtual   (A) (A) (A) (A) (A) (A) (A) (A) (A) (A) (A) (A)
                 (A) (A) (A) (A) (A) (A) (A) (A) (A) (A) (A) (A)
                 (A) (A) (A) (A) (A) (A) (A) (A) (A) (A) (A) (A)
                 (A) (A) (A) (A) (A) (A) (A) (A) (A) (A) (A) (A)
                 (A) (A) (A) (A) (A) (A) (A) (A) (A) (A) (A) (A)
                 (A) (A) (A) (A) (A) (A) (A) (A) (A) (A) (A) (A)
                 (A) (A) (A) (A) (A) (A) (A) (A) (A) (A) (A) (A)
                 (A) (A) (A) (A) (A) (A) (A) (A) (A) (A) (A) (A)
                 (A) (A) (A) (A) (A) (A) (A) (A) (A) (A) (A) (A)
                 (A) (A) (A) (A) (A) (A) (A) (A) (A) (A) (A) (A)
                 (A) (A) (A) (A) (A) (A) (A) (A) (A) (A) (A) (A)
                 (A) (A) (A) (A) (A) (A) (A) (A) (A) (A) (A) (A)
                 (A) (A) (A) (A) (A) (A) (A) (A) (A) (A) (A) (A)
                 (A) (A) (A) (A) (A) (A) (A) (A) (A) (A) (A) (A)
                 (A) (A) (A) (A) (A) (A) (A) (A) (A) (A) (A) (A)
                 (A) (A) (A) (A) (A) (A) (A) (A) (A) (A) (A) (A)
                 (A) (A) (A) (A) (A) (A) (A) (A) (A) (A) (A) (A)
                 (A) (A) (A) (A) (A) (A) (A) (A) (A) (A) (A) (A)
                 (A) (A) (A) (A) (A) (A) (A) (A) (A) (A) (A) (A)
                 (A) (A) (A) (A) (A) (A) (A) (A) (A) (A) (A) (A)
                 (A) (A) (A) (A) (A) (A) (A) (A) (A) (A) (A) (A)
                 (A) (A) (A) (A) (A) (A) (A) (A) (A) (A) (A) (A)
                 (A) (A) (A) (A) (A) (A) (A) (A) (A) (A) (A) (A)
                 (A) (A) (A) (A) (A) (A) (A) (A) (A) (A) (A) (A)
                 (A) (A) (A) (A) (A) (A) (A) (A) (A) (A) (A) (A)
                 (A) (A) (A) (A) (A) (A) (A) (A) (A) (A) (A) (A)
                 (A) (A) (A) (A) (A) (A) (A) (A) (A) (A) (A) (A)
                 (A) (A) (A) (A) (A) (A) (A) (A) (A) (A) (A) (A)
                 (A) (A) (A) (A) (A) (A) (A) (A) (A) (A) (A) (A)
                 (A) (A) (A) (A) (A) (A) (A) (A) (A) (A) (A) (A)
                 (A) (A) (A) (A) (A) (A) (A) (A) (A) (A) (A) (A)
                 (A) (A) (A) (A) (A) (A) (A) (A) (A) (A) (A) (A)
                 (A) (A) (A) (A) (A) (A) (A) (A) (A) (A) (A) (A)
                 (A) (A) (A) (A) (A) (A) (A) (A) (A) (A) (A) (A)
                 (A) (A) (A) (A) (A) (A) (A) (A) (A) (A) (A) (A)
                 (A) (A) (A) (A) (A) (A) (A) (A) (A) (A) (A) (A)
                 (A) (A) (A) (A) (A) (A) (A) (A) (A) (A) (A) (A)
                 (A) (A) (A) (A) (A) (A) (A) (A) (A) (A) (A) (A)
                 (A) (A) (A) (A) (A) (A) (A) (A) (A) (A) (A) (A)
                 (A) (A) (A) (A) (A) (A) (A) (A) (A) (A) (A) (A)
                 (A) (A) (A) (A) (A) (A) (A) (A) (A) (A) (A) (A)
                 (A) (A) (A) (A) (A) (A) (A) (A) (A) (A) (A) (A)
                 (A) (A) (A) (A) (A) (A) (A) (A) (A) (A) (A) (A)
                 (A) (A) (A) (A) (A) (A) (A) (A) (A) (A) (A) (A)
                 (A) (A) (A) (A) (A) (A) (A) (A) (A) (A) (A) (A)
                 (A) (A) (A) (A) (A) (A) (A) (A) (A) (A) (A) (A)
                 (A) (A) (A) (A) (A) (A) (A) (A) (A) (A) (A) (A)
                 (A) (A) (A) (A) (A) (A) (A) (A) (A) (A) (A) (A)
                 (A) (A) (A) (A) (A) (A) (A) (A) (A) (A) (A) (A)
                 (A) (A) (A) (A) (A) (A) (A) (A) (A) (A) (A) (A)
                 (A) (A) (A) (A) (A) (A) (A) (A) (A) (A) (A) (A)
                 (A) (A) (A) (A) (A) (A) (A) (A) (A) (A) (A) (A)
                 (A) (A) (A) (A) (A) (A) (A) (A) (A) (A) (A) (A)
                 (A) (A) (A) (A) (A) (A) (A) (A) (A) (A) (A) (A)
                 (A) (A) (A) (A) (A) (A) (A) (A) (A) (A) (A) (A)
                 (A) (A) (A) (A) (A) (A) (A) (A) (A) (A) (A) (A)
                 (A) (A) (A) (A) (A) (A) (A) (A) (A) (A) (A) (A)
                 (A) (A) (A) (A) (A) (A) (A) (A) (A) (A) (A) (A)
                 (A) (A) (A) (A) (A) (A) (A) (A) (A) (A) (A) (A)
                 (A) (A) (A) (A) (A) (A) (A) (A) (A) (A) (A) (A)
                 (A) (A) (A) (A) (A) (A) (A) (A) (A) (A) (A) (A)
                 (A) (A) (A) (A) (A) (A) (A) (A) (A) (A) (A) (A)
                 (A) (A) (A) (A) (A) (A) (A) (A) (A) (A) (A) (A)
                 (A) (A) (A) (A) (A) (A) (A) (A) (A) (A) (A) (A)
                 (A) (A) (A) (A) (A) (A) (A) (A) (A) (A) (A) (A)
                 (A) (A) (A) (A) (A) (A) (A) (A) (A) (A) (A) (A)
                 (A) (A) (A) (A) (A) (A) (A) (A) (A) (A) (A) (A)
                 (A) (A) (A) (A) (A) (A) (A) (A) (A) (A) (A) (A)
                 (A) (A) (A) (A) (A) (A) (A) (A) (A) (A) (A) (A)
                 (A) (A) (A) (A) (A) (A) (A) (A) (A) (A) (A) (A)
                 (A) (A) (A) (A) (A) (A) (A) (A) (A) (A) (A) (A)
                 (A) (A) (A) (A) (A) (A) (A) (A) (A) (A) (A) (A)
                 (A) (A) (A) (A) (A) (A) (A) (A) (A) (A) (A) (A)
                 (A) (A) (A) (A) (A) (A) (A) (A) (A) (A) (A) (A)
                 (A) (A) (A) (A) (A) (A) (A) (A) (A) (A) (A) (A)
                 (A) (A) (A) (A) (A) (A) (A) (A) (A) (A) (A) (A)
                 (A) (A) (A) (A) (A) (A) (A) (A) (A) (A) (A) (A)
                 (A) (A) (A) (A) (A) (A) (A) (A) (A) (A) (A) (A)
                 (A) (A) (A) (A) (A) (A) (A) (A) (A) (A) (A) (A)
                 (A) (A) (A) (A) (A) (A) (A) (A) (A) (A) (A) (A)
                 (A) (A) (A) (A) (A) (A) (A) (A) (A) (A) (A) (A)
                 (A) (A) (A) (A) (A) (A) (A) (A) (A) (A) (A) (A)
                 (A) (A) (A) (A) (A) (A) (A) (A) (A) (A) (A) (A)
                 (A) (A) (A) (A) (A) (A) (A) (A) (A) (A) (A) (A)
                 (A) (A) (A) (A) (A) (A) (A) (A) (A) (A) (A) (A)
                 (A) (A) (A) (A) (A) (A) (A) (A) (A) (A) (A) (A)
                 (A) (A) (A) (A) (A) (A) (A) (A) (A) (A) (A) (A)
                 (A) (A) (A) (A) (A) (A) (A) (A)
    20 initial guesses have been made.
 Convergence on wavefunction:    0.001000000000000
 Davidson Disk Diagonalization:  ConvIn= 1.00D-03 SkipCon=T Conv= 1.00D-03.
 Max sub-space:  2000 roots to seek:    20 dimension of matrix:       370304
 Iteration     1 Dimension    20 NMult     0 NNew     20
 CISAX will form    20 AO SS matrices at one time.
 NMat=    20 NSing=    20 JSym2X= 0.
 FoFJK:  IHMeth= 1 ICntrl=       0 DoSepK=T KAlg= 0 I1Cent=           0 FoldK=F
 IRaf=         1 NMat=      40 IRICut=       1 DoRegI=T DoRafI=F ISym2E= 0 IDoP0=3 IntGTp=3.
 FoFCou: FMM=T IPFlag=           0 FMFlag=      100000 FMFlg1=        2001
         NFxFlg=           0 DoJE=F BraDBF=F KetDBF=F FulRan=T
         wScrn=  0.000000 ICntrl=       500 IOpCl=  0 I1Cent=           0 NGrid=           0
         NMat0=   20 NMatS0=     20 NMatT0=    0 NMatD0=   20 NMtDS0=    0 NMtDT0=    0
 Symmetry not used in FoFCou.
 FMM levels:  10  Number of levels for PrismC:   9
 New state      3 was old state      4
 New state      4 was old state      3
 New state      5 was old state      7
 Excitation Energies [eV] at current iteration:
 Root      1 :     2.250382415096210
 Root      2 :     2.621684595974439
 Root      3 :     3.906705910360065
 Root      4 :     4.076450818114885
 Root      5 :     4.357493434408628
 Root      6 :     4.450147725760790
 Root      7 :     4.467766569154924
 Root      8 :     4.522467226669030
 Root      9 :     4.569616677342094
 Root     10 :     4.670952650818993
 Root     11 :     4.724376744566277
 Root     12 :     5.021794743361167
 Root     13 :     5.034210245010078
 Root     14 :     5.175079335691684
 Root     15 :     5.328733560275229
 Root     16 :     5.453975589343147
 Root     17 :     5.527240980004060
 Root     18 :     5.803259776135407
 Root     19 :     6.670835645193723
 Root     20 :     7.224363184211807
 Iteration     2 Dimension    30 NMult    20 NNew     10
 CISAX will form    10 AO SS matrices at one time.
 NMat=    10 NSing=    10 JSym2X= 0.
 Root      1 not converged, maximum delta is    0.076625212742129
 Root      2 not converged, maximum delta is    0.066421167714794
 Root      3 not converged, maximum delta is    0.244431672477472
 Root      4 not converged, maximum delta is    0.413998327408608
 Root      5 not converged, maximum delta is    0.187696705170848
 Excitation Energies [eV] at current iteration:
 Root      1 :     1.758035672041576   Change is   -0.492346743054633
 Root      2 :     2.213939893322938   Change is   -0.407744702651501
 Root      3 :     3.494806167979183   Change is   -0.411899742380882
 Root      4 :     3.621370357620496   Change is   -0.455080460494388
 Root      5 :     3.823442877577439   Change is   -0.534050556831189
 Iteration     3 Dimension    40 NMult    30 NNew     10
 CISAX will form    10 AO SS matrices at one time.
 NMat=    10 NSing=    10 JSym2X= 0.
 Root      1 not converged, maximum delta is    0.017542093553814
 Root      2 not converged, maximum delta is    0.010855457919050
 Root      3 not converged, maximum delta is    0.059221606777030
 Root      4 not converged, maximum delta is    0.080733587409974
 Root      5 not converged, maximum delta is    0.044476549356129
 Excitation Energies [eV] at current iteration:
 Root      1 :     1.721184765685110   Change is   -0.036850906356466
 Root      2 :     2.195491945541029   Change is   -0.018447947781909
 Root      3 :     3.466633603033923   Change is   -0.028172564945260
 Root      4 :     3.587052378929788   Change is   -0.034317978690708
 Root      5 :     3.788147477814203   Change is   -0.035295399763236
 Iteration     4 Dimension    50 NMult    40 NNew     10
 CISAX will form    10 AO SS matrices at one time.
 NMat=    10 NSing=    10 JSym2X= 0.
 Root      1 not converged, maximum delta is    0.003757223481000
 Root      2 not converged, maximum delta is    0.004246271848056
 Root      3 not converged, maximum delta is    0.010538334798558
 Root      4 not converged, maximum delta is    0.012827471036162
 Root      5 not converged, maximum delta is    0.015011920629282
 Excitation Energies [eV] at current iteration:
 Root      1 :     1.717041567889420   Change is   -0.004143197795690
 Root      2 :     2.193130021207558   Change is   -0.002361924333472
 Root      3 :     3.460736502679470   Change is   -0.005897100354453
 Root      4 :     3.581578355323000   Change is   -0.005474023606788
 Root      5 :     3.782497896310733   Change is   -0.005649581503470
 Iteration     5 Dimension    60 NMult    50 NNew     10
 CISAX will form    10 AO SS matrices at one time.
 NMat=    10 NSing=    10 JSym2X= 0.
 Root      1 not converged, maximum delta is    0.001152362921490
 Root      2 has converged.
 Root      3 not converged, maximum delta is    0.010370459069945
 Root      4 not converged, maximum delta is    0.005067117152704
 Root      5 not converged, maximum delta is    0.044379048735449
 Excitation Energies [eV] at current iteration:
 Root      1 :     1.716683298126608   Change is   -0.000358269762812
 Root      2 :     2.192919155048841   Change is   -0.000210866158717
 Root      3 :     3.459526039368507   Change is   -0.001210463310963
 Root      4 :     3.580695970149899   Change is   -0.000882385173101
 Root      5 :     3.779079095738938   Change is   -0.003418800571795
 Iteration     6 Dimension    68 NMult    60 NNew      8
 CISAX will form     8 AO SS matrices at one time.
 NMat=     8 NSing=     8 JSym2X= 0.
 Root      1 has converged.
 Root      2 has converged.
 Root      3 not converged, maximum delta is    0.007906858308590
 Root      4 not converged, maximum delta is    0.004480013968905
 Root      5 not converged, maximum delta is    0.178390963897126
 Excitation Energies [eV] at current iteration:
 Root      1 :     1.716652098857145   Change is   -0.000031199269463
 Root      2 :     2.192915819727356   Change is   -0.000003335321484
 Root      3 :     3.459099676182805   Change is   -0.000426363185702
 Root      4 :     3.580536989949361   Change is   -0.000158980200538
 Root      5 :     3.770168439294571   Change is   -0.008910656444367
 Iteration     7 Dimension    74 NMult    68 NNew      6
 CISAX will form     6 AO SS matrices at one time.
 NMat=     6 NSing=     6 JSym2X= 0.
 Root      1 has converged.
 Root      2 has converged.
 Root      3 not converged, maximum delta is    0.002047044167266
 Root      4 has converged.
 Root      5 not converged, maximum delta is    0.140450175114727
 Excitation Energies [eV] at current iteration:
 Root      1 :     1.716651657968182   Change is   -0.000000440888963
 Root      2 :     2.192915212756325   Change is   -0.000000606971032
 Root      3 :     3.459003128405798   Change is   -0.000096547777006
 Root      4 :     3.580510791236361   Change is   -0.000026198712999
 Root      5 :     3.761141896044398   Change is   -0.009026543250173
 Iteration     8 Dimension    78 NMult    74 NNew      4
 CISAX will form     4 AO SS matrices at one time.
 NMat=     4 NSing=     4 JSym2X= 0.
 Root      1 has converged.
 Root      2 has converged.
 Root      3 not converged, maximum delta is    0.001077389633400
 Root      4 has converged.
 Root      5 not converged, maximum delta is    0.030645623459195
 Excitation Energies [eV] at current iteration:
 Root      1 :     1.716651627902475   Change is   -0.000000030065707
 Root      2 :     2.192914912256160   Change is   -0.000000300500164
 Root      3 :     3.458978127299717   Change is   -0.000025001106081
 Root      4 :     3.580509132576744   Change is   -0.000001658659617
 Root      5 :     3.758789481246648   Change is   -0.002352414797751
 Iteration     9 Dimension    82 NMult    78 NNew      4
 CISAX will form     4 AO SS matrices at one time.
 NMat=     4 NSing=     4 JSym2X= 0.
 Root      1 has converged.
 Root      2 has converged.
 Root      3 has converged.
 Root      4 has converged.
 Root      5 not converged, maximum delta is    0.011950460071597
 Excitation Energies [eV] at current iteration:
 Root      1 :     1.716651553004034   Change is   -0.000000074898441
 Root      2 :     2.192913784112659   Change is   -0.000001128143502
 Root      3 :     3.458968963109631   Change is   -0.000009164190087
 Root      4 :     3.580508383615828   Change is   -0.000000748960916
 Root      5 :     3.758163979263935   Change is   -0.000625501982713
 Iteration    10 Dimension    84 NMult    82 NNew      2
 CISAX will form     2 AO SS matrices at one time.
 NMat=     2 NSing=     2 JSym2X= 0.
 Root      1 has converged.
 Root      2 has converged.
 Root      3 has converged.
 Root      4 has converged.
 Root      5 not converged, maximum delta is    0.009080617561330
 Excitation Energies [eV] at current iteration:
 Root      1 :     1.716651487363356   Change is   -0.000000065640679
 Root      2 :     2.192913718218213   Change is   -0.000000065894446
 Root      3 :     3.458966733683441   Change is   -0.000002229426190
 Root      4 :     3.580507387649527   Change is   -0.000000995966302
 Root      5 :     3.757929859146937   Change is   -0.000234120116997
 Iteration    11 Dimension    86 NMult    84 NNew      2
 CISAX will form     2 AO SS matrices at one time.
 NMat=     2 NSing=     2 JSym2X= 0.
 Root      1 has converged.
 Root      2 has converged.
 Root      3 has converged.
 Root      4 has converged.
 Root      5 not converged, maximum delta is    0.003121377016113
 Excitation Energies [eV] at current iteration:
 Root      1 :     1.716651345171025   Change is   -0.000000142192331
 Root      2 :     2.192913279735155   Change is   -0.000000438483058
 Root      3 :     3.458966308007473   Change is   -0.000000425675968
 Root      4 :     3.580506979004282   Change is   -0.000000408645245
 Root      5 :     3.757876535613877   Change is   -0.000053323533060
 Iteration    12 Dimension    88 NMult    86 NNew      2
 CISAX will form     2 AO SS matrices at one time.
 NMat=     2 NSing=     2 JSym2X= 0.
 Root      1 has converged.
 Root      2 has converged.
 Root      3 has converged.
 Root      4 has converged.
 Root      5 has converged.
 Excitation Energies [eV] at current iteration:
 Root      1 :     1.716651333743535   Change is   -0.000000011427489
 Root      2 :     2.192913211051751   Change is   -0.000000068683404
 Root      3 :     3.458966229721531   Change is   -0.000000078285942
 Root      4 :     3.580506870037208   Change is   -0.000000108967074
 Root      5 :     3.757865464883293   Change is   -0.000011070730584
 Convergence achieved on expansion vectors.
 ***********************************************************************
 Excited states from <AA,BB:AA,BB> singles matrix:
 ***********************************************************************
 
 1PDM for each excited state written to RWF  633
 Ground to excited state transition densities written to RWF  633
 Ground to excited state transition electric dipole moments (Au):
       state          X           Y           Z        Dip. S.      Osc.
         1        -1.8430      2.3267     -0.0064      8.8100      0.3705
         2        -1.0207     -0.7918      0.0444      1.6706      0.0898
         3         1.2947      1.2771     -0.0279      3.3081      0.2803
         4        -1.3459     -1.3857      0.0280      3.7324      0.3274
         5         0.9042      0.9271     -0.0807      1.6835      0.1550
 Ground to excited state transition velocity dipole moments (Au):
       state          X           Y           Z        Dip. S.      Osc.
         1         0.1119     -0.1436      0.0018      0.0331      0.3503
         2         0.0776      0.0596     -0.0037      0.0096      0.0793
         3        -0.1587     -0.1578      0.0047      0.0501      0.2627
         4         0.1690      0.1767     -0.0024      0.0598      0.3031
         5        -0.1220     -0.1239      0.0084      0.0303      0.1463
 Ground to excited state transition magnetic dipole moments (Au):
       state          X           Y           Z
         1         0.0844      0.0208     -1.6460
         2        -0.0658      0.0208     -0.2460
         3        -0.0596     -0.0649     -2.2421
         4        -0.1489     -0.1364      0.8424
         5         0.5079      0.3360     -0.9814
[...]
 Alpha virt. eigenvalues --    1.24793   1.24855   1.25153   1.25869   1.26230
 Alpha virt. eigenvalues --    1.26912   1.27346   1.27530   1.27977   1.28525
 Alpha virt. eigenvalues --    1.29138   1.29858   1.30454   1.31421   1.31558
 Alpha virt. eigenvalues --    1.31766   1.32156   1.32779   1.33648   1.33705
 Alpha virt. eigenvalues --    1.34026   1.34624   1.35292   1.35661   1.35998
 Alpha virt. eigenvalues --    1.36592   1.36737   1.37150   1.37365   1.37731
 Alpha virt. eigenvalues --    1.38279   1.38941   1.39068   1.39769   1.40234
 Alpha virt. eigenvalues --    1.40708   1.40884   1.41064   1.41448   1.42008
 Alpha virt. eigenvalues --    1.42281   1.42737   1.42887   1.44124   1.44226
 Alpha virt. eigenvalues --    1.44279   1.44941   1.45256   1.45761   1.45943
 Alpha virt. eigenvalues --    1.46375   1.46733   1.46951   1.47036   1.47138
 Alpha virt. eigenvalues --    1.48093   1.48197   1.48405   1.49039   1.49372
 Alpha virt. eigenvalues --    1.49660   1.50346   1.50495   1.50857   1.51697
 Alpha virt. eigenvalues --    1.51867   1.52541   1.52895   1.53208   1.53814
 Alpha virt. eigenvalues --    1.54570   1.54682   1.55038   1.55400   1.55787
 Alpha virt. eigenvalues --    1.56322   1.57473   1.57527   1.57831   1.58185
 Alpha virt. eigenvalues --    1.58433   1.59144   1.59391   1.59552   1.59847
 Alpha virt. eigenvalues --    1.60005   1.60178   1.60300   1.60797   1.61238
 Alpha virt. eigenvalues --    1.61409   1.62112   1.62302   1.62436   1.62817
 Alpha virt. eigenvalues --    1.63069   1.63190   1.63576   1.64106   1.64422
 Alpha virt. eigenvalues --    1.64442   1.64762   1.65025   1.65187   1.65508
 Alpha virt. eigenvalues --    1.65553   1.65768   1.66341   1.66466   1.66951
 Alpha virt. eigenvalues --    1.67296   1.67451   1.67596   1.67770   1.67941
 Alpha virt. eigenvalues --    1.68967   1.69576   1.70575   1.70726   1.71087
 Alpha virt. eigenvalues --    1.71514   1.71734   1.71967   1.72794   1.73033
 Alpha virt. eigenvalues --    1.73088   1.73746   1.74238   1.74667   1.74740
 Alpha virt. eigenvalues --    1.75509   1.75682   1.76371   1.76626   1.76998
 Alpha virt. eigenvalues --    1.77446   1.78019   1.78303   1.79563   1.79672
 Alpha virt. eigenvalues --    1.79808   1.79869   1.80197   1.80472   1.80559
 Alpha virt. eigenvalues --    1.81197   1.81388   1.81503   1.81676   1.82149
 Alpha virt. eigenvalues --    1.82381   1.82459   1.82727   1.83049   1.83343
 Alpha virt. eigenvalues --    1.83633   1.83928   1.83984   1.84193   1.84455
 Alpha virt. eigenvalues --    1.84633   1.85038   1.85119   1.85190   1.85415
 Alpha virt. eigenvalues --    1.85622   1.85669   1.85827   1.86100   1.86315
 Alpha virt. eigenvalues --    1.86424   1.86506   1.86790   1.86925   1.87012
 Alpha virt. eigenvalues --    1.87171   1.87653   1.87720   1.87898   1.87994
 Alpha virt. eigenvalues --    1.88076   1.88199   1.88300   1.88558   1.88704
 Alpha virt. eigenvalues --    1.88916   1.89050   1.89341   1.89422   1.89952
 Alpha virt. eigenvalues --    1.90250   1.90560   1.90710   1.90874   1.90937
 Alpha virt. eigenvalues --    1.91045   1.91219   1.91783   1.91969   1.92260
 Alpha virt. eigenvalues --    1.92595   1.92731   1.92864   1.93040   1.93192
 Alpha virt. eigenvalues --    1.93261   1.93639   1.93773   1.93954   1.94359
 Alpha virt. eigenvalues --    1.94785   1.94986   1.95158   1.95443   1.95651
 Alpha virt. eigenvalues --    1.95962   1.96211   1.96247   1.96442   1.96694
 Alpha virt. eigenvalues --    1.96994   1.97344   1.97426   1.97465   1.97707
 Alpha virt. eigenvalues --    1.97937   1.98626   1.98815   1.99156   1.99361
 Alpha virt. eigenvalues --    1.99485   1.99684   1.99812   2.00210   2.00771
 Alpha virt. eigenvalues --    2.00848   2.01001   2.01452   2.01903   2.02237
 Alpha virt. eigenvalues --    2.02593   2.02638   2.02787   2.03128   2.03389
 Alpha virt. eigenvalues --    2.03590   2.03820   2.04127   2.04483   2.04734
 Alpha virt. eigenvalues --    2.04978   2.05051   2.05204   2.05645   2.05872
 Alpha virt. eigenvalues --    2.06116   2.06276   2.06541   2.06712   2.06775
 Alpha virt. eigenvalues --    2.07113   2.08068   2.08237   2.08688   2.08776
 Alpha virt. eigenvalues --    2.09229   2.09481   2.10276   2.10605   2.11029
 Alpha virt. eigenvalues --    2.11266   2.11476   2.11848   2.11912   2.12098
 Alpha virt. eigenvalues --    2.12394   2.12582   2.13095   2.13503   2.13545
 Alpha virt. eigenvalues --    2.13953   2.14142   2.14442   2.14522   2.14834
 Alpha virt. eigenvalues --    2.15091   2.15309   2.15413   2.15921   2.16297
 Alpha virt. eigenvalues --    2.16533   2.16601   2.16924   2.17143   2.17462
 Alpha virt. eigenvalues --    2.18279   2.18542   2.18787   2.19206   2.19494
 Alpha virt. eigenvalues --    2.19686   2.20412   2.20561   2.21142   2.21351
 Alpha virt. eigenvalues --    2.21850   2.22107   2.22192   2.22764   2.23631
 Alpha virt. eigenvalues --    2.23802   2.24057   2.24303   2.24557   2.24915
 Alpha virt. eigenvalues --    2.25014   2.25487   2.25584   2.26053   2.26449
 Alpha virt. eigenvalues --    2.26579   2.26778   2.27358   2.27533   2.28044
 Alpha virt. eigenvalues --    2.28622   2.29550   2.29978   2.30477   2.30870
 Alpha virt. eigenvalues --    2.30981   2.32037   2.32466   2.33178   2.33457
 Alpha virt. eigenvalues --    2.33822   2.34069   2.34509   2.34596   2.35270
 Alpha virt. eigenvalues --    2.35342   2.35643   2.35942   2.36820   2.37058
 Alpha virt. eigenvalues --    2.37138   2.37763   2.38397   2.38543   2.39238
 Alpha virt. eigenvalues --    2.39456   2.39620   2.39763   2.39921   2.40310
 Alpha virt. eigenvalues --    2.40579   2.41154   2.41434   2.41793   2.41985
 Alpha virt. eigenvalues --    2.42231   2.43184   2.43401   2.43911   2.43971
 Alpha virt. eigenvalues --    2.44219   2.44296   2.44622   2.44893   2.45406
 Alpha virt. eigenvalues --    2.45599   2.45875   2.45994   2.46576   2.46946
 Alpha virt. eigenvalues --    2.47408   2.48145   2.48645   2.48883   2.49058
 Alpha virt. eigenvalues --    2.49242   2.49695   2.50211   2.50271   2.50730
 Alpha virt. eigenvalues --    2.50836   2.51225   2.51719   2.51928   2.52216
 Alpha virt. eigenvalues --    2.52941   2.53417   2.53565   2.53984   2.54471
 Alpha virt. eigenvalues --    2.54996   2.55872   2.56138   2.56407   2.57005
 Alpha virt. eigenvalues --    2.57388   2.57995   2.58360   2.59144   2.59247
 Alpha virt. eigenvalues --    2.59623   2.59908   2.60155   2.60765   2.61437
 Alpha virt. eigenvalues --    2.61725   2.62065   2.62894   2.63140   2.63736
 Alpha virt. eigenvalues --    2.63778   2.64209   2.64589   2.64665   2.65427
 Alpha virt. eigenvalues --    2.65881   2.66430   2.66852   2.67237   2.68193
 Alpha virt. eigenvalues --    2.68392   2.68518   2.69018   2.69353   2.69623
 Alpha virt. eigenvalues --    2.70317   2.70498   2.70539   2.71333   2.71387
 Alpha virt. eigenvalues --    2.71792   2.72009   2.72298   2.73125   2.73533
 Alpha virt. eigenvalues --    2.73786   2.74206   2.74628   2.75107   2.75603
 Alpha virt. eigenvalues --    2.76143   2.76622   2.76699   2.77398   2.77666
 Alpha virt. eigenvalues --    2.78109   2.78279   2.78389   2.78938   2.79106
 Alpha virt. eigenvalues --    2.79552   2.79774   2.79915   2.80809   2.81173
 Alpha virt. eigenvalues --    2.81612   2.81728   2.82383   2.82469   2.82858
 Alpha virt. eigenvalues --    2.83168   2.83367   2.83796   2.84660   2.85105
 Alpha virt. eigenvalues --    2.85545   2.87143   2.87508   2.88237   2.88660
 Alpha virt. eigenvalues --    2.89088   2.89402   2.89552   2.89739   2.90842
 Alpha virt. eigenvalues --    2.92163   2.92311   2.92820   2.92987   2.93365
 Alpha virt. eigenvalues --    2.94948   2.95169   2.95405   2.95720   2.95889
 Alpha virt. eigenvalues --    2.96661   2.97337   2.97547   2.97965   2.98308
 Alpha virt. eigenvalues --    2.98897   2.99189   2.99265   2.99474   2.99736
 Alpha virt. eigenvalues --    2.99923   3.00293   3.00371   3.00885   3.01252
 Alpha virt. eigenvalues --    3.01692   3.01862   3.01998   3.02519   3.02629
 Alpha virt. eigenvalues --    3.02939   3.02981   3.03393   3.03703   3.03775
 Alpha virt. eigenvalues --    3.04098   3.04338   3.04549   3.04623   3.04643
 Alpha virt. eigenvalues --    3.05773   3.05840   3.06061   3.06647   3.07037
 Alpha virt. eigenvalues --    3.07253   3.07400   3.07573   3.07895   3.08976
 Alpha virt. eigenvalues --    3.09194   3.09449   3.09670   3.10013   3.10157
 Alpha virt. eigenvalues --    3.10756   3.11195   3.11637   3.11886   3.12285
 Alpha virt. eigenvalues --    3.12630   3.12923   3.13132   3.13210   3.13791
 Alpha virt. eigenvalues --    3.14040   3.14201   3.15065   3.15143   3.15312
 Alpha virt. eigenvalues --    3.16308   3.16566   3.18209   3.18403   3.18673
 Alpha virt. eigenvalues --    3.19322   3.19994   3.20873   3.22001   3.22150
 Alpha virt. eigenvalues --    3.25181   3.25194   3.25946   3.27412   3.27947
 Alpha virt. eigenvalues --    3.28250   3.29424   3.30207   3.30346   3.31705
 Alpha virt. eigenvalues --    3.33054   3.34433   3.46561   3.47325   3.49759
 Alpha virt. eigenvalues --    3.51624   3.53144   3.56696   3.58102   3.61065
 Alpha virt. eigenvalues --    3.63487   3.67937   3.72173   3.74837   3.74904
 Alpha virt. eigenvalues --    3.76313   3.77085
          Condensed to atoms (all electrons):
 Mulliken charges:
               1
     1  Mg   0.966983
     2  C   -0.028080
     3  C   -0.107046
     4  C   -0.064925
     5  C   -0.099602
     6  N   -0.329566
     7  C    0.003072
     8  C   -0.107569
     9  C   -0.085653
    10  C    0.055811
    11  C    0.034011
    12  C    0.035810
    13  C    0.018000
    14  C    0.237330
    15  O   -0.261034
    16  O   -0.351118
    17  N   -0.484136
    18  C    0.176779
    19  C   -0.151866
    20  C   -0.065482
    21  C    0.144171
    22  C    0.048343
    23  C    0.049847
    24  O   -0.196992
    25  C   -0.043754
    26  N   -0.398780
    27  C    0.075720
    28  C   -0.126254
    29  C   -0.054268
    30  C    0.070341
    31  C    0.048554
    32  C   -0.003967
    33  C   -0.039432
    34  N   -0.416556
    35  C    0.105243
    36  C   -0.173591
    37  C   -0.066834
    38  C    0.152081
    39  C    0.077977
    40  C    0.164236
    41  O   -0.173174
    42  C   -0.078092
    43  C    0.247028
    44  O   -0.271670
    45  O   -0.338630
    46  C    0.149416
    47  C    0.256391
    48  C   -0.189047
    49  C   -0.224565
    50  C    0.033933
    51  C    0.017494
    52  C   -0.008959
    53  C    0.004530
    54  C   -0.214754
    55  C    0.018951
    56  C    0.046284
    57  C   -0.007016
    58  C   -0.007900
    59  C   -0.200642
    60  C   -0.001124
    61  C   -0.006176
    62  C   -0.032367
    63  C    0.012152
    64  C   -0.231910
    65  C    0.006216
    66  C    0.021720
    67  H   -0.005808
    68  H    0.019524
    69  H   -0.019836
    70  H    0.064733
    71  H    0.029885
    72  H    0.025596
    73  H    0.037519
    74  H    0.057526
    75  H    0.031370
    76  H    0.023862
    77  H    0.024150
    78  H    0.040566
    79  H    0.042409
    80  H    0.064397
    81  H    0.053248
    82  H    0.073046
    83  H    0.037656
    84  H    0.052648
    85  H    0.035327
    86  H    0.021505
    87  H    0.055794
    88  H    0.029817
    89  H    0.044423
    90  H    0.027329
    91  H    0.029034
    92  H    0.038442
    93  H    0.041036
    94  H    0.035128
    95  H    0.043572
    96  H    0.054793
    97  H    0.026080
    98  H    0.069257
    99  H    0.054416
   100  H    0.056145
   101  H    0.042464
   102  H    0.066637
   103  H    0.057315
   104  H    0.031608
   105  H    0.035482
   106  H    0.043191
   107  H    0.058567
   108  H    0.008346
   109  H    0.029597
   110  H    0.025707
   111  H    0.029679
   112  H    0.005983
   113  H    0.017145
   114  H    0.021138
   115  H    0.027640
   116  H    0.026182
   117  H    0.029860
   118  H    0.016194
   119  H    0.011860
   120  H    0.025672
   121  H    0.021875
   122  H    0.020135
   123  H    0.013144
   124  H    0.011431
   125  H    0.030380
   126  H    0.032621
   127  H    0.032935
   128  H    0.011253
   129  H    0.018802
   130  H    0.016312
   131  H    0.021245
   132  H    0.012566
   133  H    0.017932
   134  H    0.017499
   135  H    0.031186
   136  H    0.017684
   137  H    0.031095
   138  H    0.031602
   139  H    0.016898
   140  H    0.032657
 Sum of Mulliken charges =  -0.00000
 Mulliken charges with hydrogens summed into heavy atoms:
               1
     1  Mg   0.966983
     2  C   -0.028080
     3  C   -0.112853
     4  C   -0.045401
     5  C   -0.119438
     6  N   -0.329566
     7  C    0.003072
     8  C   -0.042836
     9  C   -0.055767
    10  C    0.055811
    11  C    0.154653
    12  C    0.091042
    13  C    0.082715
    14  C    0.237330
    15  O   -0.261034
    16  O   -0.351118
    17  N   -0.484136
    18  C    0.176779
    19  C   -0.151866
    20  C   -0.065482
    21  C    0.144171
    22  C    0.208397
    23  C    0.049847
    24  O   -0.196992
    25  C    0.119596
    26  N   -0.398780
    27  C    0.075720
    28  C   -0.090927
    29  C   -0.032763
    30  C    0.070341
    31  C    0.178588
    32  C    0.052396
    33  C    0.075174
    34  N   -0.416556
    35  C    0.105243
    36  C   -0.173591
    37  C   -0.066834
    38  C    0.152081
    39  C    0.202422
    40  C    0.164236
    41  O   -0.173174
    42  C   -0.008835
    43  C    0.247028
    44  O   -0.271670
    45  O   -0.338630
    46  C    0.302441
    47  C    0.380343
    48  C   -0.157439
    49  C   -0.224565
    50  C    0.171173
    51  C    0.055437
    52  C    0.046427
    53  C    0.027657
    54  C   -0.193615
    55  C    0.102634
    56  C    0.074339
    57  C    0.040531
    58  C    0.025379
    59  C   -0.189210
    60  C    0.094811
    61  C    0.023878
    62  C    0.005190
    63  C    0.042650
    64  C   -0.214411
    65  C    0.086181
    66  C    0.102877
 Electronic spatial extent (au):  <R**2>=         110869.6508
 Charge=             -0.0000 electrons
 Dipole moment (field-independent basis, Debye):
    X=             -5.7595    Y=              2.4205    Z=              2.3248  Tot=              6.6660
 Quadrupole moment (field-independent basis, Debye-Ang):
   XX=           -378.7344   YY=           -418.4747   ZZ=           -398.5338
   XY=             24.9788   XZ=              9.7571   YZ=             -4.7582
 Traceless Quadrupole moment (field-independent basis, Debye-Ang):
   XX=             19.8465   YY=            -19.8937   ZZ=              0.0472
   XY=             24.9788   XZ=              9.7571   YZ=             -4.7582
 Octapole moment (field-independent basis, Debye-Ang**2):
  XXX=            287.5280  YYY=            -50.4539  ZZZ=              1.0919  XYY=           -250.7542
  XXY=             73.6849  XXZ=            -20.1719  XZZ=             10.6125  YZZ=            -53.6905
  YYZ=            -28.2700  XYZ=            -32.6217
 Hexadecapole moment (field-independent basis, Debye-Ang**3):
 XXXX=        -114448.3199 YYYY=         -29302.3526 ZZZZ=          -4795.3069 XXXY=           1975.0701
 XXXZ=           -420.9042 YYYX=             53.8984 YYYZ=            190.2506 ZZZX=            -10.7126
 ZZZY=             95.6298 XXYY=         -25615.8322 XXZZ=         -20937.2825 YYZZ=          -5328.3787
 XXYZ=            -64.0552 YYXZ=             87.1690 ZZXY=            -25.9429
 N-N= 9.675743183160D+03 E-N=-2.634547087278D+04  KE= 2.975917813741D+03
 Leave Link  601 at Tue May  3 17:59:32 2022, MaxMem= 10066329600 cpu:              16.1 elap:               0.8
 (Enter /sw/apps/gaussian-16.0/g16/l9999.exe)
 1\1\GINC-BP1-COMPUTE182\SP\RwB97XD TD-FC\def2SVP\C55H74Mg1N4O6\OF15641
 \03-May-2022\0\\#p wB97XD/Def2SVP td=(nstates=5)\\step_1001_chromophor
 e_24 TDDFT with wB97XD functional\\0,1\Mg,0,-1.129,43.961,25.179\C,0,1
 .285,43.517,27.573\C,0,-3.595,43.363,27.6\C,0,-3.389,43.749,22.774\C,0
 ,1.447,44.245,22.806\N,0,-1.133,43.401,27.323\C,0,-0.028,43.532,28.095
 \C,0,-0.39,43.501,29.592\C,0,-1.937,43.263,29.61\C,0,-2.265,43.341,28.
 062\C,0,-2.309,41.975,30.317\C,0,-0.058,44.792,30.336\C,0,0.12,44.663,
 31.858\C,0,0.17,43.265,32.495\O,0,1.131,42.515,32.374\O,0,-0.928,43.06
 4,33.266\N,0,-3.2,43.623,25.198\C,0,-4.02,43.373,26.299\C,0,-5.449,43.
 246,25.84\C,0,-5.367,43.269,24.41\C,0,-3.975,43.522,24.029\C,0,-6.709,
 43.189,26.76\C,0,-6.523,43.177,23.417\O,0,-6.384,43.492,22.283\C,0,-7.
 952,42.744,23.849\N,0,-0.973,44.157,23.129\C,0,-2.068,43.922,22.353\C,
 0,-1.676,43.905,20.801\C,0,-0.217,44.487,20.897\C,0,0.152,44.35,22.337
 \C,0,-1.941,42.595,19.988\C,0,0.074,45.923,20.265\C,0,-0.019,47.169,21
 .103\N,0,0.94,43.845,25.109\C,0,1.873,44.019,24.089\C,0,3.222,43.837,2
 4.624\C,0,3.016,43.658,26.003\C,0,1.684,43.694,26.179\C,0,4.42,43.747,
 23.81\C,0,3.699,43.296,27.28\O,0,4.838,43.009,27.537\C,0,2.565,43.273,
 28.358\C,0,2.584,41.947,29.095\O,0,1.971,40.934,28.773\O,0,3.449,41.95
 8,30.143\C,0,3.674,40.681,30.787\C,0,-0.928,41.828,34.085\C,0,-2.313,4
 1.687,34.697\C,0,-2.959,40.587,35.129\C,0,-2.33,39.181,35.277\C,0,-4.3
 41,40.822,35.619\C,0,-4.484,41.765,36.895\C,0,-4.908,43.211,36.655\C,0
 ,-6.213,43.731,37.408\C,0,-5.84,44.957,38.283\C,0,-7.417,43.775,36.436
 \C,0,-8.159,42.435,36.401\C,0,-9.606,42.515,36.915\C,0,-10.669,41.584,
 36.176\C,0,-11.251,42.179,34.797\C,0,-11.714,41.053,37.212\C,0,-11.479
 ,39.631,37.782\C,0,-12.811,38.918,38.165\C,0,-12.906,38.574,39.698\C,0
 ,-12.563,37.142,39.888\C,0,-14.209,39.032,40.253\H,0,-4.4,43.443,28.33
 3\H,0,-4.094,43.56,21.962\H,0,2.281,44.285,22.102\H,0,0.124,42.615,29.
 966\H,0,-2.418,44.153,30.017\H,0,-3.118,41.498,29.764\H,0,-2.75,42.207
 ,31.286\H,0,-1.494,41.264,30.458\H,0,-0.784,45.598,30.224\H,0,0.893,45
 .155,29.947\H,0,-0.403,45.523,32.275\H,0,1.042,45.165,32.148\H,0,-6.48
 7,43.692,27.702\H,0,-6.987,42.172,27.035\H,0,-7.567,43.686,26.308\H,0,
 -8.687,43.504,24.114\H,0,-7.857,42.02,24.659\H,0,-8.401,42.228,23.\H,0
 ,-2.336,44.634,20.331\H,0,0.451,43.775,20.413\H,0,-2.48,41.958,20.69\H
 ,0,-0.937,42.269,19.714\H,0,-2.453,42.86,19.063\H,0,-0.62,46.036,19.43
 3\H,0,1.086,45.783,19.885\H,0,0.848,47.806,20.928\H,0,-0.038,46.919,22
 .164\H,0,-0.935,47.734,20.931\H,0,4.517,42.676,23.63\H,0,5.379,43.969,
 24.277\H,0,4.37,44.06,22.767\H,0,2.632,44.022,29.148\H,0,3.928,39.883,
 30.09\H,0,2.825,40.45,31.431\H,0,4.547,40.854,31.417\H,0,-0.336,41.765
 ,34.997\H,0,-0.675,41.034,33.382\H,0,-2.794,42.664,34.744\H,0,-1.489,3
 8.952,34.622\H,0,-3.096,38.45,35.018\H,0,-1.957,39.155,36.3\H,0,-4.827
 ,39.847,35.608\H,0,-4.852,41.358,34.819\H,0,-3.482,41.718,37.321\H,0,-
 5.112,41.15,37.538\H,0,-5.051,43.381,35.588\H,0,-4.055,43.873,36.798\H
 ,0,-6.442,42.95,38.133\H,0,-4.763,45.124,38.311\H,0,-6.083,44.721,39.3
 19\H,0,-6.422,45.823,37.966\H,0,-7.049,44.091,35.46\H,0,-8.016,44.624,
 36.766\H,0,-7.672,41.667,37.002\H,0,-8.133,42.035,35.388\H,0,-10.018,4
 3.524,36.875\H,0,-9.683,42.215,37.959\H,0,-10.089,40.729,35.831\H,0,-1
 2.267,41.818,34.637\H,0,-10.609,41.776,34.014\H,0,-11.252,43.269,34.80
 5\H,0,-12.705,41.049,36.758\H,0,-11.618,41.718,38.07\H,0,-10.892,39.81
 9,38.68\H,0,-10.909,39.058,37.05\H,0,-12.804,37.949,37.666\H,0,-13.655
 ,39.499,37.793\H,0,-12.096,39.115,40.187\H,0,-13.088,36.504,39.177\H,0
 ,-12.896,36.98,40.913\H,0,-11.501,36.898,39.892\H,0,-13.921,39.842,40.
 922\H,0,-14.678,38.243,40.84\H,0,-14.936,39.37,39.515\\Version=ES64L-G
 16RevA.03\State=1-A\HF=-3007.8616426\RMSD=5.953e-09\PG=C01 [X(C55H74Mg
 1N4O6)]\\@


 DO NOT LET SELFISH MEN OR GREEDY INTERESTS SKIN YOUR COUNTRY OF ITS
 BEAUTY, ITS RICHES, OR ITS ROMANCE. -- THEODORE ROOSEVELT
 Job cpu time:       0 days 20 hours 15 minutes 24.9 seconds.
 Elapsed time:       0 days  0 hours 51 minutes 13.0 seconds.
 File lengths (MBytes):  RWF=   8929 Int=      0 D2E=      0 Chk=    390 Scr=      1
 Normal termination of Gaussian 16 at Tue May  3 17:59:32 2022.
