 Entering Gaussian System, Link 0=g16
 Initial command:
 /sw/apps/gaussian-16.0/g16/l1.exe "/tmp/Gau-135654.inp" -scrdir="/tmp/"
 Entering Link 1 = /sw/apps/gaussian-16.0/g16/l1.exe PID=    135656.
  
 Copyright (c) 1988,1990,1992,1993,1995,1998,2003,2009,2016,
            Gaussian, Inc.  All Rights Reserved.
  
 This is part of the Gaussian(R) 16 program.  It is based on
 the Gaussian(R) 09 system (copyright 2009, Gaussian, Inc.),
 the Gaussian(R) 03 system (copyright 2003, Gaussian, Inc.),
 the Gaussian(R) 98 system (copyright 1998, Gaussian, Inc.),
 the Gaussian(R) 94 system (copyright 1995, Gaussian, Inc.),
 the Gaussian 92(TM) system (copyright 1992, Gaussian, Inc.),
 the Gaussian 90(TM) system (copyright 1990, Gaussian, Inc.),
 the Gaussian 88(TM) system (copyright 1988, Gaussian, Inc.),
 the Gaussian 86(TM) system (copyright 1986, Carnegie Mellon
 University), and the Gaussian 82(TM) system (copyright 1983,
 Carnegie Mellon University). Gaussian is a federally registered
 trademark of Gaussian, Inc.
  
 This software contains proprietary and confidential information,
 including trade secrets, belonging to Gaussian, Inc.
  
 This software is provided under written license and may be
 used, copied, transmitted, or stored only in accord with that
 written license.
  
 The following legend is applicable only to US Government
 contracts under FAR:
  
                    RESTRICTED RIGHTS LEGEND
  
 Use, reproduction and disclosure by the US Government is
 subject to restrictions as set forth in subparagraphs (a)
 and (c) of the Commercial Computer Software - Restricted
 Rights clause in FAR 52.227-19.
  
 Gaussian, Inc.
 340 Quinnipiac St., Bldg. 40, Wallingford CT 06492
  
  
 ---------------------------------------------------------------
 Warning -- This program may not be used in any manner that
 competes with the business of Gaussian, Inc. or will provide
 assistance to any competitor of Gaussian, Inc.  The licensee
 of this program is prohibited from giving any competitor of
 Gaussian, Inc. access to this program.  By using this program,
 the user acknowledges that Gaussian, Inc. is engaged in the
 business of creating and licensing software in the field of
 computational chemistry and represents and warrants to the
 licensee that it is not a competitor of Gaussian, Inc. and that
 it will not use this program in any manner prohibited above.
 ---------------------------------------------------------------
  

 Cite this work as:
 Gaussian 16, Revision A.03,
 M. J. Frisch, G. W. Trucks, H. B. Schlegel, G. E. Scuseria, 
 M. A. Robb, J. R. Cheeseman, G. Scalmani, V. Barone, 
 G. A. Petersson, H. Nakatsuji, X. Li, M. Caricato, A. V. Marenich, 
 J. Bloino, B. G. Janesko, R. Gomperts, B. Mennucci, H. P. Hratchian, 
 J. V. Ortiz, A. F. Izmaylov, J. L. Sonnenberg, D. Williams-Young, 
 F. Ding, F. Lipparini, F. Egidi, J. Goings, B. Peng, A. Petrone, 
 T. Henderson, D. Ranasinghe, V. G. Zakrzewski, J. Gao, N. Rega, 
 G. Zheng, W. Liang, M. Hada, M. Ehara, K. Toyota, R. Fukuda, 
 J. Hasegawa, M. Ishida, T. Nakajima, Y. Honda, O. Kitao, H. Nakai, 
 T. Vreven, K. Throssell, J. A. Montgomery, Jr., J. E. Peralta, 
 F. Ogliaro, M. J. Bearpark, J. J. Heyd, E. N. Brothers, K. N. Kudin, 
 V. N. Staroverov, T. A. Keith, R. Kobayashi, J. Normand, 
 K. Raghavachari, A. P. Rendell, J. C. Burant, S. S. Iyengar, 
 J. Tomasi, M. Cossi, J. M. Millam, M. Klene, C. Adamo, R. Cammi, 
 J. W. Ochterski, R. L. Martin, K. Morokuma, O. Farkas, 
 J. B. Foresman, and D. J. Fox, Gaussian, Inc., Wallingford CT, 2016.
 
 ******************************************
 Gaussian 16:  ES64L-G16RevA.03 25-Dec-2016
                 5-May-2022 
 ******************************************
 %nproc=24
 Will use up to   24 processors via shared memory.
 %mem=75GB
 -----------------------------------
 #p cam-b3lyp/Def2SVP td=(nstates=5)
 -----------------------------------
 1/38=1,172=1/1;
 2/12=2,17=6,18=5,40=1/2;
 3/5=43,7=101,11=9,25=1,30=1,74=-40/1,2,3,8;
 4//1;
 5/5=2,38=5/2;
 8/6=1,10=1,108=5/1;
 9/41=5,42=1,70=2/14;
 6/7=2,8=2,9=2,10=2/1;
 99/5=1,9=1/99;
 Leave Link    1 at Thu May  5 05:04:45 2022, MaxMem= 10066329600 cpu:               0.7 elap:               0.0
 (Enter /sw/apps/gaussian-16.0/g16/l101.exe)
 -------------------------------------------------------
 step_701_chromophore_16 TDDFT with cam-b3lyp functional
 -------------------------------------------------------
 Symbolic Z-matrix:
 Charge =  0 Multiplicity = 1
 Mg                    41.172    41.731    27.218 
 C                     39.852    43.946    29.752 
 C                     42.027    39.566    29.718 
 C                     42.013    39.702    24.903 
 C                     40.185    44.196    24.865 
 N                     41.103    41.879    29.486 
 C                     40.398    42.751    30.271 
 C                     40.338    42.323    31.769 
 C                     41.134    40.984    31.671 
 C                     41.461    40.802    30.183 
 C                     42.403    40.829    32.601 
 C                     38.869    42.271    32.218 
 C                     38.594    41.559    33.496 
 C                     37.96     42.447    34.632 
 O                     36.949    43.164    34.495 
 O                     38.513    42.321    35.788 
 N                     42.056    39.897    27.327 
 C                     42.339    39.16     28.434 
 C                     42.912    37.917    28.019 
 C                     42.943    37.951    26.554 
 C                     42.368    39.231    26.181 
 C                     43.428    36.893    28.995 
 C                     43.516    36.886    25.658 
 O                     43.511    36.983    24.4 
 C                     44.078    35.662    26.254 
 N                     41.11     41.913    25.169 
 C                     41.473    40.874    24.415 
 C                     41.118    41.106    23.014 
 C                     40.267    42.48     22.994 
 C                     40.479    42.883    24.438 
 C                     42.325    40.974    22.006 
 C                     38.759    42.297    22.604 
 C                     37.88     41.471    23.464 
 N                     40.323    43.707    27.254 
 C                     40.042    44.58     26.239 
 C                     39.525    45.863    26.782 
 C                     39.397    45.611    28.148 
 C                     39.889    44.335    28.402 
 C                     39.172    47.013    25.938 
 C                     39.021    46.258    29.375 
 O                     38.565    47.39     29.579 
 C                     39.324    45.143    30.424 
 C                     40.342    45.718    31.317 
 O                     41.468    46.108    31.052 
 O                     39.883    45.901    32.591 
 C                     40.849    46.654    33.474 
 C                     38.048    43.171    36.946 
 C                     38.712    42.597    38.24 
 C                     38.26     42.654    39.556 
 C                     37.094    43.48     40.005 
 C                     39.004    41.865    40.603 
 C                     38.976    40.372    40.545 
 C                     38.005    39.726    41.58 
 C                     38.811    38.816    42.545 
 C                     39.072    37.387    41.956 
 C                     38.183    38.658    43.921 
 C                     39.03     39.245    45.129 
 C                     39.689    38.158    46.016 
 C                     39.102    38.355    47.498 
 C                     40.286    38.191    48.437 
 C                     37.944    37.371    47.851 
 C                     36.518    37.894    47.45 
 C                     35.697    37.042    46.425 
 C                     34.66     36.232    47.241 
 C                     33.29     36.462    46.624 
 C                     34.921    34.731    47.073 
 H                     42.312    38.85     30.492 
 H                     42.148    38.981    24.094 
 H                     39.82     44.845    24.067 
 H                     40.864    43.059    32.378 
 H                     40.483    40.141    31.9 
 H                     42.817    41.768    32.969 
 H                     43.163    40.4      31.947 
 H                     42.366    40.112    33.421 
 H                     38.361    41.728    31.422 
 H                     38.512    43.297    32.315 
 H                     39.533    41.338    34.003 
 H                     37.934    40.715    33.298 
 H                     42.908    35.973    28.728 
 H                     43.236    37.131    30.041 
 H                     44.49     36.838    28.758 
 H                     44.964    35.903    26.841 
 H                     44.363    35.06     25.391 
 H                     43.288    35.28     26.899 
 H                     40.391    40.319    22.815 
 H                     40.793    43.175    22.34 
 H                     42.199    40.007    21.519 
 H                     43.232    40.865    22.601 
 H                     42.38     41.834    21.339 
 H                     38.859    41.849    21.615 
 H                     38.358    43.249    22.258 
 H                     38.253    41.025    24.386 
 H                     37.593    40.62     22.847 
 H                     37.106    42.219    23.634 
 H                     38.979    47.913    26.521 
 H                     38.315    46.724    25.329 
 H                     39.965    47.263    25.233 
 H                     38.414    44.931    30.985 
 H                     41.823    46.902    33.053 
 H                     40.961    46.1      34.407 
 H                     40.39     47.635    33.589 
 H                     36.972    43.06     37.08 
 H                     38.195    44.245    36.827 
 H                     39.621    42.003    38.15 
 H                     36.21     42.894    40.255 
 H                     36.954    44.279    39.278 
 H                     37.384    43.969    40.935 
 H                     38.827    42.28     41.595 
 H                     40.001    42.264    40.414 
 H                     40.028    40.085    40.525 
 H                     38.566    40.042    39.59 
 H                     37.281    39.176    40.979 
 H                     37.521    40.569    42.073 
 H                     39.794    39.243    42.742 
 H                     38.486    36.572    42.38 
 H                     40.148    37.217    41.9 
 H                     38.847    37.167    40.912 
 H                     37.886    37.64     44.17 
 H                     37.266    39.246    43.957 
 H                     38.46     39.934    45.752 
 H                     39.829    39.881    44.746 
 H                     40.726    38.493    46.023 
 H                     39.694    37.16     45.579 
 H                     38.699    39.356    47.651 
 H                     40.201    37.264    49.004 
 H                     40.157    39.07     49.068 
 H                     41.255    38.113    47.945 
 H                     37.811    37.143    48.908 
 H                     38.141    36.419    47.356 
 H                     36.586    38.84     46.912 
 H                     35.898    38.022    48.337 
 H                     36.37     36.265    46.059 
 H                     35.235    37.665    45.659 
 H                     34.712    36.424    48.313 
 H                     32.879    37.249    47.255 
 H                     32.682    35.557    46.598 
 H                     33.477    36.724    45.583 
 H                     34.217    34.045    47.544 
 H                     35.808    34.494    47.662 
 H                     35.061    34.455    46.028 
 
 ITRead=  0  0  0  0  0  0  0  0  0  0  0  0  0  0  0  0  0  0  0  0
 ITRead=  0  0  0  0  0  0  0  0  0  0  0  0  0  0  0  0  0  0  0  0
 ITRead=  0  0  0  0  0  0  0  0  0  0  0  0  0  0  0  0  0  0  0  0
 ITRead=  0  0  0  0  0  0  0  0  0  0  0  0  0  0  0  0  0  0  0  0
 ITRead=  0  0  0  0  0  0  0  0  0  0  0  0  0  0  0  0  0  0  0  0
 ITRead=  0  0  0  0  0  0  0  0  0  0  0  0  0  0  0  0  0  0  0  0
 ITRead=  0  0  0  0  0  0  0  0  0  0  0  0  0  0  0  0  0  0  0  0
 MicOpt= -1 -1 -1 -1 -1 -1 -1 -1 -1 -1 -1 -1 -1 -1 -1 -1 -1 -1 -1 -1
 MicOpt= -1 -1 -1 -1 -1 -1 -1 -1 -1 -1 -1 -1 -1 -1 -1 -1 -1 -1 -1 -1
 MicOpt= -1 -1 -1 -1 -1 -1 -1 -1 -1 -1 -1 -1 -1 -1 -1 -1 -1 -1 -1 -1
 MicOpt= -1 -1 -1 -1 -1 -1 -1 -1 -1 -1 -1 -1 -1 -1 -1 -1 -1 -1 -1 -1
 MicOpt= -1 -1 -1 -1 -1 -1 -1 -1 -1 -1 -1 -1 -1 -1 -1 -1 -1 -1 -1 -1
 MicOpt= -1 -1 -1 -1 -1 -1 -1 -1 -1 -1 -1 -1 -1 -1 -1 -1 -1 -1 -1 -1
 MicOpt= -1 -1 -1 -1 -1 -1 -1 -1 -1 -1 -1 -1 -1 -1 -1 -1 -1 -1 -1 -1
 NAtoms=    140 NQM=      140 NQMF=       0 NMMI=      0 NMMIF=      0
                NMic=       0 NMicF=      0.
                    Isotopes and Nuclear Properties:
 (Nuclear quadrupole moments (NQMom) in fm**2, nuclear magnetic moments (NMagM)
  in nuclear magnetons)

  Atom         1           2           3           4           5           6           7           8           9          10
 IAtWgt=          24          12          12          12          12          14          12          12          12          12
 AtmWgt=  23.9850450  12.0000000  12.0000000  12.0000000  12.0000000  14.0030740  12.0000000  12.0000000  12.0000000  12.0000000
 NucSpn=           0           0           0           0           0           2           0           0           0           0
 AtZEff=  -0.0000000  -0.0000000  -0.0000000  -0.0000000  -0.0000000  -0.0000000  -0.0000000  -0.0000000  -0.0000000  -0.0000000
 NQMom=    0.0000000   0.0000000   0.0000000   0.0000000   0.0000000   2.0440000   0.0000000   0.0000000   0.0000000   0.0000000
 NMagM=    0.0000000   0.0000000   0.0000000   0.0000000   0.0000000   0.4037610   0.0000000   0.0000000   0.0000000   0.0000000
 AtZNuc=  12.0000000   6.0000000   6.0000000   6.0000000   6.0000000   7.0000000   6.0000000   6.0000000   6.0000000   6.0000000

  Atom        11          12          13          14          15          16          17          18          19          20
 IAtWgt=          12          12          12          12          16          16          14          12          12          12
 AtmWgt=  12.0000000  12.0000000  12.0000000  12.0000000  15.9949146  15.9949146  14.0030740  12.0000000  12.0000000  12.0000000
 NucSpn=           0           0           0           0           0           0           2           0           0           0
 AtZEff=  -0.0000000  -0.0000000  -0.0000000  -0.0000000  -0.0000000  -0.0000000  -0.0000000  -0.0000000  -0.0000000  -0.0000000
 NQMom=    0.0000000   0.0000000   0.0000000   0.0000000   0.0000000   0.0000000   2.0440000   0.0000000   0.0000000   0.0000000
 NMagM=    0.0000000   0.0000000   0.0000000   0.0000000   0.0000000   0.0000000   0.4037610   0.0000000   0.0000000   0.0000000
 AtZNuc=   6.0000000   6.0000000   6.0000000   6.0000000   8.0000000   8.0000000   7.0000000   6.0000000   6.0000000   6.0000000

  Atom        21          22          23          24          25          26          27          28          29          30
 IAtWgt=          12          12          12          16          12          14          12          12          12          12
 AtmWgt=  12.0000000  12.0000000  12.0000000  15.9949146  12.0000000  14.0030740  12.0000000  12.0000000  12.0000000  12.0000000
 NucSpn=           0           0           0           0           0           2           0           0           0           0
 AtZEff=  -0.0000000  -0.0000000  -0.0000000  -0.0000000  -0.0000000  -0.0000000  -0.0000000  -0.0000000  -0.0000000  -0.0000000
 NQMom=    0.0000000   0.0000000   0.0000000   0.0000000   0.0000000   2.0440000   0.0000000   0.0000000   0.0000000   0.0000000
 NMagM=    0.0000000   0.0000000   0.0000000   0.0000000   0.0000000   0.4037610   0.0000000   0.0000000   0.0000000   0.0000000
 AtZNuc=   6.0000000   6.0000000   6.0000000   8.0000000   6.0000000   7.0000000   6.0000000   6.0000000   6.0000000   6.0000000

  Atom        31          32          33          34          35          36          37          38          39          40
 IAtWgt=          12          12          12          14          12          12          12          12          12          12
 AtmWgt=  12.0000000  12.0000000  12.0000000  14.0030740  12.0000000  12.0000000  12.0000000  12.0000000  12.0000000  12.0000000
 NucSpn=           0           0           0           2           0           0           0           0           0           0
 AtZEff=  -0.0000000  -0.0000000  -0.0000000  -0.0000000  -0.0000000  -0.0000000  -0.0000000  -0.0000000  -0.0000000  -0.0000000
 NQMom=    0.0000000   0.0000000   0.0000000   2.0440000   0.0000000   0.0000000   0.0000000   0.0000000   0.0000000   0.0000000
 NMagM=    0.0000000   0.0000000   0.0000000   0.4037610   0.0000000   0.0000000   0.0000000   0.0000000   0.0000000   0.0000000
 AtZNuc=   6.0000000   6.0000000   6.0000000   7.0000000   6.0000000   6.0000000   6.0000000   6.0000000   6.0000000   6.0000000

  Atom        41          42          43          44          45          46          47          48          49          50
 IAtWgt=          16          12          12          16          16          12          12          12          12          12
 AtmWgt=  15.9949146  12.0000000  12.0000000  15.9949146  15.9949146  12.0000000  12.0000000  12.0000000  12.0000000  12.0000000
 NucSpn=           0           0           0           0           0           0           0           0           0           0
 AtZEff=  -0.0000000  -0.0000000  -0.0000000  -0.0000000  -0.0000000  -0.0000000  -0.0000000  -0.0000000  -0.0000000  -0.0000000
 NQMom=    0.0000000   0.0000000   0.0000000   0.0000000   0.0000000   0.0000000   0.0000000   0.0000000   0.0000000   0.0000000
 NMagM=    0.0000000   0.0000000   0.0000000   0.0000000   0.0000000   0.0000000   0.0000000   0.0000000   0.0000000   0.0000000
 AtZNuc=   8.0000000   6.0000000   6.0000000   8.0000000   8.0000000   6.0000000   6.0000000   6.0000000   6.0000000   6.0000000

  Atom        51          52          53          54          55          56          57          58          59          60
 IAtWgt=          12          12          12          12          12          12          12          12          12          12
 AtmWgt=  12.0000000  12.0000000  12.0000000  12.0000000  12.0000000  12.0000000  12.0000000  12.0000000  12.0000000  12.0000000
 NucSpn=           0           0           0           0           0           0           0           0           0           0
 AtZEff=  -0.0000000  -0.0000000  -0.0000000  -0.0000000  -0.0000000  -0.0000000  -0.0000000  -0.0000000  -0.0000000  -0.0000000
 NQMom=    0.0000000   0.0000000   0.0000000   0.0000000   0.0000000   0.0000000   0.0000000   0.0000000   0.0000000   0.0000000
 NMagM=    0.0000000   0.0000000   0.0000000   0.0000000   0.0000000   0.0000000   0.0000000   0.0000000   0.0000000   0.0000000
 AtZNuc=   6.0000000   6.0000000   6.0000000   6.0000000   6.0000000   6.0000000   6.0000000   6.0000000   6.0000000   6.0000000

  Atom        61          62          63          64          65          66          67          68          69          70
 IAtWgt=          12          12          12          12          12          12           1           1           1           1
 AtmWgt=  12.0000000  12.0000000  12.0000000  12.0000000  12.0000000  12.0000000   1.0078250   1.0078250   1.0078250   1.0078250
 NucSpn=           0           0           0           0           0           0           1           1           1           1
 AtZEff=  -0.0000000  -0.0000000  -0.0000000  -0.0000000  -0.0000000  -0.0000000  -0.0000000  -0.0000000  -0.0000000  -0.0000000
 NQMom=    0.0000000   0.0000000   0.0000000   0.0000000   0.0000000   0.0000000   0.0000000   0.0000000   0.0000000   0.0000000
 NMagM=    0.0000000   0.0000000   0.0000000   0.0000000   0.0000000   0.0000000   2.7928460   2.7928460   2.7928460   2.7928460
 AtZNuc=   6.0000000   6.0000000   6.0000000   6.0000000   6.0000000   6.0000000   1.0000000   1.0000000   1.0000000   1.0000000

  Atom        71          72          73          74          75          76          77          78          79          80
 IAtWgt=           1           1           1           1           1           1           1           1           1           1
 AtmWgt=   1.0078250   1.0078250   1.0078250   1.0078250   1.0078250   1.0078250   1.0078250   1.0078250   1.0078250   1.0078250
 NucSpn=           1           1           1           1           1           1           1           1           1           1
 AtZEff=  -0.0000000  -0.0000000  -0.0000000  -0.0000000  -0.0000000  -0.0000000  -0.0000000  -0.0000000  -0.0000000  -0.0000000
 NQMom=    0.0000000   0.0000000   0.0000000   0.0000000   0.0000000   0.0000000   0.0000000   0.0000000   0.0000000   0.0000000
 NMagM=    2.7928460   2.7928460   2.7928460   2.7928460   2.7928460   2.7928460   2.7928460   2.7928460   2.7928460   2.7928460
 AtZNuc=   1.0000000   1.0000000   1.0000000   1.0000000   1.0000000   1.0000000   1.0000000   1.0000000   1.0000000   1.0000000

  Atom        81          82          83          84          85          86          87          88          89          90
 IAtWgt=           1           1           1           1           1           1           1           1           1           1
 AtmWgt=   1.0078250   1.0078250   1.0078250   1.0078250   1.0078250   1.0078250   1.0078250   1.0078250   1.0078250   1.0078250
 NucSpn=           1           1           1           1           1           1           1           1           1           1
 AtZEff=  -0.0000000  -0.0000000  -0.0000000  -0.0000000  -0.0000000  -0.0000000  -0.0000000  -0.0000000  -0.0000000  -0.0000000
 NQMom=    0.0000000   0.0000000   0.0000000   0.0000000   0.0000000   0.0000000   0.0000000   0.0000000   0.0000000   0.0000000
 NMagM=    2.7928460   2.7928460   2.7928460   2.7928460   2.7928460   2.7928460   2.7928460   2.7928460   2.7928460   2.7928460
 AtZNuc=   1.0000000   1.0000000   1.0000000   1.0000000   1.0000000   1.0000000   1.0000000   1.0000000   1.0000000   1.0000000

  Atom        91          92          93          94          95          96          97          98          99         100
 IAtWgt=           1           1           1           1           1           1           1           1           1           1
 AtmWgt=   1.0078250   1.0078250   1.0078250   1.0078250   1.0078250   1.0078250   1.0078250   1.0078250   1.0078250   1.0078250
 NucSpn=           1           1           1           1           1           1           1           1           1           1
 AtZEff=  -0.0000000  -0.0000000  -0.0000000  -0.0000000  -0.0000000  -0.0000000  -0.0000000  -0.0000000  -0.0000000  -0.0000000
 NQMom=    0.0000000   0.0000000   0.0000000   0.0000000   0.0000000   0.0000000   0.0000000   0.0000000   0.0000000   0.0000000
 NMagM=    2.7928460   2.7928460   2.7928460   2.7928460   2.7928460   2.7928460   2.7928460   2.7928460   2.7928460   2.7928460
 AtZNuc=   1.0000000   1.0000000   1.0000000   1.0000000   1.0000000   1.0000000   1.0000000   1.0000000   1.0000000   1.0000000

  Atom       101         102         103         104         105         106         107         108         109         110
 IAtWgt=           1           1           1           1           1           1           1           1           1           1
 AtmWgt=   1.0078250   1.0078250   1.0078250   1.0078250   1.0078250   1.0078250   1.0078250   1.0078250   1.0078250   1.0078250
 NucSpn=           1           1           1           1           1           1           1           1           1           1
 AtZEff=  -0.0000000  -0.0000000  -0.0000000  -0.0000000  -0.0000000  -0.0000000  -0.0000000  -0.0000000  -0.0000000  -0.0000000
 NQMom=    0.0000000   0.0000000   0.0000000   0.0000000   0.0000000   0.0000000   0.0000000   0.0000000   0.0000000   0.0000000
 NMagM=    2.7928460   2.7928460   2.7928460   2.7928460   2.7928460   2.7928460   2.7928460   2.7928460   2.7928460   2.7928460
 AtZNuc=   1.0000000   1.0000000   1.0000000   1.0000000   1.0000000   1.0000000   1.0000000   1.0000000   1.0000000   1.0000000

  Atom       111         112         113         114         115         116         117         118         119         120
 IAtWgt=           1           1           1           1           1           1           1           1           1           1
 AtmWgt=   1.0078250   1.0078250   1.0078250   1.0078250   1.0078250   1.0078250   1.0078250   1.0078250   1.0078250   1.0078250
 NucSpn=           1           1           1           1           1           1           1           1           1           1
 AtZEff=  -0.0000000  -0.0000000  -0.0000000  -0.0000000  -0.0000000  -0.0000000  -0.0000000  -0.0000000  -0.0000000  -0.0000000
 NQMom=    0.0000000   0.0000000   0.0000000   0.0000000   0.0000000   0.0000000   0.0000000   0.0000000   0.0000000   0.0000000
 NMagM=    2.7928460   2.7928460   2.7928460   2.7928460   2.7928460   2.7928460   2.7928460   2.7928460   2.7928460   2.7928460
 AtZNuc=   1.0000000   1.0000000   1.0000000   1.0000000   1.0000000   1.0000000   1.0000000   1.0000000   1.0000000   1.0000000

  Atom       121         122         123         124         125         126         127         128         129         130
 IAtWgt=           1           1           1           1           1           1           1           1           1           1
 AtmWgt=   1.0078250   1.0078250   1.0078250   1.0078250   1.0078250   1.0078250   1.0078250   1.0078250   1.0078250   1.0078250
 NucSpn=           1           1           1           1           1           1           1           1           1           1
 AtZEff=  -0.0000000  -0.0000000  -0.0000000  -0.0000000  -0.0000000  -0.0000000  -0.0000000  -0.0000000  -0.0000000  -0.0000000
 NQMom=    0.0000000   0.0000000   0.0000000   0.0000000   0.0000000   0.0000000   0.0000000   0.0000000   0.0000000   0.0000000
 NMagM=    2.7928460   2.7928460   2.7928460   2.7928460   2.7928460   2.7928460   2.7928460   2.7928460   2.7928460   2.7928460
 AtZNuc=   1.0000000   1.0000000   1.0000000   1.0000000   1.0000000   1.0000000   1.0000000   1.0000000   1.0000000   1.0000000

  Atom       131         132         133         134         135         136         137         138         139         140
 IAtWgt=           1           1           1           1           1           1           1           1           1           1
 AtmWgt=   1.0078250   1.0078250   1.0078250   1.0078250   1.0078250   1.0078250   1.0078250   1.0078250   1.0078250   1.0078250
 NucSpn=           1           1           1           1           1           1           1           1           1           1
 AtZEff=  -0.0000000  -0.0000000  -0.0000000  -0.0000000  -0.0000000  -0.0000000  -0.0000000  -0.0000000  -0.0000000  -0.0000000
 NQMom=    0.0000000   0.0000000   0.0000000   0.0000000   0.0000000   0.0000000   0.0000000   0.0000000   0.0000000   0.0000000
 NMagM=    2.7928460   2.7928460   2.7928460   2.7928460   2.7928460   2.7928460   2.7928460   2.7928460   2.7928460   2.7928460
 AtZNuc=   1.0000000   1.0000000   1.0000000   1.0000000   1.0000000   1.0000000   1.0000000   1.0000000   1.0000000   1.0000000
 Leave Link  101 at Thu May  5 05:04:46 2022, MaxMem= 10066329600 cpu:               3.3 elap:               0.2
 (Enter /sw/apps/gaussian-16.0/g16/l202.exe)
 Stoichiometry    C55H74MgN4O6
 Framework group  C1[X(C55H74MgN4O6)]
 Deg. of freedom   414
 Full point group                 C1      NOp   1
 Largest Abelian subgroup         C1      NOp   1
 Largest concise Abelian subgroup C1      NOp   1
                         Standard orientation:                         
 ---------------------------------------------------------------------
 Center     Atomic      Atomic             Coordinates (Angstroms)
 Number     Number       Type             X           Y           Z
 ---------------------------------------------------------------------
      1         12           0        6.318269    0.599803   -0.133250
      2          6           0        4.022115   -2.192383   -0.099227
      3          6           0        3.668233    2.622830   -0.876834
      4          6           0        8.349737    3.041106    0.177432
      5          6           0        8.855568   -1.764250    0.615328
      6          7           0        4.137190    0.179178   -0.619520
      7          6           0        3.405823   -0.953978   -0.385653
      8          6           0        1.869522   -0.740856   -0.544229
      9          6           0        1.869571    0.782412   -0.884518
     10          6           0        3.335903    1.226930   -0.804062
     11          6           0        1.169076    1.220913   -2.232223
     12          6           0        1.162987   -1.204894    0.739415
     13          6           0       -0.249168   -0.766528    0.911193
     14          6           0       -1.304695   -1.932604    0.995612
     15          8           0       -1.225954   -2.910377    1.765507
     16          8           0       -2.346858   -1.772312    0.256541
     17          7           0        6.046044    2.593540   -0.461576
     18          6           0        4.894772    3.250396   -0.764595
     19          6           0        5.178725    4.649373   -0.853121
     20          6           0        6.608108    4.794672   -0.563132
     21          6           0        7.092972    3.450346   -0.306524
     22          6           0        4.145076    5.664916   -1.262573
     23          6           0        7.389100    6.080927   -0.594287
     24          8           0        8.622870    6.131859   -0.335029
     25          6           0        6.696013    7.342881   -0.904671
     26          7           0        8.322423    0.643207    0.332424
     27          6           0        8.933027    1.822716    0.457836
     28          6           0       10.266495    1.652783    1.037178
     29          6           0       10.377006    0.092745    1.445278
     30          6           0        9.088825   -0.385616    0.809471
     31          6           0       11.434564    2.271834    0.175361
     32          6           0       10.452266   -0.164110    2.990598
     33          6           0        9.316407    0.239685    3.851580
     34          7           0        6.481579   -1.533346    0.089644
     35          6           0        7.568263   -2.328266    0.331584
     36          6           0        7.177536   -3.761984    0.327847
     37          6           0        5.787995   -3.720996    0.212340
     38          6           0        5.404160   -2.392911    0.058667
     39          6           0        8.134914   -4.860143    0.519984
     40          6           0        4.647862   -4.589277    0.104182
     41          8           0        4.569380   -5.822737    0.162434
     42          6           0        3.489341   -3.563268   -0.097240
     43          6           0        2.909065   -3.887379   -1.409730
     44          8           0        3.436041   -3.870724   -2.510739
     45          8           0        1.626405   -4.349842   -1.319412
     46          6           0        1.078035   -4.856901   -2.631676
     47          6           0       -3.400175   -2.851979    0.189244
     48          6           0       -4.635395   -2.250388   -0.557167
     49          6           0       -5.979769   -2.596713   -0.447049
     50          6           0       -6.476574   -3.792961    0.305019
     51          6           0       -6.999717   -1.739104   -1.151662
     52          6           0       -7.213062   -0.334247   -0.688997
     53          6           0       -8.502858   -0.149020    0.167449
     54          6           0       -9.453790    0.851487   -0.542252
     55          6           0       -9.090202    2.347603   -0.248105
     56          6           0      -10.925801    0.645604   -0.220506
     57          6           0      -11.839396    0.220406   -1.447614
     58          6           0      -12.772490    1.350444   -1.952557
     59          6           0      -14.276868    0.810763   -1.793519
     60          6           0      -15.002873    1.230003   -3.061442
     61          6           0      -14.999955    1.333777   -0.513897
     62          6           0      -14.774320    0.438608    0.757152
     63          6           0      -14.080122    1.100781    1.994159
     64          6           0      -15.198828    1.444875    3.007776
     65          6           0      -14.806035    0.868143    4.358177
     66          6           0      -15.255435    2.960682    3.227937
     67          1           0        2.843314    3.298620   -1.112998
     68          1           0        9.029114    3.855563    0.437534
     69          1           0        9.677535   -2.399295    0.950467
     70          1           0        1.504605   -1.338831   -1.380002
     71          1           0        1.382163    1.346071   -0.089778
     72          1           0        1.053321    0.424000   -2.967119
     73          1           0        1.861974    1.938879   -2.672422
     74          1           0        0.241860    1.791185   -2.178211
     75          1           0        1.746288   -0.761754    1.545589
     76          1           0        1.186992   -2.295103    0.759433
     77          1           0       -0.611011   -0.321148   -0.015261
     78          1           0       -0.325116   -0.155906    1.810366
     79          1           0        4.147488    6.399055   -0.456891
     80          1           0        3.140578    5.260616   -1.385658
     81          1           0        4.554678    6.077626   -2.183949
     82          1           0        6.329104    7.327058   -1.930718
     83          1           0        7.475563    8.098512   -0.806067
     84          1           0        5.862799    7.380813   -0.204410
     85          1           0       10.189626    2.188746    1.982870
     86          1           0       11.227148   -0.322102    0.904373
     87          1           0       11.712046    3.199261    0.676378
     88          1           0       11.001670    2.591540   -0.772766
     89          1           0       12.242259    1.554951    0.029687
     90          1           0       11.347943    0.402661    3.246249
     91          1           0       10.884025   -1.147730    3.171977
     92          1           0        8.411824    0.671749    3.423585
     93          1           0        9.711449    1.022065    4.498945
     94          1           0        9.145923   -0.727940    4.322873
     95          1           0        7.695591   -5.835666    0.313858
     96          1           0        8.519800   -4.787453    1.537545
     97          1           0        9.003350   -4.765870   -0.132171
     98          1           0        2.746069   -3.713650    0.685509
     99          1           0        1.703642   -4.736348   -3.515703
    100          1           0        0.096986   -4.406342   -2.788162
    101          1           0        1.058403   -5.938818   -2.507831
    102          1           0       -3.742005   -3.100866    1.193864
    103          1           0       -3.068465   -3.804317   -0.225806
    104          1           0       -4.490905   -1.394619   -1.215953
    105          1           0       -6.980461   -3.547131    1.239373
    106          1           0       -5.656499   -4.506778    0.371909
    107          1           0       -7.238122   -4.269053   -0.312639
    108          1           0       -7.917917   -2.299319   -1.326835
    109          1           0       -6.567776   -1.780168   -2.151997
    110          1           0       -7.056356    0.269135   -1.583897
    111          1           0       -6.420620   -0.042852    0.001039
    112          1           0       -8.148156    0.210524    1.133260
    113          1           0       -8.917233   -1.151985    0.268983
    114          1           0       -9.392961    0.735477   -1.624041
    115          1           0       -9.749742    2.882995    0.434361
    116          1           0       -8.873636    2.852385   -1.190499
    117          1           0       -8.159047    2.603656    0.258204
    118          1           0      -11.400238    1.483152    0.289353
    119          1           0      -11.020524   -0.200847    0.459550
    120          1           0      -12.422247   -0.679328   -1.251365
    121          1           0      -11.213140   -0.084043   -2.287078
    122          1           0      -12.534417    1.359843   -3.015984
    123          1           0      -12.525455    2.342536   -1.576094
    124          1           0      -14.319716   -0.276749   -1.736080
    125          1           0      -15.731024    2.012039   -2.846365
    126          1           0      -15.480921    0.288893   -3.332043
    127          1           0      -14.367194    1.664333   -3.832401
    128          1           0      -16.087090    1.385926   -0.562256
    129          1           0      -14.654293    2.349495   -0.316483
    130          1           0      -14.073910   -0.369995    0.546031
    131          1           0      -15.720988    0.021652    1.099965
    132          1           0      -13.743155    2.086417    1.669212
    133          1           0      -13.311082    0.456093    2.419933
    134          1           0      -16.192989    1.157636    2.664423
    135          1           0      -15.350826   -0.074891    4.376590
    136          1           0      -15.049946    1.532919    5.187602
    137          1           0      -13.718701    0.799094    4.342956
    138          1           0      -15.958719    3.332041    3.973281
    139          1           0      -15.708773    3.395418    2.336113
    140          1           0      -14.267938    3.384337    3.410059
 ---------------------------------------------------------------------
 Rotational constants (GHZ):           0.0511853           0.0079764           0.0072863
 Leave Link  202 at Thu May  5 05:04:46 2022, MaxMem= 10066329600 cpu:               0.3 elap:               0.0
 (Enter /sw/apps/gaussian-16.0/g16/l301.exe)
 Standard basis: def2SVP (5D, 7F)
 Ernie: Thresh=  0.10000D-02 Tol=  0.10000D-05 Strict=F.
 There are  1364 symmetry adapted cartesian basis functions of A   symmetry.
 There are  1298 symmetry adapted basis functions of A   symmetry.
  1298 basis functions,  2180 primitive gaussians,  1364 cartesian basis functions
   246 alpha electrons      246 beta electrons
       nuclear repulsion energy      9362.7522917509 Hartrees.
 IExCor=20419 DFT=T Ex+Corr=CAM-B3LYP ExCW=0 ScaHFX=  1.000000
 ScaDFX=  1.000000  1.000000  1.000000  0.810000 ScalE2=  1.000000  1.000000
 IRadAn=      5 IRanWt=     -1 IRanGd=            0 ICorTp=0 IEmpDi=  4
 HFx  wShort=  0.000000 wLong=  0.330000 cFull=  0.190000 cShort=  0.000000 cLong=  0.460000
 DFx  wShort=  0.000000 wLong=  0.330000 cFull=  0.190000 cShort=  0.000000 cLong=  0.460000
 NAtoms=  140 NActive=  140 NUniq=  140 SFac= 1.00D+00 NAtFMM=   60 NAOKFM=T Big=T
 Integral buffers will be    131072 words long.
 Raffenetti 1 integral format.
 Two-electron integral symmetry is turned on.
 Leave Link  301 at Thu May  5 05:04:46 2022, MaxMem= 10066329600 cpu:               1.5 elap:               0.1
 (Enter /sw/apps/gaussian-16.0/g16/l302.exe)
 NPDir=0 NMtPBC=     1 NCelOv=     1 NCel=       1 NClECP=     1 NCelD=      1
         NCelK=      1 NCelE2=     1 NClLst=     1 CellRange=     0.0.
 One-electron integrals computed using PRISM.
 One-electron integral symmetry used in STVInt
   1 Symmetry operations used in ECPInt.
 ECPInt:  NShTT=  192510 NPrTT=  683786 LenC2=   89928 LenP2D=  199905.
 LDataN:  DoStor=T MaxTD1= 4 Len=   56
 NBasis=  1298 RedAO= T EigKep=  2.54D-04  NBF=  1298
 NBsUse=  1298 1.00D-06 EigRej= -1.00D+00 NBFU=  1298
 Precomputing XC quadrature grid using
 IXCGrd= 4 IRadAn=           5 IRanWt=          -1 IRanGd=           0 AccXCQ= 0.00D+00.
 Generated NRdTot=       0 NPtTot=           0 NUsed=           0 NTot=          32
 NSgBfM=   979   950   960   974   979 MxSgAt=   140 MxSgA2=   140.
 Leave Link  302 at Thu May  5 05:04:49 2022, MaxMem= 10066329600 cpu:              73.6 elap:               3.1
 (Enter /sw/apps/gaussian-16.0/g16/l303.exe)
 DipDrv:  MaxL=1.
 Leave Link  303 at Thu May  5 05:04:49 2022, MaxMem= 10066329600 cpu:               5.9 elap:               0.3
 (Enter /sw/apps/gaussian-16.0/g16/l308.exe)
 Leave Link  308 at Thu May  5 05:04:50 2022, MaxMem= 10066329600 cpu:               8.9 elap:               0.4
 (Enter /sw/apps/gaussian-16.0/g16/l401.exe)
 ExpMin= 3.36D-02 ExpMax= 4.95D+03 ExpMxC= 7.45D+02 IAcc=3 IRadAn=         5 AccDes= 0.00D+00
 Harris functional with IExCor=20419 and IRadAn=       5 diagonalized for initial guess.
 HarFok:  IExCor=20419 AccDes= 0.00D+00 IRadAn=         5 IDoV= 1 UseB2=F ITyADJ=14
 ICtDFT=  3500011 ScaDFX=  1.000000  1.000000  1.000000  1.000000
 FoFCou: FMM=F IPFlag=           0 FMFlag=      100000 FMFlg1=        2001
         NFxFlg=           0 DoJE=T BraDBF=F KetDBF=T FulRan=T
         wScrn=  0.000000 ICntrl=       500 IOpCl=  0 I1Cent=   200000004 NGrid=           0
         NMat0=    1 NMatS0=      1 NMatT0=    0 NMatD0=    1 NMtDS0=    0 NMtDT0=    0
 Petite list used in FoFCou.
 Harris En= -2890.81179791124    
 JPrj=0 DoOrth=F DoCkMO=F.
 Leave Link  401 at Thu May  5 05:04:56 2022, MaxMem= 10066329600 cpu:             132.6 elap:               5.6
 (Enter /sw/apps/gaussian-16.0/g16/l502.exe)
 Integral symmetry usage will be decided dynamically.
 Closed shell SCF:
 Using DIIS extrapolation, IDIIS=  1040.
 NGot= 10066329600 LenX= 10062561258 LenY= 10060699398
 Requested convergence on RMS density matrix=1.00D-08 within 128 cycles.
 Requested convergence on MAX density matrix=1.00D-06.
 Requested convergence on             energy=1.00D-06.
 No special actions if energy rises.
 Fock matrices will be formed incrementally for  20 cycles.

 Cycle   1  Pass 1  IDiag  1:
 FoFJK:  IHMeth= 1 ICntrl=       0 DoSepK=T KAlg= 0 I1Cent=           0 FoldK=F
 IRaf=         1 NMat=       1 IRICut=       1 DoRegI=T DoRafI=F ISym2E= 0 IDoP0=0 IntGTp=1.
 FoFCou: FMM=T IPFlag=           0 FMFlag=      100000 FMFlg1=        2001
         NFxFlg=           0 DoJE=T BraDBF=F KetDBF=F FulRan=T
         wScrn=  0.000000 ICntrl=       500 IOpCl=  0 I1Cent=           0 NGrid=           0
         NMat0=    1 NMatS0=      1 NMatT0=    0 NMatD0=    1 NMtDS0=    0 NMtDT0=    0
 Symmetry not used in FoFCou.
 FMM levels:  10  Number of levels for PrismC:   9
 E= -3006.46965714486    
 DIIS: error= 2.64D-02 at cycle   1 NSaved=   1.
 NSaved= 1 IEnMin= 1 EnMin= -3006.46965714486     IErMin= 1 ErrMin= 2.64D-02
 ErrMax= 2.64D-02  0.00D+00 EMaxC= 1.00D-01 BMatC= 1.26D+00 BMatP= 1.26D+00
 IDIUse=3 WtCom= 7.36D-01 WtEn= 2.64D-01
 Coeff-Com:  0.100D+01
 Coeff-En:   0.100D+01
 Coeff:      0.100D+01
 Gap=     0.124 Goal=   None    Shift=    0.000
 GapD=    0.124 DampG=1.000 DampE=0.500 DampFc=0.5000 IDamp=-1.
 Damping current iteration by 5.00D-01
 RMSDP=1.57D-03 MaxDP=1.75D-01              OVMax= 1.80D-01

 Cycle   2  Pass 1  IDiag  1:
 RMSU=  7.70D-04    CP:  9.83D-01
 E= -3006.77388175801     Delta-E=       -0.304224613155 Rises=F Damp=T
 DIIS: error= 1.46D-02 at cycle   2 NSaved=   2.
 NSaved= 2 IEnMin= 2 EnMin= -3006.77388175801     IErMin= 2 ErrMin= 1.46D-02
 ErrMax= 1.46D-02  0.00D+00 EMaxC= 1.00D-01 BMatC= 2.32D-01 BMatP= 1.26D+00
 IDIUse=3 WtCom= 8.54D-01 WtEn= 1.46D-01
 Coeff-Com: -0.218D+00 0.122D+01
 Coeff-En:   0.000D+00 0.100D+01
 Coeff:     -0.186D+00 0.119D+01
 Gap=     0.139 Goal=   None    Shift=    0.000
 RMSDP=7.24D-04 MaxDP=8.00D-02 DE=-3.04D-01 OVMax= 1.78D-01

 Cycle   3  Pass 1  IDiag  1:
 RMSU=  6.99D-04    CP:  9.73D-01  1.21D+00
 E= -3007.00906927672     Delta-E=       -0.235187518703 Rises=F Damp=F
 DIIS: error= 1.84D-02 at cycle   3 NSaved=   3.
 NSaved= 3 IEnMin= 3 EnMin= -3007.00906927672     IErMin= 2 ErrMin= 1.46D-02
 ErrMax= 1.84D-02  0.00D+00 EMaxC= 1.00D-01 BMatC= 1.43D-01 BMatP= 2.32D-01
 IDIUse=3 WtCom= 8.16D-01 WtEn= 1.84D-01
 Coeff-Com: -0.262D+00 0.640D+00 0.622D+00
 Coeff-En:   0.000D+00 0.000D+00 0.100D+01
 Coeff:     -0.214D+00 0.522D+00 0.692D+00
 Gap=     0.127 Goal=   None    Shift=    0.000
 RMSDP=4.98D-04 MaxDP=5.17D-02 DE=-2.35D-01 OVMax= 1.27D-01

 Cycle   4  Pass 1  IDiag  1:
 RMSU=  2.76D-04    CP:  9.69D-01  1.53D+00  5.25D-01
 E= -3007.09499424982     Delta-E=       -0.085924973104 Rises=F Damp=F
 DIIS: error= 8.82D-03 at cycle   4 NSaved=   4.
 NSaved= 4 IEnMin= 4 EnMin= -3007.09499424982     IErMin= 4 ErrMin= 8.82D-03
 ErrMax= 8.82D-03  0.00D+00 EMaxC= 1.00D-01 BMatC= 4.32D-02 BMatP= 1.43D-01
 IDIUse=3 WtCom= 9.12D-01 WtEn= 8.82D-02
 Coeff-Com: -0.102D+00 0.210D+00 0.422D+00 0.470D+00
 Coeff-En:   0.000D+00 0.000D+00 0.257D+00 0.743D+00
 Coeff:     -0.934D-01 0.192D+00 0.407D+00 0.495D+00
 Gap=     0.124 Goal=   None    Shift=    0.000
 RMSDP=2.03D-04 MaxDP=1.96D-02 DE=-8.59D-02 OVMax= 5.75D-02

 Cycle   5  Pass 1  IDiag  1:
 RMSU=  7.16D-05    CP:  9.69D-01  1.46D+00  7.11D-01  5.35D-01
 E= -3007.13200758737     Delta-E=       -0.037013337549 Rises=F Damp=F
 DIIS: error= 6.06D-04 at cycle   5 NSaved=   5.
 NSaved= 5 IEnMin= 5 EnMin= -3007.13200758737     IErMin= 5 ErrMin= 6.06D-04
 ErrMax= 6.06D-04  0.00D+00 EMaxC= 1.00D-01 BMatC= 7.19D-04 BMatP= 4.32D-02
 IDIUse=3 WtCom= 9.94D-01 WtEn= 6.06D-03
 Coeff-Com: -0.329D-01 0.641D-01 0.167D+00 0.237D+00 0.564D+00
 Coeff-En:   0.000D+00 0.000D+00 0.000D+00 0.000D+00 0.100D+01
 Coeff:     -0.327D-01 0.637D-01 0.166D+00 0.236D+00 0.567D+00
 Gap=     0.123 Goal=   None    Shift=    0.000
 RMSDP=3.76D-05 MaxDP=4.54D-03 DE=-3.70D-02 OVMax= 1.62D-02

 Cycle   6  Pass 1  IDiag  1:
 RMSU=  2.74D-05    CP:  9.69D-01  1.47D+00  7.04D-01  5.97D-01  7.51D-01
 E= -3007.13261352276     Delta-E=       -0.000605935391 Rises=F Damp=F
 DIIS: error= 2.85D-04 at cycle   6 NSaved=   6.
 NSaved= 6 IEnMin= 6 EnMin= -3007.13261352276     IErMin= 6 ErrMin= 2.85D-04
 ErrMax= 2.85D-04  0.00D+00 EMaxC= 1.00D-01 BMatC= 1.09D-04 BMatP= 7.19D-04
 IDIUse=3 WtCom= 9.97D-01 WtEn= 2.85D-03
 Coeff-Com:  0.274D-02-0.731D-02 0.793D-02 0.320D-01 0.307D+00 0.657D+00
 Coeff-En:   0.000D+00 0.000D+00 0.000D+00 0.000D+00 0.115D+00 0.885D+00
 Coeff:      0.274D-02-0.729D-02 0.791D-02 0.319D-01 0.307D+00 0.658D+00
 Gap=     0.124 Goal=   None    Shift=    0.000
 RMSDP=1.58D-05 MaxDP=1.15D-03 DE=-6.06D-04 OVMax= 7.86D-03

 Cycle   7  Pass 1  IDiag  1:
 RMSU=  1.01D-05    CP:  9.69D-01  1.47D+00  7.10D-01  5.96D-01  8.60D-01
                    CP:  7.02D-01
 E= -3007.13272980077     Delta-E=       -0.000116278014 Rises=F Damp=F
 DIIS: error= 9.59D-05 at cycle   7 NSaved=   7.
 NSaved= 7 IEnMin= 7 EnMin= -3007.13272980077     IErMin= 7 ErrMin= 9.59D-05
 ErrMax= 9.59D-05  0.00D+00 EMaxC= 1.00D-01 BMatC= 1.52D-05 BMatP= 1.09D-04
 IDIUse=1 WtCom= 1.00D+00 WtEn= 0.00D+00
 Coeff-Com:  0.434D-02-0.940D-02-0.100D-01-0.511D-02 0.110D+00 0.357D+00
 Coeff-Com:  0.553D+00
 Coeff:      0.434D-02-0.940D-02-0.100D-01-0.511D-02 0.110D+00 0.357D+00
 Coeff:      0.553D+00
 Gap=     0.124 Goal=   None    Shift=    0.000
 RMSDP=6.25D-06 MaxDP=1.17D-03 DE=-1.16D-04 OVMax= 3.38D-03

 Cycle   8  Pass 1  IDiag  1:
 RMSU=  4.03D-06    CP:  9.68D-01  1.47D+00  7.11D-01  6.00D-01  8.61D-01
                    CP:  8.38D-01  7.42D-01
 E= -3007.13274757406     Delta-E=       -0.000017773287 Rises=F Damp=F
 DIIS: error= 3.73D-05 at cycle   8 NSaved=   8.
 NSaved= 8 IEnMin= 8 EnMin= -3007.13274757406     IErMin= 8 ErrMin= 3.73D-05
 ErrMax= 3.73D-05  0.00D+00 EMaxC= 1.00D-01 BMatC= 2.30D-06 BMatP= 1.52D-05
 IDIUse=1 WtCom= 1.00D+00 WtEn= 0.00D+00
 Coeff-Com:  0.203D-02-0.402D-02-0.777D-02-0.110D-01-0.455D-02 0.609D-01
 Coeff-Com:  0.303D+00 0.661D+00
 Coeff:      0.203D-02-0.402D-02-0.777D-02-0.110D-01-0.455D-02 0.609D-01
 Coeff:      0.303D+00 0.661D+00
 Gap=     0.124 Goal=   None    Shift=    0.000
 RMSDP=2.57D-06 MaxDP=2.39D-04 DE=-1.78D-05 OVMax= 1.06D-03

 Cycle   9  Pass 1  IDiag  1:
 RMSU=  1.60D-06    CP:  9.68D-01  1.47D+00  7.11D-01  6.01D-01  8.77D-01
                    CP:  8.53D-01  8.88D-01  8.55D-01
 E= -3007.13275061108     Delta-E=       -0.000003037017 Rises=F Damp=F
 DIIS: error= 2.06D-05 at cycle   9 NSaved=   9.
 NSaved= 9 IEnMin= 9 EnMin= -3007.13275061108     IErMin= 9 ErrMin= 2.06D-05
 ErrMax= 2.06D-05  0.00D+00 EMaxC= 1.00D-01 BMatC= 2.99D-07 BMatP= 2.30D-06
 IDIUse=1 WtCom= 1.00D+00 WtEn= 0.00D+00
 Coeff-Com:  0.526D-03-0.952D-03-0.278D-02-0.524D-02-0.158D-01-0.134D-01
 Coeff-Com:  0.907D-01 0.338D+00 0.609D+00
 Coeff:      0.526D-03-0.952D-03-0.278D-02-0.524D-02-0.158D-01-0.134D-01
 Coeff:      0.907D-01 0.338D+00 0.609D+00
 Gap=     0.124 Goal=   None    Shift=    0.000
 RMSDP=9.23D-07 MaxDP=2.39D-04 DE=-3.04D-06 OVMax= 4.10D-04

 Cycle  10  Pass 1  IDiag  1:
 RMSU=  6.32D-07    CP:  9.68D-01  1.47D+00  7.11D-01  6.01D-01  8.79D-01
                    CP:  8.62D-01  9.08D-01  9.83D-01  8.85D-01
 E= -3007.13275100626     Delta-E=       -0.000000395185 Rises=F Damp=F
 DIIS: error= 9.46D-06 at cycle  10 NSaved=  10.
 NSaved=10 IEnMin=10 EnMin= -3007.13275100626     IErMin=10 ErrMin= 9.46D-06
 ErrMax= 9.46D-06  0.00D+00 EMaxC= 1.00D-01 BMatC= 4.80D-08 BMatP= 2.99D-07
 IDIUse=1 WtCom= 1.00D+00 WtEn= 0.00D+00
 Coeff-Com: -0.198D-03 0.431D-03 0.431D-03-0.122D-03-0.628D-02-0.213D-01
 Coeff-Com: -0.232D-01 0.127D-01 0.283D+00 0.755D+00
 Coeff:     -0.198D-03 0.431D-03 0.431D-03-0.122D-03-0.628D-02-0.213D-01
 Coeff:     -0.232D-01 0.127D-01 0.283D+00 0.755D+00
 Gap=     0.124 Goal=   None    Shift=    0.000
 RMSDP=4.85D-07 MaxDP=7.01D-05 DE=-3.95D-07 OVMax= 1.73D-04

 Cycle  11  Pass 1  IDiag  1:
 RMSU=  2.79D-07    CP:  9.68D-01  1.47D+00  7.11D-01  6.01D-01  8.81D-01
                    CP:  8.68D-01  9.27D-01  1.02D+00  1.04D+00  9.91D-01
 E= -3007.13275109048     Delta-E=       -0.000000084216 Rises=F Damp=F
 DIIS: error= 2.48D-06 at cycle  11 NSaved=  11.
 NSaved=11 IEnMin=11 EnMin= -3007.13275109048     IErMin=11 ErrMin= 2.48D-06
 ErrMax= 2.48D-06  0.00D+00 EMaxC= 1.00D-01 BMatC= 1.12D-08 BMatP= 4.80D-08
 IDIUse=1 WtCom= 1.00D+00 WtEn= 0.00D+00
 Coeff-Com: -0.188D-03 0.377D-03 0.688D-03 0.808D-03-0.278D-03-0.923D-02
 Coeff-Com: -0.265D-01-0.559D-01 0.410D-01 0.396D+00 0.653D+00
 Coeff:     -0.188D-03 0.377D-03 0.688D-03 0.808D-03-0.278D-03-0.923D-02
 Coeff:     -0.265D-01-0.559D-01 0.410D-01 0.396D+00 0.653D+00
 Gap=     0.124 Goal=   None    Shift=    0.000
 RMSDP=2.46D-07 MaxDP=7.81D-05 DE=-8.42D-08 OVMax= 9.87D-05

 Cycle  12  Pass 1  IDiag  1:
 RMSU=  1.32D-07    CP:  9.68D-01  1.47D+00  7.11D-01  6.01D-01  8.81D-01
                    CP:  8.70D-01  9.33D-01  1.05D+00  1.08D+00  1.19D+00
                    CP:  8.95D-01
 E= -3007.13275110925     Delta-E=       -0.000000018777 Rises=F Damp=F
 DIIS: error= 1.10D-06 at cycle  12 NSaved=  12.
 NSaved=12 IEnMin=12 EnMin= -3007.13275110925     IErMin=12 ErrMin= 1.10D-06
 ErrMax= 1.10D-06  0.00D+00 EMaxC= 1.00D-01 BMatC= 2.10D-09 BMatP= 1.12D-08
 IDIUse=1 WtCom= 1.00D+00 WtEn= 0.00D+00
 Coeff-Com: -0.693D-04 0.135D-03 0.301D-03 0.438D-03 0.892D-03-0.202D-02
 Coeff-Com: -0.888D-02-0.321D-01-0.140D-01 0.100D+00 0.333D+00 0.622D+00
 Coeff:     -0.693D-04 0.135D-03 0.301D-03 0.438D-03 0.892D-03-0.202D-02
 Coeff:     -0.888D-02-0.321D-01-0.140D-01 0.100D+00 0.333D+00 0.622D+00
 Gap=     0.124 Goal=   None    Shift=    0.000
 RMSDP=8.33D-08 MaxDP=9.02D-06 DE=-1.88D-08 OVMax= 4.02D-05

 Cycle  13  Pass 1  IDiag  1:
 RMSU=  6.27D-08    CP:  9.68D-01  1.47D+00  7.11D-01  6.01D-01  8.81D-01
                    CP:  8.70D-01  9.33D-01  1.05D+00  1.10D+00  1.22D+00
                    CP:  1.03D+00  9.75D-01
 E= -3007.13275111305     Delta-E=       -0.000000003793 Rises=F Damp=F
 DIIS: error= 4.36D-07 at cycle  13 NSaved=  13.
 NSaved=13 IEnMin=13 EnMin= -3007.13275111305     IErMin=13 ErrMin= 4.36D-07
 ErrMax= 4.36D-07  0.00D+00 EMaxC= 1.00D-01 BMatC= 6.20D-10 BMatP= 2.10D-09
 IDIUse=1 WtCom= 1.00D+00 WtEn= 0.00D+00
 Coeff-Com:  0.118D-04-0.261D-04-0.195D-04 0.225D-04 0.629D-03 0.110D-02
 Coeff-Com:  0.359D-02-0.389D-02-0.154D-01-0.585D-01-0.137D-01 0.301D+00
 Coeff-Com:  0.785D+00
 Coeff:      0.118D-04-0.261D-04-0.195D-04 0.225D-04 0.629D-03 0.110D-02
 Coeff:      0.359D-02-0.389D-02-0.154D-01-0.585D-01-0.137D-01 0.301D+00
 Coeff:      0.785D+00
 Gap=     0.124 Goal=   None    Shift=    0.000
 RMSDP=7.09D-08 MaxDP=1.56D-05 DE=-3.79D-09 OVMax= 4.01D-05

 Cycle  14  Pass 1  IDiag  1:
 RMSU=  3.14D-08    CP:  9.68D-01  1.47D+00  7.11D-01  6.01D-01  8.81D-01
                    CP:  8.70D-01  9.33D-01  1.05D+00  1.11D+00  1.27D+00
                    CP:  1.11D+00  1.28D+00  1.31D+00
 E= -3007.13275111529     Delta-E=       -0.000000002239 Rises=F Damp=F
 DIIS: error= 3.02D-07 at cycle  14 NSaved=  14.
 NSaved=14 IEnMin=14 EnMin= -3007.13275111529     IErMin=14 ErrMin= 3.02D-07
 ErrMax= 3.02D-07  0.00D+00 EMaxC= 1.00D-01 BMatC= 1.92D-10 BMatP= 6.20D-10
 IDIUse=1 WtCom= 1.00D+00 WtEn= 0.00D+00
 Coeff-Com:  0.273D-04-0.544D-04-0.105D-03-0.132D-03 0.411D-04 0.782D-03
 Coeff-Com:  0.514D-02 0.670D-02 0.175D-02-0.520D-01-0.101D+00-0.595D-01
 Coeff-Com:  0.309D+00 0.889D+00
 Coeff:      0.273D-04-0.544D-04-0.105D-03-0.132D-03 0.411D-04 0.782D-03
 Coeff:      0.514D-02 0.670D-02 0.175D-02-0.520D-01-0.101D+00-0.595D-01
 Coeff:      0.309D+00 0.889D+00
 Gap=     0.124 Goal=   None    Shift=    0.000
 RMSDP=4.96D-08 MaxDP=3.66D-06 DE=-2.24D-09 OVMax= 3.06D-05

 Cycle  15  Pass 1  IDiag  1:
 RMSU=  1.73D-08    CP:  9.68D-01  1.47D+00  7.11D-01  6.01D-01  8.81D-01
                    CP:  8.70D-01  9.34D-01  1.06D+00  1.11D+00  1.29D+00
                    CP:  1.17D+00  1.45D+00  1.80D+00  1.43D+00
 E= -3007.13275111622     Delta-E=       -0.000000000930 Rises=F Damp=F
 DIIS: error= 2.56D-07 at cycle  15 NSaved=  15.
 NSaved=15 IEnMin=15 EnMin= -3007.13275111622     IErMin=15 ErrMin= 2.56D-07
 ErrMax= 2.56D-07  0.00D+00 EMaxC= 1.00D-01 BMatC= 6.71D-11 BMatP= 1.92D-10
 IDIUse=1 WtCom= 1.00D+00 WtEn= 0.00D+00
 Coeff-Com:  0.758D-05-0.143D-04-0.371D-04-0.612D-04-0.146D-03-0.152D-03
 Coeff-Com:  0.149D-02 0.272D-02 0.625D-02-0.750D-02-0.375D-01-0.121D+00
 Coeff-Com: -0.125D+00 0.366D+00 0.915D+00
 Coeff:      0.758D-05-0.143D-04-0.371D-04-0.612D-04-0.146D-03-0.152D-03
 Coeff:      0.149D-02 0.272D-02 0.625D-02-0.750D-02-0.375D-01-0.121D+00
 Coeff:     -0.125D+00 0.366D+00 0.915D+00
 Gap=     0.124 Goal=   None    Shift=    0.000
 RMSDP=3.81D-08 MaxDP=4.15D-06 DE=-9.30D-10 OVMax= 2.54D-05

 Cycle  16  Pass 1  IDiag  1:
 RMSU=  9.18D-09    CP:  9.68D-01  1.47D+00  7.11D-01  6.01D-01  8.82D-01
                    CP:  8.70D-01  9.34D-01  1.06D+00  1.12D+00  1.31D+00
                    CP:  1.21D+00  1.58D+00  2.13D+00  1.95D+00  1.35D+00
 E= -3007.13275111656     Delta-E=       -0.000000000344 Rises=F Damp=F
 DIIS: error= 1.19D-07 at cycle  16 NSaved=  16.
 NSaved=16 IEnMin=16 EnMin= -3007.13275111656     IErMin=16 ErrMin= 1.19D-07
 ErrMax= 1.19D-07  0.00D+00 EMaxC= 1.00D-01 BMatC= 2.37D-11 BMatP= 6.71D-11
 IDIUse=1 WtCom= 1.00D+00 WtEn= 0.00D+00
 Coeff-Com: -0.662D-05 0.137D-04 0.214D-04 0.171D-04-0.941D-04-0.467D-03
 Coeff-Com: -0.105D-02-0.171D-02 0.410D-02 0.176D-01 0.239D-01-0.475D-01
 Coeff-Com: -0.205D+00-0.181D+00 0.535D+00 0.856D+00
 Coeff:     -0.662D-05 0.137D-04 0.214D-04 0.171D-04-0.941D-04-0.467D-03
 Coeff:     -0.105D-02-0.171D-02 0.410D-02 0.176D-01 0.239D-01-0.475D-01
 Coeff:     -0.205D+00-0.181D+00 0.535D+00 0.856D+00
 Gap=     0.124 Goal=   None    Shift=    0.000
 RMSDP=2.48D-08 MaxDP=1.93D-06 DE=-3.44D-10 OVMax= 1.52D-05

 Cycle  17  Pass 1  IDiag  1:
 RMSU=  4.55D-09    CP:  9.68D-01  1.47D+00  7.11D-01  6.01D-01  8.82D-01
                    CP:  8.70D-01  9.34D-01  1.06D+00  1.12D+00  1.31D+00
                    CP:  1.23D+00  1.66D+00  2.37D+00  2.31D+00  1.82D+00
                    CP:  1.19D+00
 E= -3007.13275111675     Delta-E=       -0.000000000193 Rises=F Damp=F
 DIIS: error= 6.17D-08 at cycle  17 NSaved=  17.
 NSaved=17 IEnMin=17 EnMin= -3007.13275111675     IErMin=17 ErrMin= 6.17D-08
 ErrMax= 6.17D-08  0.00D+00 EMaxC= 1.00D-01 BMatC= 2.79D-12 BMatP= 2.37D-11
 IDIUse=1 WtCom= 1.00D+00 WtEn= 0.00D+00
 Coeff-Com: -0.458D-05 0.913D-05 0.178D-04 0.205D-04-0.658D-05-0.184D-03
 Coeff-Com: -0.713D-03-0.156D-02 0.713D-03 0.884D-02 0.195D-01 0.534D-02
 Coeff-Com: -0.570D-01-0.156D+00 0.563D-01 0.373D+00 0.752D+00
 Coeff:     -0.458D-05 0.913D-05 0.178D-04 0.205D-04-0.658D-05-0.184D-03
 Coeff:     -0.713D-03-0.156D-02 0.713D-03 0.884D-02 0.195D-01 0.534D-02
 Coeff:     -0.570D-01-0.156D+00 0.563D-01 0.373D+00 0.752D+00
 Gap=     0.124 Goal=   None    Shift=    0.000
 RMSDP=6.31D-09 MaxDP=4.89D-07 DE=-1.93D-10 OVMax= 4.25D-06

 SCF Done:  E(RCAM-B3LYP) =  -3007.13275112     A.U. after   17 cycles
            NFock= 17  Conv=0.63D-08     -V/T= 2.0105
 KE= 2.975893869318D+03 PE=-2.571771953878D+04 EE= 1.037194062659D+04
 Leave Link  502 at Thu May  5 05:10:52 2022, MaxMem= 10066329600 cpu:            8149.1 elap:             356.2
 (Enter /sw/apps/gaussian-16.0/g16/l801.exe)
 DoSCS=F DFT=T ScalE2(SS,OS)=  1.000000  1.000000
 ExpMin= 3.36D-02 ExpMax= 4.95D+03 ExpMxC= 7.45D+02 IAcc=3 IRadAn=         5 AccDes= 0.00D+00
 HarFok:  IExCor=  205 AccDes= 0.00D+00 IRadAn=         5 IDoV=-2 UseB2=F ITyADJ=14
 ICtDFT= 12500011 ScaDFX=  1.000000  1.000000  1.000000  1.000000
 GSVD:  LWork=       -5460 too small for GESVD, short by       25550 words or       25550 for optimal perf.
 Largest valence mixing into a core orbital is  1.62D-04
 Largest core mixing into a valence orbital is  5.20D-05
 Range of M.O.s used for correlation:    71  1298
 NBasis=  1298 NAE=   246 NBE=   246 NFC=    70 NFV=     0
 NROrb=   1228 NOA=   176 NOB=   176 NVA=  1052 NVB=  1052
 Leave Link  801 at Thu May  5 05:10:52 2022, MaxMem= 10066329600 cpu:               6.7 elap:               0.3
 (Enter /sw/apps/gaussian-16.0/g16/l914.exe)
 RHF ground state
 Two-electron integrals replicated using symmetry.
 MDV= 10066329600 DFT=T DoStab=F Mixed=T DoRPA=T DoScal=F NonHer=T
 Making orbital integer symmetry assigments:
 Orbital symmetries:
       Occupied  (A) (A) (A) (A) (A) (A) (A) (A) (A) (A) (A) (A)
                 (A) (A) (A) (A) (A) (A) (A) (A) (A) (A) (A) (A)
                 (A) (A) (A) (A) (A) (A) (A) (A) (A) (A) (A) (A)
                 (A) (A) (A) (A) (A) (A) (A) (A) (A) (A) (A) (A)
                 (A) (A) (A) (A) (A) (A) (A) (A) (A) (A) (A) (A)
                 (A) (A) (A) (A) (A) (A) (A) (A) (A) (A) (A) (A)
                 (A) (A) (A) (A) (A) (A) (A) (A) (A) (A) (A) (A)
                 (A) (A) (A) (A) (A) (A) (A) (A) (A) (A) (A) (A)
                 (A) (A) (A) (A) (A) (A) (A) (A) (A) (A) (A) (A)
                 (A) (A) (A) (A) (A) (A) (A) (A) (A) (A) (A) (A)
                 (A) (A) (A) (A) (A) (A) (A) (A) (A) (A) (A) (A)
                 (A) (A) (A) (A) (A) (A) (A) (A) (A) (A) (A) (A)
                 (A) (A) (A) (A) (A) (A) (A) (A) (A) (A) (A) (A)
                 (A) (A) (A) (A) (A) (A) (A) (A) (A) (A) (A) (A)
                 (A) (A) (A) (A) (A) (A) (A) (A) (A) (A) (A) (A)
                 (A) (A) (A) (A) (A) (A) (A) (A) (A) (A) (A) (A)
                 (A) (A) (A) (A) (A) (A) (A) (A) (A) (A) (A) (A)
                 (A) (A) (A) (A) (A) (A) (A) (A) (A) (A) (A) (A)
                 (A) (A) (A) (A) (A) (A) (A) (A) (A) (A) (A) (A)
                 (A) (A) (A) (A) (A) (A) (A) (A) (A) (A) (A) (A)
                 (A) (A) (A) (A) (A) (A)
       Virtual   (A) (A) (A) (A) (A) (A) (A) (A) (A) (A) (A) (A)
                 (A) (A) (A) (A) (A) (A) (A) (A) (A) (A) (A) (A)
                 (A) (A) (A) (A) (A) (A) (A) (A) (A) (A) (A) (A)
                 (A) (A) (A) (A) (A) (A) (A) (A) (A) (A) (A) (A)
                 (A) (A) (A) (A) (A) (A) (A) (A) (A) (A) (A) (A)
                 (A) (A) (A) (A) (A) (A) (A) (A) (A) (A) (A) (A)
                 (A) (A) (A) (A) (A) (A) (A) (A) (A) (A) (A) (A)
                 (A) (A) (A) (A) (A) (A) (A) (A) (A) (A) (A) (A)
                 (A) (A) (A) (A) (A) (A) (A) (A) (A) (A) (A) (A)
                 (A) (A) (A) (A) (A) (A) (A) (A) (A) (A) (A) (A)
                 (A) (A) (A) (A) (A) (A) (A) (A) (A) (A) (A) (A)
                 (A) (A) (A) (A) (A) (A) (A) (A) (A) (A) (A) (A)
                 (A) (A) (A) (A) (A) (A) (A) (A) (A) (A) (A) (A)
                 (A) (A) (A) (A) (A) (A) (A) (A) (A) (A) (A) (A)
                 (A) (A) (A) (A) (A) (A) (A) (A) (A) (A) (A) (A)
                 (A) (A) (A) (A) (A) (A) (A) (A) (A) (A) (A) (A)
                 (A) (A) (A) (A) (A) (A) (A) (A) (A) (A) (A) (A)
                 (A) (A) (A) (A) (A) (A) (A) (A) (A) (A) (A) (A)
                 (A) (A) (A) (A) (A) (A) (A) (A) (A) (A) (A) (A)
                 (A) (A) (A) (A) (A) (A) (A) (A) (A) (A) (A) (A)
                 (A) (A) (A) (A) (A) (A) (A) (A) (A) (A) (A) (A)
                 (A) (A) (A) (A) (A) (A) (A) (A) (A) (A) (A) (A)
                 (A) (A) (A) (A) (A) (A) (A) (A) (A) (A) (A) (A)
                 (A) (A) (A) (A) (A) (A) (A) (A) (A) (A) (A) (A)
                 (A) (A) (A) (A) (A) (A) (A) (A) (A) (A) (A) (A)
                 (A) (A) (A) (A) (A) (A) (A) (A) (A) (A) (A) (A)
                 (A) (A) (A) (A) (A) (A) (A) (A) (A) (A) (A) (A)
                 (A) (A) (A) (A) (A) (A) (A) (A) (A) (A) (A) (A)
                 (A) (A) (A) (A) (A) (A) (A) (A) (A) (A) (A) (A)
                 (A) (A) (A) (A) (A) (A) (A) (A) (A) (A) (A) (A)
                 (A) (A) (A) (A) (A) (A) (A) (A) (A) (A) (A) (A)
                 (A) (A) (A) (A) (A) (A) (A) (A) (A) (A) (A) (A)
                 (A) (A) (A) (A) (A) (A) (A) (A) (A) (A) (A) (A)
                 (A) (A) (A) (A) (A) (A) (A) (A) (A) (A) (A) (A)
                 (A) (A) (A) (A) (A) (A) (A) (A) (A) (A) (A) (A)
                 (A) (A) (A) (A) (A) (A) (A) (A) (A) (A) (A) (A)
                 (A) (A) (A) (A) (A) (A) (A) (A) (A) (A) (A) (A)
                 (A) (A) (A) (A) (A) (A) (A) (A) (A) (A) (A) (A)
                 (A) (A) (A) (A) (A) (A) (A) (A) (A) (A) (A) (A)
                 (A) (A) (A) (A) (A) (A) (A) (A) (A) (A) (A) (A)
                 (A) (A) (A) (A) (A) (A) (A) (A) (A) (A) (A) (A)
                 (A) (A) (A) (A) (A) (A) (A) (A) (A) (A) (A) (A)
                 (A) (A) (A) (A) (A) (A) (A) (A) (A) (A) (A) (A)
                 (A) (A) (A) (A) (A) (A) (A) (A) (A) (A) (A) (A)
                 (A) (A) (A) (A) (A) (A) (A) (A) (A) (A) (A) (A)
                 (A) (A) (A) (A) (A) (A) (A) (A) (A) (A) (A) (A)
                 (A) (A) (A) (A) (A) (A) (A) (A) (A) (A) (A) (A)
                 (A) (A) (A) (A) (A) (A) (A) (A) (A) (A) (A) (A)
                 (A) (A) (A) (A) (A) (A) (A) (A) (A) (A) (A) (A)
                 (A) (A) (A) (A) (A) (A) (A) (A) (A) (A) (A) (A)
                 (A) (A) (A) (A) (A) (A) (A) (A) (A) (A) (A) (A)
                 (A) (A) (A) (A) (A) (A) (A) (A) (A) (A) (A) (A)
                 (A) (A) (A) (A) (A) (A) (A) (A) (A) (A) (A) (A)
                 (A) (A) (A) (A) (A) (A) (A) (A) (A) (A) (A) (A)
                 (A) (A) (A) (A) (A) (A) (A) (A) (A) (A) (A) (A)
                 (A) (A) (A) (A) (A) (A) (A) (A) (A) (A) (A) (A)
                 (A) (A) (A) (A) (A) (A) (A) (A) (A) (A) (A) (A)
                 (A) (A) (A) (A) (A) (A) (A) (A) (A) (A) (A) (A)
                 (A) (A) (A) (A) (A) (A) (A) (A) (A) (A) (A) (A)
                 (A) (A) (A) (A) (A) (A) (A) (A) (A) (A) (A) (A)
                 (A) (A) (A) (A) (A) (A) (A) (A) (A) (A) (A) (A)
                 (A) (A) (A) (A) (A) (A) (A) (A) (A) (A) (A) (A)
                 (A) (A) (A) (A) (A) (A) (A) (A) (A) (A) (A) (A)
                 (A) (A) (A) (A) (A) (A) (A) (A) (A) (A) (A) (A)
                 (A) (A) (A) (A) (A) (A) (A) (A) (A) (A) (A) (A)
                 (A) (A) (A) (A) (A) (A) (A) (A) (A) (A) (A) (A)
                 (A) (A) (A) (A) (A) (A) (A) (A) (A) (A) (A) (A)
                 (A) (A) (A) (A) (A) (A) (A) (A) (A) (A) (A) (A)
                 (A) (A) (A) (A) (A) (A) (A) (A) (A) (A) (A) (A)
                 (A) (A) (A) (A) (A) (A) (A) (A) (A) (A) (A) (A)
                 (A) (A) (A) (A) (A) (A) (A) (A) (A) (A) (A) (A)
                 (A) (A) (A) (A) (A) (A) (A) (A) (A) (A) (A) (A)
                 (A) (A) (A) (A) (A) (A) (A) (A) (A) (A) (A) (A)
                 (A) (A) (A) (A) (A) (A) (A) (A) (A) (A) (A) (A)
                 (A) (A) (A) (A) (A) (A) (A) (A) (A) (A) (A) (A)
                 (A) (A) (A) (A) (A) (A) (A) (A) (A) (A) (A) (A)
                 (A) (A) (A) (A) (A) (A) (A) (A) (A) (A) (A) (A)
                 (A) (A) (A) (A) (A) (A) (A) (A) (A) (A) (A) (A)
                 (A) (A) (A) (A) (A) (A) (A) (A) (A) (A) (A) (A)
                 (A) (A) (A) (A) (A) (A) (A) (A) (A) (A) (A) (A)
                 (A) (A) (A) (A) (A) (A) (A) (A) (A) (A) (A) (A)
                 (A) (A) (A) (A) (A) (A) (A) (A) (A) (A) (A) (A)
                 (A) (A) (A) (A) (A) (A) (A) (A) (A) (A) (A) (A)
                 (A) (A) (A) (A) (A) (A) (A) (A) (A) (A) (A) (A)
                 (A) (A) (A) (A) (A) (A) (A) (A) (A) (A) (A) (A)
                 (A) (A) (A) (A) (A) (A) (A) (A) (A) (A) (A) (A)
                 (A) (A) (A) (A) (A) (A) (A) (A) (A) (A) (A) (A)
                 (A) (A) (A) (A) (A) (A) (A) (A)
    20 initial guesses have been made.
 Convergence on wavefunction:    0.001000000000000
 Davidson Disk Diagonalization:  ConvIn= 1.00D-03 SkipCon=T Conv= 1.00D-03.
 Max sub-space:  2000 roots to seek:    20 dimension of matrix:       370304
 Iteration     1 Dimension    20 NMult     0 NNew     20
 CISAX will form    20 AO SS matrices at one time.
 NMat=    20 NSing=    20 JSym2X= 0.
 FoFJK:  IHMeth= 1 ICntrl=       0 DoSepK=T KAlg= 0 I1Cent=           0 FoldK=F
 IRaf=         1 NMat=      40 IRICut=       1 DoRegI=T DoRafI=F ISym2E= 0 IDoP0=3 IntGTp=3.
 FoFCou: FMM=T IPFlag=           0 FMFlag=      100000 FMFlg1=        2001
         NFxFlg=           0 DoJE=F BraDBF=F KetDBF=F FulRan=T
         wScrn=  0.000000 ICntrl=       500 IOpCl=  0 I1Cent=           0 NGrid=           0
         NMat0=   20 NMatS0=     20 NMatT0=    0 NMatD0=   20 NMtDS0=    0 NMtDT0=    0
 Symmetry not used in FoFCou.
 FMM levels:  10  Number of levels for PrismC:   9
 New state      3 was old state      5
 New state      4 was old state      7
 New state      5 was old state      8
 Excitation Energies [eV] at current iteration:
 Root      1 :     2.216048364010217
 Root      2 :     2.603442934645088
 Root      3 :     3.745543607697075
 Root      4 :     3.919953607711925
 Root      5 :     4.174942240334439
 Root      6 :     4.205477168013315
 Root      7 :     4.261695216222236
 Root      8 :     4.322301483768115
 Root      9 :     4.418640623989525
 Root     10 :     4.478982584313507
 Root     11 :     4.596977402922235
 Root     12 :     4.671012007352238
 Root     13 :     4.848487652924501
 Root     14 :     4.909573915835988
 Root     15 :     5.003938370359103
 Root     16 :     5.137081973306289
 Root     17 :     5.302708718565001
 Root     18 :     5.309557266502835
 Root     19 :     5.992683604956198
 Root     20 :     6.282041652567615
 Iteration     2 Dimension    30 NMult    20 NNew     10
 CISAX will form    10 AO SS matrices at one time.
 NMat=    10 NSing=    10 JSym2X= 0.
 Root      1 not converged, maximum delta is    0.074358115748011
 Root      2 not converged, maximum delta is    0.060553267221602
 Root      3 not converged, maximum delta is    0.063040651377002
 Root      4 not converged, maximum delta is    0.132278073548207
 Root      5 not converged, maximum delta is    0.304377357460724
 Excitation Energies [eV] at current iteration:
 Root      1 :     1.745760798320195   Change is   -0.470287565690022
 Root      2 :     2.241918553259294   Change is   -0.361524381385794
 Root      3 :     3.405980624889866   Change is   -0.339562982807209
 Root      4 :     3.489325458218887   Change is   -0.430628149493038
 Root      5 :     3.747646519436666   Change is   -0.427295720897773
 Iteration     3 Dimension    40 NMult    30 NNew     10
 CISAX will form    10 AO SS matrices at one time.
 NMat=    10 NSing=    10 JSym2X= 0.
 Root      1 not converged, maximum delta is    0.018207919773769
 Root      2 not converged, maximum delta is    0.011998635668672
 Root      3 not converged, maximum delta is    0.051820848146303
 Root      4 not converged, maximum delta is    0.113591867044931
 Root      5 not converged, maximum delta is    0.091061488097084
 Excitation Energies [eV] at current iteration:
 Root      1 :     1.708034661162805   Change is   -0.037726137157390
 Root      2 :     2.224082995269726   Change is   -0.017835557989568
 Root      3 :     3.390119382976950   Change is   -0.015861241912917
 Root      4 :     3.442981106784787   Change is   -0.046344351434100
 Root      5 :     3.635762875487718   Change is   -0.111883643948948
 Iteration     4 Dimension    50 NMult    40 NNew     10
 CISAX will form    10 AO SS matrices at one time.
 NMat=    10 NSing=    10 JSym2X= 0.
 Root      1 not converged, maximum delta is    0.002333847478777
 Root      2 not converged, maximum delta is    0.003352492745142
 Root      3 not converged, maximum delta is    0.006453872164330
 Root      4 not converged, maximum delta is    0.026891935672519
 Root      5 not converged, maximum delta is    0.110802534981238
 Excitation Energies [eV] at current iteration:
 Root      1 :     1.703955955479692   Change is   -0.004078705683113
 Root      2 :     2.221480027569256   Change is   -0.002602967700470
 Root      3 :     3.386533258363551   Change is   -0.003586124613399
 Root      4 :     3.432152591402228   Change is   -0.010828515382559
 Root      5 :     3.607486269008704   Change is   -0.028276606479014
 Iteration     5 Dimension    60 NMult    50 NNew     10
 CISAX will form    10 AO SS matrices at one time.
 NMat=    10 NSing=    10 JSym2X= 0.
 Root      1 not converged, maximum delta is    0.001283667882416
 Root      2 has converged.
 Root      3 not converged, maximum delta is    0.002203292620956
 Root      4 not converged, maximum delta is    0.004793824397432
 Root      5 not converged, maximum delta is    0.168026647012993
 Excitation Energies [eV] at current iteration:
 Root      1 :     1.703612815993909   Change is   -0.000343139485783
 Root      2 :     2.221303348604515   Change is   -0.000176678964741
 Root      3 :     3.386194903768413   Change is   -0.000338354595138
 Root      4 :     3.430745259365232   Change is   -0.001407332036996
 Root      5 :     3.590331064334984   Change is   -0.017155204673720
 Iteration     6 Dimension    68 NMult    60 NNew      8
 CISAX will form     8 AO SS matrices at one time.
 NMat=     8 NSing=     8 JSym2X= 0.
 Root      1 has converged.
 Root      2 has converged.
 Root      3 has converged.
 Root      4 not converged, maximum delta is    0.001872870557574
 Root      5 not converged, maximum delta is    0.051712070763177
 Excitation Energies [eV] at current iteration:
 Root      1 :     1.703584833073918   Change is   -0.000027982919991
 Root      2 :     2.221302218224462   Change is   -0.000001130380053
 Root      3 :     3.386153707135488   Change is   -0.000041196632924
 Root      4 :     3.430557624974580   Change is   -0.000187634390653
 Root      5 :     3.586401051166434   Change is   -0.003930013168549
 Iteration     7 Dimension    72 NMult    68 NNew      4
 CISAX will form     4 AO SS matrices at one time.
 NMat=     4 NSing=     4 JSym2X= 0.
 Root      1 has converged.
 Root      2 has converged.
 Root      3 has converged.
 Root      4 not converged, maximum delta is    0.002295084689048
 Root      5 not converged, maximum delta is    0.008690133135979
 Excitation Energies [eV] at current iteration:
 Root      1 :     1.703584613476835   Change is   -0.000000219597083
 Root      2 :     2.221300958546678   Change is   -0.000001259677784
 Root      3 :     3.386151006087544   Change is   -0.000002701047945
 Root      4 :     3.430503744192255   Change is   -0.000053880782324
 Root      5 :     3.585809351091074   Change is   -0.000591700075360
 Iteration     8 Dimension    76 NMult    72 NNew      4
 CISAX will form     4 AO SS matrices at one time.
 NMat=     4 NSing=     4 JSym2X= 0.
 Root      1 has converged.
 Root      2 has converged.
 Root      3 not converged, maximum delta is    0.001262938005762
 Root      4 not converged, maximum delta is    0.004209182560808
 Root      5 not converged, maximum delta is    0.024638728497465
 Excitation Energies [eV] at current iteration:
 Root      1 :     1.703584504284760   Change is   -0.000000109192075
 Root      2 :     2.221300669735308   Change is   -0.000000288811370
 Root      3 :     3.386146232595891   Change is   -0.000004773491653
 Root      4 :     3.430463494269700   Change is   -0.000040249922555
 Root      5 :     3.585443370633079   Change is   -0.000365980457995
 Iteration     9 Dimension    82 NMult    76 NNew      6
 CISAX will form     6 AO SS matrices at one time.
 NMat=     6 NSing=     6 JSym2X= 0.
 Root      1 has converged.
 Root      2 has converged.
 Root      3 not converged, maximum delta is    0.001195561536456
 Root      4 not converged, maximum delta is    0.003209138168467
 Root      5 not converged, maximum delta is    0.251358418983172
 Excitation Energies [eV] at current iteration:
 Root      1 :     1.703584315426560   Change is   -0.000000188858199
 Root      2 :     2.221300035268030   Change is   -0.000000634467278
 Root      3 :     3.386136792136320   Change is   -0.000009440459571
 Root      4 :     3.430440731714500   Change is   -0.000022762555200
 Root      5 :     3.581026588436110   Change is   -0.004416782196970
 Iteration    10 Dimension    88 NMult    82 NNew      6
 CISAX will form     6 AO SS matrices at one time.
 NMat=     6 NSing=     6 JSym2X= 0.
 Root      1 has converged.
 Root      2 has converged.
 Root      3 has converged.
 Root      4 has converged.
 Root      5 not converged, maximum delta is    0.210791493683794
 Excitation Energies [eV] at current iteration:
 Root      1 :     1.703584198638693   Change is   -0.000000116787867
 Root      2 :     2.221299447977477   Change is   -0.000000587290554
 Root      3 :     3.386135204208271   Change is   -0.000001587928049
 Root      4 :     3.430436921209019   Change is   -0.000003810505480
 Root      5 :     3.572549766697921   Change is   -0.008476821738189
 Iteration    11 Dimension    90 NMult    88 NNew      2
 CISAX will form     2 AO SS matrices at one time.
 NMat=     2 NSing=     2 JSym2X= 0.
 Root      1 has converged.
 Root      2 has converged.
 Root      3 has converged.
 Root      4 has converged.
 Root      5 not converged, maximum delta is    0.015118463803368
 Excitation Energies [eV] at current iteration:
 Root      1 :     1.703584167320939   Change is   -0.000000031317754
 Root      2 :     2.221299390692224   Change is   -0.000000057285253
 Root      3 :     3.386135095730824   Change is   -0.000000108477446
 Root      4 :     3.430436533281934   Change is   -0.000000387927085
 Root      5 :     3.571268727701565   Change is   -0.001281038996356
 Iteration    12 Dimension    92 NMult    90 NNew      2
 CISAX will form     2 AO SS matrices at one time.
 NMat=     2 NSing=     2 JSym2X= 0.
 Root      1 has converged.
 Root      2 has converged.
 Root      3 has converged.
 Root      4 has converged.
 Root      5 not converged, maximum delta is    0.001626121425986
 Excitation Energies [eV] at current iteration:
 Root      1 :     1.703584091866225   Change is   -0.000000075454714
 Root      2 :     2.221299321929556   Change is   -0.000000068762668
 Root      3 :     3.386135077694885   Change is   -0.000000018035940
 Root      4 :     3.430436502738372   Change is   -0.000000030543562
 Root      5 :     3.571124549887707   Change is   -0.000144177813858
 Iteration    13 Dimension    94 NMult    92 NNew      2
 CISAX will form     2 AO SS matrices at one time.
 NMat=     2 NSing=     2 JSym2X= 0.
 Root      1 has converged.
 Root      2 has converged.
 Root      3 has converged.
 Root      4 has converged.
 Root      5 has converged.
 Excitation Energies [eV] at current iteration:
 Root      1 :     1.703584085809468   Change is   -0.000000006056756
 Root      2 :     2.221299204049017   Change is   -0.000000117880539
 Root      3 :     3.386135073499264   Change is   -0.000000004195621
 Root      4 :     3.430436491340804   Change is   -0.000000011397568
 Root      5 :     3.571102629968056   Change is   -0.000021919919651
 Convergence achieved on expansion vectors.
 ***********************************************************************
 Excited states from <AA,BB:AA,BB> singles matrix:
 ***********************************************************************
 
 1PDM for each excited state written to RWF  633
 Ground to excited state transition densities written to RWF  633
 Ground to excited state transition electric dipole moments (Au):
       state          X           Y           Z        Dip. S.      Osc.
         1        -0.2457      3.0136     -0.4279      9.3250      0.3892
         2        -1.2560     -0.2895     -0.2395      1.7187      0.0935
         3         0.4825     -0.0154      0.1044      0.2440      0.0202
         4         2.0329      0.5786      0.4564      4.6757      0.3930
         5         0.0514      0.0112     -0.0197      0.0032      0.0003
 Ground to excited state transition velocity dipole moments (Au):
       state          X           Y           Z        Dip. S.      Osc.
         1         0.0142     -0.1832      0.0272      0.0345      0.3674
         2         0.0966      0.0223      0.0189      0.0102      0.0831
         3        -0.0611      0.0021     -0.0125      0.0039      0.0209
         4        -0.2472     -0.0728     -0.0558      0.0695      0.3676
         5        -0.0051     -0.0007     -0.0001      0.0000      0.0001
 Ground to excited state transition magnetic dipole moments (Au):
       state          X           Y           Z
         1        -0.0484     -0.2914     -2.0004
         2         0.0470     -0.2559      0.0155
         3         0.1783      0.0888     -0.8702
         4        -0.0435      0.8467     -0.3211
         5         0.1336      0.7431     -0.1023
 Ground to excited state transition velocity quadrupole moments (Au):
       state          XX          YY          ZZ          XY          XZ          YZ
         1         0.4372     -0.3744      0.0067     -2.1595      0.3365      0.1390
         2         2.1242     -0.0235     -0.0180      0.2797      0.2023     -0.0018
         3        -1.2887      0.2599     -0.0223      0.3511     -0.1784      0.0143
         4        -5.1630      0.2373     -0.0828     -1.0252     -0.8123     -0.0243
         5        -0.1746      0.1343     -0.0423     -0.0555     -0.0739     -0.0400
 <0|del|b> * <b|rxdel|0> + <0|del|b> * <b|delr+rdel|0>
 Rotatory Strengths (R) in cgs (10**-40 erg-esu-cm/Gauss)
       state          XX          YY          ZZ    R(velocity)    E-M Angle
         1        11.7465     31.6640    -61.6384     -6.0760       90.25
         2       -20.0895     -2.6718     15.2750     -2.4955       91.88
         3        20.0301      9.9020    -29.0415      0.2968       89.84
         4      -128.0130    -63.2060      6.2480    -61.6570       97.93
         5        -1.5277     -1.2742     -3.6984     -2.1668      107.81
 1/2[<0|r|b>*<b|rxdel|0> + (<0|rxdel|b>*<b|r|0>)*]
 Rotatory Strengths (R) in cgs (10**-40 erg-esu-cm/Gauss)
       state          XX          YY          ZZ     R(length)
         1        -8.4132    621.0872   -605.3581      2.4386
         2        41.7840    -52.3914      2.6230     -2.6615
         3       -60.8523      0.9639     64.2554      1.4556
         4        62.5398   -346.4262    103.6260    -60.0868
         5        -4.8562     -5.8646     -1.4267     -4.0492
  1/2[<0|del|b>*<b|r|0> + (<0|r|b>*<b|del|0>)*] (Au)
[...]
 Alpha virt. eigenvalues --    1.20042   1.20711   1.21179   1.21486   1.22105
 Alpha virt. eigenvalues --    1.22833   1.23205   1.23643   1.24057   1.24603
 Alpha virt. eigenvalues --    1.25100   1.25421   1.25714   1.26365   1.26711
 Alpha virt. eigenvalues --    1.27369   1.27798   1.27970   1.28421   1.29078
 Alpha virt. eigenvalues --    1.29471   1.30099   1.30343   1.30667   1.31621
 Alpha virt. eigenvalues --    1.32144   1.32662   1.33011   1.33280   1.34173
 Alpha virt. eigenvalues --    1.34370   1.34952   1.35572   1.36253   1.36767
 Alpha virt. eigenvalues --    1.36838   1.37166   1.37533   1.37659   1.37923
 Alpha virt. eigenvalues --    1.38754   1.39226   1.39520   1.40027   1.40575
 Alpha virt. eigenvalues --    1.40711   1.41220   1.41480   1.41969   1.42549
 Alpha virt. eigenvalues --    1.42842   1.42978   1.43254   1.43991   1.44497
 Alpha virt. eigenvalues --    1.44987   1.45265   1.45406   1.45555   1.46744
 Alpha virt. eigenvalues --    1.47031   1.47481   1.48201   1.48549   1.48697
 Alpha virt. eigenvalues --    1.49296   1.49638   1.49953   1.50390   1.50547
 Alpha virt. eigenvalues --    1.51432   1.51802   1.51963   1.52100   1.52393
 Alpha virt. eigenvalues --    1.52663   1.53226   1.53381   1.53877   1.54863
 Alpha virt. eigenvalues --    1.55335   1.55529   1.55811   1.56305   1.56795
 Alpha virt. eigenvalues --    1.57077   1.58057   1.58367   1.58581   1.58774
 Alpha virt. eigenvalues --    1.58794   1.59299   1.59427   1.59677   1.59841
 Alpha virt. eigenvalues --    1.59954   1.60524   1.60860   1.60932   1.61290
 Alpha virt. eigenvalues --    1.61577   1.61986   1.62123   1.62428   1.62546
 Alpha virt. eigenvalues --    1.62865   1.63044   1.63129   1.63399   1.63429
 Alpha virt. eigenvalues --    1.63638   1.64003   1.64098   1.64556   1.64866
 Alpha virt. eigenvalues --    1.65007   1.65459   1.65497   1.65734   1.66734
 Alpha virt. eigenvalues --    1.67166   1.67228   1.67954   1.68172   1.68439
 Alpha virt. eigenvalues --    1.69436   1.69719   1.70636   1.70987   1.71743
 Alpha virt. eigenvalues --    1.71951   1.72388   1.72552   1.72819   1.73020
 Alpha virt. eigenvalues --    1.73677   1.73764   1.74710   1.75107   1.75151
 Alpha virt. eigenvalues --    1.75807   1.75977   1.76747   1.77053   1.77486
 Alpha virt. eigenvalues --    1.77683   1.77963   1.78160   1.78332   1.78626
 Alpha virt. eigenvalues --    1.78955   1.79317   1.79475   1.80052   1.80118
 Alpha virt. eigenvalues --    1.80244   1.80443   1.81004   1.81219   1.81562
 Alpha virt. eigenvalues --    1.82064   1.82138   1.82348   1.82423   1.82522
 Alpha virt. eigenvalues --    1.82786   1.82949   1.83079   1.83234   1.83500
 Alpha virt. eigenvalues --    1.83719   1.84167   1.84266   1.84426   1.84532
 Alpha virt. eigenvalues --    1.84622   1.84823   1.84899   1.85080   1.85226
 Alpha virt. eigenvalues --    1.85320   1.85560   1.85676   1.85973   1.86230
 Alpha virt. eigenvalues --    1.86413   1.86657   1.86849   1.87300   1.87346
 Alpha virt. eigenvalues --    1.87444   1.87650   1.87905   1.88246   1.88315
 Alpha virt. eigenvalues --    1.88463   1.88811   1.89063   1.89258   1.89447
 Alpha virt. eigenvalues --    1.89503   1.89638   1.89888   1.90076   1.90243
 Alpha virt. eigenvalues --    1.90368   1.90682   1.91068   1.91261   1.91777
 Alpha virt. eigenvalues --    1.91815   1.92021   1.92295   1.92481   1.92574
 Alpha virt. eigenvalues --    1.92734   1.93157   1.93496   1.93754   1.94061
 Alpha virt. eigenvalues --    1.94184   1.94197   1.94245   1.94426   1.95116
 Alpha virt. eigenvalues --    1.95199   1.95315   1.95837   1.95887   1.96630
 Alpha virt. eigenvalues --    1.96822   1.97039   1.97321   1.97474   1.97731
 Alpha virt. eigenvalues --    1.98101   1.98265   1.98507   1.98625   1.98791
 Alpha virt. eigenvalues --    1.99117   1.99607   1.99761   1.99872   2.00349
 Alpha virt. eigenvalues --    2.00647   2.00938   2.00958   2.01430   2.01632
 Alpha virt. eigenvalues --    2.02345   2.02497   2.02695   2.02809   2.03505
 Alpha virt. eigenvalues --    2.03668   2.03747   2.03928   2.04123   2.04424
 Alpha virt. eigenvalues --    2.04790   2.04914   2.05374   2.05780   2.06164
 Alpha virt. eigenvalues --    2.06401   2.06646   2.06873   2.07518   2.07943
 Alpha virt. eigenvalues --    2.08059   2.08242   2.08755   2.08796   2.09494
 Alpha virt. eigenvalues --    2.09729   2.09852   2.10086   2.10399   2.10712
 Alpha virt. eigenvalues --    2.11105   2.11382   2.11601   2.11797   2.12298
 Alpha virt. eigenvalues --    2.12393   2.12858   2.12998   2.13311   2.13699
 Alpha virt. eigenvalues --    2.13961   2.14357   2.14647   2.14895   2.15498
 Alpha virt. eigenvalues --    2.16028   2.16207   2.16526   2.16724   2.17260
 Alpha virt. eigenvalues --    2.17603   2.17849   2.17919   2.18105   2.18294
 Alpha virt. eigenvalues --    2.18732   2.18973   2.19092   2.19575   2.19822
 Alpha virt. eigenvalues --    2.19937   2.20273   2.21039   2.21382   2.21489
 Alpha virt. eigenvalues --    2.21836   2.22243   2.22474   2.22559   2.22959
 Alpha virt. eigenvalues --    2.23120   2.23709   2.23852   2.23965   2.24588
 Alpha virt. eigenvalues --    2.25030   2.25221   2.25514   2.26120   2.26215
 Alpha virt. eigenvalues --    2.26392   2.26897   2.27517   2.28150   2.28324
 Alpha virt. eigenvalues --    2.29604   2.29758   2.30339   2.31228   2.31391
 Alpha virt. eigenvalues --    2.31690   2.32203   2.32466   2.32939   2.33099
 Alpha virt. eigenvalues --    2.33533   2.34305   2.34485   2.34918   2.35379
 Alpha virt. eigenvalues --    2.36072   2.36264   2.36436   2.36990   2.37116
 Alpha virt. eigenvalues --    2.37399   2.37533   2.38153   2.38388   2.38591
 Alpha virt. eigenvalues --    2.38719   2.38789   2.38986   2.39259   2.39324
 Alpha virt. eigenvalues --    2.39671   2.40551   2.40745   2.41063   2.41334
 Alpha virt. eigenvalues --    2.41514   2.42303   2.42479   2.43320   2.43647
 Alpha virt. eigenvalues --    2.44169   2.44269   2.44596   2.44808   2.45672
 Alpha virt. eigenvalues --    2.45842   2.46133   2.46494   2.46921   2.47456
 Alpha virt. eigenvalues --    2.47735   2.48089   2.48524   2.48700   2.49293
 Alpha virt. eigenvalues --    2.49828   2.50029   2.50108   2.50351   2.50978
 Alpha virt. eigenvalues --    2.51264   2.51505   2.51974   2.52509   2.53082
 Alpha virt. eigenvalues --    2.53297   2.53532   2.53693   2.53954   2.54795
 Alpha virt. eigenvalues --    2.55105   2.55522   2.56862   2.57029   2.57464
 Alpha virt. eigenvalues --    2.58207   2.58872   2.59229   2.60237   2.60440
 Alpha virt. eigenvalues --    2.60967   2.61648   2.62030   2.62271   2.62399
 Alpha virt. eigenvalues --    2.62651   2.62821   2.63689   2.64413   2.64613
 Alpha virt. eigenvalues --    2.64787   2.65250   2.65963   2.66103   2.66663
 Alpha virt. eigenvalues --    2.66858   2.67398   2.67706   2.68125   2.68982
 Alpha virt. eigenvalues --    2.69513   2.69626   2.70015   2.70256   2.70481
 Alpha virt. eigenvalues --    2.70611   2.70794   2.71450   2.71830   2.71854
 Alpha virt. eigenvalues --    2.71967   2.72883   2.73084   2.73346   2.73494
 Alpha virt. eigenvalues --    2.73695   2.75332   2.75823   2.75982   2.76681
 Alpha virt. eigenvalues --    2.76950   2.77280   2.77576   2.78290   2.79031
 Alpha virt. eigenvalues --    2.79115   2.79593   2.80236   2.80341   2.80451
 Alpha virt. eigenvalues --    2.80918   2.81113   2.81403   2.81926   2.82481
 Alpha virt. eigenvalues --    2.83379   2.83631   2.83853   2.84590   2.84618
 Alpha virt. eigenvalues --    2.84823   2.85577   2.85916   2.86459   2.86878
 Alpha virt. eigenvalues --    2.87255   2.87748   2.88244   2.88603   2.89529
 Alpha virt. eigenvalues --    2.89693   2.90571   2.91295   2.91455   2.91899
 Alpha virt. eigenvalues --    2.92663   2.92936   2.93455   2.93699   2.94487
 Alpha virt. eigenvalues --    2.94958   2.95092   2.96613   2.96798   2.96951
 Alpha virt. eigenvalues --    2.97164   2.97264   2.97759   2.98018   2.98296
 Alpha virt. eigenvalues --    2.98484   2.98696   2.98999   2.99419   2.99569
 Alpha virt. eigenvalues --    2.99798   3.00000   3.00661   3.00869   3.00963
 Alpha virt. eigenvalues --    3.01192   3.01369   3.01474   3.01994   3.02078
 Alpha virt. eigenvalues --    3.02390   3.02490   3.02642   3.03154   3.03360
 Alpha virt. eigenvalues --    3.03484   3.03694   3.04332   3.04484   3.05168
 Alpha virt. eigenvalues --    3.05299   3.05383   3.05877   3.06322   3.06650
 Alpha virt. eigenvalues --    3.06972   3.07145   3.07867   3.08193   3.08679
 Alpha virt. eigenvalues --    3.08858   3.09358   3.09672   3.09754   3.10111
 Alpha virt. eigenvalues --    3.10223   3.10872   3.11543   3.11754   3.12889
 Alpha virt. eigenvalues --    3.13344   3.13581   3.13966   3.14026   3.14575
 Alpha virt. eigenvalues --    3.15105   3.15480   3.16590   3.16774   3.16990
 Alpha virt. eigenvalues --    3.17431   3.17527   3.18536   3.18952   3.19792
 Alpha virt. eigenvalues --    3.20069   3.21793   3.22606   3.23304   3.23836
 Alpha virt. eigenvalues --    3.25606   3.26797   3.27003   3.28024   3.28338
 Alpha virt. eigenvalues --    3.29436   3.33746   3.44749   3.47223   3.48129
 Alpha virt. eigenvalues --    3.49976   3.50825   3.53414   3.57049   3.58839
 Alpha virt. eigenvalues --    3.60850   3.65695   3.67339   3.67684   3.70905
 Alpha virt. eigenvalues --    3.71445   3.74967
          Condensed to atoms (all electrons):
 Mulliken charges:
               1
     1  Mg   0.815744
     2  C    0.010197
     3  C   -0.096185
     4  C   -0.072021
     5  C   -0.063722
     6  N   -0.225478
     7  C   -0.090199
     8  C   -0.010510
     9  C   -0.045458
    10  C    0.038504
    11  C    0.060582
    12  C    0.059717
    13  C    0.085017
    14  C    0.107236
    15  O   -0.286109
    16  O   -0.275330
    17  N   -0.404167
    18  C    0.161248
    19  C   -0.183929
    20  C   -0.022544
    21  C    0.154834
    22  C    0.144516
    23  C   -0.025215
    24  O   -0.243548
    25  C    0.078019
    26  N   -0.316217
    27  C    0.036738
    28  C   -0.055571
    29  C   -0.018675
    30  C    0.029333
    31  C    0.082440
    32  C    0.020420
    33  C    0.024361
    34  N   -0.316127
    35  C    0.099170
    36  C   -0.164566
    37  C    0.013051
    38  C    0.104067
    39  C    0.123769
    40  C    0.060504
    41  O   -0.171035
    42  C   -0.005499
    43  C    0.170584
    44  O   -0.226274
    45  O   -0.341959
    46  C    0.158932
    47  C    0.283175
    48  C   -0.115321
    49  C   -0.217899
    50  C    0.094954
    51  C    0.048464
    52  C    0.040883
    53  C    0.078208
    54  C   -0.093378
    55  C    0.024440
    56  C    0.061327
    57  C   -0.020985
    58  C    0.055398
    59  C   -0.152406
    60  C    0.065783
    61  C    0.075980
    62  C   -0.015686
    63  C    0.039616
    64  C   -0.172820
    65  C    0.074685
    66  C    0.022467
    67  H   -0.039876
    68  H   -0.015540
    69  H   -0.026134
    70  H    0.013829
    71  H    0.008510
    72  H    0.020512
    73  H    0.004384
    74  H    0.016044
    75  H   -0.001507
    76  H    0.040137
    77  H    0.019799
    78  H    0.042437
    79  H    0.026883
    80  H    0.019840
    81  H    0.038904
    82  H    0.032327
    83  H    0.034258
    84  H    0.030024
    85  H    0.009251
    86  H   -0.000172
    87  H    0.027533
    88  H    0.027056
    89  H    0.021863
    90  H   -0.004470
    91  H   -0.002042
    92  H    0.035174
    93  H    0.020183
    94  H    0.032259
    95  H    0.037322
    96  H    0.027806
    97  H    0.018411
    98  H    0.053597
    99  H    0.061438
   100  H    0.039485
   101  H    0.041211
   102  H    0.041196
   103  H    0.050512
   104  H   -0.002753
   105  H    0.035634
   106  H    0.013425
   107  H    0.010929
   108  H   -0.014451
   109  H    0.006688
   110  H    0.001294
   111  H   -0.002378
   112  H    0.001900
   113  H   -0.004676
   114  H   -0.001372
   115  H    0.011217
   116  H    0.007047
   117  H   -0.012947
   118  H    0.000818
   119  H   -0.016716
   120  H   -0.004889
   121  H   -0.014560
   122  H   -0.007179
   123  H    0.008405
   124  H    0.001828
   125  H   -0.000338
   126  H    0.008546
   127  H    0.006286
   128  H   -0.004465
   129  H   -0.008234
   130  H   -0.009956
   131  H    0.000255
   132  H    0.005336
   133  H    0.011917
   134  H   -0.001727
   135  H    0.011683
   136  H    0.001132
   137  H    0.000807
   138  H    0.003187
   139  H   -0.010667
   140  H    0.010993
 Sum of Mulliken charges =  -0.00000
 Mulliken charges with hydrogens summed into heavy atoms:
               1
     1  Mg   0.815744
     2  C    0.010197
     3  C   -0.136061
     4  C   -0.087561
     5  C   -0.089855
     6  N   -0.225478
     7  C   -0.090199
     8  C    0.003320
     9  C   -0.036948
    10  C    0.038504
    11  C    0.101523
    12  C    0.098347
    13  C    0.147253
    14  C    0.107236
    15  O   -0.286109
    16  O   -0.275330
    17  N   -0.404167
    18  C    0.161248
    19  C   -0.183929
    20  C   -0.022544
    21  C    0.154834
    22  C    0.230143
    23  C   -0.025215
    24  O   -0.243548
    25  C    0.174628
    26  N   -0.316217
    27  C    0.036738
    28  C   -0.046320
    29  C   -0.018847
    30  C    0.029333
    31  C    0.158892
    32  C    0.013908
    33  C    0.111976
    34  N   -0.316127
    35  C    0.099170
    36  C   -0.164566
    37  C    0.013051
    38  C    0.104067
    39  C    0.207307
    40  C    0.060504
    41  O   -0.171035
    42  C    0.048099
    43  C    0.170584
    44  O   -0.226274
    45  O   -0.341959
    46  C    0.301066
    47  C    0.374883
    48  C   -0.118073
    49  C   -0.217899
    50  C    0.154943
    51  C    0.040701
    52  C    0.039799
    53  C    0.075432
    54  C   -0.094750
    55  C    0.029757
    56  C    0.045429
    57  C   -0.040435
    58  C    0.056624
    59  C   -0.150578
    60  C    0.080277
    61  C    0.063281
    62  C   -0.025387
    63  C    0.056870
    64  C   -0.174547
    65  C    0.088307
    66  C    0.025981
 Electronic spatial extent (au):  <R**2>=         142976.1975
 Charge=             -0.0000 electrons
 Dipole moment (field-independent basis, Debye):
    X=             -3.9998    Y=              3.8993    Z=             -0.2871  Tot=              5.5933
 Quadrupole moment (field-independent basis, Debye-Ang):
   XX=           -379.7297   YY=           -430.4176   ZZ=           -406.8036
   XY=              2.2357   XZ=             25.6373   YZ=              3.4373
 Traceless Quadrupole moment (field-independent basis, Debye-Ang):
   XX=             25.9206   YY=            -24.7673   ZZ=             -1.1533
   XY=              2.2357   XZ=             25.6373   YZ=              3.4373
 Octapole moment (field-independent basis, Debye-Ang**2):
  XXX=            147.5443  YYY=             97.6507  ZZZ=            -23.9178  XYY=           -240.5717
  XXY=           -370.8163  XXZ=            208.4964  XZZ=             79.2089  YZZ=              7.2460
  YYZ=            -73.9008  XYZ=            -58.7120
 Hexadecapole moment (field-independent basis, Debye-Ang**3):
 XXXX=        -166345.9230 YYYY=         -22033.7679 ZZZZ=          -6117.9801 XXXY=          -2621.9785
 XXXZ=           1575.6382 YYYX=            234.6516 YYYZ=             82.2763 ZZZX=            221.3012
 ZZZY=             86.5407 XXYY=         -34103.7474 XXZZ=         -30139.5783 YYZZ=          -4439.2139
 XXYZ=             -4.9051 YYXZ=             -8.0411 ZZXY=            148.9758
 N-N= 9.362752291751D+03 E-N=-2.571771955492D+04  KE= 2.975893869318D+03
 Leave Link  601 at Thu May  5 05:34:44 2022, MaxMem= 10066329600 cpu:              11.1 elap:               0.6
 (Enter /sw/apps/gaussian-16.0/g16/l9999.exe)
 1\1\GINC-BP1-COMPUTE069\SP\RCAM-B3LYP TD-FC\def2SVP\C55H74Mg1N4O6\OF15
 641\05-May-2022\0\\#p cam-b3lyp/Def2SVP td=(nstates=5)\\step_701_chrom
 ophore_16 TDDFT with cam-b3lyp functional\\0,1\Mg,0,41.172,41.731,27.2
 18\C,0,39.852,43.946,29.752\C,0,42.027,39.566,29.718\C,0,42.013,39.702
 ,24.903\C,0,40.185,44.196,24.865\N,0,41.103,41.879,29.486\C,0,40.398,4
 2.751,30.271\C,0,40.338,42.323,31.769\C,0,41.134,40.984,31.671\C,0,41.
 461,40.802,30.183\C,0,42.403,40.829,32.601\C,0,38.869,42.271,32.218\C,
 0,38.594,41.559,33.496\C,0,37.96,42.447,34.632\O,0,36.949,43.164,34.49
 5\O,0,38.513,42.321,35.788\N,0,42.056,39.897,27.327\C,0,42.339,39.16,2
 8.434\C,0,42.912,37.917,28.019\C,0,42.943,37.951,26.554\C,0,42.368,39.
 231,26.181\C,0,43.428,36.893,28.995\C,0,43.516,36.886,25.658\O,0,43.51
 1,36.983,24.4\C,0,44.078,35.662,26.254\N,0,41.11,41.913,25.169\C,0,41.
 473,40.874,24.415\C,0,41.118,41.106,23.014\C,0,40.267,42.48,22.994\C,0
 ,40.479,42.883,24.438\C,0,42.325,40.974,22.006\C,0,38.759,42.297,22.60
 4\C,0,37.88,41.471,23.464\N,0,40.323,43.707,27.254\C,0,40.042,44.58,26
 .239\C,0,39.525,45.863,26.782\C,0,39.397,45.611,28.148\C,0,39.889,44.3
 35,28.402\C,0,39.172,47.013,25.938\C,0,39.021,46.258,29.375\O,0,38.565
 ,47.39,29.579\C,0,39.324,45.143,30.424\C,0,40.342,45.718,31.317\O,0,41
 .468,46.108,31.052\O,0,39.883,45.901,32.591\C,0,40.849,46.654,33.474\C
 ,0,38.048,43.171,36.946\C,0,38.712,42.597,38.24\C,0,38.26,42.654,39.55
 6\C,0,37.094,43.48,40.005\C,0,39.004,41.865,40.603\C,0,38.976,40.372,4
 0.545\C,0,38.005,39.726,41.58\C,0,38.811,38.816,42.545\C,0,39.072,37.3
 87,41.956\C,0,38.183,38.658,43.921\C,0,39.03,39.245,45.129\C,0,39.689,
 38.158,46.016\C,0,39.102,38.355,47.498\C,0,40.286,38.191,48.437\C,0,37
 .944,37.371,47.851\C,0,36.518,37.894,47.45\C,0,35.697,37.042,46.425\C,
 0,34.66,36.232,47.241\C,0,33.29,36.462,46.624\C,0,34.921,34.731,47.073
 \H,0,42.312,38.85,30.492\H,0,42.148,38.981,24.094\H,0,39.82,44.845,24.
 067\H,0,40.864,43.059,32.378\H,0,40.483,40.141,31.9\H,0,42.817,41.768,
 32.969\H,0,43.163,40.4,31.947\H,0,42.366,40.112,33.421\H,0,38.361,41.7
 28,31.422\H,0,38.512,43.297,32.315\H,0,39.533,41.338,34.003\H,0,37.934
 ,40.715,33.298\H,0,42.908,35.973,28.728\H,0,43.236,37.131,30.041\H,0,4
 4.49,36.838,28.758\H,0,44.964,35.903,26.841\H,0,44.363,35.06,25.391\H,
 0,43.288,35.28,26.899\H,0,40.391,40.319,22.815\H,0,40.793,43.175,22.34
 \H,0,42.199,40.007,21.519\H,0,43.232,40.865,22.601\H,0,42.38,41.834,21
 .339\H,0,38.859,41.849,21.615\H,0,38.358,43.249,22.258\H,0,38.253,41.0
 25,24.386\H,0,37.593,40.62,22.847\H,0,37.106,42.219,23.634\H,0,38.979,
 47.913,26.521\H,0,38.315,46.724,25.329\H,0,39.965,47.263,25.233\H,0,38
 .414,44.931,30.985\H,0,41.823,46.902,33.053\H,0,40.961,46.1,34.407\H,0
 ,40.39,47.635,33.589\H,0,36.972,43.06,37.08\H,0,38.195,44.245,36.827\H
 ,0,39.621,42.003,38.15\H,0,36.21,42.894,40.255\H,0,36.954,44.279,39.27
 8\H,0,37.384,43.969,40.935\H,0,38.827,42.28,41.595\H,0,40.001,42.264,4
 0.414\H,0,40.028,40.085,40.525\H,0,38.566,40.042,39.59\H,0,37.281,39.1
 76,40.979\H,0,37.521,40.569,42.073\H,0,39.794,39.243,42.742\H,0,38.486
 ,36.572,42.38\H,0,40.148,37.217,41.9\H,0,38.847,37.167,40.912\H,0,37.8
 86,37.64,44.17\H,0,37.266,39.246,43.957\H,0,38.46,39.934,45.752\H,0,39
 .829,39.881,44.746\H,0,40.726,38.493,46.023\H,0,39.694,37.16,45.579\H,
 0,38.699,39.356,47.651\H,0,40.201,37.264,49.004\H,0,40.157,39.07,49.06
 8\H,0,41.255,38.113,47.945\H,0,37.811,37.143,48.908\H,0,38.141,36.419,
 47.356\H,0,36.586,38.84,46.912\H,0,35.898,38.022,48.337\H,0,36.37,36.2
 65,46.059\H,0,35.235,37.665,45.659\H,0,34.712,36.424,48.313\H,0,32.879
 ,37.249,47.255\H,0,32.682,35.557,46.598\H,0,33.477,36.724,45.583\H,0,3
 4.217,34.045,47.544\H,0,35.808,34.494,47.662\H,0,35.061,34.455,46.028\
 \Version=ES64L-G16RevA.03\State=1-A\HF=-3007.1327511\RMSD=6.309e-09\PG
 =C01 [X(C55H74Mg1N4O6)]\\@


 COLLEGE PROFESSOR: SOMEONE WHO TALKS IN OTHER PEOPLE'S SLEEP.
 Job cpu time:       0 days 11 hours 46 minutes 43.6 seconds.
 Elapsed time:       0 days  0 hours 29 minutes 58.4 seconds.
 File lengths (MBytes):  RWF=   8929 Int=      0 D2E=      0 Chk=    390 Scr=      1
 Normal termination of Gaussian 16 at Thu May  5 05:34:45 2022.
