 Entering Gaussian System, Link 0=g16
 Initial command:
 /sw/apps/gaussian-16.0/g16/l1.exe "/tmp/Gau-216537.inp" -scrdir="/tmp/"
 Entering Link 1 = /sw/apps/gaussian-16.0/g16/l1.exe PID=    216538.
  
 Copyright (c) 1988,1990,1992,1993,1995,1998,2003,2009,2016,
            Gaussian, Inc.  All Rights Reserved.
  
 This is part of the Gaussian(R) 16 program.  It is based on
 the Gaussian(R) 09 system (copyright 2009, Gaussian, Inc.),
 the Gaussian(R) 03 system (copyright 2003, Gaussian, Inc.),
 the Gaussian(R) 98 system (copyright 1998, Gaussian, Inc.),
 the Gaussian(R) 94 system (copyright 1995, Gaussian, Inc.),
 the Gaussian 92(TM) system (copyright 1992, Gaussian, Inc.),
 the Gaussian 90(TM) system (copyright 1990, Gaussian, Inc.),
 the Gaussian 88(TM) system (copyright 1988, Gaussian, Inc.),
 the Gaussian 86(TM) system (copyright 1986, Carnegie Mellon
 University), and the Gaussian 82(TM) system (copyright 1983,
 Carnegie Mellon University). Gaussian is a federally registered
 trademark of Gaussian, Inc.
  
 This software contains proprietary and confidential information,
 including trade secrets, belonging to Gaussian, Inc.
  
 This software is provided under written license and may be
 used, copied, transmitted, or stored only in accord with that
 written license.
  
 The following legend is applicable only to US Government
 contracts under FAR:
  
                    RESTRICTED RIGHTS LEGEND
  
 Use, reproduction and disclosure by the US Government is
 subject to restrictions as set forth in subparagraphs (a)
 and (c) of the Commercial Computer Software - Restricted
 Rights clause in FAR 52.227-19.
  
 Gaussian, Inc.
 340 Quinnipiac St., Bldg. 40, Wallingford CT 06492
  
  
 ---------------------------------------------------------------
 Warning -- This program may not be used in any manner that
 competes with the business of Gaussian, Inc. or will provide
 assistance to any competitor of Gaussian, Inc.  The licensee
 of this program is prohibited from giving any competitor of
 Gaussian, Inc. access to this program.  By using this program,
 the user acknowledges that Gaussian, Inc. is engaged in the
 business of creating and licensing software in the field of
 computational chemistry and represents and warrants to the
 licensee that it is not a competitor of Gaussian, Inc. and that
 it will not use this program in any manner prohibited above.
 ---------------------------------------------------------------
  

 Cite this work as:
 Gaussian 16, Revision A.03,
 M. J. Frisch, G. W. Trucks, H. B. Schlegel, G. E. Scuseria, 
 M. A. Robb, J. R. Cheeseman, G. Scalmani, V. Barone, 
 G. A. Petersson, H. Nakatsuji, X. Li, M. Caricato, A. V. Marenich, 
 J. Bloino, B. G. Janesko, R. Gomperts, B. Mennucci, H. P. Hratchian, 
 J. V. Ortiz, A. F. Izmaylov, J. L. Sonnenberg, D. Williams-Young, 
 F. Ding, F. Lipparini, F. Egidi, J. Goings, B. Peng, A. Petrone, 
 T. Henderson, D. Ranasinghe, V. G. Zakrzewski, J. Gao, N. Rega, 
 G. Zheng, W. Liang, M. Hada, M. Ehara, K. Toyota, R. Fukuda, 
 J. Hasegawa, M. Ishida, T. Nakajima, Y. Honda, O. Kitao, H. Nakai, 
 T. Vreven, K. Throssell, J. A. Montgomery, Jr., J. E. Peralta, 
 F. Ogliaro, M. J. Bearpark, J. J. Heyd, E. N. Brothers, K. N. Kudin, 
 V. N. Staroverov, T. A. Keith, R. Kobayashi, J. Normand, 
 K. Raghavachari, A. P. Rendell, J. C. Burant, S. S. Iyengar, 
 J. Tomasi, M. Cossi, J. M. Millam, M. Klene, C. Adamo, R. Cammi, 
 J. W. Ochterski, R. L. Martin, K. Morokuma, O. Farkas, 
 J. B. Foresman, and D. J. Fox, Gaussian, Inc., Wallingford CT, 2016.
 
 ******************************************
 Gaussian 16:  ES64L-G16RevA.03 25-Dec-2016
                27-Apr-2022 
 ******************************************
 %nproc=24
 Will use up to   24 processors via shared memory.
 %mem=75GB
 -----------------------------------
 #p cam-b3lyp/Def2SVP td=(nstates=5)
 -----------------------------------
 1/38=1,172=1/1;
 2/12=2,17=6,18=5,40=1/2;
 3/5=43,7=101,11=9,25=1,30=1,74=-40/1,2,3,8;
 4//1;
 5/5=2,38=5/2;
 8/6=1,10=1,108=5/1;
 9/41=5,42=1,70=2/14;
 6/7=2,8=2,9=2,10=2/1;
 99/5=1,9=1/99;
 Leave Link    1 at Wed Apr 27 05:30:23 2022, MaxMem= 10066329600 cpu:               1.6 elap:               0.1
 (Enter /sw/apps/gaussian-16.0/g16/l101.exe)
 --------------------------------------------------------
 step_1101_chromophore_18 TDDFT with cam-b3lyp functional
 --------------------------------------------------------
 Symbolic Z-matrix:
 Charge =  0 Multiplicity = 1
 Mg                    34.295    49.366    25.461 
 C                     34.837    47.76     28.533 
 C                     32.564    51.868    27.195 
 C                     33.763    50.931    22.484 
 C                     35.867    46.626    23.846 
 N                     33.727    49.731    27.587 
 C                     34.112    48.959    28.694 
 C                     33.723    49.674    29.983 
 C                     32.794    50.874    29.531 
 C                     33.047    50.826    28.003 
 C                     31.333    50.767    29.94 
 C                     34.93     50.152    30.853 
 C                     34.571    51.197    31.901 
 C                     33.29     50.998    32.714 
 O                     32.718    49.962    32.814 
 O                     32.845    52.177    33.234 
 N                     33.295    51.15     24.892 
 C                     32.805    52.093    25.82 
 C                     32.242    53.213    25.027 
 C                     32.474    52.925    23.665 
 C                     33.246    51.652    23.629 
 C                     31.541    54.326    25.656 
 C                     31.996    53.771    22.505 
 O                     32.366    53.51     21.394 
 C                     31.155    54.972    22.658 
 N                     34.693    48.824    23.425 
 C                     34.404    49.694    22.388 
 C                     34.897    49.044    21.01 
 C                     35.693    47.745    21.511 
 C                     35.368    47.666    22.975 
 C                     33.783    48.75     19.872 
 C                     37.199    47.678    21.118 
 C                     38.201    48.564    21.929 
 N                     35.188    47.545    26.006 
 C                     35.752    46.518    25.195 
 C                     36.183    45.487    26.018 
 C                     35.836    45.912    27.366 
 C                     35.241    47.18     27.296 
 C                     36.767    44.201    25.664 
 C                     35.771    45.47     28.738 
 O                     36.131    44.399    29.256 
 C                     35.262    46.724    29.516 
 C                     34.186    46.426    30.425 
 O                     32.953    46.482    30.203 
 O                     34.653    45.812    31.567 
 C                     33.714    45.423    32.665 
 C                     31.495    52.167    33.838 
 C                     31.001    53.547    34.09 
 C                     29.849    53.864    34.576 
 C                     28.666    52.981    34.988 
 C                     29.583    55.333    34.859 
 C                     30.448    56.117    35.903 
 C                     31.538    57.004    35.318 
 C                     31.552    58.403    35.953 
 C                     32.954    58.826    36.271 
 C                     30.893    59.392    34.91 
 C                     29.6      60.185    35.304 
 C                     29.294    60.336    36.805 
 C                     28.742    61.792    37.181 
 C                     29.829    62.658    37.841 
 C                     27.57     61.552    38.087 
 C                     26.323    62.346    37.741 
 C                     26.304    63.662    38.604 
 C                     25.836    64.794    37.679 
 C                     26.331    66.139    38.187 
 C                     24.322    64.91     37.359 
 H                     32.046    52.666    27.73 
 H                     33.621    51.36     21.49 
 H                     36.398    45.814    23.345 
 H                     33.261    48.859    30.541 
 H                     33.109    51.832    29.945 
 H                     31.094    49.912    30.572 
 H                     30.665    50.817    29.08 
 H                     31.048    51.625    30.549 
 H                     35.795    50.48     30.275 
 H                     35.235    49.249    31.382 
 H                     34.598    52.209    31.499 
 H                     35.416    51.112    32.584 
 H                     32.021    55.278    25.428 
 H                     31.461    54.308    26.743 
 H                     30.489    54.284    25.371 
 H                     31.683    55.761    23.193 
 H                     30.262    54.823    23.265 
 H                     31.037    55.398    21.662 
 H                     35.532    49.736    20.456 
 H                     35.201    46.865    21.097 
 H                     32.883    48.946    20.455 
 H                     33.816    47.73     19.491 
 H                     33.907    49.51     19.101 
 H                     37.396    48.021    20.103 
 H                     37.52     46.636    21.108 
 H                     38.911    47.887    22.404 
 H                     37.54     49.09     22.618 
 H                     38.747    49.348    21.405 
 H                     37.428    43.797    26.43 
 H                     37.339    44.236    24.736 
 H                     35.955    43.491    25.506 
 H                     36.153    46.904    30.118 
 H                     33.604    44.342    32.741 
 H                     32.658    45.607    32.468 
 H                     34.099    45.883    33.576 
 H                     31.618    51.668    34.799 
 H                     30.823    51.557    33.233 
 H                     31.688    54.352    33.83 
 H                     28.693    51.937    34.676 
 H                     27.688    53.288    34.618 
 H                     28.513    52.971    36.067 
 H                     28.519    55.481    35.043 
 H                     29.856    55.75     33.889 
 H                     31.071    55.454    36.503 
 H                     29.723    56.663    36.507 
 H                     31.474    56.98     34.23 
 H                     32.468    56.457    35.47 
 H                     30.971    58.499    36.871 
 H                     33.483    59.205    35.396 
 H                     33.496    57.931    36.574 
 H                     32.988    59.576    37.061 
 H                     30.529    58.788    34.079 
 H                     31.637    60.092    34.53 
 H                     28.838    59.597    34.793 
 H                     29.795    61.103    34.749 
 H                     30.291    60.299    37.243 
 H                     28.891    59.405    37.204 
 H                     28.526    62.222    36.203 
 H                     30.801    62.193    37.679 
 H                     29.719    62.822    38.913 
 H                     30.009    63.627    37.374 
 H                     27.929    61.745    39.098 
 H                     27.277    60.503    38.1 
 H                     25.32     61.921    37.783 
 H                     26.362    62.484    36.66 
 H                     27.243    63.891    39.109 
 H                     25.649    63.554    39.469 
 H                     26.437    64.722    36.773 
 H                     27.341    66.065    38.591 
 H                     25.628    66.572    38.898 
 H                     26.275    66.897    37.407 
 H                     24.094    65.974    37.41 
 H                     23.884    64.341    38.179 
 H                     24.146    64.697    36.304 
 
 ITRead=  0  0  0  0  0  0  0  0  0  0  0  0  0  0  0  0  0  0  0  0
 ITRead=  0  0  0  0  0  0  0  0  0  0  0  0  0  0  0  0  0  0  0  0
 ITRead=  0  0  0  0  0  0  0  0  0  0  0  0  0  0  0  0  0  0  0  0
 ITRead=  0  0  0  0  0  0  0  0  0  0  0  0  0  0  0  0  0  0  0  0
 ITRead=  0  0  0  0  0  0  0  0  0  0  0  0  0  0  0  0  0  0  0  0
 ITRead=  0  0  0  0  0  0  0  0  0  0  0  0  0  0  0  0  0  0  0  0
 ITRead=  0  0  0  0  0  0  0  0  0  0  0  0  0  0  0  0  0  0  0  0
 MicOpt= -1 -1 -1 -1 -1 -1 -1 -1 -1 -1 -1 -1 -1 -1 -1 -1 -1 -1 -1 -1
 MicOpt= -1 -1 -1 -1 -1 -1 -1 -1 -1 -1 -1 -1 -1 -1 -1 -1 -1 -1 -1 -1
 MicOpt= -1 -1 -1 -1 -1 -1 -1 -1 -1 -1 -1 -1 -1 -1 -1 -1 -1 -1 -1 -1
 MicOpt= -1 -1 -1 -1 -1 -1 -1 -1 -1 -1 -1 -1 -1 -1 -1 -1 -1 -1 -1 -1
 MicOpt= -1 -1 -1 -1 -1 -1 -1 -1 -1 -1 -1 -1 -1 -1 -1 -1 -1 -1 -1 -1
 MicOpt= -1 -1 -1 -1 -1 -1 -1 -1 -1 -1 -1 -1 -1 -1 -1 -1 -1 -1 -1 -1
 MicOpt= -1 -1 -1 -1 -1 -1 -1 -1 -1 -1 -1 -1 -1 -1 -1 -1 -1 -1 -1 -1
 NAtoms=    140 NQM=      140 NQMF=       0 NMMI=      0 NMMIF=      0
                NMic=       0 NMicF=      0.
                    Isotopes and Nuclear Properties:
 (Nuclear quadrupole moments (NQMom) in fm**2, nuclear magnetic moments (NMagM)
  in nuclear magnetons)

  Atom         1           2           3           4           5           6           7           8           9          10
 IAtWgt=          24          12          12          12          12          14          12          12          12          12
 AtmWgt=  23.9850450  12.0000000  12.0000000  12.0000000  12.0000000  14.0030740  12.0000000  12.0000000  12.0000000  12.0000000
 NucSpn=           0           0           0           0           0           2           0           0           0           0
 AtZEff=  -0.0000000  -0.0000000  -0.0000000  -0.0000000  -0.0000000  -0.0000000  -0.0000000  -0.0000000  -0.0000000  -0.0000000
 NQMom=    0.0000000   0.0000000   0.0000000   0.0000000   0.0000000   2.0440000   0.0000000   0.0000000   0.0000000   0.0000000
 NMagM=    0.0000000   0.0000000   0.0000000   0.0000000   0.0000000   0.4037610   0.0000000   0.0000000   0.0000000   0.0000000
 AtZNuc=  12.0000000   6.0000000   6.0000000   6.0000000   6.0000000   7.0000000   6.0000000   6.0000000   6.0000000   6.0000000

  Atom        11          12          13          14          15          16          17          18          19          20
 IAtWgt=          12          12          12          12          16          16          14          12          12          12
 AtmWgt=  12.0000000  12.0000000  12.0000000  12.0000000  15.9949146  15.9949146  14.0030740  12.0000000  12.0000000  12.0000000
 NucSpn=           0           0           0           0           0           0           2           0           0           0
 AtZEff=  -0.0000000  -0.0000000  -0.0000000  -0.0000000  -0.0000000  -0.0000000  -0.0000000  -0.0000000  -0.0000000  -0.0000000
 NQMom=    0.0000000   0.0000000   0.0000000   0.0000000   0.0000000   0.0000000   2.0440000   0.0000000   0.0000000   0.0000000
 NMagM=    0.0000000   0.0000000   0.0000000   0.0000000   0.0000000   0.0000000   0.4037610   0.0000000   0.0000000   0.0000000
 AtZNuc=   6.0000000   6.0000000   6.0000000   6.0000000   8.0000000   8.0000000   7.0000000   6.0000000   6.0000000   6.0000000

  Atom        21          22          23          24          25          26          27          28          29          30
 IAtWgt=          12          12          12          16          12          14          12          12          12          12
 AtmWgt=  12.0000000  12.0000000  12.0000000  15.9949146  12.0000000  14.0030740  12.0000000  12.0000000  12.0000000  12.0000000
 NucSpn=           0           0           0           0           0           2           0           0           0           0
 AtZEff=  -0.0000000  -0.0000000  -0.0000000  -0.0000000  -0.0000000  -0.0000000  -0.0000000  -0.0000000  -0.0000000  -0.0000000
 NQMom=    0.0000000   0.0000000   0.0000000   0.0000000   0.0000000   2.0440000   0.0000000   0.0000000   0.0000000   0.0000000
 NMagM=    0.0000000   0.0000000   0.0000000   0.0000000   0.0000000   0.4037610   0.0000000   0.0000000   0.0000000   0.0000000
 AtZNuc=   6.0000000   6.0000000   6.0000000   8.0000000   6.0000000   7.0000000   6.0000000   6.0000000   6.0000000   6.0000000

  Atom        31          32          33          34          35          36          37          38          39          40
 IAtWgt=          12          12          12          14          12          12          12          12          12          12
 AtmWgt=  12.0000000  12.0000000  12.0000000  14.0030740  12.0000000  12.0000000  12.0000000  12.0000000  12.0000000  12.0000000
 NucSpn=           0           0           0           2           0           0           0           0           0           0
 AtZEff=  -0.0000000  -0.0000000  -0.0000000  -0.0000000  -0.0000000  -0.0000000  -0.0000000  -0.0000000  -0.0000000  -0.0000000
 NQMom=    0.0000000   0.0000000   0.0000000   2.0440000   0.0000000   0.0000000   0.0000000   0.0000000   0.0000000   0.0000000
 NMagM=    0.0000000   0.0000000   0.0000000   0.4037610   0.0000000   0.0000000   0.0000000   0.0000000   0.0000000   0.0000000
 AtZNuc=   6.0000000   6.0000000   6.0000000   7.0000000   6.0000000   6.0000000   6.0000000   6.0000000   6.0000000   6.0000000

  Atom        41          42          43          44          45          46          47          48          49          50
 IAtWgt=          16          12          12          16          16          12          12          12          12          12
 AtmWgt=  15.9949146  12.0000000  12.0000000  15.9949146  15.9949146  12.0000000  12.0000000  12.0000000  12.0000000  12.0000000
 NucSpn=           0           0           0           0           0           0           0           0           0           0
 AtZEff=  -0.0000000  -0.0000000  -0.0000000  -0.0000000  -0.0000000  -0.0000000  -0.0000000  -0.0000000  -0.0000000  -0.0000000
 NQMom=    0.0000000   0.0000000   0.0000000   0.0000000   0.0000000   0.0000000   0.0000000   0.0000000   0.0000000   0.0000000
 NMagM=    0.0000000   0.0000000   0.0000000   0.0000000   0.0000000   0.0000000   0.0000000   0.0000000   0.0000000   0.0000000
 AtZNuc=   8.0000000   6.0000000   6.0000000   8.0000000   8.0000000   6.0000000   6.0000000   6.0000000   6.0000000   6.0000000

  Atom        51          52          53          54          55          56          57          58          59          60
 IAtWgt=          12          12          12          12          12          12          12          12          12          12
 AtmWgt=  12.0000000  12.0000000  12.0000000  12.0000000  12.0000000  12.0000000  12.0000000  12.0000000  12.0000000  12.0000000
 NucSpn=           0           0           0           0           0           0           0           0           0           0
 AtZEff=  -0.0000000  -0.0000000  -0.0000000  -0.0000000  -0.0000000  -0.0000000  -0.0000000  -0.0000000  -0.0000000  -0.0000000
 NQMom=    0.0000000   0.0000000   0.0000000   0.0000000   0.0000000   0.0000000   0.0000000   0.0000000   0.0000000   0.0000000
 NMagM=    0.0000000   0.0000000   0.0000000   0.0000000   0.0000000   0.0000000   0.0000000   0.0000000   0.0000000   0.0000000
 AtZNuc=   6.0000000   6.0000000   6.0000000   6.0000000   6.0000000   6.0000000   6.0000000   6.0000000   6.0000000   6.0000000

  Atom        61          62          63          64          65          66          67          68          69          70
 IAtWgt=          12          12          12          12          12          12           1           1           1           1
 AtmWgt=  12.0000000  12.0000000  12.0000000  12.0000000  12.0000000  12.0000000   1.0078250   1.0078250   1.0078250   1.0078250
 NucSpn=           0           0           0           0           0           0           1           1           1           1
 AtZEff=  -0.0000000  -0.0000000  -0.0000000  -0.0000000  -0.0000000  -0.0000000  -0.0000000  -0.0000000  -0.0000000  -0.0000000
 NQMom=    0.0000000   0.0000000   0.0000000   0.0000000   0.0000000   0.0000000   0.0000000   0.0000000   0.0000000   0.0000000
 NMagM=    0.0000000   0.0000000   0.0000000   0.0000000   0.0000000   0.0000000   2.7928460   2.7928460   2.7928460   2.7928460
 AtZNuc=   6.0000000   6.0000000   6.0000000   6.0000000   6.0000000   6.0000000   1.0000000   1.0000000   1.0000000   1.0000000

  Atom        71          72          73          74          75          76          77          78          79          80
 IAtWgt=           1           1           1           1           1           1           1           1           1           1
 AtmWgt=   1.0078250   1.0078250   1.0078250   1.0078250   1.0078250   1.0078250   1.0078250   1.0078250   1.0078250   1.0078250
 NucSpn=           1           1           1           1           1           1           1           1           1           1
 AtZEff=  -0.0000000  -0.0000000  -0.0000000  -0.0000000  -0.0000000  -0.0000000  -0.0000000  -0.0000000  -0.0000000  -0.0000000
 NQMom=    0.0000000   0.0000000   0.0000000   0.0000000   0.0000000   0.0000000   0.0000000   0.0000000   0.0000000   0.0000000
 NMagM=    2.7928460   2.7928460   2.7928460   2.7928460   2.7928460   2.7928460   2.7928460   2.7928460   2.7928460   2.7928460
 AtZNuc=   1.0000000   1.0000000   1.0000000   1.0000000   1.0000000   1.0000000   1.0000000   1.0000000   1.0000000   1.0000000

  Atom        81          82          83          84          85          86          87          88          89          90
 IAtWgt=           1           1           1           1           1           1           1           1           1           1
 AtmWgt=   1.0078250   1.0078250   1.0078250   1.0078250   1.0078250   1.0078250   1.0078250   1.0078250   1.0078250   1.0078250
 NucSpn=           1           1           1           1           1           1           1           1           1           1
 AtZEff=  -0.0000000  -0.0000000  -0.0000000  -0.0000000  -0.0000000  -0.0000000  -0.0000000  -0.0000000  -0.0000000  -0.0000000
 NQMom=    0.0000000   0.0000000   0.0000000   0.0000000   0.0000000   0.0000000   0.0000000   0.0000000   0.0000000   0.0000000
 NMagM=    2.7928460   2.7928460   2.7928460   2.7928460   2.7928460   2.7928460   2.7928460   2.7928460   2.7928460   2.7928460
 AtZNuc=   1.0000000   1.0000000   1.0000000   1.0000000   1.0000000   1.0000000   1.0000000   1.0000000   1.0000000   1.0000000

  Atom        91          92          93          94          95          96          97          98          99         100
 IAtWgt=           1           1           1           1           1           1           1           1           1           1
 AtmWgt=   1.0078250   1.0078250   1.0078250   1.0078250   1.0078250   1.0078250   1.0078250   1.0078250   1.0078250   1.0078250
 NucSpn=           1           1           1           1           1           1           1           1           1           1
 AtZEff=  -0.0000000  -0.0000000  -0.0000000  -0.0000000  -0.0000000  -0.0000000  -0.0000000  -0.0000000  -0.0000000  -0.0000000
 NQMom=    0.0000000   0.0000000   0.0000000   0.0000000   0.0000000   0.0000000   0.0000000   0.0000000   0.0000000   0.0000000
 NMagM=    2.7928460   2.7928460   2.7928460   2.7928460   2.7928460   2.7928460   2.7928460   2.7928460   2.7928460   2.7928460
 AtZNuc=   1.0000000   1.0000000   1.0000000   1.0000000   1.0000000   1.0000000   1.0000000   1.0000000   1.0000000   1.0000000

  Atom       101         102         103         104         105         106         107         108         109         110
 IAtWgt=           1           1           1           1           1           1           1           1           1           1
 AtmWgt=   1.0078250   1.0078250   1.0078250   1.0078250   1.0078250   1.0078250   1.0078250   1.0078250   1.0078250   1.0078250
 NucSpn=           1           1           1           1           1           1           1           1           1           1
 AtZEff=  -0.0000000  -0.0000000  -0.0000000  -0.0000000  -0.0000000  -0.0000000  -0.0000000  -0.0000000  -0.0000000  -0.0000000
 NQMom=    0.0000000   0.0000000   0.0000000   0.0000000   0.0000000   0.0000000   0.0000000   0.0000000   0.0000000   0.0000000
 NMagM=    2.7928460   2.7928460   2.7928460   2.7928460   2.7928460   2.7928460   2.7928460   2.7928460   2.7928460   2.7928460
 AtZNuc=   1.0000000   1.0000000   1.0000000   1.0000000   1.0000000   1.0000000   1.0000000   1.0000000   1.0000000   1.0000000

  Atom       111         112         113         114         115         116         117         118         119         120
 IAtWgt=           1           1           1           1           1           1           1           1           1           1
 AtmWgt=   1.0078250   1.0078250   1.0078250   1.0078250   1.0078250   1.0078250   1.0078250   1.0078250   1.0078250   1.0078250
 NucSpn=           1           1           1           1           1           1           1           1           1           1
 AtZEff=  -0.0000000  -0.0000000  -0.0000000  -0.0000000  -0.0000000  -0.0000000  -0.0000000  -0.0000000  -0.0000000  -0.0000000
 NQMom=    0.0000000   0.0000000   0.0000000   0.0000000   0.0000000   0.0000000   0.0000000   0.0000000   0.0000000   0.0000000
 NMagM=    2.7928460   2.7928460   2.7928460   2.7928460   2.7928460   2.7928460   2.7928460   2.7928460   2.7928460   2.7928460
 AtZNuc=   1.0000000   1.0000000   1.0000000   1.0000000   1.0000000   1.0000000   1.0000000   1.0000000   1.0000000   1.0000000

  Atom       121         122         123         124         125         126         127         128         129         130
 IAtWgt=           1           1           1           1           1           1           1           1           1           1
 AtmWgt=   1.0078250   1.0078250   1.0078250   1.0078250   1.0078250   1.0078250   1.0078250   1.0078250   1.0078250   1.0078250
 NucSpn=           1           1           1           1           1           1           1           1           1           1
 AtZEff=  -0.0000000  -0.0000000  -0.0000000  -0.0000000  -0.0000000  -0.0000000  -0.0000000  -0.0000000  -0.0000000  -0.0000000
 NQMom=    0.0000000   0.0000000   0.0000000   0.0000000   0.0000000   0.0000000   0.0000000   0.0000000   0.0000000   0.0000000
 NMagM=    2.7928460   2.7928460   2.7928460   2.7928460   2.7928460   2.7928460   2.7928460   2.7928460   2.7928460   2.7928460
 AtZNuc=   1.0000000   1.0000000   1.0000000   1.0000000   1.0000000   1.0000000   1.0000000   1.0000000   1.0000000   1.0000000

  Atom       131         132         133         134         135         136         137         138         139         140
 IAtWgt=           1           1           1           1           1           1           1           1           1           1
 AtmWgt=   1.0078250   1.0078250   1.0078250   1.0078250   1.0078250   1.0078250   1.0078250   1.0078250   1.0078250   1.0078250
 NucSpn=           1           1           1           1           1           1           1           1           1           1
 AtZEff=  -0.0000000  -0.0000000  -0.0000000  -0.0000000  -0.0000000  -0.0000000  -0.0000000  -0.0000000  -0.0000000  -0.0000000
 NQMom=    0.0000000   0.0000000   0.0000000   0.0000000   0.0000000   0.0000000   0.0000000   0.0000000   0.0000000   0.0000000
 NMagM=    2.7928460   2.7928460   2.7928460   2.7928460   2.7928460   2.7928460   2.7928460   2.7928460   2.7928460   2.7928460
 AtZNuc=   1.0000000   1.0000000   1.0000000   1.0000000   1.0000000   1.0000000   1.0000000   1.0000000   1.0000000   1.0000000
 Leave Link  101 at Wed Apr 27 05:30:23 2022, MaxMem= 10066329600 cpu:               4.2 elap:               0.2
 (Enter /sw/apps/gaussian-16.0/g16/l202.exe)
 Stoichiometry    C55H74MgN4O6
 Framework group  C1[X(C55H74MgN4O6)]
 Deg. of freedom   414
 Full point group                 C1      NOp   1
 Largest Abelian subgroup         C1      NOp   1
 Largest concise Abelian subgroup C1      NOp   1
                         Standard orientation:                         
 ---------------------------------------------------------------------
 Center     Atomic      Atomic             Coordinates (Angstroms)
 Number     Number       Type             X           Y           Z
 ---------------------------------------------------------------------
      1         12           0        5.519686    1.008670    0.021735
      2          6           0        4.871028   -2.435821    0.179568
      3          6           0        2.087412    1.526249   -0.441651
      4          6           0        6.139931    4.353187   -0.134074
      5          6           0        8.984340    0.282510    0.258114
      6          7           0        3.721186   -0.297692   -0.164121
      7          6           0        3.687492   -1.692000   -0.007830
      8          6           0        2.241346   -2.172991    0.029293
      9          6           0        1.373394   -0.920454   -0.401005
     10          6           0        2.463626    0.178194   -0.327083
     11          6           0        0.672257   -1.034808   -1.745841
     12          6           0        1.787204   -2.767573    1.401320
     13          6           0        0.277067   -2.866338    1.571445
     14          6           0       -0.553079   -3.380292    0.393210
     15          8           0       -0.104959   -3.988877   -0.522920
     16          8           0       -1.851400   -2.975491    0.487896
     17          7           0        4.298642    2.722374   -0.258775
     18          6           0        2.888508    2.677037   -0.259266
     19          6           0        2.420841    4.075972   -0.415747
     20          6           0        3.563774    4.903614   -0.438651
     21          6           0        4.735681    4.009793   -0.225279
     22          6           0        1.008554    4.403055   -0.571550
     23          6           0        3.547254    6.400961   -0.656552
     24          8           0        4.561322    7.027221   -0.519414
     25          6           0        2.326458    7.173242   -0.950372
     26          7           0        7.323047    2.168166   -0.008594
     27          6           0        7.278809    3.551372   -0.032510
     28          6           0        8.773283    4.121731    0.042795
     29          6           0        9.631418    2.794970    0.317255
     30          6           0        8.643760    1.680655    0.122328
     31          6           0        9.303311    5.018243   -1.197291
     32          6           0       10.458121    2.782078    1.637623
     33          6           0        9.688037    2.520456    2.973754
     34          7           0        6.743638   -0.689847    0.187551
     35          6           0        8.163626   -0.799408    0.234201
     36          6           0        8.504408   -2.142787    0.306666
     37          6           0        7.235409   -2.854700    0.275678
     38          6           0        6.196571   -1.914673    0.213130
     39          6           0        9.820329   -2.766066    0.313389
     40          6           0        6.647768   -4.168333    0.170705
     41          8           0        7.184223   -5.288994    0.134659
     42          6           0        5.111788   -3.904119    0.259225
     43          6           0        4.361371   -4.589852   -0.760336
     44          8           0        4.028168   -4.160778   -1.890637
     45          8           0        4.225655   -5.929006   -0.464536
     46          6           0        3.466546   -6.840707   -1.376238
     47          6           0       -2.703663   -3.200335   -0.699752
     48          6           0       -3.987932   -2.457360   -0.596882
     49          6           0       -4.920726   -2.426868   -1.487250
     50          6           0       -4.991277   -3.070238   -2.876501
     51          6           0       -6.205429   -1.694544   -1.137899
     52          6           0       -7.101226   -2.172887    0.054390
     53          6           0       -6.956677   -1.377227    1.344012
     54          6           0       -8.317300   -1.009226    1.955487
     55          6           0       -8.315084   -1.248856    3.434753
     56          6           0       -8.570294    0.518870    1.637419
     57          6           0       -9.822359    0.937772    0.793150
     58          6           0      -10.985123   -0.067292    0.707913
     59          6           0      -12.420743    0.637583    0.798257
     60          6           0      -13.051402    0.464263    2.190864
     61          6           0      -13.243087    0.007196   -0.287277
     62          6           0      -14.010870    0.986954   -1.156612
     63          6           0      -15.470409    1.134831   -0.586645
     64          6           0      -15.829192    2.625288   -0.663370
     65          6           0      -16.902389    2.970303    0.357083
     66          6           0      -16.240830    3.217560   -2.037350
     67          1           0        1.016174    1.699001   -0.559805
     68          1           0        6.424017    5.406021   -0.189540
     69          1           0       10.048270    0.072680    0.385899
     70          1           0        2.286011   -3.017878   -0.658605
     71          1           0        0.562682   -0.707966    0.296118
     72          1           0        0.776314   -2.001637   -2.237759
     73          1           0        0.946760   -0.221889   -2.418252
     74          1           0       -0.404917   -0.924452   -1.620199
     75          1           0        2.232816   -2.279412    2.269089
     76          1           0        2.181592   -3.783598    1.380715
     77          1           0       -0.155623   -1.941361    1.950488
     78          1           0        0.201264   -3.596903    2.376595
     79          1           0        0.666878    5.075171    0.215981
     80          1           0        0.304179    3.571317   -0.552524
     81          1           0        0.846635    4.787500   -1.579358
     82          1           0        1.630666    7.150334   -0.111993
     83          1           0        1.729335    6.777727   -1.772023
     84          1           0        2.622350    8.221409   -0.985152
     85          1           0        8.871853    4.856621    0.842310
     86          1           0       10.325937    2.662520   -0.512179
     87          1           0        8.481354    4.854144   -1.894258
     88          1           0       10.258660    4.679095   -1.595961
     89          1           0        9.312121    6.054487   -0.860337
     90          1           0       10.934399    3.736654    1.858139
     91          1           0       11.295286    2.092008    1.528703
     92          1           0       10.103977    1.610984    3.407239
     93          1           0        8.656070    2.433963    2.633341
     94          1           0        9.672835    3.304926    3.729877
     95          1           0        9.846659   -3.722709    0.833998
     96          1           0       10.585964   -2.135504    0.767026
     97          1           0       10.122667   -2.932737   -0.720642
     98          1           0        4.921052   -4.418195    1.201579
     99          1           0        4.123945   -7.542444   -1.887930
    100          1           0        3.091851   -6.384472   -2.292346
    101          1           0        2.708655   -7.328419   -0.761840
    102          1           0       -2.925353   -4.267312   -0.691790
    103          1           0       -2.137623   -2.987624   -1.607531
    104          1           0       -4.135043   -1.888486    0.320907
    105          1           0       -4.065226   -3.476040   -3.283641
    106          1           0       -5.313552   -2.419774   -3.689316
    107          1           0       -5.721863   -3.877649   -2.922115
    108          1           0       -6.799492   -1.551700   -2.040418
    109          1           0       -5.781782   -0.742952   -0.814923
    110          1           0       -6.804816   -3.154001    0.424868
    111          1           0       -8.115716   -2.170161   -0.344807
    112          1           0       -6.273581   -0.544318    1.176505
    113          1           0       -6.347997   -1.998729    2.000105
    114          1           0       -9.169984   -1.550083    1.543292
    115          1           0       -7.835076   -0.440113    3.986689
    116          1           0       -7.699388   -2.129399    3.614088
    117          1           0       -9.319930   -1.401837    3.827993
    118          1           0       -7.756506    0.852931    0.993971
    119          1           0       -8.548971    1.105157    2.555977
    120          1           0       -9.362780    1.108114   -0.180133
    121          1           0      -10.034102    1.892092    1.276069
    122          1           0      -10.885133   -0.607779    1.648710
    123          1           0      -10.739040   -0.871912    0.014804
    124          1           0      -12.173603    1.692188    0.676724
    125          1           0      -12.285467    0.126717    2.888473
    126          1           0      -13.882191   -0.238814    2.251306
    127          1           0      -13.359301    1.384988    2.687769
    128          1           0      -13.889645   -0.716467    0.209237
    129          1           0      -12.632418   -0.593232   -0.960321
    130          1           0      -14.098890    0.876210   -2.237532
    131          1           0      -13.407400    1.895170   -1.166352
    132          1           0      -15.616500    0.716631    0.409825
    133          1           0      -16.175172    0.522969   -1.150426
    134          1           0      -14.993574    3.168015   -0.222449
    135          1           0      -16.750796    2.430874    1.292405
    136          1           0      -17.899078    2.817472   -0.055799
    137          1           0      -16.950043    4.044955    0.527239
    138          1           0      -17.086284    3.872721   -1.830826
    139          1           0      -16.523043    2.317947   -2.584210
    140          1           0      -15.488029    3.929495   -2.377659
 ---------------------------------------------------------------------
 Rotational constants (GHZ):           0.0462001           0.0090749           0.0078665
 Leave Link  202 at Wed Apr 27 05:30:24 2022, MaxMem= 10066329600 cpu:               0.3 elap:               0.0
 (Enter /sw/apps/gaussian-16.0/g16/l301.exe)
 Standard basis: def2SVP (5D, 7F)
 Ernie: Thresh=  0.10000D-02 Tol=  0.10000D-05 Strict=F.
 There are  1364 symmetry adapted cartesian basis functions of A   symmetry.
 There are  1298 symmetry adapted basis functions of A   symmetry.
  1298 basis functions,  2180 primitive gaussians,  1364 cartesian basis functions
   246 alpha electrons      246 beta electrons
       nuclear repulsion energy      9464.9048232343 Hartrees.
 IExCor=20419 DFT=T Ex+Corr=CAM-B3LYP ExCW=0 ScaHFX=  1.000000
 ScaDFX=  1.000000  1.000000  1.000000  0.810000 ScalE2=  1.000000  1.000000
 IRadAn=      5 IRanWt=     -1 IRanGd=            0 ICorTp=0 IEmpDi=  4
 HFx  wShort=  0.000000 wLong=  0.330000 cFull=  0.190000 cShort=  0.000000 cLong=  0.460000
 DFx  wShort=  0.000000 wLong=  0.330000 cFull=  0.190000 cShort=  0.000000 cLong=  0.460000
 NAtoms=  140 NActive=  140 NUniq=  140 SFac= 1.00D+00 NAtFMM=   60 NAOKFM=T Big=T
 Integral buffers will be    131072 words long.
 Raffenetti 1 integral format.
 Two-electron integral symmetry is turned on.
 Leave Link  301 at Wed Apr 27 05:30:24 2022, MaxMem= 10066329600 cpu:               4.5 elap:               0.2
 (Enter /sw/apps/gaussian-16.0/g16/l302.exe)
 NPDir=0 NMtPBC=     1 NCelOv=     1 NCel=       1 NClECP=     1 NCelD=      1
         NCelK=      1 NCelE2=     1 NClLst=     1 CellRange=     0.0.
 One-electron integrals computed using PRISM.
 One-electron integral symmetry used in STVInt
   1 Symmetry operations used in ECPInt.
 ECPInt:  NShTT=  192510 NPrTT=  683786 LenC2=   92356 LenP2D=  203692.
 LDataN:  DoStor=T MaxTD1= 4 Len=   56
 NBasis=  1298 RedAO= T EigKep=  3.14D-04  NBF=  1298
 NBsUse=  1298 1.00D-06 EigRej= -1.00D+00 NBFU=  1298
 Precomputing XC quadrature grid using
 IXCGrd= 4 IRadAn=           5 IRanWt=          -1 IRanGd=           0 AccXCQ= 0.00D+00.
 Generated NRdTot=       0 NPtTot=           0 NUsed=           0 NTot=          32
 NSgBfM=  1077  1058  1065  1071  1077 MxSgAt=   140 MxSgA2=   139.
 Leave Link  302 at Wed Apr 27 05:30:28 2022, MaxMem= 10066329600 cpu:              84.9 elap:               3.6
 (Enter /sw/apps/gaussian-16.0/g16/l303.exe)
 DipDrv:  MaxL=1.
 Leave Link  303 at Wed Apr 27 05:30:28 2022, MaxMem= 10066329600 cpu:               6.4 elap:               0.3
 (Enter /sw/apps/gaussian-16.0/g16/l308.exe)
 Leave Link  308 at Wed Apr 27 05:30:29 2022, MaxMem= 10066329600 cpu:              10.0 elap:               0.5
 (Enter /sw/apps/gaussian-16.0/g16/l401.exe)
 ExpMin= 3.36D-02 ExpMax= 4.95D+03 ExpMxC= 7.45D+02 IAcc=3 IRadAn=         5 AccDes= 0.00D+00
 Harris functional with IExCor=20419 and IRadAn=       5 diagonalized for initial guess.
 HarFok:  IExCor=20419 AccDes= 0.00D+00 IRadAn=         5 IDoV= 1 UseB2=F ITyADJ=14
 ICtDFT=  3500011 ScaDFX=  1.000000  1.000000  1.000000  1.000000
 FoFCou: FMM=F IPFlag=           0 FMFlag=      100000 FMFlg1=        2001
         NFxFlg=           0 DoJE=T BraDBF=F KetDBF=T FulRan=T
         wScrn=  0.000000 ICntrl=       500 IOpCl=  0 I1Cent=   200000004 NGrid=           0
         NMat0=    1 NMatS0=      1 NMatT0=    0 NMatD0=    1 NMtDS0=    0 NMtDT0=    0
 Petite list used in FoFCou.
 Harris En= -2890.84772006205    
 JPrj=0 DoOrth=F DoCkMO=F.
 Leave Link  401 at Wed Apr 27 05:30:35 2022, MaxMem= 10066329600 cpu:             140.5 elap:               5.9
 (Enter /sw/apps/gaussian-16.0/g16/l502.exe)
 Integral symmetry usage will be decided dynamically.
 Closed shell SCF:
 Using DIIS extrapolation, IDIIS=  1040.
 NGot= 10066329600 LenX= 10062561258 LenY= 10060699398
 Requested convergence on RMS density matrix=1.00D-08 within 128 cycles.
 Requested convergence on MAX density matrix=1.00D-06.
 Requested convergence on             energy=1.00D-06.
 No special actions if energy rises.
 Fock matrices will be formed incrementally for  20 cycles.

 Cycle   1  Pass 1  IDiag  1:
 FoFJK:  IHMeth= 1 ICntrl=       0 DoSepK=T KAlg= 0 I1Cent=           0 FoldK=F
 IRaf=         1 NMat=       1 IRICut=       1 DoRegI=T DoRafI=F ISym2E= 0 IDoP0=0 IntGTp=1.
 FoFCou: FMM=T IPFlag=           0 FMFlag=      100000 FMFlg1=        2001
         NFxFlg=           0 DoJE=T BraDBF=F KetDBF=F FulRan=T
         wScrn=  0.000000 ICntrl=       500 IOpCl=  0 I1Cent=           0 NGrid=           0
         NMat0=    1 NMatS0=      1 NMatT0=    0 NMatD0=    1 NMtDS0=    0 NMtDT0=    0
 Symmetry not used in FoFCou.
 FMM levels:  10  Number of levels for PrismC:   9
 E= -3006.46222739696    
 DIIS: error= 2.67D-02 at cycle   1 NSaved=   1.
 NSaved= 1 IEnMin= 1 EnMin= -3006.46222739696     IErMin= 1 ErrMin= 2.67D-02
 ErrMax= 2.67D-02  0.00D+00 EMaxC= 1.00D-01 BMatC= 1.28D+00 BMatP= 1.28D+00
 IDIUse=3 WtCom= 7.33D-01 WtEn= 2.67D-01
 Coeff-Com:  0.100D+01
 Coeff-En:   0.100D+01
 Coeff:      0.100D+01
 Gap=     0.113 Goal=   None    Shift=    0.000
 GapD=    0.113 DampG=1.000 DampE=0.500 DampFc=0.5000 IDamp=-1.
 Damping current iteration by 5.00D-01
 RMSDP=1.57D-03 MaxDP=1.50D-01              OVMax= 2.77D-01

 Cycle   2  Pass 1  IDiag  1:
 RMSU=  7.72D-04    CP:  9.84D-01
 E= -3006.77054906249     Delta-E=       -0.308321665536 Rises=F Damp=T
 DIIS: error= 1.39D-02 at cycle   2 NSaved=   2.
 NSaved= 2 IEnMin= 2 EnMin= -3006.77054906249     IErMin= 2 ErrMin= 1.39D-02
 ErrMax= 1.39D-02  0.00D+00 EMaxC= 1.00D-01 BMatC= 2.33D-01 BMatP= 1.28D+00
 IDIUse=3 WtCom= 8.61D-01 WtEn= 1.39D-01
 Coeff-Com: -0.206D+00 0.121D+01
 Coeff-En:   0.000D+00 0.100D+01
 Coeff:     -0.177D+00 0.118D+01
 Gap=     0.144 Goal=   None    Shift=    0.000
 RMSDP=7.61D-04 MaxDP=8.18D-02 DE=-3.08D-01 OVMax= 2.67D-01

 Cycle   3  Pass 1  IDiag  1:
 RMSU=  7.44D-04    CP:  9.73D-01  1.15D+00
 E= -3007.00268932549     Delta-E=       -0.232140263002 Rises=F Damp=F
 DIIS: error= 1.10D-02 at cycle   3 NSaved=   3.
 NSaved= 3 IEnMin= 3 EnMin= -3007.00268932549     IErMin= 3 ErrMin= 1.10D-02
 ErrMax= 1.10D-02  0.00D+00 EMaxC= 1.00D-01 BMatC= 1.50D-01 BMatP= 2.33D-01
 IDIUse=3 WtCom= 8.90D-01 WtEn= 1.10D-01
 Coeff-Com: -0.261D+00 0.641D+00 0.620D+00
 Coeff-En:   0.000D+00 0.000D+00 0.100D+01
 Coeff:     -0.233D+00 0.570D+00 0.662D+00
 Gap=     0.120 Goal=   None    Shift=    0.000
 RMSDP=5.17D-04 MaxDP=5.22D-02 DE=-2.32D-01 OVMax= 2.12D-01

 Cycle   4  Pass 1  IDiag  1:
 RMSU=  2.85D-04    CP:  9.70D-01  1.48D+00  5.30D-01
 E= -3007.11186254430     Delta-E=       -0.109173218802 Rises=F Damp=F
 DIIS: error= 3.98D-03 at cycle   4 NSaved=   4.
 NSaved= 4 IEnMin= 4 EnMin= -3007.11186254430     IErMin= 4 ErrMin= 3.98D-03
 ErrMax= 3.98D-03  0.00D+00 EMaxC= 1.00D-01 BMatC= 3.16D-02 BMatP= 1.50D-01
 IDIUse=3 WtCom= 9.60D-01 WtEn= 3.98D-02
 Coeff-Com: -0.110D+00 0.227D+00 0.393D+00 0.490D+00
 Coeff-En:   0.000D+00 0.000D+00 0.195D+00 0.805D+00
 Coeff:     -0.106D+00 0.218D+00 0.385D+00 0.503D+00
 Gap=     0.121 Goal=   None    Shift=    0.000
 RMSDP=2.03D-04 MaxDP=1.99D-02 DE=-1.09D-01 OVMax= 9.60D-02

 Cycle   5  Pass 1  IDiag  1:
 RMSU=  8.13D-05    CP:  9.70D-01  1.42D+00  7.00D-01  5.44D-01
 E= -3007.14252165858     Delta-E=       -0.030659114285 Rises=F Damp=F
 DIIS: error= 7.83D-04 at cycle   5 NSaved=   5.
 NSaved= 5 IEnMin= 5 EnMin= -3007.14252165858     IErMin= 5 ErrMin= 7.83D-04
 ErrMax= 7.83D-04  0.00D+00 EMaxC= 1.00D-01 BMatC= 1.01D-03 BMatP= 3.16D-02
 IDIUse=3 WtCom= 9.92D-01 WtEn= 7.83D-03
 Coeff-Com: -0.453D-01 0.892D-01 0.181D+00 0.269D+00 0.506D+00
 Coeff-En:   0.000D+00 0.000D+00 0.000D+00 0.000D+00 0.100D+01
 Coeff:     -0.449D-01 0.885D-01 0.180D+00 0.267D+00 0.510D+00
 Gap=     0.120 Goal=   None    Shift=    0.000
 RMSDP=5.00D-05 MaxDP=8.84D-03 DE=-3.07D-02 OVMax= 2.68D-02

 Cycle   6  Pass 1  IDiag  1:
 RMSU=  3.45D-05    CP:  9.69D-01  1.43D+00  6.91D-01  6.20D-01  6.67D-01
 E= -3007.14350776507     Delta-E=       -0.000986106486 Rises=F Damp=F
 DIIS: error= 2.78D-04 at cycle   6 NSaved=   6.
 NSaved= 6 IEnMin= 6 EnMin= -3007.14350776507     IErMin= 6 ErrMin= 2.78D-04
 ErrMax= 2.78D-04  0.00D+00 EMaxC= 1.00D-01 BMatC= 1.41D-04 BMatP= 1.01D-03
 IDIUse=3 WtCom= 9.97D-01 WtEn= 2.78D-03
 Coeff-Com:  0.158D-02-0.518D-02 0.858D-02 0.307D-01 0.279D+00 0.685D+00
 Coeff-En:   0.000D+00 0.000D+00 0.000D+00 0.000D+00 0.116D+00 0.884D+00
 Coeff:      0.157D-02-0.517D-02 0.856D-02 0.306D-01 0.278D+00 0.686D+00
 Gap=     0.122 Goal=   None    Shift=    0.000
 RMSDP=1.88D-05 MaxDP=1.74D-03 DE=-9.86D-04 OVMax= 1.18D-02

 Cycle   7  Pass 1  IDiag  1:
 RMSU=  1.15D-05    CP:  9.69D-01  1.43D+00  6.99D-01  6.16D-01  8.03D-01
                    CP:  7.71D-01
 E= -3007.14368433980     Delta-E=       -0.000176574737 Rises=F Damp=F
 DIIS: error= 8.58D-05 at cycle   7 NSaved=   7.
 NSaved= 7 IEnMin= 7 EnMin= -3007.14368433980     IErMin= 7 ErrMin= 8.58D-05
 ErrMax= 8.58D-05  0.00D+00 EMaxC= 1.00D-01 BMatC= 2.20D-05 BMatP= 1.41D-04
 IDIUse=1 WtCom= 1.00D+00 WtEn= 0.00D+00
 Coeff-Com:  0.498D-02-0.108D-01-0.117D-01-0.992D-02 0.912D-01 0.372D+00
 Coeff-Com:  0.564D+00
 Coeff:      0.498D-02-0.108D-01-0.117D-01-0.992D-02 0.912D-01 0.372D+00
 Coeff:      0.564D+00
 Gap=     0.122 Goal=   None    Shift=    0.000
 RMSDP=6.53D-06 MaxDP=1.63D-03 DE=-1.77D-04 OVMax= 2.65D-03

 Cycle   8  Pass 1  IDiag  1:
 RMSU=  4.62D-06    CP:  9.69D-01  1.43D+00  7.00D-01  6.21D-01  8.06D-01
                    CP:  8.87D-01  8.87D-01
 E= -3007.14371147899     Delta-E=       -0.000027139185 Rises=F Damp=F
 DIIS: error= 2.03D-05 at cycle   8 NSaved=   8.
 NSaved= 8 IEnMin= 8 EnMin= -3007.14371147899     IErMin= 8 ErrMin= 2.03D-05
 ErrMax= 2.03D-05  0.00D+00 EMaxC= 1.00D-01 BMatC= 2.32D-06 BMatP= 2.20D-05
 IDIUse=1 WtCom= 1.00D+00 WtEn= 0.00D+00
 Coeff-Com:  0.218D-02-0.425D-02-0.756D-02-0.120D-01-0.215D-01 0.385D-01
 Coeff-Com:  0.239D+00 0.765D+00
 Coeff:      0.218D-02-0.425D-02-0.756D-02-0.120D-01-0.215D-01 0.385D-01
 Coeff:      0.239D+00 0.765D+00
 Gap=     0.122 Goal=   None    Shift=    0.000
 RMSDP=3.59D-06 MaxDP=5.08D-04 DE=-2.71D-05 OVMax= 2.19D-03

 Cycle   9  Pass 1  IDiag  1:
 RMSU=  2.14D-06    CP:  9.69D-01  1.43D+00  7.01D-01  6.22D-01  8.20D-01
                    CP:  9.23D-01  1.08D+00  1.11D+00
 E= -3007.14371730126     Delta-E=       -0.000005822274 Rises=F Damp=F
 DIIS: error= 1.88D-05 at cycle   9 NSaved=   9.
 NSaved= 9 IEnMin= 9 EnMin= -3007.14371730126     IErMin= 9 ErrMin= 1.88D-05
 ErrMax= 1.88D-05  0.00D+00 EMaxC= 1.00D-01 BMatC= 6.04D-07 BMatP= 2.32D-06
 IDIUse=1 WtCom= 1.00D+00 WtEn= 0.00D+00
 Coeff-Com:  0.324D-03-0.474D-03-0.194D-02-0.439D-02-0.276D-01-0.340D-01
 Coeff-Com:  0.232D-01 0.372D+00 0.673D+00
 Coeff:      0.324D-03-0.474D-03-0.194D-02-0.439D-02-0.276D-01-0.340D-01
 Coeff:      0.232D-01 0.372D+00 0.673D+00
 Gap=     0.122 Goal=   None    Shift=    0.000
 RMSDP=1.78D-06 MaxDP=1.49D-04 DE=-5.82D-06 OVMax= 1.23D-03

 Cycle  10  Pass 1  IDiag  1:
 RMSU=  1.11D-06    CP:  9.69D-01  1.43D+00  7.01D-01  6.22D-01  8.23D-01
                    CP:  9.38D-01  1.14D+00  1.33D+00  1.12D+00
 E= -3007.14371925635     Delta-E=       -0.000001955083 Rises=F Damp=F
 DIIS: error= 1.05D-05 at cycle  10 NSaved=  10.
 NSaved=10 IEnMin=10 EnMin= -3007.14371925635     IErMin=10 ErrMin= 1.05D-05
 ErrMax= 1.05D-05  0.00D+00 EMaxC= 1.00D-01 BMatC= 1.96D-07 BMatP= 6.04D-07
 IDIUse=1 WtCom= 1.00D+00 WtEn= 0.00D+00
 Coeff-Com: -0.654D-03 0.134D-02 0.181D-02 0.235D-02-0.860D-02-0.279D-01
 Coeff-Com: -0.847D-01-0.897D-01 0.331D+00 0.875D+00
 Coeff:     -0.654D-03 0.134D-02 0.181D-02 0.235D-02-0.860D-02-0.279D-01
 Coeff:     -0.847D-01-0.897D-01 0.331D+00 0.875D+00
 Gap=     0.122 Goal=   None    Shift=    0.000
 RMSDP=1.72D-06 MaxDP=1.82D-04 DE=-1.96D-06 OVMax= 1.12D-03

 Cycle  11  Pass 1  IDiag  1:
 RMSU=  6.60D-07    CP:  9.69D-01  1.43D+00  7.01D-01  6.22D-01  8.26D-01
                    CP:  9.52D-01  1.21D+00  1.49D+00  1.56D+00  1.39D+00
 E= -3007.14372030138     Delta-E=       -0.000001045031 Rises=F Damp=F
 DIIS: error= 6.49D-06 at cycle  11 NSaved=  11.
 NSaved=11 IEnMin=11 EnMin= -3007.14372030138     IErMin=11 ErrMin= 6.49D-06
 ErrMax= 6.49D-06  0.00D+00 EMaxC= 1.00D-01 BMatC= 6.29D-08 BMatP= 1.96D-07
 IDIUse=1 WtCom= 1.00D+00 WtEn= 0.00D+00
 Coeff-Com: -0.403D-03 0.782D-03 0.137D-02 0.245D-02 0.227D-02-0.168D-02
 Coeff-Com: -0.526D-01-0.144D+00-0.745D-02 0.452D+00 0.747D+00
 Coeff:     -0.403D-03 0.782D-03 0.137D-02 0.245D-02 0.227D-02-0.168D-02
 Coeff:     -0.526D-01-0.144D+00-0.745D-02 0.452D+00 0.747D+00
 Gap=     0.122 Goal=   None    Shift=    0.000
 RMSDP=8.96D-07 MaxDP=7.65D-05 DE=-1.05D-06 OVMax= 6.25D-04

 Cycle  12  Pass 1  IDiag  1:
 RMSU=  3.37D-07    CP:  9.69D-01  1.43D+00  7.01D-01  6.22D-01  8.26D-01
                    CP:  9.54D-01  1.23D+00  1.58D+00  1.75D+00  1.85D+00
                    CP:  1.19D+00
 E= -3007.14372062453     Delta-E=       -0.000000323151 Rises=F Damp=F
 DIIS: error= 3.24D-06 at cycle  12 NSaved=  12.
 NSaved=12 IEnMin=12 EnMin= -3007.14372062453     IErMin=12 ErrMin= 3.24D-06
 ErrMax= 3.24D-06  0.00D+00 EMaxC= 1.00D-01 BMatC= 1.61D-08 BMatP= 6.29D-08
 IDIUse=1 WtCom= 1.00D+00 WtEn= 0.00D+00
 Coeff-Com:  0.276D-04-0.737D-04-0.472D-05 0.387D-03 0.296D-02 0.956D-02
 Coeff-Com:  0.289D-02-0.274D-01-0.102D+00-0.112D+00 0.250D+00 0.976D+00
 Coeff:      0.276D-04-0.737D-04-0.472D-05 0.387D-03 0.296D-02 0.956D-02
 Coeff:      0.289D-02-0.274D-01-0.102D+00-0.112D+00 0.250D+00 0.976D+00
 Gap=     0.122 Goal=   None    Shift=    0.000
 RMSDP=6.63D-07 MaxDP=5.39D-05 DE=-3.23D-07 OVMax= 4.53D-04

 Cycle  13  Pass 1  IDiag  1:
 RMSU=  1.84D-07    CP:  9.69D-01  1.43D+00  7.01D-01  6.22D-01  8.27D-01
                    CP:  9.54D-01  1.24D+00  1.62D+00  1.91D+00  2.14D+00
                    CP:  1.64D+00  1.36D+00
 E= -3007.14372073691     Delta-E=       -0.000000112383 Rises=F Damp=F
 DIIS: error= 1.55D-06 at cycle  13 NSaved=  13.
 NSaved=13 IEnMin=13 EnMin= -3007.14372073691     IErMin=13 ErrMin= 1.55D-06
 ErrMax= 1.55D-06  0.00D+00 EMaxC= 1.00D-01 BMatC= 7.18D-09 BMatP= 1.61D-08
 IDIUse=1 WtCom= 1.00D+00 WtEn= 0.00D+00
 Coeff-Com:  0.149D-03-0.302D-03-0.478D-03-0.563D-03 0.500D-03 0.642D-02
 Coeff-Com:  0.175D-01 0.341D-01-0.504D-01-0.204D+00-0.127D+00 0.601D+00
 Coeff-Com:  0.723D+00
 Coeff:      0.149D-03-0.302D-03-0.478D-03-0.563D-03 0.500D-03 0.642D-02
 Coeff:      0.175D-01 0.341D-01-0.504D-01-0.204D+00-0.127D+00 0.601D+00
 Coeff:      0.723D+00
 Gap=     0.122 Goal=   None    Shift=    0.000
 RMSDP=3.20D-07 MaxDP=5.54D-05 DE=-1.12D-07 OVMax= 1.87D-04

 Cycle  14  Pass 1  IDiag  1:
 RMSU=  9.38D-08    CP:  9.69D-01  1.43D+00  7.01D-01  6.22D-01  8.27D-01
                    CP:  9.54D-01  1.25D+00  1.64D+00  1.96D+00  2.32D+00
                    CP:  1.82D+00  1.80D+00  1.07D+00
 E= -3007.14372076282     Delta-E=       -0.000000025913 Rises=F Damp=F
 DIIS: error= 8.39D-07 at cycle  14 NSaved=  14.
 NSaved=14 IEnMin=14 EnMin= -3007.14372076282     IErMin=14 ErrMin= 8.39D-07
 ErrMax= 8.39D-07  0.00D+00 EMaxC= 1.00D-01 BMatC= 9.92D-10 BMatP= 7.18D-09
 IDIUse=1 WtCom= 1.00D+00 WtEn= 0.00D+00
 Coeff-Com:  0.675D-04-0.133D-03-0.241D-03-0.346D-03-0.510D-03 0.131D-02
 Coeff-Com:  0.701D-02 0.225D-01-0.460D-02-0.723D-01-0.127D+00 0.116D+00
 Coeff-Com:  0.303D+00 0.756D+00
 Coeff:      0.675D-04-0.133D-03-0.241D-03-0.346D-03-0.510D-03 0.131D-02
 Coeff:      0.701D-02 0.225D-01-0.460D-02-0.723D-01-0.127D+00 0.116D+00
 Coeff:      0.303D+00 0.756D+00
 Gap=     0.122 Goal=   None    Shift=    0.000
 RMSDP=1.23D-07 MaxDP=1.33D-05 DE=-2.59D-08 OVMax= 8.17D-05

 Cycle  15  Pass 1  IDiag  1:
 RMSU=  4.19D-08    CP:  9.69D-01  1.43D+00  7.01D-01  6.22D-01  8.27D-01
                    CP:  9.53D-01  1.25D+00  1.65D+00  1.98D+00  2.37D+00
                    CP:  1.91D+00  1.95D+00  1.27D+00  1.11D+00
 E= -3007.14372076652     Delta-E=       -0.000000003698 Rises=F Damp=F
 DIIS: error= 3.75D-07 at cycle  15 NSaved=  15.
 NSaved=15 IEnMin=15 EnMin= -3007.14372076652     IErMin=15 ErrMin= 3.75D-07
 ErrMax= 3.75D-07  0.00D+00 EMaxC= 1.00D-01 BMatC= 3.16D-10 BMatP= 9.92D-10
 IDIUse=1 WtCom= 1.00D+00 WtEn= 0.00D+00
 Coeff-Com:  0.167D-05-0.127D-05-0.204D-04-0.462D-04-0.442D-03-0.544D-03
 Coeff-Com: -0.789D-03 0.402D-02 0.719D-02 0.103D-01-0.392D-01-0.474D-01
 Coeff-Com: -0.321D-01 0.362D+00 0.737D+00
 Coeff:      0.167D-05-0.127D-05-0.204D-04-0.462D-04-0.442D-03-0.544D-03
 Coeff:     -0.789D-03 0.402D-02 0.719D-02 0.103D-01-0.392D-01-0.474D-01
 Coeff:     -0.321D-01 0.362D+00 0.737D+00
 Gap=     0.122 Goal=   None    Shift=    0.000
 RMSDP=4.90D-08 MaxDP=9.29D-06 DE=-3.70D-09 OVMax= 2.82D-05

 Cycle  16  Pass 1  IDiag  1:
 RMSU=  2.14D-08    CP:  9.69D-01  1.43D+00  7.01D-01  6.22D-01  8.27D-01
                    CP:  9.53D-01  1.25D+00  1.65D+00  1.98D+00  2.39D+00
                    CP:  1.93D+00  2.02D+00  1.34D+00  1.35D+00  1.22D+00
 E= -3007.14372076750     Delta-E=       -0.000000000973 Rises=F Damp=F
 DIIS: error= 2.37D-07 at cycle  16 NSaved=  16.
 NSaved=16 IEnMin=16 EnMin= -3007.14372076750     IErMin=16 ErrMin= 2.37D-07
 ErrMax= 2.37D-07  0.00D+00 EMaxC= 1.00D-01 BMatC= 9.88D-11 BMatP= 3.16D-10
 IDIUse=1 WtCom= 1.00D+00 WtEn= 0.00D+00
 Coeff-Com: -0.172D-04 0.349D-04 0.524D-04 0.702D-04-0.140D-03-0.501D-03
 Coeff-Com: -0.251D-02-0.356D-02 0.385D-02 0.253D-01 0.885D-02-0.429D-01
 Coeff-Com: -0.111D+00-0.518D-02 0.361D+00 0.767D+00
 Coeff:     -0.172D-04 0.349D-04 0.524D-04 0.702D-04-0.140D-03-0.501D-03
 Coeff:     -0.251D-02-0.356D-02 0.385D-02 0.253D-01 0.885D-02-0.429D-01
 Coeff:     -0.111D+00-0.518D-02 0.361D+00 0.767D+00
 Gap=     0.122 Goal=   None    Shift=    0.000
 RMSDP=2.98D-08 MaxDP=2.33D-06 DE=-9.73D-10 OVMax= 1.93D-05

 Cycle  17  Pass 1  IDiag  1:
 RMSU=  1.24D-08    CP:  9.69D-01  1.43D+00  7.01D-01  6.22D-01  8.27D-01
                    CP:  9.53D-01  1.25D+00  1.65D+00  1.98D+00  2.39D+00
                    CP:  1.94D+00  2.05D+00  1.39D+00  1.49D+00  1.58D+00
                    CP:  1.31D+00
 E= -3007.14372076797     Delta-E=       -0.000000000475 Rises=F Damp=F
 DIIS: error= 1.28D-07 at cycle  17 NSaved=  17.
 NSaved=17 IEnMin=17 EnMin= -3007.14372076797     IErMin=17 ErrMin= 1.28D-07
 ErrMax= 1.28D-07  0.00D+00 EMaxC= 1.00D-01 BMatC= 3.14D-11 BMatP= 9.88D-11
 IDIUse=1 WtCom= 1.00D+00 WtEn= 0.00D+00
 Coeff-Com: -0.678D-05 0.130D-04 0.243D-04 0.405D-04 0.494D-04 0.795D-04
 Coeff-Com: -0.849D-03-0.217D-02-0.115D-02 0.784D-02 0.116D-01 0.353D-02
 Coeff-Com: -0.427D-01-0.110D+00-0.111D+00 0.323D+00 0.922D+00
 Coeff:     -0.678D-05 0.130D-04 0.243D-04 0.405D-04 0.494D-04 0.795D-04
 Coeff:     -0.849D-03-0.217D-02-0.115D-02 0.784D-02 0.116D-01 0.353D-02
 Coeff:     -0.427D-01-0.110D+00-0.111D+00 0.323D+00 0.922D+00
 Gap=     0.122 Goal=   None    Shift=    0.000
 RMSDP=2.26D-08 MaxDP=2.44D-06 DE=-4.75D-10 OVMax= 1.40D-05

 Cycle  18  Pass 1  IDiag  1:
 RMSU=  5.69D-09    CP:  9.69D-01  1.43D+00  7.01D-01  6.22D-01  8.27D-01
                    CP:  9.53D-01  1.25D+00  1.65D+00  1.98D+00  2.40D+00
                    CP:  1.94D+00  2.07D+00  1.41D+00  1.59D+00  1.85D+00
                    CP:  1.80D+00  1.40D+00
 E= -3007.14372076812     Delta-E=       -0.000000000153 Rises=F Damp=F
 DIIS: error= 5.53D-08 at cycle  18 NSaved=  18.
 NSaved=18 IEnMin=18 EnMin= -3007.14372076812     IErMin=18 ErrMin= 5.53D-08
 ErrMax= 5.53D-08  0.00D+00 EMaxC= 1.00D-01 BMatC= 7.36D-12 BMatP= 3.14D-11
 IDIUse=1 WtCom= 1.00D+00 WtEn= 0.00D+00
 Coeff-Com:  0.318D-05-0.676D-05-0.898D-05-0.620D-05 0.602D-04 0.276D-03
 Coeff-Com:  0.466D-03 0.542D-03-0.240D-02-0.568D-02 0.351D-03 0.230D-01
 Coeff-Com:  0.219D-01-0.409D-01-0.183D+00-0.127D+00 0.379D+00 0.935D+00
 Coeff:      0.318D-05-0.676D-05-0.898D-05-0.620D-05 0.602D-04 0.276D-03
 Coeff:      0.466D-03 0.542D-03-0.240D-02-0.568D-02 0.351D-03 0.230D-01
 Coeff:      0.219D-01-0.409D-01-0.183D+00-0.127D+00 0.379D+00 0.935D+00
 Gap=     0.122 Goal=   None    Shift=    0.000
 RMSDP=1.30D-08 MaxDP=9.49D-07 DE=-1.53D-10 OVMax= 8.06D-06

 Cycle  19  Pass 1  IDiag  1:
 RMSU=  3.04D-09    CP:  9.69D-01  1.43D+00  7.01D-01  6.22D-01  8.27D-01
                    CP:  9.53D-01  1.25D+00  1.65D+00  1.98D+00  2.40D+00
                    CP:  1.94D+00  2.07D+00  1.42D+00  1.64D+00  2.02D+00
                    CP:  2.12D+00  1.86D+00  1.32D+00
 E= -3007.14372076811     Delta-E=        0.000000000015 Rises=F Damp=F
 DIIS: error= 2.64D-08 at cycle  19 NSaved=  19.
 NSaved=19 IEnMin=18 EnMin= -3007.14372076812     IErMin=19 ErrMin= 2.64D-08
 ErrMax= 2.64D-08  0.00D+00 EMaxC= 1.00D-01 BMatC= 1.73D-12 BMatP= 7.36D-12
 IDIUse=1 WtCom= 1.00D+00 WtEn= 0.00D+00
 Coeff-Com:  0.319D-05-0.641D-05-0.106D-04-0.127D-04 0.130D-04 0.126D-03
 Coeff-Com:  0.406D-03 0.872D-03-0.919D-03-0.444D-02-0.325D-02 0.991D-02
 Coeff-Com:  0.192D-01 0.550D-02-0.641D-01-0.131D+00-0.235D-01 0.473D+00
 Coeff-Com:  0.718D+00
 Coeff:      0.319D-05-0.641D-05-0.106D-04-0.127D-04 0.130D-04 0.126D-03
 Coeff:      0.406D-03 0.872D-03-0.919D-03-0.444D-02-0.325D-02 0.991D-02
 Coeff:      0.192D-01 0.550D-02-0.641D-01-0.131D+00-0.235D-01 0.473D+00
 Coeff:      0.718D+00
 Gap=     0.122 Goal=   None    Shift=    0.000
 RMSDP=4.83D-09 MaxDP=3.69D-07 DE= 1.46D-11 OVMax= 2.91D-06

 SCF Done:  E(RCAM-B3LYP) =  -3007.14372077     A.U. after   19 cycles
            NFock= 19  Conv=0.48D-08     -V/T= 2.0106
 KE= 2.975537056296D+03 PE=-2.592224885565D+04 EE= 1.047466325535D+04
 Leave Link  502 at Wed Apr 27 05:37:47 2022, MaxMem= 10066329600 cpu:            9936.2 elap:             431.9
 (Enter /sw/apps/gaussian-16.0/g16/l801.exe)
 DoSCS=F DFT=T ScalE2(SS,OS)=  1.000000  1.000000
 ExpMin= 3.36D-02 ExpMax= 4.95D+03 ExpMxC= 7.45D+02 IAcc=3 IRadAn=         5 AccDes= 0.00D+00
 HarFok:  IExCor=  205 AccDes= 0.00D+00 IRadAn=         5 IDoV=-2 UseB2=F ITyADJ=14
 ICtDFT= 12500011 ScaDFX=  1.000000  1.000000  1.000000  1.000000
 GSVD:  LWork=       -5460 too small for GESVD, short by       25550 words or       25550 for optimal perf.
 Largest valence mixing into a core orbital is  1.33D-04
 Largest core mixing into a valence orbital is  5.31D-05
 Range of M.O.s used for correlation:    71  1298
 NBasis=  1298 NAE=   246 NBE=   246 NFC=    70 NFV=     0
 NROrb=   1228 NOA=   176 NOB=   176 NVA=  1052 NVB=  1052
 Leave Link  801 at Wed Apr 27 05:37:48 2022, MaxMem= 10066329600 cpu:               9.9 elap:               0.5
 (Enter /sw/apps/gaussian-16.0/g16/l914.exe)
 RHF ground state
 Two-electron integrals replicated using symmetry.
 MDV= 10066329600 DFT=T DoStab=F Mixed=T DoRPA=T DoScal=F NonHer=T
 Making orbital integer symmetry assigments:
 Orbital symmetries:
       Occupied  (A) (A) (A) (A) (A) (A) (A) (A) (A) (A) (A) (A)
                 (A) (A) (A) (A) (A) (A) (A) (A) (A) (A) (A) (A)
                 (A) (A) (A) (A) (A) (A) (A) (A) (A) (A) (A) (A)
                 (A) (A) (A) (A) (A) (A) (A) (A) (A) (A) (A) (A)
                 (A) (A) (A) (A) (A) (A) (A) (A) (A) (A) (A) (A)
                 (A) (A) (A) (A) (A) (A) (A) (A) (A) (A) (A) (A)
                 (A) (A) (A) (A) (A) (A) (A) (A) (A) (A) (A) (A)
                 (A) (A) (A) (A) (A) (A) (A) (A) (A) (A) (A) (A)
                 (A) (A) (A) (A) (A) (A) (A) (A) (A) (A) (A) (A)
                 (A) (A) (A) (A) (A) (A) (A) (A) (A) (A) (A) (A)
                 (A) (A) (A) (A) (A) (A) (A) (A) (A) (A) (A) (A)
                 (A) (A) (A) (A) (A) (A) (A) (A) (A) (A) (A) (A)
                 (A) (A) (A) (A) (A) (A) (A) (A) (A) (A) (A) (A)
                 (A) (A) (A) (A) (A) (A) (A) (A) (A) (A) (A) (A)
                 (A) (A) (A) (A) (A) (A) (A) (A) (A) (A) (A) (A)
                 (A) (A) (A) (A) (A) (A) (A) (A) (A) (A) (A) (A)
                 (A) (A) (A) (A) (A) (A) (A) (A) (A) (A) (A) (A)
                 (A) (A) (A) (A) (A) (A) (A) (A) (A) (A) (A) (A)
                 (A) (A) (A) (A) (A) (A) (A) (A) (A) (A) (A) (A)
                 (A) (A) (A) (A) (A) (A) (A) (A) (A) (A) (A) (A)
                 (A) (A) (A) (A) (A) (A)
       Virtual   (A) (A) (A) (A) (A) (A) (A) (A) (A) (A) (A) (A)
                 (A) (A) (A) (A) (A) (A) (A) (A) (A) (A) (A) (A)
                 (A) (A) (A) (A) (A) (A) (A) (A) (A) (A) (A) (A)
                 (A) (A) (A) (A) (A) (A) (A) (A) (A) (A) (A) (A)
                 (A) (A) (A) (A) (A) (A) (A) (A) (A) (A) (A) (A)
                 (A) (A) (A) (A) (A) (A) (A) (A) (A) (A) (A) (A)
                 (A) (A) (A) (A) (A) (A) (A) (A) (A) (A) (A) (A)
                 (A) (A) (A) (A) (A) (A) (A) (A) (A) (A) (A) (A)
                 (A) (A) (A) (A) (A) (A) (A) (A) (A) (A) (A) (A)
                 (A) (A) (A) (A) (A) (A) (A) (A) (A) (A) (A) (A)
                 (A) (A) (A) (A) (A) (A) (A) (A) (A) (A) (A) (A)
                 (A) (A) (A) (A) (A) (A) (A) (A) (A) (A) (A) (A)
                 (A) (A) (A) (A) (A) (A) (A) (A) (A) (A) (A) (A)
                 (A) (A) (A) (A) (A) (A) (A) (A) (A) (A) (A) (A)
                 (A) (A) (A) (A) (A) (A) (A) (A) (A) (A) (A) (A)
                 (A) (A) (A) (A) (A) (A) (A) (A) (A) (A) (A) (A)
                 (A) (A) (A) (A) (A) (A) (A) (A) (A) (A) (A) (A)
                 (A) (A) (A) (A) (A) (A) (A) (A) (A) (A) (A) (A)
                 (A) (A) (A) (A) (A) (A) (A) (A) (A) (A) (A) (A)
                 (A) (A) (A) (A) (A) (A) (A) (A) (A) (A) (A) (A)
                 (A) (A) (A) (A) (A) (A) (A) (A) (A) (A) (A) (A)
                 (A) (A) (A) (A) (A) (A) (A) (A) (A) (A) (A) (A)
                 (A) (A) (A) (A) (A) (A) (A) (A) (A) (A) (A) (A)
                 (A) (A) (A) (A) (A) (A) (A) (A) (A) (A) (A) (A)
                 (A) (A) (A) (A) (A) (A) (A) (A) (A) (A) (A) (A)
                 (A) (A) (A) (A) (A) (A) (A) (A) (A) (A) (A) (A)
                 (A) (A) (A) (A) (A) (A) (A) (A) (A) (A) (A) (A)
                 (A) (A) (A) (A) (A) (A) (A) (A) (A) (A) (A) (A)
                 (A) (A) (A) (A) (A) (A) (A) (A) (A) (A) (A) (A)
                 (A) (A) (A) (A) (A) (A) (A) (A) (A) (A) (A) (A)
                 (A) (A) (A) (A) (A) (A) (A) (A) (A) (A) (A) (A)
                 (A) (A) (A) (A) (A) (A) (A) (A) (A) (A) (A) (A)
                 (A) (A) (A) (A) (A) (A) (A) (A) (A) (A) (A) (A)
                 (A) (A) (A) (A) (A) (A) (A) (A) (A) (A) (A) (A)
                 (A) (A) (A) (A) (A) (A) (A) (A) (A) (A) (A) (A)
                 (A) (A) (A) (A) (A) (A) (A) (A) (A) (A) (A) (A)
                 (A) (A) (A) (A) (A) (A) (A) (A) (A) (A) (A) (A)
                 (A) (A) (A) (A) (A) (A) (A) (A) (A) (A) (A) (A)
                 (A) (A) (A) (A) (A) (A) (A) (A) (A) (A) (A) (A)
                 (A) (A) (A) (A) (A) (A) (A) (A) (A) (A) (A) (A)
                 (A) (A) (A) (A) (A) (A) (A) (A) (A) (A) (A) (A)
                 (A) (A) (A) (A) (A) (A) (A) (A) (A) (A) (A) (A)
                 (A) (A) (A) (A) (A) (A) (A) (A) (A) (A) (A) (A)
                 (A) (A) (A) (A) (A) (A) (A) (A) (A) (A) (A) (A)
                 (A) (A) (A) (A) (A) (A) (A) (A) (A) (A) (A) (A)
                 (A) (A) (A) (A) (A) (A) (A) (A) (A) (A) (A) (A)
                 (A) (A) (A) (A) (A) (A) (A) (A) (A) (A) (A) (A)
                 (A) (A) (A) (A) (A) (A) (A) (A) (A) (A) (A) (A)
                 (A) (A) (A) (A) (A) (A) (A) (A) (A) (A) (A) (A)
                 (A) (A) (A) (A) (A) (A) (A) (A) (A) (A) (A) (A)
                 (A) (A) (A) (A) (A) (A) (A) (A) (A) (A) (A) (A)
                 (A) (A) (A) (A) (A) (A) (A) (A) (A) (A) (A) (A)
                 (A) (A) (A) (A) (A) (A) (A) (A) (A) (A) (A) (A)
                 (A) (A) (A) (A) (A) (A) (A) (A) (A) (A) (A) (A)
                 (A) (A) (A) (A) (A) (A) (A) (A) (A) (A) (A) (A)
                 (A) (A) (A) (A) (A) (A) (A) (A) (A) (A) (A) (A)
                 (A) (A) (A) (A) (A) (A) (A) (A) (A) (A) (A) (A)
                 (A) (A) (A) (A) (A) (A) (A) (A) (A) (A) (A) (A)
                 (A) (A) (A) (A) (A) (A) (A) (A) (A) (A) (A) (A)
                 (A) (A) (A) (A) (A) (A) (A) (A) (A) (A) (A) (A)
                 (A) (A) (A) (A) (A) (A) (A) (A) (A) (A) (A) (A)
                 (A) (A) (A) (A) (A) (A) (A) (A) (A) (A) (A) (A)
                 (A) (A) (A) (A) (A) (A) (A) (A) (A) (A) (A) (A)
                 (A) (A) (A) (A) (A) (A) (A) (A) (A) (A) (A) (A)
                 (A) (A) (A) (A) (A) (A) (A) (A) (A) (A) (A) (A)
                 (A) (A) (A) (A) (A) (A) (A) (A) (A) (A) (A) (A)
                 (A) (A) (A) (A) (A) (A) (A) (A) (A) (A) (A) (A)
                 (A) (A) (A) (A) (A) (A) (A) (A) (A) (A) (A) (A)
                 (A) (A) (A) (A) (A) (A) (A) (A) (A) (A) (A) (A)
                 (A) (A) (A) (A) (A) (A) (A) (A) (A) (A) (A) (A)
                 (A) (A) (A) (A) (A) (A) (A) (A) (A) (A) (A) (A)
                 (A) (A) (A) (A) (A) (A) (A) (A) (A) (A) (A) (A)
                 (A) (A) (A) (A) (A) (A) (A) (A) (A) (A) (A) (A)
                 (A) (A) (A) (A) (A) (A) (A) (A) (A) (A) (A) (A)
                 (A) (A) (A) (A) (A) (A) (A) (A) (A) (A) (A) (A)
                 (A) (A) (A) (A) (A) (A) (A) (A) (A) (A) (A) (A)
                 (A) (A) (A) (A) (A) (A) (A) (A) (A) (A) (A) (A)
                 (A) (A) (A) (A) (A) (A) (A) (A) (A) (A) (A) (A)
                 (A) (A) (A) (A) (A) (A) (A) (A) (A) (A) (A) (A)
                 (A) (A) (A) (A) (A) (A) (A) (A) (A) (A) (A) (A)
                 (A) (A) (A) (A) (A) (A) (A) (A) (A) (A) (A) (A)
                 (A) (A) (A) (A) (A) (A) (A) (A) (A) (A) (A) (A)
                 (A) (A) (A) (A) (A) (A) (A) (A) (A) (A) (A) (A)
                 (A) (A) (A) (A) (A) (A) (A) (A) (A) (A) (A) (A)
                 (A) (A) (A) (A) (A) (A) (A) (A) (A) (A) (A) (A)
                 (A) (A) (A) (A) (A) (A) (A) (A) (A) (A) (A) (A)
                 (A) (A) (A) (A) (A) (A) (A) (A) (A) (A) (A) (A)
                 (A) (A) (A) (A) (A) (A) (A) (A)
    20 initial guesses have been made.
 Convergence on wavefunction:    0.001000000000000
 Davidson Disk Diagonalization:  ConvIn= 1.00D-03 SkipCon=T Conv= 1.00D-03.
 Max sub-space:  2000 roots to seek:    20 dimension of matrix:       370304
 Iteration     1 Dimension    20 NMult     0 NNew     20
 CISAX will form    20 AO SS matrices at one time.
 NMat=    20 NSing=    20 JSym2X= 0.
 FoFJK:  IHMeth= 1 ICntrl=       0 DoSepK=T KAlg= 0 I1Cent=           0 FoldK=F
 IRaf=         1 NMat=      40 IRICut=       1 DoRegI=T DoRafI=F ISym2E= 0 IDoP0=3 IntGTp=3.
 FoFCou: FMM=T IPFlag=           0 FMFlag=      100000 FMFlg1=        2001
         NFxFlg=           0 DoJE=F BraDBF=F KetDBF=F FulRan=T
         wScrn=  0.000000 ICntrl=       500 IOpCl=  0 I1Cent=           0 NGrid=           0
         NMat0=   20 NMatS0=     20 NMatT0=    0 NMatD0=   20 NMtDS0=    0 NMtDT0=    0
 Symmetry not used in FoFCou.
 FMM levels:  10  Number of levels for PrismC:   9
 New state      3 was old state      4
 New state      4 was old state      5
 New state      5 was old state      6
 Excitation Energies [eV] at current iteration:
 Root      1 :     2.180072478151589
 Root      2 :     2.625037530065808
 Root      3 :     3.451783852208261
 Root      4 :     3.844861855467407
 Root      5 :     3.917984555657592
 Root      6 :     4.234054509919676
 Root      7 :     4.279411019397515
 Root      8 :     4.426918308262876
 Root      9 :     4.461537443566027
 Root     10 :     4.496257646756411
 Root     11 :     4.593123883425521
 Root     12 :     4.728858633660251
 Root     13 :     4.974479459197834
 Root     14 :     4.997285955480275
 Root     15 :     5.109893750305987
 Root     16 :     5.122593571992004
 Root     17 :     5.213234536285015
 Root     18 :     5.495700061037694
 Root     19 :     6.045971725628138
 Root     20 :     6.135150245156757
 Iteration     2 Dimension    30 NMult    20 NNew     10
 CISAX will form    10 AO SS matrices at one time.
 NMat=    10 NSing=    10 JSym2X= 0.
 Root      1 not converged, maximum delta is    0.073534254373233
 Root      2 not converged, maximum delta is    0.063414061675888
 Root      3 not converged, maximum delta is    0.043837696299576
 Root      4 not converged, maximum delta is    0.107143580019643
 Root      5 not converged, maximum delta is    0.148445621253027
 Excitation Energies [eV] at current iteration:
 Root      1 :     1.713124968588615   Change is   -0.466947509562973
 Root      2 :     2.247608660733567   Change is   -0.377428869332241
 Root      3 :     3.158339630837794   Change is   -0.293444221370467
 Root      4 :     3.486676218035389   Change is   -0.358185637432018
 Root      5 :     3.542484783435751   Change is   -0.375499772221840
 Iteration     3 Dimension    40 NMult    30 NNew     10
 CISAX will form    10 AO SS matrices at one time.
 NMat=    10 NSing=    10 JSym2X= 0.
 Root      1 not converged, maximum delta is    0.017449409354449
 Root      2 not converged, maximum delta is    0.013209586121853
 Root      3 not converged, maximum delta is    0.008100133781157
 New state      4 was old state      5
 Root      4 not converged, maximum delta is    0.341600000670671
 New state      5 was old state      4
 Root      5 not converged, maximum delta is    0.322674570710723
 Excitation Energies [eV] at current iteration:
 Root      1 :     1.677523845360662   Change is   -0.035601123227954
 Root      2 :     2.227116888504563   Change is   -0.020491772229004
 Root      3 :     3.145319799578985   Change is   -0.013019831258809
 Root      4 :     3.440500480667918   Change is   -0.101984302767833
 Root      5 :     3.472379047051210   Change is   -0.014297170984180
 Iteration     4 Dimension    50 NMult    40 NNew     10
 CISAX will form    10 AO SS matrices at one time.
 NMat=    10 NSing=    10 JSym2X= 0.
 Root      1 not converged, maximum delta is    0.003340728491978
 Root      2 not converged, maximum delta is    0.002543963923510
 Root      3 not converged, maximum delta is    0.005408221389414
 Root      4 not converged, maximum delta is    0.037547514309329
 Root      5 not converged, maximum delta is    0.037330699073679
 Excitation Energies [eV] at current iteration:
 Root      1 :     1.673697207236022   Change is   -0.003826638124640
 Root      2 :     2.224379834311508   Change is   -0.002737054193055
 Root      3 :     3.142478632711464   Change is   -0.002841166867521
 Root      4 :     3.429115519229620   Change is   -0.011384961438298
 Root      5 :     3.463126162686343   Change is   -0.009252884364867
 Iteration     5 Dimension    60 NMult    50 NNew     10
 CISAX will form    10 AO SS matrices at one time.
 NMat=    10 NSing=    10 JSym2X= 0.
 Root      1 not converged, maximum delta is    0.001402913812495
 Root      2 not converged, maximum delta is    0.001191952862725
 Root      3 not converged, maximum delta is    0.001750634133077
 Root      4 not converged, maximum delta is    0.010927584424916
 Root      5 not converged, maximum delta is    0.011578058973836
 Excitation Energies [eV] at current iteration:
 Root      1 :     1.673343667992705   Change is   -0.000353539243316
 Root      2 :     2.224161518889704   Change is   -0.000218315421804
 Root      3 :     3.142169407290361   Change is   -0.000309225421103
 Root      4 :     3.427144581965958   Change is   -0.001970937263662
 Root      5 :     3.461673507608644   Change is   -0.001452655077699
 Iteration     6 Dimension    70 NMult    60 NNew     10
 CISAX will form    10 AO SS matrices at one time.
 NMat=    10 NSing=    10 JSym2X= 0.
 Root      1 has converged.
 Root      2 has converged.
 Root      3 has converged.
 Root      4 not converged, maximum delta is    0.005507808288496
 Root      5 not converged, maximum delta is    0.005390571330424
 Excitation Energies [eV] at current iteration:
 Root      1 :     1.673311202124286   Change is   -0.000032465868420
 Root      2 :     2.224136697635077   Change is   -0.000024821254626
 Root      3 :     3.142138705371011   Change is   -0.000030701919350
 Root      4 :     3.426740474583612   Change is   -0.000404107382346
 Root      5 :     3.461293992976283   Change is   -0.000379514632360
 Iteration     7 Dimension    74 NMult    70 NNew      4
 CISAX will form     4 AO SS matrices at one time.
 NMat=     4 NSing=     4 JSym2X= 0.
 Root      1 has converged.
 Root      2 has converged.
 Root      3 has converged.
 Root      4 has converged.
 Root      5 not converged, maximum delta is    0.002929703633698
 Excitation Energies [eV] at current iteration:
 Root      1 :     1.673311131968821   Change is   -0.000000070155464
 Root      2 :     2.224136615793579   Change is   -0.000000081841498
 Root      3 :     3.142138491750886   Change is   -0.000000213620124
 Root      4 :     3.426694705253255   Change is   -0.000045769330357
 Root      5 :     3.461202557142778   Change is   -0.000091435833505
 Iteration     8 Dimension    76 NMult    74 NNew      2
 CISAX will form     2 AO SS matrices at one time.
 NMat=     2 NSing=     2 JSym2X= 0.
 Root      1 has converged.
 Root      2 has converged.
 Root      3 has converged.
 Root      4 has converged.
 Root      5 not converged, maximum delta is    0.001673394246153
 Excitation Energies [eV] at current iteration:
 Root      1 :     1.673311117783022   Change is   -0.000000014185799
 Root      2 :     2.224136530219627   Change is   -0.000000085573952
 Root      3 :     3.142138369315485   Change is   -0.000000122435401
 Root      4 :     3.426691811631890   Change is   -0.000002893621366
 Root      5 :     3.461173812365949   Change is   -0.000028744776829
 Iteration     9 Dimension    78 NMult    76 NNew      2
 CISAX will form     2 AO SS matrices at one time.
 NMat=     2 NSing=     2 JSym2X= 0.
 Root      1 has converged.
 Root      2 has converged.
 Root      3 has converged.
 Root      4 has converged.
 Root      5 has converged.
 Excitation Energies [eV] at current iteration:
 Root      1 :     1.673311090515540   Change is   -0.000000027267482
 Root      2 :     2.224136522703091   Change is   -0.000000007516536
 Root      3 :     3.142138261350399   Change is   -0.000000107965086
 Root      4 :     3.426691561052688   Change is   -0.000000250579202
 Root      5 :     3.461165930979602   Change is   -0.000007881386347
 Convergence achieved on expansion vectors.
 ***********************************************************************
 Excited states from <AA,BB:AA,BB> singles matrix:
 ***********************************************************************
 
 1PDM for each excited state written to RWF  633
 Ground to excited state transition densities written to RWF  633
 Ground to excited state transition electric dipole moments (Au):
       state          X           Y           Z        Dip. S.      Osc.
         1        -2.1389      2.0725     -0.2876      8.9526      0.3670
         2        -0.8145     -1.1898     -0.0317      2.0800      0.1133
         3         0.2775      0.0959      0.0345      0.0874      0.0067
         4        -0.4108     -0.7845     -0.0195      0.7846      0.0659
         5        -0.7524     -1.0982     -0.0406      1.7739      0.1504
 Ground to excited state transition velocity dipole moments (Au):
       state          X           Y           Z        Dip. S.      Osc.
         1         0.1264     -0.1239      0.0184      0.0317      0.3434
         2         0.0626      0.0928      0.0024      0.0125      0.1023
         3        -0.0344     -0.0112     -0.0030      0.0013      0.0076
         4         0.0493      0.0951      0.0005      0.0115      0.0607
         5         0.0912      0.1364      0.0040      0.0270      0.1413
 Ground to excited state transition magnetic dipole moments (Au):
       state          X           Y           Z
         1         0.0606     -0.2198     -1.8553
         2         0.0450      0.0029      0.2161
         3         0.0058      0.0478     -0.8569
         4        -0.2235      0.5395      0.9110
         5         0.0171      0.1787      2.0579
 Ground to excited state transition velocity quadrupole moments (Au):
       state          XX          YY          ZZ          XY          XZ          YZ
         1         2.5428     -0.4404      0.0050     -1.0402      0.1800      0.0971
         2         1.2340      0.1952     -0.0082      0.9778      0.0169     -0.0267
         3        -0.9863      0.4244     -0.0018     -0.0897      0.0029      0.0001
         4         1.0699      0.0284     -0.0004      0.9434      0.0125     -0.0405
         5         1.6698      0.1052      0.0066      1.7460      0.0331      0.0089
 <0|del|b> * <b|rxdel|0> + <0|del|b> * <b|delr+rdel|0>
 Rotatory Strengths (R) in cgs (10**-40 erg-esu-cm/Gauss)
       state          XX          YY          ZZ    R(velocity)    E-M Angle
         1       -21.9853     28.2869      1.7859      2.6958       89.88
         2         6.7612     -2.9256     27.3634     10.3997       81.61
         3         7.0243      6.3158     -2.3294      3.6702       86.69
         4       143.1158    -36.5687    122.0826     76.2099       69.44
         5        97.4433     10.0475     82.4018     63.2975       84.22
 1/2[<0|r|b>*<b|rxdel|0> + (<0|rxdel|b>*<b|r|0>)*]
 Rotatory Strengths (R) in cgs (10**-40 erg-esu-cm/Gauss)
       state          XX          YY          ZZ     R(length)
         1        91.6160    322.0666   -377.3737     12.1029
         2        25.9427      2.4368      4.8412     11.0736
         3        -1.1321     -3.2411     20.9113      5.5127
         4       -64.9302    299.2965     12.5486     82.3050
         5         9.0862    138.7723     59.0994     68.9860
  1/2[<0|del|b>*<b|r|0> + (<0|r|b>*<b|del|0>)*] (Au)
       state          X           Y           Z        Dip. S.   Osc.(frdel)
         1        -0.2704     -0.2568     -0.0053      0.5325      0.3550
         2        -0.0510     -0.1105     -0.0001      0.1615      0.1077
         3        -0.0095     -0.0011     -0.0001      0.0107      0.0071
         4        -0.0202     -0.0746     -0.0000      0.0949      0.0632
         5        -0.0686     -0.1498     -0.0002      0.2187      0.1458

 Excitation energies and oscillator strengths:
 
 Excited State   1:      Singlet-A      1.6733 eV  740.95 nm  f=0.3670  <S**2>=0.000
     245 -> 248       -0.17405
     246 -> 247        0.68758
[...]
 Alpha virt. eigenvalues --    1.23203   1.23757   1.24226   1.24486   1.25085
 Alpha virt. eigenvalues --    1.25714   1.25858   1.26487   1.26752   1.27054
 Alpha virt. eigenvalues --    1.27513   1.28112   1.28811   1.28977   1.29368
 Alpha virt. eigenvalues --    1.29580   1.29974   1.30134   1.30163   1.31103
 Alpha virt. eigenvalues --    1.32154   1.32765   1.33489   1.33830   1.34035
 Alpha virt. eigenvalues --    1.34908   1.35478   1.36044   1.36253   1.36684
 Alpha virt. eigenvalues --    1.36782   1.37146   1.37485   1.37563   1.38150
 Alpha virt. eigenvalues --    1.38572   1.38873   1.39182   1.39606   1.40202
 Alpha virt. eigenvalues --    1.40756   1.40989   1.41715   1.42052   1.42650
 Alpha virt. eigenvalues --    1.42791   1.43152   1.43361   1.43845   1.44215
 Alpha virt. eigenvalues --    1.44453   1.45049   1.45554   1.45783   1.46203
 Alpha virt. eigenvalues --    1.46630   1.46754   1.47086   1.47323   1.47521
 Alpha virt. eigenvalues --    1.47879   1.48740   1.48966   1.49395   1.50002
 Alpha virt. eigenvalues --    1.50293   1.51460   1.51584   1.52406   1.52438
 Alpha virt. eigenvalues --    1.53002   1.53504   1.54434   1.55311   1.55571
 Alpha virt. eigenvalues --    1.56084   1.56260   1.56560   1.56877   1.57035
 Alpha virt. eigenvalues --    1.57348   1.57838   1.58069   1.58566   1.58718
 Alpha virt. eigenvalues --    1.58977   1.59192   1.59761   1.59906   1.60170
 Alpha virt. eigenvalues --    1.60191   1.60500   1.60945   1.61417   1.61610
 Alpha virt. eigenvalues --    1.61935   1.62163   1.62638   1.62774   1.62849
 Alpha virt. eigenvalues --    1.63016   1.63512   1.63758   1.63909   1.64073
 Alpha virt. eigenvalues --    1.64305   1.64391   1.64749   1.65443   1.65732
 Alpha virt. eigenvalues --    1.65794   1.65902   1.66069   1.66529   1.66614
 Alpha virt. eigenvalues --    1.67359   1.67595   1.68223   1.68412   1.69092
 Alpha virt. eigenvalues --    1.69630   1.70106   1.70219   1.70763   1.70990
 Alpha virt. eigenvalues --    1.71918   1.72752   1.72992   1.73617   1.73786
 Alpha virt. eigenvalues --    1.74114   1.74619   1.75293   1.75484   1.75841
 Alpha virt. eigenvalues --    1.76742   1.76982   1.77147   1.77488   1.77620
 Alpha virt. eigenvalues --    1.77933   1.78424   1.78579   1.78886   1.79254
 Alpha virt. eigenvalues --    1.79362   1.79574   1.80048   1.80216   1.80507
 Alpha virt. eigenvalues --    1.80583   1.80791   1.80965   1.81249   1.81445
 Alpha virt. eigenvalues --    1.81825   1.82199   1.82265   1.82393   1.82727
 Alpha virt. eigenvalues --    1.82976   1.83278   1.83552   1.83799   1.83959
 Alpha virt. eigenvalues --    1.84131   1.84192   1.84657   1.84972   1.85087
 Alpha virt. eigenvalues --    1.85246   1.85311   1.85583   1.85745   1.85952
 Alpha virt. eigenvalues --    1.86280   1.86416   1.86647   1.86835   1.87001
 Alpha virt. eigenvalues --    1.87263   1.87589   1.87657   1.87832   1.87977
 Alpha virt. eigenvalues --    1.88057   1.88158   1.88330   1.88385   1.88853
 Alpha virt. eigenvalues --    1.89130   1.89219   1.89404   1.89579   1.89825
 Alpha virt. eigenvalues --    1.90247   1.90401   1.90918   1.91075   1.91251
 Alpha virt. eigenvalues --    1.91524   1.91767   1.91923   1.91968   1.92148
 Alpha virt. eigenvalues --    1.92469   1.92588   1.92801   1.93016   1.93113
 Alpha virt. eigenvalues --    1.93359   1.93682   1.93929   1.94018   1.94279
 Alpha virt. eigenvalues --    1.94425   1.94713   1.95270   1.95297   1.95414
 Alpha virt. eigenvalues --    1.95678   1.96216   1.96281   1.96589   1.96691
 Alpha virt. eigenvalues --    1.96744   1.96898   1.97226   1.97366   1.97796
 Alpha virt. eigenvalues --    1.97974   1.98125   1.98470   1.98920   1.99099
 Alpha virt. eigenvalues --    1.99644   1.99921   2.00102   2.00199   2.00519
 Alpha virt. eigenvalues --    2.00773   2.01094   2.01218   2.01433   2.01497
 Alpha virt. eigenvalues --    2.02014   2.02110   2.02253   2.02556   2.02932
 Alpha virt. eigenvalues --    2.03155   2.03460   2.03838   2.04077   2.04597
 Alpha virt. eigenvalues --    2.04625   2.04881   2.05005   2.05532   2.05816
 Alpha virt. eigenvalues --    2.06149   2.06374   2.06445   2.06700   2.06981
 Alpha virt. eigenvalues --    2.07471   2.07925   2.08135   2.08578   2.08995
 Alpha virt. eigenvalues --    2.09725   2.09803   2.09990   2.10280   2.10490
 Alpha virt. eigenvalues --    2.10899   2.11076   2.11404   2.11568   2.12174
 Alpha virt. eigenvalues --    2.12318   2.12721   2.13103   2.13448   2.13714
 Alpha virt. eigenvalues --    2.13966   2.14097   2.14430   2.14659   2.14872
 Alpha virt. eigenvalues --    2.15055   2.15449   2.15749   2.16369   2.16644
 Alpha virt. eigenvalues --    2.16915   2.16984   2.17242   2.17541   2.17932
 Alpha virt. eigenvalues --    2.18307   2.18357   2.18900   2.19145   2.19503
 Alpha virt. eigenvalues --    2.19890   2.20101   2.20403   2.20497   2.21071
 Alpha virt. eigenvalues --    2.21650   2.21871   2.21986   2.22553   2.22739
 Alpha virt. eigenvalues --    2.23007   2.24075   2.24356   2.24501   2.25314
 Alpha virt. eigenvalues --    2.25405   2.25828   2.26104   2.26541   2.26657
 Alpha virt. eigenvalues --    2.27004   2.27469   2.28169   2.28770   2.29108
 Alpha virt. eigenvalues --    2.29586   2.30057   2.30728   2.31176   2.31327
 Alpha virt. eigenvalues --    2.31486   2.32292   2.32489   2.33332   2.33500
 Alpha virt. eigenvalues --    2.34165   2.34230   2.34603   2.34813   2.35079
 Alpha virt. eigenvalues --    2.35469   2.36094   2.36191   2.36915   2.37430
 Alpha virt. eigenvalues --    2.37581   2.38336   2.38696   2.38987   2.39089
 Alpha virt. eigenvalues --    2.39441   2.39513   2.40373   2.40749   2.40862
 Alpha virt. eigenvalues --    2.41007   2.41663   2.42008   2.42163   2.42456
 Alpha virt. eigenvalues --    2.42550   2.42693   2.43088   2.43501   2.44173
 Alpha virt. eigenvalues --    2.44439   2.44703   2.44770   2.45359   2.46022
 Alpha virt. eigenvalues --    2.46478   2.47257   2.47340   2.47467   2.47534
 Alpha virt. eigenvalues --    2.48015   2.48660   2.48804   2.49399   2.49526
 Alpha virt. eigenvalues --    2.50310   2.50444   2.50715   2.51133   2.51580
 Alpha virt. eigenvalues --    2.52223   2.52534   2.52570   2.53125   2.53514
 Alpha virt. eigenvalues --    2.53808   2.54446   2.54679   2.54962   2.55388
 Alpha virt. eigenvalues --    2.55672   2.56676   2.56778   2.57075   2.57429
 Alpha virt. eigenvalues --    2.58048   2.58169   2.58459   2.59659   2.60238
 Alpha virt. eigenvalues --    2.60585   2.60701   2.61083   2.61164   2.61891
 Alpha virt. eigenvalues --    2.62293   2.62607   2.62722   2.63237   2.63837
 Alpha virt. eigenvalues --    2.64096   2.64302   2.65104   2.65480   2.65710
 Alpha virt. eigenvalues --    2.66351   2.66576   2.67171   2.67820   2.67988
 Alpha virt. eigenvalues --    2.68281   2.69458   2.69569   2.69798   2.70551
 Alpha virt. eigenvalues --    2.71058   2.71085   2.71142   2.71279   2.71942
 Alpha virt. eigenvalues --    2.72430   2.72633   2.72966   2.73010   2.73654
 Alpha virt. eigenvalues --    2.73700   2.74369   2.74931   2.74958   2.75478
 Alpha virt. eigenvalues --    2.75903   2.76430   2.77061   2.77476   2.77866
 Alpha virt. eigenvalues --    2.78484   2.78856   2.79075   2.79628   2.80230
 Alpha virt. eigenvalues --    2.80817   2.81147   2.81233   2.81540   2.82104
 Alpha virt. eigenvalues --    2.82653   2.82744   2.83039   2.83584   2.83904
 Alpha virt. eigenvalues --    2.84388   2.85237   2.85670   2.86124   2.86193
 Alpha virt. eigenvalues --    2.86410   2.86601   2.87992   2.88478   2.89017
 Alpha virt. eigenvalues --    2.89498   2.89777   2.90523   2.90748   2.90936
 Alpha virt. eigenvalues --    2.91831   2.92740   2.93488   2.94096   2.94140
 Alpha virt. eigenvalues --    2.94707   2.94847   2.95777   2.95978   2.96267
 Alpha virt. eigenvalues --    2.96625   2.96688   2.97009   2.97673   2.97843
 Alpha virt. eigenvalues --    2.98124   2.98690   2.98998   2.99193   2.99291
 Alpha virt. eigenvalues --    2.99732   3.00141   3.00457   3.00909   3.01244
 Alpha virt. eigenvalues --    3.01286   3.01755   3.02232   3.02327   3.02487
 Alpha virt. eigenvalues --    3.02797   3.03557   3.03713   3.03981   3.04338
 Alpha virt. eigenvalues --    3.04794   3.05116   3.05344   3.05495   3.05512
 Alpha virt. eigenvalues --    3.06369   3.06426   3.07173   3.07244   3.07767
 Alpha virt. eigenvalues --    3.07887   3.08102   3.08413   3.08587   3.09409
 Alpha virt. eigenvalues --    3.09638   3.09927   3.10178   3.10599   3.11167
 Alpha virt. eigenvalues --    3.11312   3.11658   3.11802   3.12216   3.12503
 Alpha virt. eigenvalues --    3.13064   3.13493   3.13577   3.13983   3.14225
 Alpha virt. eigenvalues --    3.15748   3.16032   3.17579   3.18517   3.18633
 Alpha virt. eigenvalues --    3.18988   3.20229   3.20996   3.22478   3.22555
 Alpha virt. eigenvalues --    3.23236   3.23809   3.24273   3.24467   3.24929
 Alpha virt. eigenvalues --    3.25944   3.26149   3.29055   3.30074   3.31122
 Alpha virt. eigenvalues --    3.32657   3.33993   3.42897   3.45509   3.46555
 Alpha virt. eigenvalues --    3.49154   3.50833   3.51776   3.54059   3.57803
 Alpha virt. eigenvalues --    3.61361   3.66241   3.70280   3.71933   3.73186
 Alpha virt. eigenvalues --    3.73392   3.75365
          Condensed to atoms (all electrons):
 Mulliken charges:
               1
     1  Mg   0.801740
     2  C    0.055460
     3  C   -0.075995
     4  C   -0.039136
     5  C   -0.097620
     6  N   -0.287131
     7  C   -0.014559
     8  C   -0.026140
     9  C   -0.083065
    10  C    0.065818
    11  C    0.074133
    12  C    0.086568
    13  C    0.025249
    14  C    0.143672
    15  O   -0.196352
    16  O   -0.347469
    17  N   -0.386767
    18  C    0.172242
    19  C   -0.161894
    20  C   -0.010454
    21  C    0.140668
    22  C    0.110650
    23  C   -0.028648
    24  O   -0.184254
    25  C    0.077513
    26  N   -0.324787
    27  C    0.050407
    28  C   -0.077515
    29  C    0.027767
    30  C    0.017379
    31  C    0.044379
    32  C    0.015538
    33  C   -0.007744
    34  N   -0.376877
    35  C    0.179397
    36  C   -0.144016
    37  C   -0.011677
    38  C    0.088017
    39  C    0.123117
    40  C    0.042996
    41  O   -0.188268
    42  C   -0.019754
    43  C    0.188751
    44  O   -0.256384
    45  O   -0.342794
    46  C    0.178518
    47  C    0.280338
    48  C   -0.147630
    49  C   -0.112768
    50  C    0.063544
    51  C    0.050495
    52  C    0.031715
    53  C    0.041784
    54  C   -0.135313
    55  C    0.062719
    56  C    0.016449
    57  C    0.012690
    58  C    0.013755
    59  C   -0.093593
    60  C    0.052858
    61  C    0.086773
    62  C    0.030947
    63  C    0.043739
    64  C   -0.178767
    65  C    0.036408
    66  C    0.085055
    67  H   -0.031856
    68  H   -0.007603
    69  H   -0.033128
    70  H    0.040478
    71  H    0.013287
    72  H    0.043957
    73  H    0.013034
    74  H   -0.005242
    75  H    0.009001
    76  H    0.006674
    77  H    0.033957
    78  H    0.035014
    79  H    0.035109
    80  H    0.005943
    81  H    0.031253
    82  H    0.019474
    83  H    0.025689
    84  H    0.029946
    85  H    0.015024
    86  H    0.005298
    87  H    0.024723
    88  H    0.028101
    89  H    0.026245
    90  H    0.004877
    91  H    0.004750
    92  H    0.022424
    93  H    0.023559
    94  H    0.016121
    95  H    0.034703
    96  H    0.003312
    97  H    0.034462
    98  H    0.050740
    99  H    0.032709
   100  H    0.043791
   101  H    0.047238
   102  H    0.028724
   103  H    0.040913
   104  H    0.001449
   105  H    0.005074
   106  H    0.018664
   107  H    0.024824
   108  H   -0.011573
   109  H    0.007186
   110  H    0.007205
   111  H    0.006170
   112  H   -0.007492
   113  H   -0.015196
   114  H    0.006110
   115  H    0.002700
   116  H   -0.002582
   117  H    0.007892
   118  H   -0.012230
   119  H   -0.005898
   120  H   -0.006273
   121  H   -0.001784
   122  H   -0.005221
   123  H    0.005144
   124  H    0.005020
   125  H   -0.006085
   126  H    0.013105
   127  H    0.004232
   128  H   -0.011867
   129  H   -0.013135
   130  H   -0.011755
   131  H   -0.011956
   132  H   -0.009259
   133  H   -0.009674
   134  H   -0.006718
   135  H    0.005745
   136  H   -0.008807
   137  H   -0.004630
   138  H   -0.005395
   139  H    0.019331
   140  H    0.013103
 Sum of Mulliken charges =  -0.00000
 Mulliken charges with hydrogens summed into heavy atoms:
               1
     1  Mg   0.801740
     2  C    0.055460
     3  C   -0.107850
     4  C   -0.046739
     5  C   -0.130748
     6  N   -0.287131
     7  C   -0.014559
     8  C    0.014338
     9  C   -0.069777
    10  C    0.065818
    11  C    0.125882
    12  C    0.102244
    13  C    0.094220
    14  C    0.143672
    15  O   -0.196352
    16  O   -0.347469
    17  N   -0.386767
    18  C    0.172242
    19  C   -0.161894
    20  C   -0.010454
    21  C    0.140668
    22  C    0.182954
    23  C   -0.028648
    24  O   -0.184254
    25  C    0.152622
    26  N   -0.324787
    27  C    0.050407
    28  C   -0.062491
    29  C    0.033065
    30  C    0.017379
    31  C    0.123447
    32  C    0.025164
    33  C    0.054360
    34  N   -0.376877
    35  C    0.179397
    36  C   -0.144016
    37  C   -0.011677
    38  C    0.088017
    39  C    0.195594
    40  C    0.042996
    41  O   -0.188268
    42  C    0.030987
    43  C    0.188751
    44  O   -0.256384
    45  O   -0.342794
    46  C    0.302255
    47  C    0.349974
    48  C   -0.146181
    49  C   -0.112768
    50  C    0.112106
    51  C    0.046108
    52  C    0.045091
    53  C    0.019096
    54  C   -0.129204
    55  C    0.070728
    56  C   -0.001680
    57  C    0.004633
    58  C    0.013678
    59  C   -0.088573
    60  C    0.064109
    61  C    0.061770
    62  C    0.007236
    63  C    0.024807
    64  C   -0.185485
    65  C    0.028716
    66  C    0.112094
 Electronic spatial extent (au):  <R**2>=         131425.9211
 Charge=             -0.0000 electrons
 Dipole moment (field-independent basis, Debye):
    X=             -6.0217    Y=              3.0389    Z=              1.5245  Tot=              6.9152
 Quadrupole moment (field-independent basis, Debye-Ang):
   XX=           -399.4686   YY=           -426.3445   ZZ=           -403.4752
   XY=             28.9625   XZ=             14.0554   YZ=             -0.1273
 Traceless Quadrupole moment (field-independent basis, Debye-Ang):
   XX=             10.2942   YY=            -16.5817   ZZ=              6.2876
   XY=             28.9625   XZ=             14.0554   YZ=             -0.1273
 Octapole moment (field-independent basis, Debye-Ang**2):
  XXX=            416.1625  YYY=           -118.7492  ZZZ=            -14.9202  XYY=           -281.0179
  XXY=            195.1342  XXZ=             54.4467  XZZ=             12.2744  YZZ=            -37.6924
  YYZ=            -20.2178  XYZ=             -4.9375
 Hexadecapole moment (field-independent basis, Debye-Ang**3):
 XXXX=        -150704.5321 YYYY=         -26497.4130 ZZZZ=          -3975.2837 XXXY=           3016.2156
 XXXZ=            335.4222 YYYX=           -213.6321 YYYZ=            429.0472 ZZZX=             41.1538
 ZZZY=             95.8137 XXYY=         -31382.3895 XXZZ=         -26387.8866 YYZZ=          -4824.6351
 XXYZ=            285.7160 YYXZ=             80.5053 ZZXY=             29.6568
 N-N= 9.464904823234D+03 E-N=-2.592224884511D+04  KE= 2.975537056296D+03
 Leave Link  601 at Wed Apr 27 05:55:42 2022, MaxMem= 10066329600 cpu:              13.0 elap:               0.6
 (Enter /sw/apps/gaussian-16.0/g16/l9999.exe)
 1\1\GINC-BP1-COMPUTE175\SP\RCAM-B3LYP TD-FC\def2SVP\C55H74Mg1N4O6\OF15
 641\27-Apr-2022\0\\#p cam-b3lyp/Def2SVP td=(nstates=5)\\step_1101_chro
 mophore_18 TDDFT with cam-b3lyp functional\\0,1\Mg,0,34.295,49.366,25.
 461\C,0,34.837,47.76,28.533\C,0,32.564,51.868,27.195\C,0,33.763,50.931
 ,22.484\C,0,35.867,46.626,23.846\N,0,33.727,49.731,27.587\C,0,34.112,4
 8.959,28.694\C,0,33.723,49.674,29.983\C,0,32.794,50.874,29.531\C,0,33.
 047,50.826,28.003\C,0,31.333,50.767,29.94\C,0,34.93,50.152,30.853\C,0,
 34.571,51.197,31.901\C,0,33.29,50.998,32.714\O,0,32.718,49.962,32.814\
 O,0,32.845,52.177,33.234\N,0,33.295,51.15,24.892\C,0,32.805,52.093,25.
 82\C,0,32.242,53.213,25.027\C,0,32.474,52.925,23.665\C,0,33.246,51.652
 ,23.629\C,0,31.541,54.326,25.656\C,0,31.996,53.771,22.505\O,0,32.366,5
 3.51,21.394\C,0,31.155,54.972,22.658\N,0,34.693,48.824,23.425\C,0,34.4
 04,49.694,22.388\C,0,34.897,49.044,21.01\C,0,35.693,47.745,21.511\C,0,
 35.368,47.666,22.975\C,0,33.783,48.75,19.872\C,0,37.199,47.678,21.118\
 C,0,38.201,48.564,21.929\N,0,35.188,47.545,26.006\C,0,35.752,46.518,25
 .195\C,0,36.183,45.487,26.018\C,0,35.836,45.912,27.366\C,0,35.241,47.1
 8,27.296\C,0,36.767,44.201,25.664\C,0,35.771,45.47,28.738\O,0,36.131,4
 4.399,29.256\C,0,35.262,46.724,29.516\C,0,34.186,46.426,30.425\O,0,32.
 953,46.482,30.203\O,0,34.653,45.812,31.567\C,0,33.714,45.423,32.665\C,
 0,31.495,52.167,33.838\C,0,31.001,53.547,34.09\C,0,29.849,53.864,34.57
 6\C,0,28.666,52.981,34.988\C,0,29.583,55.333,34.859\C,0,30.448,56.117,
 35.903\C,0,31.538,57.004,35.318\C,0,31.552,58.403,35.953\C,0,32.954,58
 .826,36.271\C,0,30.893,59.392,34.91\C,0,29.6,60.185,35.304\C,0,29.294,
 60.336,36.805\C,0,28.742,61.792,37.181\C,0,29.829,62.658,37.841\C,0,27
 .57,61.552,38.087\C,0,26.323,62.346,37.741\C,0,26.304,63.662,38.604\C,
 0,25.836,64.794,37.679\C,0,26.331,66.139,38.187\C,0,24.322,64.91,37.35
 9\H,0,32.046,52.666,27.73\H,0,33.621,51.36,21.49\H,0,36.398,45.814,23.
 345\H,0,33.261,48.859,30.541\H,0,33.109,51.832,29.945\H,0,31.094,49.91
 2,30.572\H,0,30.665,50.817,29.08\H,0,31.048,51.625,30.549\H,0,35.795,5
 0.48,30.275\H,0,35.235,49.249,31.382\H,0,34.598,52.209,31.499\H,0,35.4
 16,51.112,32.584\H,0,32.021,55.278,25.428\H,0,31.461,54.308,26.743\H,0
 ,30.489,54.284,25.371\H,0,31.683,55.761,23.193\H,0,30.262,54.823,23.26
 5\H,0,31.037,55.398,21.662\H,0,35.532,49.736,20.456\H,0,35.201,46.865,
 21.097\H,0,32.883,48.946,20.455\H,0,33.816,47.73,19.491\H,0,33.907,49.
 51,19.101\H,0,37.396,48.021,20.103\H,0,37.52,46.636,21.108\H,0,38.911,
 47.887,22.404\H,0,37.54,49.09,22.618\H,0,38.747,49.348,21.405\H,0,37.4
 28,43.797,26.43\H,0,37.339,44.236,24.736\H,0,35.955,43.491,25.506\H,0,
 36.153,46.904,30.118\H,0,33.604,44.342,32.741\H,0,32.658,45.607,32.468
 \H,0,34.099,45.883,33.576\H,0,31.618,51.668,34.799\H,0,30.823,51.557,3
 3.233\H,0,31.688,54.352,33.83\H,0,28.693,51.937,34.676\H,0,27.688,53.2
 88,34.618\H,0,28.513,52.971,36.067\H,0,28.519,55.481,35.043\H,0,29.856
 ,55.75,33.889\H,0,31.071,55.454,36.503\H,0,29.723,56.663,36.507\H,0,31
 .474,56.98,34.23\H,0,32.468,56.457,35.47\H,0,30.971,58.499,36.871\H,0,
 33.483,59.205,35.396\H,0,33.496,57.931,36.574\H,0,32.988,59.576,37.061
 \H,0,30.529,58.788,34.079\H,0,31.637,60.092,34.53\H,0,28.838,59.597,34
 .793\H,0,29.795,61.103,34.749\H,0,30.291,60.299,37.243\H,0,28.891,59.4
 05,37.204\H,0,28.526,62.222,36.203\H,0,30.801,62.193,37.679\H,0,29.719
 ,62.822,38.913\H,0,30.009,63.627,37.374\H,0,27.929,61.745,39.098\H,0,2
 7.277,60.503,38.1\H,0,25.32,61.921,37.783\H,0,26.362,62.484,36.66\H,0,
 27.243,63.891,39.109\H,0,25.649,63.554,39.469\H,0,26.437,64.722,36.773
 \H,0,27.341,66.065,38.591\H,0,25.628,66.572,38.898\H,0,26.275,66.897,3
 7.407\H,0,24.094,65.974,37.41\H,0,23.884,64.341,38.179\H,0,24.146,64.6
 97,36.304\\Version=ES64L-G16RevA.03\State=1-A\HF=-3007.1437208\RMSD=4.
 834e-09\PG=C01 [X(C55H74Mg1N4O6)]\\@


 MANHOOD BEGINS BY TRYING TO SHAVE FACE,
 AND ENDS BY TRYING TO SAVE FACE.
 Job cpu time:       0 days  9 hours 55 minutes 33.1 seconds.
 Elapsed time:       0 days  0 hours 25 minutes 17.6 seconds.
 File lengths (MBytes):  RWF=   8929 Int=      0 D2E=      0 Chk=    390 Scr=      1
 Normal termination of Gaussian 16 at Wed Apr 27 05:55:43 2022.
