 Entering Gaussian System, Link 0=g16
 Initial command:
 /sw/apps/gaussian-16.0/g16/l1.exe "/tmp/Gau-212969.inp" -scrdir="/tmp/"
 Entering Link 1 = /sw/apps/gaussian-16.0/g16/l1.exe PID=    212970.
  
 Copyright (c) 1988,1990,1992,1993,1995,1998,2003,2009,2016,
            Gaussian, Inc.  All Rights Reserved.
  
 This is part of the Gaussian(R) 16 program.  It is based on
 the Gaussian(R) 09 system (copyright 2009, Gaussian, Inc.),
 the Gaussian(R) 03 system (copyright 2003, Gaussian, Inc.),
 the Gaussian(R) 98 system (copyright 1998, Gaussian, Inc.),
 the Gaussian(R) 94 system (copyright 1995, Gaussian, Inc.),
 the Gaussian 92(TM) system (copyright 1992, Gaussian, Inc.),
 the Gaussian 90(TM) system (copyright 1990, Gaussian, Inc.),
 the Gaussian 88(TM) system (copyright 1988, Gaussian, Inc.),
 the Gaussian 86(TM) system (copyright 1986, Carnegie Mellon
 University), and the Gaussian 82(TM) system (copyright 1983,
 Carnegie Mellon University). Gaussian is a federally registered
 trademark of Gaussian, Inc.
  
 This software contains proprietary and confidential information,
 including trade secrets, belonging to Gaussian, Inc.
  
 This software is provided under written license and may be
 used, copied, transmitted, or stored only in accord with that
 written license.
  
 The following legend is applicable only to US Government
 contracts under FAR:
  
                    RESTRICTED RIGHTS LEGEND
  
 Use, reproduction and disclosure by the US Government is
 subject to restrictions as set forth in subparagraphs (a)
 and (c) of the Commercial Computer Software - Restricted
 Rights clause in FAR 52.227-19.
  
 Gaussian, Inc.
 340 Quinnipiac St., Bldg. 40, Wallingford CT 06492
  
  
 ---------------------------------------------------------------
 Warning -- This program may not be used in any manner that
 competes with the business of Gaussian, Inc. or will provide
 assistance to any competitor of Gaussian, Inc.  The licensee
 of this program is prohibited from giving any competitor of
 Gaussian, Inc. access to this program.  By using this program,
 the user acknowledges that Gaussian, Inc. is engaged in the
 business of creating and licensing software in the field of
 computational chemistry and represents and warrants to the
 licensee that it is not a competitor of Gaussian, Inc. and that
 it will not use this program in any manner prohibited above.
 ---------------------------------------------------------------
  

 Cite this work as:
 Gaussian 16, Revision A.03,
 M. J. Frisch, G. W. Trucks, H. B. Schlegel, G. E. Scuseria, 
 M. A. Robb, J. R. Cheeseman, G. Scalmani, V. Barone, 
 G. A. Petersson, H. Nakatsuji, X. Li, M. Caricato, A. V. Marenich, 
 J. Bloino, B. G. Janesko, R. Gomperts, B. Mennucci, H. P. Hratchian, 
 J. V. Ortiz, A. F. Izmaylov, J. L. Sonnenberg, D. Williams-Young, 
 F. Ding, F. Lipparini, F. Egidi, J. Goings, B. Peng, A. Petrone, 
 T. Henderson, D. Ranasinghe, V. G. Zakrzewski, J. Gao, N. Rega, 
 G. Zheng, W. Liang, M. Hada, M. Ehara, K. Toyota, R. Fukuda, 
 J. Hasegawa, M. Ishida, T. Nakajima, Y. Honda, O. Kitao, H. Nakai, 
 T. Vreven, K. Throssell, J. A. Montgomery, Jr., J. E. Peralta, 
 F. Ogliaro, M. J. Bearpark, J. J. Heyd, E. N. Brothers, K. N. Kudin, 
 V. N. Staroverov, T. A. Keith, R. Kobayashi, J. Normand, 
 K. Raghavachari, A. P. Rendell, J. C. Burant, S. S. Iyengar, 
 J. Tomasi, M. Cossi, J. M. Millam, M. Klene, C. Adamo, R. Cammi, 
 J. W. Ochterski, R. L. Martin, K. Morokuma, O. Farkas, 
 J. B. Foresman, and D. J. Fox, Gaussian, Inc., Wallingford CT, 2016.
 
 ******************************************
 Gaussian 16:  ES64L-G16RevA.03 25-Dec-2016
                29-Apr-2022 
 ******************************************
 %nproc=24
 Will use up to   24 processors via shared memory.
 %mem=50gb
 --------------------
 #p ZINDO=(nstates=5)
 --------------------
 1/38=1,172=1/1;
 2/12=2,17=6,18=5,40=1/2;
 3/5=2,25=1,41=400000/1,2,3,8;
 4/5=3,35=1/1;
 5/5=2,35=1,38=5/2;
 8/6=1,108=5/1;
 9/41=5,42=1,49=10/14;
 6/7=2,8=2,9=2,10=2/1;
 99/5=1,9=1/99;
 Leave Link    1 at Fri Apr 29 05:24:24 2022, MaxMem=  6710886400 cpu:               0.7 elap:               0.0
 (Enter /sw/apps/gaussian-16.0/g16/l101.exe)
 -----------------------------
 step_1851_chromophore_6 ZINDO
 -----------------------------
 Symbolic Z-matrix:
 Charge =  0 Multiplicity = 1
 Mg                    17.621   -1.816     27.677 
 C                     16.915    0.374     30.292 
 C                     19.593   -3.663     29.977 
 C                     19.278   -3.498     25.161 
 C                     16.542    0.668     25.365 
 N                     18.195   -1.638     29.814 
 C                     17.718   -0.709     30.676 
 C                     18.137   -0.942     32.086 
 C                     19.214   -2.109     31.972 
 C                     18.995   -2.542     30.502 
 C                     20.709   -1.661     32.31 
 C                     16.847   -1.265     32.966 
 C                     16.768   -0.611     34.379 
 C                     18.033   -0.1       35.075 
 O                     18.302    1.072     35.303 
 O                     18.883   -1.117     35.369 
 N                     18.93    -3.643     27.588 
 C                     19.545   -4.213     28.667 
 C                     20.231   -5.431     28.147 
 C                     20.046   -5.447     26.672 
 C                     19.342   -4.156     26.409 
 C                     20.915   -6.436     29.062 
 C                     20.422   -6.435     25.569 
 O                     20.065   -6.351     24.377 
 C                     21.258   -7.622     25.937 
 N                     17.949   -1.398     25.594 
 C                     18.638   -2.309     24.77 
 C                     18.526   -1.899     23.374 
 C                     17.402   -0.789     23.375 
 C                     17.252   -0.437     24.873 
 C                     19.845   -1.45      22.753 
 C                     16.026   -1.128     22.787 
 C                     15.416    0.092     22.078 
 N                     16.684    0.015     27.781 
 C                     16.259    0.857     26.735 
 C                     15.493    1.971     27.369 
 C                     15.81     1.812     28.754 
 C                     16.48     0.596     28.959 
 C                     14.619    3.119     26.808 
 C                     15.531    2.425     30.045 
 O                     14.928    3.48      30.3 
 C                     16.237    1.5       31.091 
 C                     17.183    2.375     31.966 
 O                     18.374    2.415     31.906 
 O                     16.405    2.946     32.97 
 C                     17.164    3.76      33.912 
 C                     20.243   -0.743     35.851 
 C                     20.341   -0.362     37.272 
 C                     21.377   -0.591     38.115 
 C                     22.713   -1.174     37.66 
 C                     21.317   -0.469     39.659 
 C                     20.572   -1.587     40.414 
 C                     21.461   -2.736     40.983 
 C                     21.003   -4.119     40.655 
 C                     19.524   -4.298     41.172 
 C                     21.953   -5.158     41.239 
 C                     23.242   -5.36      40.321 
 C                     23.462   -6.842     39.87 
 C                     24.898   -7.502     40.197 
 C                     25.347   -8.342     38.998 
 C                     24.705   -8.327     41.537 
 C                     25.613   -7.773     42.67 
 C                     27.042   -8.372     42.882 
 C                     27.069   -9.468     43.98 
 C                     27.738   -10.674    43.376 
 C                     27.678   -9.005     45.357 
 H                     20.318   -4.119     30.654 
 H                     19.613   -3.964     24.233 
 H                     16.006    1.231     24.598 
 H                     18.576   -0.014     32.451 
 H                     19.035   -2.977     32.607 
 H                     20.687   -0.644     32.702 
 H                     21.306   -1.668     31.398 
 H                     21.165   -2.338     33.033 
 H                     16.847   -2.355     32.98 
 H                     15.909   -1.011     32.473 
 H                     16.349   -1.328     35.085 
 H                     16.073    0.224     34.293 
 H                     21.97    -6.328     28.814 
 H                     20.426   -7.404     28.948 
 H                     20.797   -6.117     30.098 
 H                     22.175   -7.193     26.339 
 H                     21.455   -8.123     24.989 
 H                     20.792   -8.304     26.649 
 H                     18.167   -2.816     22.906 
 H                     17.784    0.129     22.928 
 H                     20.72    -1.817     23.291 
 H                     19.881   -0.361     22.719 
 H                     19.891   -1.977     21.8 
 H                     15.345   -1.441     23.578 
 H                     16.23    -1.961     22.114 
 H                     14.609    0.457     22.714 
 H                     15.021   -0.081     21.077 
 H                     16.096    0.935     21.954 
 H                     14.896    3.235     25.76 
 H                     14.738    4.021     27.409 
 H                     13.565    2.845     26.777 
 H                     15.396    1.098     31.657 
 H                     16.582    4.179     34.733 
 H                     17.644    4.581     33.379 
 H                     17.943    3.258     34.486 
 H                     20.66     0.127     35.343 
 H                     20.903   -1.595     35.684 
 H                     19.435   -0.074     37.804 
 H                     22.863   -2.074     38.256 
 H                     23.454   -0.46      38.02 
 H                     22.797   -1.216     36.574 
 H                     20.885    0.503     39.896 
 H                     22.277   -0.327     40.155 
 H                     19.873   -1.915     39.645 
 H                     20.086   -1.161     41.292 
 H                     21.417   -2.616     42.066 
 H                     22.503   -2.554     40.721 
 H                     21.023   -4.077     39.566 
 H                     18.829   -4.079     40.362 
 H                     19.461   -3.852     42.165 
 H                     19.488   -5.377     41.321 
 H                     21.41    -6.058     41.528 
 H                     22.282   -4.758     42.199 
 H                     24.146   -5.023     40.828 
 H                     23.229   -4.742     39.423 
 H                     23.296   -6.908     38.795 
 H                     22.764   -7.604     40.216 
 H                     25.651   -6.726     40.333 
 H                     26.155   -7.833     38.472 
 H                     24.505   -8.579     38.348 
 H                     25.662   -9.373     39.164 
 H                     24.929   -9.379     41.361 
 H                     23.704   -8.294     41.968 
 H                     24.971   -7.778     43.551 
 H                     25.842   -6.74      42.405 
 H                     27.781   -7.605     43.116 
 H                     27.318   -8.738     41.893 
 H                     26.023   -9.769     44.041 
 H                     28.191   -11.31     44.137 
 H                     28.498   -10.312    42.683 
 H                     27.089   -11.402    42.891 
 H                     27.905   -7.941     45.424 
 H                     28.574   -9.577     45.595 
 H                     27.019   -9.312     46.169 
 
 ITRead=  0  0  0  0  0  0  0  0  0  0  0  0  0  0  0  0  0  0  0  0
 ITRead=  0  0  0  0  0  0  0  0  0  0  0  0  0  0  0  0  0  0  0  0
 ITRead=  0  0  0  0  0  0  0  0  0  0  0  0  0  0  0  0  0  0  0  0
 ITRead=  0  0  0  0  0  0  0  0  0  0  0  0  0  0  0  0  0  0  0  0
 ITRead=  0  0  0  0  0  0  0  0  0  0  0  0  0  0  0  0  0  0  0  0
 ITRead=  0  0  0  0  0  0  0  0  0  0  0  0  0  0  0  0  0  0  0  0
 ITRead=  0  0  0  0  0  0  0  0  0  0  0  0  0  0  0  0  0  0  0  0
 MicOpt= -1 -1 -1 -1 -1 -1 -1 -1 -1 -1 -1 -1 -1 -1 -1 -1 -1 -1 -1 -1
 MicOpt= -1 -1 -1 -1 -1 -1 -1 -1 -1 -1 -1 -1 -1 -1 -1 -1 -1 -1 -1 -1
 MicOpt= -1 -1 -1 -1 -1 -1 -1 -1 -1 -1 -1 -1 -1 -1 -1 -1 -1 -1 -1 -1
 MicOpt= -1 -1 -1 -1 -1 -1 -1 -1 -1 -1 -1 -1 -1 -1 -1 -1 -1 -1 -1 -1
 MicOpt= -1 -1 -1 -1 -1 -1 -1 -1 -1 -1 -1 -1 -1 -1 -1 -1 -1 -1 -1 -1
 MicOpt= -1 -1 -1 -1 -1 -1 -1 -1 -1 -1 -1 -1 -1 -1 -1 -1 -1 -1 -1 -1
 MicOpt= -1 -1 -1 -1 -1 -1 -1 -1 -1 -1 -1 -1 -1 -1 -1 -1 -1 -1 -1 -1
 NAtoms=    140 NQM=      140 NQMF=       0 NMMI=      0 NMMIF=      0
                NMic=       0 NMicF=      0.
                    Isotopes and Nuclear Properties:
 (Nuclear quadrupole moments (NQMom) in fm**2, nuclear magnetic moments (NMagM)
  in nuclear magnetons)

  Atom         1           2           3           4           5           6           7           8           9          10
 IAtWgt=          24          12          12          12          12          14          12          12          12          12
 AtmWgt=  23.9850450  12.0000000  12.0000000  12.0000000  12.0000000  14.0030740  12.0000000  12.0000000  12.0000000  12.0000000
 NucSpn=           0           0           0           0           0           2           0           0           0           0
 AtZEff=  -0.0000000  -0.0000000  -0.0000000  -0.0000000  -0.0000000  -0.0000000  -0.0000000  -0.0000000  -0.0000000  -0.0000000
 NQMom=    0.0000000   0.0000000   0.0000000   0.0000000   0.0000000   2.0440000   0.0000000   0.0000000   0.0000000   0.0000000
 NMagM=    0.0000000   0.0000000   0.0000000   0.0000000   0.0000000   0.4037610   0.0000000   0.0000000   0.0000000   0.0000000
 AtZNuc=  12.0000000   6.0000000   6.0000000   6.0000000   6.0000000   7.0000000   6.0000000   6.0000000   6.0000000   6.0000000

  Atom        11          12          13          14          15          16          17          18          19          20
 IAtWgt=          12          12          12          12          16          16          14          12          12          12
 AtmWgt=  12.0000000  12.0000000  12.0000000  12.0000000  15.9949146  15.9949146  14.0030740  12.0000000  12.0000000  12.0000000
 NucSpn=           0           0           0           0           0           0           2           0           0           0
 AtZEff=  -0.0000000  -0.0000000  -0.0000000  -0.0000000  -0.0000000  -0.0000000  -0.0000000  -0.0000000  -0.0000000  -0.0000000
 NQMom=    0.0000000   0.0000000   0.0000000   0.0000000   0.0000000   0.0000000   2.0440000   0.0000000   0.0000000   0.0000000
 NMagM=    0.0000000   0.0000000   0.0000000   0.0000000   0.0000000   0.0000000   0.4037610   0.0000000   0.0000000   0.0000000
 AtZNuc=   6.0000000   6.0000000   6.0000000   6.0000000   8.0000000   8.0000000   7.0000000   6.0000000   6.0000000   6.0000000

  Atom        21          22          23          24          25          26          27          28          29          30
 IAtWgt=          12          12          12          16          12          14          12          12          12          12
 AtmWgt=  12.0000000  12.0000000  12.0000000  15.9949146  12.0000000  14.0030740  12.0000000  12.0000000  12.0000000  12.0000000
 NucSpn=           0           0           0           0           0           2           0           0           0           0
 AtZEff=  -0.0000000  -0.0000000  -0.0000000  -0.0000000  -0.0000000  -0.0000000  -0.0000000  -0.0000000  -0.0000000  -0.0000000
 NQMom=    0.0000000   0.0000000   0.0000000   0.0000000   0.0000000   2.0440000   0.0000000   0.0000000   0.0000000   0.0000000
 NMagM=    0.0000000   0.0000000   0.0000000   0.0000000   0.0000000   0.4037610   0.0000000   0.0000000   0.0000000   0.0000000
 AtZNuc=   6.0000000   6.0000000   6.0000000   8.0000000   6.0000000   7.0000000   6.0000000   6.0000000   6.0000000   6.0000000

  Atom        31          32          33          34          35          36          37          38          39          40
 IAtWgt=          12          12          12          14          12          12          12          12          12          12
 AtmWgt=  12.0000000  12.0000000  12.0000000  14.0030740  12.0000000  12.0000000  12.0000000  12.0000000  12.0000000  12.0000000
 NucSpn=           0           0           0           2           0           0           0           0           0           0
 AtZEff=  -0.0000000  -0.0000000  -0.0000000  -0.0000000  -0.0000000  -0.0000000  -0.0000000  -0.0000000  -0.0000000  -0.0000000
 NQMom=    0.0000000   0.0000000   0.0000000   2.0440000   0.0000000   0.0000000   0.0000000   0.0000000   0.0000000   0.0000000
 NMagM=    0.0000000   0.0000000   0.0000000   0.4037610   0.0000000   0.0000000   0.0000000   0.0000000   0.0000000   0.0000000
 AtZNuc=   6.0000000   6.0000000   6.0000000   7.0000000   6.0000000   6.0000000   6.0000000   6.0000000   6.0000000   6.0000000

  Atom        41          42          43          44          45          46          47          48          49          50
 IAtWgt=          16          12          12          16          16          12          12          12          12          12
 AtmWgt=  15.9949146  12.0000000  12.0000000  15.9949146  15.9949146  12.0000000  12.0000000  12.0000000  12.0000000  12.0000000
 NucSpn=           0           0           0           0           0           0           0           0           0           0
 AtZEff=  -0.0000000  -0.0000000  -0.0000000  -0.0000000  -0.0000000  -0.0000000  -0.0000000  -0.0000000  -0.0000000  -0.0000000
 NQMom=    0.0000000   0.0000000   0.0000000   0.0000000   0.0000000   0.0000000   0.0000000   0.0000000   0.0000000   0.0000000
 NMagM=    0.0000000   0.0000000   0.0000000   0.0000000   0.0000000   0.0000000   0.0000000   0.0000000   0.0000000   0.0000000
 AtZNuc=   8.0000000   6.0000000   6.0000000   8.0000000   8.0000000   6.0000000   6.0000000   6.0000000   6.0000000   6.0000000

  Atom        51          52          53          54          55          56          57          58          59          60
 IAtWgt=          12          12          12          12          12          12          12          12          12          12
 AtmWgt=  12.0000000  12.0000000  12.0000000  12.0000000  12.0000000  12.0000000  12.0000000  12.0000000  12.0000000  12.0000000
 NucSpn=           0           0           0           0           0           0           0           0           0           0
 AtZEff=  -0.0000000  -0.0000000  -0.0000000  -0.0000000  -0.0000000  -0.0000000  -0.0000000  -0.0000000  -0.0000000  -0.0000000
 NQMom=    0.0000000   0.0000000   0.0000000   0.0000000   0.0000000   0.0000000   0.0000000   0.0000000   0.0000000   0.0000000
 NMagM=    0.0000000   0.0000000   0.0000000   0.0000000   0.0000000   0.0000000   0.0000000   0.0000000   0.0000000   0.0000000
 AtZNuc=   6.0000000   6.0000000   6.0000000   6.0000000   6.0000000   6.0000000   6.0000000   6.0000000   6.0000000   6.0000000

  Atom        61          62          63          64          65          66          67          68          69          70
 IAtWgt=          12          12          12          12          12          12           1           1           1           1
 AtmWgt=  12.0000000  12.0000000  12.0000000  12.0000000  12.0000000  12.0000000   1.0078250   1.0078250   1.0078250   1.0078250
 NucSpn=           0           0           0           0           0           0           1           1           1           1
 AtZEff=  -0.0000000  -0.0000000  -0.0000000  -0.0000000  -0.0000000  -0.0000000  -0.0000000  -0.0000000  -0.0000000  -0.0000000
 NQMom=    0.0000000   0.0000000   0.0000000   0.0000000   0.0000000   0.0000000   0.0000000   0.0000000   0.0000000   0.0000000
 NMagM=    0.0000000   0.0000000   0.0000000   0.0000000   0.0000000   0.0000000   2.7928460   2.7928460   2.7928460   2.7928460
 AtZNuc=   6.0000000   6.0000000   6.0000000   6.0000000   6.0000000   6.0000000   1.0000000   1.0000000   1.0000000   1.0000000

  Atom        71          72          73          74          75          76          77          78          79          80
 IAtWgt=           1           1           1           1           1           1           1           1           1           1
 AtmWgt=   1.0078250   1.0078250   1.0078250   1.0078250   1.0078250   1.0078250   1.0078250   1.0078250   1.0078250   1.0078250
 NucSpn=           1           1           1           1           1           1           1           1           1           1
 AtZEff=  -0.0000000  -0.0000000  -0.0000000  -0.0000000  -0.0000000  -0.0000000  -0.0000000  -0.0000000  -0.0000000  -0.0000000
 NQMom=    0.0000000   0.0000000   0.0000000   0.0000000   0.0000000   0.0000000   0.0000000   0.0000000   0.0000000   0.0000000
 NMagM=    2.7928460   2.7928460   2.7928460   2.7928460   2.7928460   2.7928460   2.7928460   2.7928460   2.7928460   2.7928460
 AtZNuc=   1.0000000   1.0000000   1.0000000   1.0000000   1.0000000   1.0000000   1.0000000   1.0000000   1.0000000   1.0000000

  Atom        81          82          83          84          85          86          87          88          89          90
 IAtWgt=           1           1           1           1           1           1           1           1           1           1
 AtmWgt=   1.0078250   1.0078250   1.0078250   1.0078250   1.0078250   1.0078250   1.0078250   1.0078250   1.0078250   1.0078250
 NucSpn=           1           1           1           1           1           1           1           1           1           1
 AtZEff=  -0.0000000  -0.0000000  -0.0000000  -0.0000000  -0.0000000  -0.0000000  -0.0000000  -0.0000000  -0.0000000  -0.0000000
 NQMom=    0.0000000   0.0000000   0.0000000   0.0000000   0.0000000   0.0000000   0.0000000   0.0000000   0.0000000   0.0000000
 NMagM=    2.7928460   2.7928460   2.7928460   2.7928460   2.7928460   2.7928460   2.7928460   2.7928460   2.7928460   2.7928460
 AtZNuc=   1.0000000   1.0000000   1.0000000   1.0000000   1.0000000   1.0000000   1.0000000   1.0000000   1.0000000   1.0000000

  Atom        91          92          93          94          95          96          97          98          99         100
 IAtWgt=           1           1           1           1           1           1           1           1           1           1
 AtmWgt=   1.0078250   1.0078250   1.0078250   1.0078250   1.0078250   1.0078250   1.0078250   1.0078250   1.0078250   1.0078250
 NucSpn=           1           1           1           1           1           1           1           1           1           1
 AtZEff=  -0.0000000  -0.0000000  -0.0000000  -0.0000000  -0.0000000  -0.0000000  -0.0000000  -0.0000000  -0.0000000  -0.0000000
 NQMom=    0.0000000   0.0000000   0.0000000   0.0000000   0.0000000   0.0000000   0.0000000   0.0000000   0.0000000   0.0000000
 NMagM=    2.7928460   2.7928460   2.7928460   2.7928460   2.7928460   2.7928460   2.7928460   2.7928460   2.7928460   2.7928460
 AtZNuc=   1.0000000   1.0000000   1.0000000   1.0000000   1.0000000   1.0000000   1.0000000   1.0000000   1.0000000   1.0000000

  Atom       101         102         103         104         105         106         107         108         109         110
 IAtWgt=           1           1           1           1           1           1           1           1           1           1
 AtmWgt=   1.0078250   1.0078250   1.0078250   1.0078250   1.0078250   1.0078250   1.0078250   1.0078250   1.0078250   1.0078250
 NucSpn=           1           1           1           1           1           1           1           1           1           1
 AtZEff=  -0.0000000  -0.0000000  -0.0000000  -0.0000000  -0.0000000  -0.0000000  -0.0000000  -0.0000000  -0.0000000  -0.0000000
 NQMom=    0.0000000   0.0000000   0.0000000   0.0000000   0.0000000   0.0000000   0.0000000   0.0000000   0.0000000   0.0000000
 NMagM=    2.7928460   2.7928460   2.7928460   2.7928460   2.7928460   2.7928460   2.7928460   2.7928460   2.7928460   2.7928460
 AtZNuc=   1.0000000   1.0000000   1.0000000   1.0000000   1.0000000   1.0000000   1.0000000   1.0000000   1.0000000   1.0000000

  Atom       111         112         113         114         115         116         117         118         119         120
 IAtWgt=           1           1           1           1           1           1           1           1           1           1
 AtmWgt=   1.0078250   1.0078250   1.0078250   1.0078250   1.0078250   1.0078250   1.0078250   1.0078250   1.0078250   1.0078250
 NucSpn=           1           1           1           1           1           1           1           1           1           1
 AtZEff=  -0.0000000  -0.0000000  -0.0000000  -0.0000000  -0.0000000  -0.0000000  -0.0000000  -0.0000000  -0.0000000  -0.0000000
 NQMom=    0.0000000   0.0000000   0.0000000   0.0000000   0.0000000   0.0000000   0.0000000   0.0000000   0.0000000   0.0000000
 NMagM=    2.7928460   2.7928460   2.7928460   2.7928460   2.7928460   2.7928460   2.7928460   2.7928460   2.7928460   2.7928460
 AtZNuc=   1.0000000   1.0000000   1.0000000   1.0000000   1.0000000   1.0000000   1.0000000   1.0000000   1.0000000   1.0000000

  Atom       121         122         123         124         125         126         127         128         129         130
 IAtWgt=           1           1           1           1           1           1           1           1           1           1
 AtmWgt=   1.0078250   1.0078250   1.0078250   1.0078250   1.0078250   1.0078250   1.0078250   1.0078250   1.0078250   1.0078250
 NucSpn=           1           1           1           1           1           1           1           1           1           1
 AtZEff=  -0.0000000  -0.0000000  -0.0000000  -0.0000000  -0.0000000  -0.0000000  -0.0000000  -0.0000000  -0.0000000  -0.0000000
 NQMom=    0.0000000   0.0000000   0.0000000   0.0000000   0.0000000   0.0000000   0.0000000   0.0000000   0.0000000   0.0000000
 NMagM=    2.7928460   2.7928460   2.7928460   2.7928460   2.7928460   2.7928460   2.7928460   2.7928460   2.7928460   2.7928460
 AtZNuc=   1.0000000   1.0000000   1.0000000   1.0000000   1.0000000   1.0000000   1.0000000   1.0000000   1.0000000   1.0000000

  Atom       131         132         133         134         135         136         137         138         139         140
 IAtWgt=           1           1           1           1           1           1           1           1           1           1
 AtmWgt=   1.0078250   1.0078250   1.0078250   1.0078250   1.0078250   1.0078250   1.0078250   1.0078250   1.0078250   1.0078250
 NucSpn=           1           1           1           1           1           1           1           1           1           1
 AtZEff=  -0.0000000  -0.0000000  -0.0000000  -0.0000000  -0.0000000  -0.0000000  -0.0000000  -0.0000000  -0.0000000  -0.0000000
 NQMom=    0.0000000   0.0000000   0.0000000   0.0000000   0.0000000   0.0000000   0.0000000   0.0000000   0.0000000   0.0000000
 NMagM=    2.7928460   2.7928460   2.7928460   2.7928460   2.7928460   2.7928460   2.7928460   2.7928460   2.7928460   2.7928460
 AtZNuc=   1.0000000   1.0000000   1.0000000   1.0000000   1.0000000   1.0000000   1.0000000   1.0000000   1.0000000   1.0000000
 Leave Link  101 at Fri Apr 29 05:24:24 2022, MaxMem=  6710886400 cpu:               3.4 elap:               0.2
 (Enter /sw/apps/gaussian-16.0/g16/l202.exe)
 Stoichiometry    C55H74MgN4O6
 Framework group  C1[X(C55H74MgN4O6)]
 Deg. of freedom   414
 Full point group                 C1      NOp   1
 Largest Abelian subgroup         C1      NOp   1
 Largest concise Abelian subgroup C1      NOp   1
                         Standard orientation:                         
 ---------------------------------------------------------------------
 Center     Atomic      Atomic             Coordinates (Angstroms)
 Number     Number       Type             X           Y           Z
 ---------------------------------------------------------------------
      1         12           0       -5.237449    0.992824   -0.528785
      2          6           0       -3.971767   -2.248410   -0.370011
      3          6           0       -1.884659    2.134423   -0.314904
      4          6           0       -6.205444    4.185274    0.352283
      5          6           0       -8.452492   -0.268204    0.339058
      6          7           0       -3.229354    0.067273   -0.331714
      7          6           0       -2.975373   -1.262334   -0.367131
      8          6           0       -1.521716   -1.584924   -0.394807
      9          6           0       -0.818375   -0.182053   -0.126337
     10          6           0       -2.030229    0.767719   -0.286625
     11          6           0       -0.080678   -0.074568    1.285833
     12          6           0       -1.170761   -2.288556   -1.782093
     13          6           0       -0.196894   -3.505110   -1.736190
     14          6           0        0.737571   -3.712895   -0.540630
     15          8           0        0.662883   -4.619172    0.278523
     16          8           0        1.653881   -2.715422   -0.447629
     17          7           0       -4.208459    2.990681   -0.433503
     18          6           0       -2.853602    3.168659   -0.426306
     19          6           0       -2.637719    4.644403   -0.436030
     20          6           0       -3.974637    5.287552   -0.340561
     21          6           0       -4.894735    4.123170   -0.169971
     22          6           0       -1.256668    5.266437   -0.580521
     23          6           0       -4.456893    6.736736   -0.378322
     24          8           0       -5.650540    7.095824   -0.418703
     25          6           0       -3.427745    7.824658   -0.402191
     26          7           0       -7.034265    1.802783    0.329481
     27          6           0       -7.177526    3.187662    0.542093
     28          6           0       -8.554720    3.493036    0.915647
     29          6           0       -9.355512    2.169105    0.597189
     30          6           0       -8.239399    1.116477    0.405681
     31          6           0       -8.711947    3.986864    2.350365
     32          6           0      -10.296310    2.146096   -0.614592
     33          6           0      -11.540078    1.289277   -0.328091
     34          7           0       -6.107739   -0.861902   -0.319185
     35          6           0       -7.446622   -1.188052   -0.028115
     36          6           0       -7.562593   -2.670869   -0.160446
     37          6           0       -6.194588   -3.080869   -0.227216
     38          6           0       -5.361968   -1.960807   -0.374819
     39          6           0       -8.760249   -3.651735   -0.155495
     40          6           0       -5.391558   -4.289662   -0.346599
     41          8           0       -5.750140   -5.477873   -0.311486
     42          6           0       -3.914858   -3.783325   -0.452226
     43          6           0       -3.069679   -4.490460    0.648591
     44          8           0       -2.663264   -4.001496    1.658256
     45          8           0       -2.697332   -5.734937    0.146622
     46          6           0       -1.848819   -6.504056    1.049131
     47          6           0        2.485897   -2.675314    0.788470
     48          6           0        3.624491   -3.611217    0.829651
     49          6           0        4.833033   -3.410649    1.408948
     50          6           0        5.157470   -2.189913    2.267059
     51          6           0        6.098327   -4.270033    1.158125
     52          6           0        6.813092   -4.073107   -0.192913
     53          6           0        8.023882   -3.089116   -0.187487
     54          6           0        8.005721   -2.049392   -1.259252
     55          6           0        7.923320   -2.768518   -2.660266
     56          6           0        9.218132   -1.132648   -1.146489
     57          6           0        9.003054   -0.004506   -0.039201
     58          6           0        9.179012    1.450490   -0.587059
     59          6           0       10.240512    2.397261    0.175482
     60          6           0        9.656901    3.807917    0.294856
     61          6           0       11.582500    2.314436   -0.664568
     62          6           0       12.737917    1.716627    0.185552
     63          6           0       13.678085    2.668381    0.995512
     64          6           0       14.986086    3.002230    0.230510
     65          6           0       15.119121    4.501933    0.227946
     66          6           0       16.262479    2.234641    0.743351
     67          1           0       -0.868834    2.462155   -0.085601
     68          1           0       -6.721358    5.129279    0.534637
     69          1           0       -9.505452   -0.557737    0.338735
     70          1           0       -1.332801   -2.297741    0.407273
     71          1           0       -0.063514    0.112154   -0.855938
     72          1           0       -0.079451   -1.059398    1.753321
     73          1           0       -0.626959    0.614242    1.930285
     74          1           0        0.939488    0.291377    1.166082
     75          1           0       -0.807916   -1.450867   -2.377841
     76          1           0       -2.047501   -2.635849   -2.328100
     77          1           0        0.475557   -3.460894   -2.592893
     78          1           0       -0.814405   -4.397372   -1.837149
     79          1           0       -1.087644    5.736753    0.387170
     80          1           0       -1.236548    5.869301   -1.488977
     81          1           0       -0.514734    4.474035   -0.683541
     82          1           0       -2.857408    7.677806    0.514152
     83          1           0       -4.004165    8.748449   -0.348676
     84          1           0       -2.779980    7.819500   -1.279458
     85          1           0       -8.804154    4.279698    0.203089
     86          1           0       -9.884468    1.829765    1.487982
     87          1           0       -7.785036    4.374143    2.775347
     88          1           0       -9.077442    3.174384    2.978586
     89          1           0       -9.344003    4.870919    2.266666
     90          1           0       -9.784348    1.728543   -1.481168
     91          1           0      -10.526534    3.198145   -0.783780
     92          1           0      -11.429484    0.368827   -0.902121
     93          1           0      -12.501724    1.740228   -0.572703
     94          1           0      -11.649198    0.976107    0.710390
     95          1           0       -9.589639   -3.124991    0.316885
     96          1           0       -8.486462   -4.589512    0.328841
     97          1           0       -9.115472   -3.859301   -1.164299
     98          1           0       -3.631079   -4.090063   -1.459510
     99          1           0       -1.507489   -7.462226    0.657047
    100          1           0       -2.381793   -6.686610    1.982481
    101          1           0       -0.885447   -6.069045    1.315591
    102          1           0        1.933751   -2.933794    1.692448
    103          1           0        2.877389   -1.663039    0.895363
    104          1           0        3.631254   -4.462993    0.150507
    105          1           0        6.019161   -1.716536    1.796826
    106          1           0        5.530364   -2.610002    3.201379
    107          1           0        4.269930   -1.602152    2.501632
    108          1           0        5.818583   -5.314793    1.291526
    109          1           0        6.858899   -4.221878    1.937222
    110          1           0        5.980719   -3.738667   -0.811663
    111          1           0        7.239162   -5.024431   -0.512291
    112          1           0        8.899554   -3.719368   -0.346252
    113          1           0        8.151906   -2.674776    0.812246
    114          1           0        7.063260   -1.551660   -1.030962
    115          1           0        6.881213   -2.836524   -2.970869
    116          1           0        8.609135   -3.616009   -2.641553
    117          1           0        8.384529   -2.018910   -3.303004
    118          1           0        9.541712   -0.797914   -2.132196
    119          1           0       10.045354   -1.767018   -0.825365
    120          1           0        9.688190   -0.135782    0.798170
    121          1           0        8.026484   -0.058157    0.442388
    122          1           0        8.209812    1.948467   -0.572639
    123          1           0        9.445930    1.587071   -1.634754
    124          1           0       10.405492    2.041468    1.192278
    125          1           0        9.360049    3.998980    1.326357
    126          1           0        8.841075    3.955842   -0.412377
    127          1           0       10.256068    4.656949   -0.036632
    128          1           0       11.858227    3.306147   -1.022813
    129          1           0       11.546880    1.669438   -1.542953
    130          1           0       13.243599    1.033414   -0.496984
    131          1           0       12.268028    1.137856    0.981783
    132          1           0       13.924734    2.266809    1.978909
    133          1           0       13.054181    3.539825    1.194464
    134          1           0       14.721861    2.774779   -0.802393
    135          1           0       16.157596    4.816663    0.121455
    136          1           0       14.706933    4.867131    1.169022
    137          1           0       14.679573    5.030729   -0.616792
    138          1           0       16.067438    1.471884    1.497191
    139          1           0       17.005584    2.933197    1.126051
    140          1           0       16.799275    1.811446   -0.105549
 ---------------------------------------------------------------------
 Rotational constants (GHZ):           0.0422643           0.0105912           0.0086832
 Leave Link  202 at Fri Apr 29 05:24:24 2022, MaxMem=  6710886400 cpu:               0.2 elap:               0.0
 (Enter /sw/apps/gaussian-16.0/g16/l301.exe)
 Standard basis: VSTO-6G (5D, 7F)
 Ernie: Thresh=  0.10000D-02 Tol=  0.10000D-05 Strict=F.
 There are   338 symmetry adapted cartesian basis functions of A   symmetry.
 There are   338 symmetry adapted basis functions of A   symmetry.
   338 basis functions,  2028 primitive gaussians,   338 cartesian basis functions
   176 alpha electrons      176 beta electrons
       nuclear repulsion energy      4824.0784404852 Hartrees.
 IExCor=    0 DFT=F Ex=HF Corr=None ExCW=0 ScaHFX=  1.000000
 ScaDFX=  1.000000  1.000000  1.000000  1.000000 ScalE2=  1.000000  1.000000
 IRadAn=      5 IRanWt=     -1 IRanGd=            0 ICorTp=0 IEmpDi=  4
 Integral buffers will be    131072 words long.
 Regular integral format.
 Two-electron integral symmetry is turned off.
 Leave Link  301 at Fri Apr 29 05:24:24 2022, MaxMem=  6710886400 cpu:               1.2 elap:               0.1
 (Enter /sw/apps/gaussian-16.0/g16/l302.exe)
 Do NDO integrals.
 NPDir=0 NMtPBC=     1 NCelOv=     1 NCel=       1 NClECP=     1 NCelD=      1
         NCelK=      1 NCelE2=     1 NClLst=     1 CellRange=     0.0.
 One-electron integrals computed using PRISM.
 Generate ZINDO/S integrals.
 NDO Nuclear repulsion=  4338.420253213290 Hartrees.
 NBasis=   338 RedAO= F EigKep=  0.00D+00  NBF=   338
 NBsUse=   338 1.00D-04 EigRej=  0.00D+00 NBFU=   338
 Leave Link  302 at Fri Apr 29 05:24:25 2022, MaxMem=  6710886400 cpu:               8.2 elap:               0.4
 (Enter /sw/apps/gaussian-16.0/g16/l303.exe)
 DipDrv:  MaxL=1.
 DipDrv:  will hold  3 matrices at once.
 Leave Link  303 at Fri Apr 29 05:24:25 2022, MaxMem=  6710886400 cpu:               0.5 elap:               0.0
 (Enter /sw/apps/gaussian-16.0/g16/l308.exe)
 Leave Link  308 at Fri Apr 29 05:24:25 2022, MaxMem=  6710886400 cpu:               5.6 elap:               0.3
 (Enter /sw/apps/gaussian-16.0/g16/l401.exe)
 Simple Huckel Guess.
 JPrj=0 DoOrth=F DoCkMO=F.
 Leave Link  401 at Fri Apr 29 05:24:25 2022, MaxMem=  6710886400 cpu:               2.8 elap:               0.1
 (Enter /sw/apps/gaussian-16.0/g16/l502.exe)
 Two-electron integral symmetry not used.
 Closed shell SCF:
 Using DIIS extrapolation, IDIIS=  1040.
 Overlap will be assumed to be unity.
 NGot=  6710886400 LenX=  6710643598 LenY=  6710528913
 Requested convergence on RMS density matrix=1.00D-08 within 128 cycles.
 Requested convergence on MAX density matrix=1.00D-06.
 Requested convergence on             energy=1.00D-06.
 No special actions if energy rises.
 Fock matrices will be formed incrementally for  20 cycles.

 Cycle   1  Pass 1  IDiag  1:
 E= -471.998129462188    
 DIIS: error= 5.80D-02 at cycle   1 NSaved=   1.
 NSaved= 1 IEnMin= 1 EnMin= -471.998129462188     IErMin= 1 ErrMin= 5.80D-02
 ErrMax= 5.80D-02  0.00D+00 EMaxC= 1.00D-01 BMatC= 8.27D-01 BMatP= 8.27D-01
 IDIUse=3 WtCom= 4.20D-01 WtEn= 5.80D-01
 Coeff-Com:  0.100D+01
 Coeff-En:   0.100D+01
 Coeff:      0.100D+01
 GapD=    2.000 DampG=2.000 DampE=0.500 DampFc=1.0000 IDamp=-1.
 RMSDP=3.99D-03 MaxDP=1.62D-01              OVMax= 0.00D+00

 Cycle   2  Pass 1  IDiag  1:
 RMSU=  3.98D-03    CP:  9.95D-01
 E= -473.818442342857     Delta-E=       -1.820312880669 Rises=F Damp=F
 DIIS: error= 2.09D-02 at cycle   2 NSaved=   2.
 NSaved= 2 IEnMin= 2 EnMin= -473.818442342857     IErMin= 2 ErrMin= 2.09D-02
 ErrMax= 2.09D-02  0.00D+00 EMaxC= 1.00D-01 BMatC= 5.17D-02 BMatP= 8.27D-01
 IDIUse=3 WtCom= 7.91D-01 WtEn= 2.09D-01
 Coeff-Com: -0.732D-01 0.107D+01
 Coeff-En:   0.000D+00 0.100D+01
 Coeff:     -0.579D-01 0.106D+01
 RMSDP=1.11D-03 MaxDP=6.07D-02 DE=-1.82D+00 OVMax= 0.00D+00

 Cycle   3  Pass 1  IDiag  1:
 RMSU=  1.04D-03    CP:  9.93D-01  1.10D+00
 E= -473.920325959650     Delta-E=       -0.101883616792 Rises=F Damp=F
 DIIS: error= 9.43D-03 at cycle   3 NSaved=   3.
 NSaved= 3 IEnMin= 3 EnMin= -473.920325959650     IErMin= 3 ErrMin= 9.43D-03
 ErrMax= 9.43D-03  0.00D+00 EMaxC= 1.00D-01 BMatC= 7.25D-03 BMatP= 5.17D-02
 IDIUse=3 WtCom= 9.06D-01 WtEn= 9.43D-02
 Coeff-Com: -0.682D-01 0.243D+00 0.826D+00
 Coeff-En:   0.000D+00 0.000D+00 0.100D+01
 Coeff:     -0.618D-01 0.220D+00 0.842D+00
 RMSDP=3.69D-04 MaxDP=1.65D-02 DE=-1.02D-01 OVMax= 0.00D+00

 Cycle   4  Pass 1  IDiag  1:
 RMSU=  2.38D-04    CP:  9.93D-01  1.16D+00  9.27D-01
 E= -473.933197544249     Delta-E=       -0.012871584599 Rises=F Damp=F
 DIIS: error= 1.52D-03 at cycle   4 NSaved=   4.
 NSaved= 4 IEnMin= 4 EnMin= -473.933197544249     IErMin= 4 ErrMin= 1.52D-03
 ErrMax= 1.52D-03  0.00D+00 EMaxC= 1.00D-01 BMatC= 3.02D-04 BMatP= 7.25D-03
 IDIUse=3 WtCom= 9.85D-01 WtEn= 1.52D-02
 Coeff-Com:  0.414D-03-0.367D-01 0.240D-01 0.101D+01
 Coeff-En:   0.000D+00 0.000D+00 0.000D+00 0.100D+01
 Coeff:      0.408D-03-0.361D-01 0.237D-01 0.101D+01
 RMSDP=1.30D-04 MaxDP=7.80D-03 DE=-1.29D-02 OVMax= 0.00D+00

 Cycle   5  Pass 1  IDiag  1:
 RMSU=  8.27D-05    CP:  9.93D-01  1.17D+00  1.02D+00  1.08D+00
 E= -473.934232532237     Delta-E=       -0.001034987988 Rises=F Damp=F
 DIIS: error= 6.13D-04 at cycle   5 NSaved=   5.
 NSaved= 5 IEnMin= 5 EnMin= -473.934232532237     IErMin= 5 ErrMin= 6.13D-04
 ErrMax= 6.13D-04  0.00D+00 EMaxC= 1.00D-01 BMatC= 5.88D-05 BMatP= 3.02D-04
 IDIUse=3 WtCom= 9.94D-01 WtEn= 6.13D-03
 Coeff-Com:  0.634D-02-0.260D-01-0.974D-01 0.193D+00 0.924D+00
 Coeff-En:   0.000D+00 0.000D+00 0.000D+00 0.000D+00 0.100D+01
 Coeff:      0.630D-02-0.258D-01-0.968D-01 0.192D+00 0.924D+00
 RMSDP=5.46D-05 MaxDP=2.92D-03 DE=-1.03D-03 OVMax= 0.00D+00

 Cycle   6  Pass 1  IDiag  1:
 RMSU=  2.87D-05    CP:  9.92D-01  1.17D+00  1.04D+00  1.25D+00  1.11D+00
 E= -473.934417509262     Delta-E=       -0.000184977025 Rises=F Damp=F
 DIIS: error= 2.74D-04 at cycle   6 NSaved=   6.
 NSaved= 6 IEnMin= 6 EnMin= -473.934417509262     IErMin= 6 ErrMin= 2.74D-04
 ErrMax= 2.74D-04  0.00D+00 EMaxC= 1.00D-01 BMatC= 6.22D-06 BMatP= 5.88D-05
 IDIUse=3 WtCom= 9.97D-01 WtEn= 2.74D-03
 Coeff-Com: -0.178D-03 0.591D-02-0.145D-01-0.101D+00 0.263D-01 0.108D+01
 Coeff-En:   0.000D+00 0.000D+00 0.000D+00 0.000D+00 0.000D+00 0.100D+01
 Coeff:     -0.178D-03 0.589D-02-0.144D-01-0.100D+00 0.262D-01 0.108D+01
 RMSDP=2.65D-05 MaxDP=1.56D-03 DE=-1.85D-04 OVMax= 0.00D+00

 Cycle   7  Pass 1  IDiag  1:
 RMSU=  1.25D-05    CP:  9.92D-01  1.17D+00  1.05D+00  1.28D+00  1.33D+00
                    CP:  1.33D+00
 E= -473.934447332883     Delta-E=       -0.000029823621 Rises=F Damp=F
 DIIS: error= 7.32D-05 at cycle   7 NSaved=   7.
 NSaved= 7 IEnMin= 7 EnMin= -473.934447332883     IErMin= 7 ErrMin= 7.32D-05
 ErrMax= 7.32D-05  0.00D+00 EMaxC= 1.00D-01 BMatC= 8.22D-07 BMatP= 6.22D-06
 IDIUse=1 WtCom= 1.00D+00 WtEn= 0.00D+00
 Coeff-Com: -0.583D-03 0.260D-02 0.714D-02-0.120D-01-0.101D+00 0.217D-01
 Coeff-Com:  0.108D+01
 Coeff:     -0.583D-03 0.260D-02 0.714D-02-0.120D-01-0.101D+00 0.217D-01
 Coeff:      0.108D+01
 RMSDP=1.44D-05 MaxDP=9.42D-04 DE=-2.98D-05 OVMax= 0.00D+00

 Cycle   8  Pass 1  IDiag  1:
 RMSU=  4.90D-06    CP:  9.92D-01  1.17D+00  1.05D+00  1.29D+00  1.40D+00
                    CP:  1.61D+00  1.67D+00
 E= -473.934454990849     Delta-E=       -0.000007657966 Rises=F Damp=F
 DIIS: error= 3.96D-05 at cycle   8 NSaved=   8.
 NSaved= 8 IEnMin= 8 EnMin= -473.934454990849     IErMin= 8 ErrMin= 3.96D-05
 ErrMax= 3.96D-05  0.00D+00 EMaxC= 1.00D-01 BMatC= 2.87D-07 BMatP= 8.22D-07
 IDIUse=1 WtCom= 1.00D+00 WtEn= 0.00D+00
 Coeff-Com:  0.129D-03-0.145D-02 0.135D-02 0.227D-01-0.614D-02-0.168D+00
 Coeff-Com: -0.166D+00 0.132D+01
 Coeff:      0.129D-03-0.145D-02 0.135D-02 0.227D-01-0.614D-02-0.168D+00
 Coeff:     -0.166D+00 0.132D+01
 RMSDP=1.44D-05 MaxDP=6.45D-04 DE=-7.66D-06 OVMax= 0.00D+00

 Cycle   9  Pass 1  IDiag  1:
 RMSU=  3.92D-06    CP:  9.92D-01  1.17D+00  1.05D+00  1.30D+00  1.46D+00
                    CP:  1.80D+00  2.52D+00  2.01D+00
 E= -473.934459814115     Delta-E=       -0.000004823266 Rises=F Damp=F
 DIIS: error= 3.22D-05 at cycle   9 NSaved=   9.
 NSaved= 9 IEnMin= 9 EnMin= -473.934459814115     IErMin= 9 ErrMin= 3.22D-05
 ErrMax= 3.22D-05  0.00D+00 EMaxC= 1.00D-01 BMatC= 1.82D-07 BMatP= 2.87D-07
 IDIUse=1 WtCom= 1.00D+00 WtEn= 0.00D+00
 Coeff-Com:  0.212D-03-0.104D-02-0.229D-02 0.692D-02 0.282D-01-0.569D-02
 Coeff-Com: -0.467D+00 0.359D+00 0.108D+01
 Coeff:      0.212D-03-0.104D-02-0.229D-02 0.692D-02 0.282D-01-0.569D-02
 Coeff:     -0.467D+00 0.359D+00 0.108D+01
 RMSDP=1.16D-05 MaxDP=5.25D-04 DE=-4.82D-06 OVMax= 0.00D+00

 Cycle  10  Pass 1  IDiag  1:
 RMSU=  2.76D-06    CP:  9.92D-01  1.17D+00  1.05D+00  1.30D+00  1.49D+00
                    CP:  1.93D+00  3.00D+00  3.00D+00  1.87D+00
 E= -473.934462898703     Delta-E=       -0.000003084588 Rises=F Damp=F
 DIIS: error= 2.12D-05 at cycle  10 NSaved=  10.
 NSaved=10 IEnMin=10 EnMin= -473.934462898703     IErMin=10 ErrMin= 2.12D-05
 ErrMax= 2.12D-05  0.00D+00 EMaxC= 1.00D-01 BMatC= 8.95D-08 BMatP= 1.82D-07
 IDIUse=1 WtCom= 1.00D+00 WtEn= 0.00D+00
 Coeff-Com: -0.909D-04 0.761D-03-0.484D-04-0.108D-01-0.166D-02 0.843D-01
 Coeff-Com:  0.732D-01-0.250D+00-0.122D+01 0.232D+01
 Coeff:     -0.909D-04 0.761D-03-0.484D-04-0.108D-01-0.166D-02 0.843D-01
 Coeff:      0.732D-01-0.250D+00-0.122D+01 0.232D+01
 RMSDP=1.83D-05 MaxDP=8.33D-04 DE=-3.08D-06 OVMax= 0.00D+00

 Cycle  11  Pass 1  IDiag  1:
 RMSU=  1.14D-05    CP:  9.92D-01  1.17D+00  1.05D+00  1.30D+00  1.54D+00
                    CP:  2.09D+00  3.00D+00  3.00D+00  3.00D+00  3.00D+00
 E= -473.934466159802     Delta-E=       -0.000003261100 Rises=F Damp=F
 DIIS: error= 1.81D-05 at cycle  11 NSaved=  11.
 NSaved=11 IEnMin=11 EnMin= -473.934466159802     IErMin=11 ErrMin= 1.81D-05
 ErrMax= 1.81D-05  0.00D+00 EMaxC= 1.00D-01 BMatC= 5.74D-08 BMatP= 8.95D-08
 IDIUse=1 WtCom= 1.00D+00 WtEn= 0.00D+00
 Coeff-Com: -0.103D-03 0.478D-03 0.145D-02-0.402D-02-0.135D-01 0.684D-03
 Coeff-Com:  0.185D+00 0.969D-01-0.148D+01 0.831D+00 0.138D+01
 Coeff:     -0.103D-03 0.478D-03 0.145D-02-0.402D-02-0.135D-01 0.684D-03
 Coeff:      0.185D+00 0.969D-01-0.148D+01 0.831D+00 0.138D+01
 RMSDP=1.69D-05 MaxDP=7.53D-04 DE=-3.26D-06 OVMax= 0.00D+00

 Cycle  12  Pass 1  IDiag  1:
 RMSU=  5.35D-06    CP:  9.92D-01  1.17D+00  1.05D+00  1.30D+00  1.59D+00
                    CP:  2.24D+00  3.00D+00  3.00D+00  3.00D+00  3.00D+00
                    CP:  2.31D+00
 E= -473.934467760061     Delta-E=       -0.000001600259 Rises=F Damp=F
 DIIS: error= 7.74D-06 at cycle  12 NSaved=  12.
 NSaved=12 IEnMin=12 EnMin= -473.934467760061     IErMin=12 ErrMin= 7.74D-06
 ErrMax= 7.74D-06  0.00D+00 EMaxC= 1.00D-01 BMatC= 9.68D-09 BMatP= 5.74D-08
 IDIUse=1 WtCom= 1.00D+00 WtEn= 0.00D+00
 Coeff-Com:  0.244D-04-0.280D-03 0.421D-03 0.419D-02-0.122D-02-0.385D-01
 Coeff-Com: -0.159D-01 0.295D+00 0.363D-01-0.583D+00-0.327D-01 0.134D+01
 Coeff:      0.244D-04-0.280D-03 0.421D-03 0.419D-02-0.122D-02-0.385D-01
 Coeff:     -0.159D-01 0.295D+00 0.363D-01-0.583D+00-0.327D-01 0.134D+01
 RMSDP=6.34D-06 MaxDP=2.77D-04 DE=-1.60D-06 OVMax= 0.00D+00

 Cycle  13  Pass 1  IDiag  1:
 RMSU=  9.92D-07    CP:  9.92D-01  1.17D+00  1.05D+00  1.30D+00  1.60D+00
                    CP:  2.28D+00  3.00D+00  3.00D+00  3.00D+00  3.00D+00
                    CP:  2.79D+00  1.46D+00
 E= -473.934467996211     Delta-E=       -0.000000236149 Rises=F Damp=F
 DIIS: error= 3.08D-06 at cycle  13 NSaved=  13.
 NSaved=13 IEnMin=13 EnMin= -473.934467996211     IErMin=13 ErrMin= 3.08D-06
 ErrMax= 3.08D-06  0.00D+00 EMaxC= 1.00D-01 BMatC= 1.79D-09 BMatP= 9.68D-09
 IDIUse=1 WtCom= 1.00D+00 WtEn= 0.00D+00
 Coeff-Com:  0.220D-04-0.128D-03-0.209D-03 0.138D-02 0.271D-02-0.599D-02
 Coeff-Com: -0.413D-01 0.425D-01 0.189D+00-0.155D+00-0.309D+00 0.202D+00
 Coeff-Com:  0.107D+01
 Coeff:      0.220D-04-0.128D-03-0.209D-03 0.138D-02 0.271D-02-0.599D-02
 Coeff:     -0.413D-01 0.425D-01 0.189D+00-0.155D+00-0.309D+00 0.202D+00
 Coeff:      0.107D+01
 RMSDP=2.90D-06 MaxDP=1.31D-04 DE=-2.36D-07 OVMax= 0.00D+00

 Cycle  14  Pass 1  IDiag  1:
 RMSU=  3.17D-07    CP:  9.92D-01  1.17D+00  1.05D+00  1.30D+00  1.61D+00
                    CP:  2.30D+00  3.00D+00  3.00D+00  3.00D+00  3.00D+00
                    CP:  3.00D+00  1.66D+00  1.36D+00
 E= -473.934468030046     Delta-E=       -0.000000033835 Rises=F Damp=F
 DIIS: error= 1.75D-06 at cycle  14 NSaved=  14.
 NSaved=14 IEnMin=14 EnMin= -473.934468030046     IErMin=14 ErrMin= 1.75D-06
 ErrMax= 1.75D-06  0.00D+00 EMaxC= 1.00D-01 BMatC= 2.68D-10 BMatP= 1.79D-09
 IDIUse=1 WtCom= 1.00D+00 WtEn= 0.00D+00
 Coeff-Com: -0.735D-05 0.629D-04-0.578D-04-0.763D-03-0.335D-03 0.727D-02
 Coeff-Com:  0.457D-02-0.421D-01-0.494D-01 0.147D+00 0.187D-01-0.232D+00
 Coeff-Com: -0.747D-01 0.122D+01
 Coeff:     -0.735D-05 0.629D-04-0.578D-04-0.763D-03-0.335D-03 0.727D-02
 Coeff:      0.457D-02-0.421D-01-0.494D-01 0.147D+00 0.187D-01-0.232D+00
 Coeff:     -0.747D-01 0.122D+01
 RMSDP=3.31D-07 MaxDP=1.51D-05 DE=-3.38D-08 OVMax= 0.00D+00

 Cycle  15  Pass 1  IDiag  1:
 RMSU=  1.35D-07    CP:  9.92D-01  1.17D+00  1.05D+00  1.30D+00  1.61D+00
                    CP:  2.30D+00  3.00D+00  3.00D+00  3.00D+00  3.00D+00
                    CP:  3.00D+00  1.68D+00  1.55D+00  1.68D+00
 E= -473.934468033162     Delta-E=       -0.000000003117 Rises=F Damp=F
 DIIS: error= 8.54D-07 at cycle  15 NSaved=  15.
 NSaved=15 IEnMin=15 EnMin= -473.934468033162     IErMin=15 ErrMin= 8.54D-07
 ErrMax= 8.54D-07  0.00D+00 EMaxC= 1.00D-01 BMatC= 9.23D-11 BMatP= 2.68D-10
 IDIUse=1 WtCom= 1.00D+00 WtEn= 0.00D+00
 Coeff-Com: -0.496D-05 0.255D-04 0.640D-04-0.176D-03-0.108D-02 0.145D-02
 Coeff-Com:  0.937D-02-0.189D-02-0.515D-01 0.271D-01 0.660D-01-0.173D-01
 Coeff-Com: -0.245D+00-0.192D+00 0.141D+01
 Coeff:     -0.496D-05 0.255D-04 0.640D-04-0.176D-03-0.108D-02 0.145D-02
 Coeff:      0.937D-02-0.189D-02-0.515D-01 0.271D-01 0.660D-01-0.173D-01
 Coeff:     -0.245D+00-0.192D+00 0.141D+01
 RMSDP=3.48D-07 MaxDP=1.72D-05 DE=-3.12D-09 OVMax= 0.00D+00

 Cycle  16  Pass 1  IDiag  1:
 RMSU=  1.26D-07    CP:  9.92D-01  1.17D+00  1.05D+00  1.30D+00  1.61D+00
                    CP:  2.30D+00  3.00D+00  3.00D+00  3.00D+00  3.00D+00
                    CP:  3.00D+00  1.70D+00  1.68D+00  2.47D+00  1.78D+00
 E= -473.934468034862     Delta-E=       -0.000000001700 Rises=F Damp=F
 DIIS: error= 3.71D-07 at cycle  16 NSaved=  16.
 NSaved=16 IEnMin=16 EnMin= -473.934468034862     IErMin=16 ErrMin= 3.71D-07
 ErrMax= 3.71D-07  0.00D+00 EMaxC= 1.00D-01 BMatC= 3.44D-11 BMatP= 9.23D-11
 IDIUse=1 WtCom= 1.00D+00 WtEn= 0.00D+00
 Coeff-Com:  0.555D-05-0.388D-04-0.356D-05 0.458D-03 0.256D-03-0.270D-02
 Coeff-Com: -0.811D-02 0.201D-01 0.396D-01-0.660D-01-0.385D-01 0.978D-01
 Coeff-Com:  0.152D+00-0.437D+00-0.598D+00 0.184D+01
 Coeff:      0.555D-05-0.388D-04-0.356D-05 0.458D-03 0.256D-03-0.270D-02
 Coeff:     -0.811D-02 0.201D-01 0.396D-01-0.660D-01-0.385D-01 0.978D-01
 Coeff:      0.152D+00-0.437D+00-0.598D+00 0.184D+01
 RMSDP=2.62D-07 MaxDP=1.14D-05 DE=-1.70D-09 OVMax= 0.00D+00

 Cycle  17  Pass 1  IDiag  1:
 RMSU=  8.43D-08    CP:  9.92D-01  1.17D+00  1.05D+00  1.30D+00  1.61D+00
                    CP:  2.30D+00  3.00D+00  3.00D+00  3.00D+00  3.00D+00
                    CP:  3.00D+00  1.71D+00  1.77D+00  2.99D+00  2.88D+00
                    CP:  1.19D+00
 E= -473.934468035608     Delta-E=       -0.000000000746 Rises=F Damp=F
 DIIS: error= 2.06D-07 at cycle  17 NSaved=  17.
 NSaved=17 IEnMin=17 EnMin= -473.934468035608     IErMin=17 ErrMin= 2.06D-07
 ErrMax= 2.06D-07  0.00D+00 EMaxC= 1.00D-01 BMatC= 6.14D-12 BMatP= 3.44D-11
 IDIUse=1 WtCom= 1.00D+00 WtEn= 0.00D+00
 Coeff-Com:  0.106D-05-0.542D-05-0.182D-04 0.530D-04 0.177D-03-0.110D-03
 Coeff-Com: -0.276D-02 0.160D-02 0.106D-01-0.660D-02-0.137D-01 0.486D-03
 Coeff-Com:  0.589D-01 0.482D-01-0.279D+00-0.403D-01 0.122D+01
 Coeff:      0.106D-05-0.542D-05-0.182D-04 0.530D-04 0.177D-03-0.110D-03
 Coeff:     -0.276D-02 0.160D-02 0.106D-01-0.660D-02-0.137D-01 0.486D-03
 Coeff:      0.589D-01 0.482D-01-0.279D+00-0.403D-01 0.122D+01
 RMSDP=9.11D-08 MaxDP=4.13D-06 DE=-7.46D-10 OVMax= 0.00D+00

 Cycle  18  Pass 1  IDiag  1:
 RMSU=  6.10D-08    CP:  9.92D-01  1.17D+00  1.05D+00  1.30D+00  1.61D+00
                    CP:  2.30D+00  3.00D+00  3.00D+00  3.00D+00  3.00D+00
                    CP:  3.00D+00  1.71D+00  1.80D+00  3.00D+00  3.00D+00
                    CP:  1.39D+00  1.43D+00
 E= -473.934468035706     Delta-E=       -0.000000000098 Rises=F Damp=F
 DIIS: error= 1.63D-07 at cycle  18 NSaved=  18.
 NSaved=18 IEnMin=18 EnMin= -473.934468035706     IErMin=18 ErrMin= 1.63D-07
 ErrMax= 1.63D-07  0.00D+00 EMaxC= 1.00D-01 BMatC= 1.71D-12 BMatP= 6.14D-12
 IDIUse=1 WtCom= 1.00D+00 WtEn= 0.00D+00
 Coeff-Com: -0.178D-05 0.123D-04-0.376D-06-0.138D-03-0.940D-04 0.905D-03
 Coeff-Com:  0.215D-02-0.543D-02-0.134D-01 0.203D-01 0.137D-01-0.314D-01
 Coeff-Com: -0.453D-01 0.125D+00 0.192D+00-0.589D+00-0.184D-01 0.135D+01
 Coeff:     -0.178D-05 0.123D-04-0.376D-06-0.138D-03-0.940D-04 0.905D-03
 Coeff:      0.215D-02-0.543D-02-0.134D-01 0.203D-01 0.137D-01-0.314D-01
 Coeff:     -0.453D-01 0.125D+00 0.192D+00-0.589D+00-0.184D-01 0.135D+01
 RMSDP=5.58D-08 MaxDP=2.51D-06 DE=-9.82D-11 OVMax= 0.00D+00

 Cycle  19  Pass 1  IDiag  1:
 RMSU=  1.34D-08    CP:  9.92D-01  1.17D+00  1.05D+00  1.30D+00  1.61D+00
                    CP:  2.30D+00  3.00D+00  3.00D+00  3.00D+00  3.00D+00
                    CP:  3.00D+00  1.71D+00  1.81D+00  3.00D+00  3.00D+00
                    CP:  1.48D+00  1.78D+00  1.68D+00
 E= -473.934468035753     Delta-E=       -0.000000000046 Rises=F Damp=F
 DIIS: error= 1.06D-07 at cycle  19 NSaved=  19.
 NSaved=19 IEnMin=19 EnMin= -473.934468035753     IErMin=19 ErrMin= 1.06D-07
 ErrMax= 1.06D-07  0.00D+00 EMaxC= 1.00D-01 BMatC= 2.24D-13 BMatP= 1.71D-12
 IDIUse=1 WtCom= 1.00D+00 WtEn= 0.00D+00
 Coeff-Com: -0.178D-06 0.982D-06 0.370D-05-0.874D-05-0.364D-04 0.314D-04
 Coeff-Com:  0.389D-03-0.199D-04-0.193D-02 0.954D-03 0.224D-02-0.307D-04
 Coeff-Com: -0.781D-02-0.147D-01 0.483D-01 0.239D-01-0.215D+00-0.516D-01
 Coeff-Com:  0.122D+01
 Coeff:     -0.178D-06 0.982D-06 0.370D-05-0.874D-05-0.364D-04 0.314D-04
 Coeff:      0.389D-03-0.199D-04-0.193D-02 0.954D-03 0.224D-02-0.307D-04
 Coeff:     -0.781D-02-0.147D-01 0.483D-01 0.239D-01-0.215D+00-0.516D-01
 Coeff:      0.122D+01
 RMSDP=1.48D-08 MaxDP=8.26D-07 DE=-4.64D-11 OVMax= 0.00D+00

 Cycle  20  Pass 1  IDiag  1:
 RMSU=  4.21D-09    CP:  9.92D-01  1.17D+00  1.05D+00  1.30D+00  1.61D+00
                    CP:  2.30D+00  3.00D+00  3.00D+00  3.00D+00  3.00D+00
                    CP:  3.00D+00  1.71D+00  1.81D+00  3.00D+00  3.00D+00
                    CP:  1.50D+00  1.87D+00  1.84D+00  1.35D+00
 E= -473.934468035764     Delta-E=       -0.000000000011 Rises=F Damp=F
 DIIS: error= 5.28D-08 at cycle  20 NSaved=  20.
 NSaved=20 IEnMin=20 EnMin= -473.934468035764     IErMin=20 ErrMin= 5.28D-08
 ErrMax= 5.28D-08  0.00D+00 EMaxC= 1.00D-01 BMatC= 4.27D-14 BMatP= 2.24D-13
 IDIUse=1 WtCom= 1.00D+00 WtEn= 0.00D+00
 Coeff-Com:  0.401D-06-0.277D-05 0.226D-06 0.304D-04 0.207D-04-0.199D-03
 Coeff-Com: -0.482D-03 0.122D-02 0.270D-02-0.424D-02-0.293D-02 0.660D-02
 Coeff-Com:  0.105D-01-0.289D-01-0.388D-01 0.127D+00 0.884D-02-0.286D+00
 Coeff-Com:  0.281D-01 0.118D+01
 Coeff:      0.401D-06-0.277D-05 0.226D-06 0.304D-04 0.207D-04-0.199D-03
 Coeff:     -0.482D-03 0.122D-02 0.270D-02-0.424D-02-0.293D-02 0.660D-02
 Coeff:      0.105D-01-0.289D-01-0.388D-01 0.127D+00 0.884D-02-0.286D+00
 Coeff:      0.281D-01 0.118D+01
 RMSDP=4.05D-09 MaxDP=4.98D-07 DE=-1.09D-11 OVMax= 0.00D+00

 SCF Done:  E(RZINDO/S) =  -473.934468036     A.U. after   20 cycles
            NFock= 20  Conv=0.41D-08     -V/T= 0.9493
 KE=-9.351206550406D+03 PE=-3.076238499489D-07 EE= 4.538851829464D+03
 Leave Link  502 at Fri Apr 29 05:24:26 2022, MaxMem=  6710886400 cpu:              20.3 elap:               0.9
 (Enter /sw/apps/gaussian-16.0/g16/l801.exe)
 Range of M.O.s used for correlation:     1   338
 NBasis=   338 NAE=   176 NBE=   176 NFC=     0 NFV=     0
 NROrb=    338 NOA=   176 NOB=   176 NVA=   162 NVB=   162
 Leave Link  801 at Fri Apr 29 05:24:26 2022, MaxMem=  6710886400 cpu:               0.5 elap:               0.0
 (Enter /sw/apps/gaussian-16.0/g16/l914.exe)
 RHF ground state
 Two-electron integral symmetry not used.
 MDV=  6710886400 DFT=F DoStab=F Mixed=F DoRPA=F DoScal=F NonHer=F
 Making orbital integer symmetry assigments:
 Orbital symmetries:
       Occupied  (A) (A) (A) (A) (A) (A) (A) (A) (A) (A) (A) (A)
                 (A) (A) (A) (A) (A) (A) (A) (A) (A) (A) (A) (A)
                 (A) (A) (A) (A) (A) (A) (A) (A) (A) (A) (A) (A)
                 (A) (A) (A) (A) (A) (A) (A) (A) (A) (A) (A) (A)
                 (A) (A) (A) (A) (A) (A) (A) (A) (A) (A) (A) (A)
                 (A) (A) (A) (A) (A) (A) (A) (A) (A) (A) (A) (A)
                 (A) (A) (A) (A) (A) (A) (A) (A) (A) (A) (A) (A)
                 (A) (A) (A) (A) (A) (A) (A) (A) (A) (A) (A) (A)
                 (A) (A) (A) (A) (A) (A) (A) (A) (A) (A) (A) (A)
                 (A) (A) (A) (A) (A) (A) (A) (A) (A) (A) (A) (A)
                 (A) (A) (A) (A) (A) (A) (A) (A) (A) (A) (A) (A)
                 (A) (A) (A) (A) (A) (A) (A) (A) (A) (A) (A) (A)
                 (A) (A) (A) (A) (A) (A) (A) (A) (A) (A) (A) (A)
                 (A) (A) (A) (A) (A) (A) (A) (A) (A) (A) (A) (A)
                 (A) (A) (A) (A) (A) (A) (A) (A)
       Virtual   (A) (A) (A) (A) (A) (A) (A) (A) (A) (A) (A) (A)
                 (A) (A) (A) (A) (A) (A) (A) (A) (A) (A) (A) (A)
                 (A) (A) (A) (A) (A) (A) (A) (A) (A) (A) (A) (A)
                 (A) (A) (A) (A) (A) (A) (A) (A) (A) (A) (A) (A)
                 (A) (A) (A) (A) (A) (A) (A) (A) (A) (A) (A) (A)
                 (A) (A) (A) (A) (A) (A) (A) (A) (A) (A) (A) (A)
                 (A) (A) (A) (A) (A) (A) (A) (A) (A) (A) (A) (A)
                 (A) (A) (A) (A) (A) (A) (A) (A) (A) (A) (A) (A)
                 (A) (A) (A) (A) (A) (A) (A) (A) (A) (A) (A) (A)
                 (A) (A) (A) (A) (A) (A) (A) (A) (A) (A) (A) (A)
                 (A) (A) (A) (A) (A) (A) (A) (A) (A) (A) (A) (A)
                 (A) (A) (A) (A) (A) (A) (A) (A) (A) (A) (A) (A)
                 (A) (A) (A) (A) (A) (A) (A) (A) (A) (A) (A) (A)
                 (A) (A) (A) (A) (A) (A)
    20 initial guesses have been made.
 Convergence on wavefunction:    0.001000000000000
 Davidson Disk Diagonalization:  ConvIn= 1.00D-03 SkipCon=T Conv= 1.00D-03.
 Max sub-space:  2000 roots to seek:    20 dimension of matrix:        57024
 Iteration     1 Dimension    20 NMult     0 NNew     20
 CISAX will form    20 AO SS matrices at one time.
 NMat=    20 NSing=    20 JSym2X= 0.
 New state      3 was old state      5
 New state      5 was old state      7
 Excitation Energies [eV] at current iteration:
 Root      1 :     1.574829277097736
 Root      2 :     2.129609324741532
 Root      3 :     2.955841335797866
 Root      4 :     3.179068000524297
 Root      5 :     3.272538616095318
 Root      6 :     3.358954511907614
 Root      7 :     3.492227331208672
 Root      8 :     3.609078856800288
 Root      9 :     3.699256193604781
 Root     10 :     3.872546101010046
 Root     11 :     4.227049516791929
 Root     12 :     4.245266873793531
 Root     13 :     4.294997536373667
 Root     14 :     4.370887370248832
 Root     15 :     4.424872857116964
 Root     16 :     4.471493067278266
 Root     17 :     4.576575400100619
 Root     18 :     4.619301992415767
 Root     19 :     4.804170889874039
 Root     20 :     5.599797916404474
 Iteration     2 Dimension    40 NMult    20 NNew     20
 CISAX will form    20 AO SS matrices at one time.
 NMat=    20 NSing=    20 JSym2X= 0.
 Root      1 not converged, maximum delta is    0.046452897065362
 Root      2 not converged, maximum delta is    0.026112298994050
 New state      3 was old state      4
 Root      3 not converged, maximum delta is    0.351942413376773
 New state      4 was old state      3
 Root      4 not converged, maximum delta is    0.233387848709221
 Root      5 not converged, maximum delta is    0.316030417472387
 Excitation Energies [eV] at current iteration:
 Root      1 :     1.191298561770671   Change is   -0.383530715327065
 Root      2 :     1.936811906579488   Change is   -0.192797418162044
 Root      3 :     2.927501234828906   Change is   -0.251566765695390
 Root      4 :     2.940071620453380   Change is   -0.015769715344486
 Root      5 :     2.984017280300952   Change is   -0.288521335794366
 Root      6 :     3.121936615802065   Change is   -0.237017896105549
 Root      7 :     3.240518841572911   Change is   -0.251708489635761
 Root      8 :     3.353276418342627   Change is   -0.255802438457660
 Root      9 :     3.442084752077025   Change is   -0.257171441527756
 Root     10 :     3.544331626628710   Change is   -0.328214474381336
 Root     11 :     3.587234363060075   Change is   -0.707763173313591
 Root     12 :     3.855234725973436   Change is   -0.390032147820095
 Root     13 :     3.865275723033300   Change is   -0.754026269382467
 Root     14 :     4.073703236539586   Change is   -0.297184133709246
 Root     15 :     4.124691255496579   Change is   -0.102358261295351
 Root     16 :     4.180501406015641   Change is   -0.290991661262625
 Root     17 :     4.295386591603213   Change is   -0.281188808497407
 Root     18 :     4.400935360005844   Change is   -0.023937497111119
 Root     19 :     4.796428426378149   Change is   -0.007742463495890
 Root     20 :     5.583736081398131   Change is   -0.016061835006343
 Iteration     3 Dimension    45 NMult    40 NNew      5
 CISAX will form     5 AO SS matrices at one time.
 NMat=     5 NSing=     5 JSym2X= 0.
 Root      1 not converged, maximum delta is    0.010405355905391
 Root      2 not converged, maximum delta is    0.018227678399238
 Root      3 not converged, maximum delta is    0.247876988263550
 Root      4 not converged, maximum delta is    0.197400742401038
 Root      5 not converged, maximum delta is    0.054957849578339
 Excitation Energies [eV] at current iteration:
 Root      1 :     1.174537519837882   Change is   -0.016761041932789
 Root      2 :     1.910823767047954   Change is   -0.025988139531533
 Root      3 :     2.898958982549587   Change is   -0.028542252279320
 Root      4 :     2.934707468062766   Change is   -0.005364152390614
 Root      5 :     2.955854878461075   Change is   -0.028162401839877
 Iteration     4 Dimension    50 NMult    45 NNew      5
 CISAX will form     5 AO SS matrices at one time.
 NMat=     5 NSing=     5 JSym2X= 0.
 Root      1 not converged, maximum delta is    0.002552451127990
 Root      2 not converged, maximum delta is    0.002835294089971
 Root      3 not converged, maximum delta is    0.010960308611699
 Root      4 not converged, maximum delta is    0.012657783345664
 Root      5 not converged, maximum delta is    0.015065481365403
 Excitation Energies [eV] at current iteration:
 Root      1 :     1.173672696014237   Change is   -0.000864823823645
 Root      2 :     1.910078979618684   Change is   -0.000744787429270
 Root      3 :     2.894958003484320   Change is   -0.004000979065266
 Root      4 :     2.934311907218607   Change is   -0.000395560844160
 Root      5 :     2.952737409392971   Change is   -0.003117469068103
 Iteration     5 Dimension    55 NMult    50 NNew      5
 CISAX will form     5 AO SS matrices at one time.
 NMat=     5 NSing=     5 JSym2X= 0.
 Root      1 has converged.
 Root      2 has converged.
 Root      3 not converged, maximum delta is    0.011840052704610
 Root      4 not converged, maximum delta is    0.007537629255399
 Root      5 not converged, maximum delta is    0.008435006633050
 Excitation Energies [eV] at current iteration:
 Root      1 :     1.173616112751764   Change is   -0.000056583262473
 Root      2 :     1.910032831072634   Change is   -0.000046148546050
 Root      3 :     2.893530625233984   Change is   -0.001427378250336
 Root      4 :     2.934172698023165   Change is   -0.000139209195441
 Root      5 :     2.951815191550210   Change is   -0.000922217842762
 Iteration     6 Dimension    58 NMult    55 NNew      3
 CISAX will form     3 AO SS matrices at one time.
 NMat=     3 NSing=     3 JSym2X= 0.
 Root      1 has converged.
 Root      2 has converged.
 Root      3 not converged, maximum delta is    0.024038752275252
 Root      4 not converged, maximum delta is    0.012411904482430
 Root      5 not converged, maximum delta is    0.021767883351947
 Excitation Energies [eV] at current iteration:
 Root      1 :     1.173615963752259   Change is   -0.000000148999505
 Root      2 :     1.910032056161815   Change is   -0.000000774910819
 Root      3 :     2.891906140332898   Change is   -0.001624484901086
 Root      4 :     2.933977238209700   Change is   -0.000195459813465
 Root      5 :     2.950799831940450   Change is   -0.001015359609760
 Iteration     7 Dimension    61 NMult    58 NNew      3
 CISAX will form     3 AO SS matrices at one time.
 NMat=     3 NSing=     3 JSym2X= 0.
 Root      1 has converged.
 Root      2 has converged.
 Root      3 not converged, maximum delta is    0.021585468446290
 Root      4 not converged, maximum delta is    0.014522329524658
 Root      5 not converged, maximum delta is    0.031321953413014
 Excitation Energies [eV] at current iteration:
 Root      1 :     1.173615805883029   Change is   -0.000000157869229
 Root      2 :     1.910031807192201   Change is   -0.000000248969614
 Root      3 :     2.890575273611777   Change is   -0.001330866721122
 Root      4 :     2.933741845089308   Change is   -0.000235393120392
 Root      5 :     2.949623884449532   Change is   -0.001175947490918
 Iteration     8 Dimension    64 NMult    61 NNew      3
 CISAX will form     3 AO SS matrices at one time.
 NMat=     3 NSing=     3 JSym2X= 0.
 Root      1 has converged.
 Root      2 has converged.
 Root      3 not converged, maximum delta is    0.008982255656680
 Root      4 not converged, maximum delta is    0.005408102478511
 Root      5 not converged, maximum delta is    0.010374317127615
 Excitation Energies [eV] at current iteration:
 Root      1 :     1.173615748787743   Change is   -0.000000057095286
 Root      2 :     1.910031775138539   Change is   -0.000000032053662
 Root      3 :     2.890128240373462   Change is   -0.000447033238314
 Root      4 :     2.933647887969288   Change is   -0.000093957120020
 Root      5 :     2.949285565379834   Change is   -0.000338319069698
 Iteration     9 Dimension    67 NMult    64 NNew      3
 CISAX will form     3 AO SS matrices at one time.
 NMat=     3 NSing=     3 JSym2X= 0.
 Root      1 has converged.
 Root      2 has converged.
 Root      3 not converged, maximum delta is    0.003766355713890
 Root      4 not converged, maximum delta is    0.002663570605713
 Root      5 not converged, maximum delta is    0.002021401201912
 Excitation Energies [eV] at current iteration:
 Root      1 :     1.173615712328128   Change is   -0.000000036459616
 Root      2 :     1.910031686855950   Change is   -0.000000088282590
 Root      3 :     2.890028589074562   Change is   -0.000099651298901
 Root      4 :     2.933624020165913   Change is   -0.000023867803376
 Root      5 :     2.949232290808792   Change is   -0.000053274571042
 Iteration    10 Dimension    70 NMult    67 NNew      3
 CISAX will form     3 AO SS matrices at one time.
 NMat=     3 NSing=     3 JSym2X= 0.
 Root      1 has converged.
 Root      2 has converged.
 Root      3 not converged, maximum delta is    0.001270600006066
 Root      4 not converged, maximum delta is    0.001115044332719
 Root      5 not converged, maximum delta is    0.001909730839920
 Excitation Energies [eV] at current iteration:
 Root      1 :     1.173615687493683   Change is   -0.000000024834445
 Root      2 :     1.910031617966162   Change is   -0.000000068889788
 Root      3 :     2.890007840984649   Change is   -0.000020748089913
 Root      4 :     2.933618031499835   Change is   -0.000005988666078
 Root      5 :     2.949218894780472   Change is   -0.000013396028320
 Iteration    11 Dimension    73 NMult    70 NNew      3
 CISAX will form     3 AO SS matrices at one time.
 NMat=     3 NSing=     3 JSym2X= 0.
 Root      1 has converged.
 Root      2 has converged.
 Root      3 has converged.
 Root      4 has converged.
 Root      5 not converged, maximum delta is    0.001272509828276
 Excitation Energies [eV] at current iteration:
 Root      1 :     1.173615672361575   Change is   -0.000000015132108
 Root      2 :     1.910031547836418   Change is   -0.000000070129744
 Root      3 :     2.890001766205902   Change is   -0.000006074778747
 Root      4 :     2.933615769711136   Change is   -0.000002261788699
 Root      5 :     2.949212295620655   Change is   -0.000006599159817
 Convergence on energies, max DE= 6.60D-06.
 Convergence on expansion vectors.
 ***********************************************************************
 Excited states from <AA,BB:AA,BB> singles matrix:
 ***********************************************************************
 
 1PDM for each excited state written to RWF  633
 Ground to excited state transition densities written to RWF  633
 Ground to excited state transition electric dipole moments (Au):
       state          X           Y           Z        Dip. S.      Osc.
         1         2.2679      4.2513     -0.0713     23.2217      0.6677
         2        -0.6954      0.4102      0.0658      0.6562      0.0307
         3         2.0100     -0.8642     -0.4579      4.9966      0.3538
         4         0.2090     -0.1411     -0.0160      0.0639      0.0046
         5        -1.8782      1.1742      0.2518      4.9698      0.3591
 Ground to excited state transition velocity dipole moments (Au):
       state          X           Y           Z        Dip. S.      Osc.
         1         0.0685      0.0557     -0.0108      0.0079      0.1223
         2         0.0107     -0.0112      0.0012      0.0002      0.0023
         3        -0.0722      0.0091      0.0050      0.0053      0.0334
         4        -0.0072      0.0031      0.0038      0.0001      0.0005
         5         0.0588     -0.0515     -0.0015      0.0061      0.0376
 Ground to excited state transition magnetic dipole moments (Au):
       state          X           Y           Z
         1        -0.0955     -0.1566     -0.4204
         2        -0.0397     -0.0474      0.2312
         3         0.0024      0.3079     -0.3704
         4         0.0030     -0.0294     -0.2758
         5        -0.1940      0.0958      0.1429
 Ground to excited state transition velocity quadrupole moments (Au):
       state          XX          YY          ZZ          XY          XZ          YZ
         1        -1.1878      0.0936      0.0070     -0.5401      0.1304     -0.0221
         2        -0.1502     -0.0187      0.0219      0.0793     -0.0272     -0.0352
         3         1.6680     -0.8389      0.0399     -0.3219     -0.1330      0.0720
         4         0.0131      0.1330     -0.0190      0.0225     -0.0256      0.0234
         5        -0.4327     -0.3030      0.0596      0.2317      0.0211     -0.0060
 <0|del|b> * <b|rxdel|0> + <0|del|b> * <b|delr+rdel|0>
 Rotatory Strengths (R) in cgs (10**-40 erg-esu-cm/Gauss)
       state          XX          YY          ZZ    R(velocity)    E-M Angle
         1       -45.8277    -76.6407    -53.1802    -58.5495      105.22
         2         3.0184     -3.1144      3.9578      1.2873       84.07
         3         1.8160    -18.6873     22.0346      1.7211       88.74
         4        -3.2306     -4.3873     -0.0667     -2.5615      118.86
         5       -14.4266    -37.9059    -55.7066    -36.0130      144.76
 1/2[<0|r|b>*<b|rxdel|0> + (<0|rxdel|b>*<b|r|0>)*]
 Rotatory Strengths (R) in cgs (10**-40 erg-esu-cm/Gauss)
       state          XX          YY          ZZ     R(length)
         1       153.1720    470.7354    -21.1834    200.9080
         2       -19.5290     13.7486    -10.7584     -5.5130
         3        -3.3858    188.1584   -119.9470     21.6085
         4        -0.4507     -2.9382     -3.1257     -2.1715
         5      -257.6486    -79.5208    -25.4480   -120.8724
  1/2[<0|del|b>*<b|r|0> + (<0|r|b>*<b|del|0>)*] (Au)
       state          X           Y           Z        Dip. S.   Osc.(frdel)
         1         0.1553      0.2369      0.0008     -0.3930     -0.2620
         2        -0.0074     -0.0046      0.0001      0.0119      0.0080
         3        -0.1452     -0.0079     -0.0023      0.1553      0.1036
         4        -0.0015     -0.0004     -0.0001      0.0020      0.0013
         5        -0.1104     -0.0605     -0.0004      0.1713      0.1142

 Excitation energies and oscillator strengths:
 
 Excited State   1:      Singlet-A      1.1736 eV 1056.43 nm  f=0.6677  <S**2>=0.000
     175 ->178        -0.18558
     176 ->177         0.66436
 This state for optimization and/or second-order correction.
 Total Energy, E(CIS/TDA) =  -473.891338453    
 Copying the excited state density for this state as the 1-particle RhoCI density.
 
 Excited State   2:      Singlet-A      1.9100 eV  649.12 nm  f=0.0307  <S**2>=0.000
     175 ->177         0.53831
     176 ->178         0.43485
 
 Excited State   3:      Singlet-A      2.8900 eV  429.01 nm  f=0.3538  <S**2>=0.000
     169 ->179         0.10286
     174 ->177        -0.21246
     175 ->177        -0.24009
     176 ->178         0.34409
     176 ->179         0.42019
     176 ->180         0.10156
 
 Excited State   4:      Singlet-A      2.9336 eV  422.63 nm  f=0.0046  <S**2>=0.000
     176 ->179        -0.12338
     176 ->180         0.62304
     176 ->181        -0.27437
 
 Excited State   5:      Singlet-A      2.9492 eV  420.40 nm  f=0.3591  <S**2>=0.000
     171 ->177        -0.13213
     174 ->177         0.22210
     175 ->177         0.22590
     176 ->178        -0.31309
     176 ->179         0.44070
     176 ->180         0.12847
 SavETr:  write IOETrn=   770 NScale= 10 NData=  16 NLR=1 NState=    5 LETran=     100.
 Leave Link  914 at Fri Apr 29 05:24:30 2022, MaxMem=  6710886400 cpu:             100.7 elap:               4.2
 (Enter /sw/apps/gaussian-16.0/g16/l601.exe)
 Copying SCF densities to generalized density rwf, IOpCl= 0 IROHF=0.

 **********************************************************************

            Population analysis using the SCF density.

 **********************************************************************

 Orbital symmetries:
       Occupied  (A) (A) (A) (A) (A) (A) (A) (A) (A) (A) (A) (A)
                 (A) (A) (A) (A) (A) (A) (A) (A) (A) (A) (A) (A)
                 (A) (A) (A) (A) (A) (A) (A) (A) (A) (A) (A) (A)
                 (A) (A) (A) (A) (A) (A) (A) (A) (A) (A) (A) (A)
                 (A) (A) (A) (A) (A) (A) (A) (A) (A) (A) (A) (A)
                 (A) (A) (A) (A) (A) (A) (A) (A) (A) (A) (A) (A)
                 (A) (A) (A) (A) (A) (A) (A) (A) (A) (A) (A) (A)
                 (A) (A) (A) (A) (A) (A) (A) (A) (A) (A) (A) (A)
                 (A) (A) (A) (A) (A) (A) (A) (A) (A) (A) (A) (A)
                 (A) (A) (A) (A) (A) (A) (A) (A) (A) (A) (A) (A)
                 (A) (A) (A) (A) (A) (A) (A) (A) (A) (A) (A) (A)
                 (A) (A) (A) (A) (A) (A) (A) (A) (A) (A) (A) (A)
                 (A) (A) (A) (A) (A) (A) (A) (A) (A) (A) (A) (A)
                 (A) (A) (A) (A) (A) (A) (A) (A) (A) (A) (A) (A)
                 (A) (A) (A) (A) (A) (A) (A) (A)
       Virtual   (A) (A) (A) (A) (A) (A) (A) (A) (A) (A) (A) (A)
                 (A) (A) (A) (A) (A) (A) (A) (A) (A) (A) (A) (A)
                 (A) (A) (A) (A) (A) (A) (A) (A) (A) (A) (A) (A)
                 (A) (A) (A) (A) (A) (A) (A) (A) (A) (A) (A) (A)
                 (A) (A) (A) (A) (A) (A) (A) (A) (A) (A) (A) (A)
                 (A) (A) (A) (A) (A) (A) (A) (A) (A) (A) (A) (A)
                 (A) (A) (A) (A) (A) (A) (A) (A) (A) (A) (A) (A)
                 (A) (A) (A) (A) (A) (A) (A) (A) (A) (A) (A) (A)
                 (A) (A) (A) (A) (A) (A) (A) (A) (A) (A) (A) (A)
                 (A) (A) (A) (A) (A) (A) (A) (A) (A) (A) (A) (A)
                 (A) (A) (A) (A) (A) (A) (A) (A) (A) (A) (A) (A)
                 (A) (A) (A) (A) (A) (A) (A) (A) (A) (A) (A) (A)
                 (A) (A) (A) (A) (A) (A) (A) (A) (A) (A) (A) (A)
                 (A) (A) (A) (A) (A) (A)
 The electronic state is 1-A.
 Alpha  occ. eigenvalues --   -1.83305  -1.79386  -1.77844  -1.73032  -1.70810
 Alpha  occ. eigenvalues --   -1.69305  -1.65070  -1.61260  -1.57058  -1.56829
 Alpha  occ. eigenvalues --   -1.54001  -1.51259  -1.48708  -1.46816  -1.45990
 Alpha  occ. eigenvalues --   -1.44319  -1.43386  -1.40101  -1.37908  -1.37077
 Alpha  occ. eigenvalues --   -1.35697  -1.32915  -1.31319  -1.30994  -1.27805
 Alpha  occ. eigenvalues --   -1.27288  -1.24999  -1.21988  -1.20068  -1.17507
 Alpha  occ. eigenvalues --   -1.16673  -1.16009  -1.14949  -1.14546  -1.13291
 Alpha  occ. eigenvalues --   -1.11914  -1.10935  -1.09824  -1.05323  -1.03299
 Alpha  occ. eigenvalues --   -1.02949  -1.01931  -0.98145  -0.97717  -0.97257
 Alpha  occ. eigenvalues --   -0.96943  -0.94081  -0.93722  -0.92544  -0.91530
 Alpha  occ. eigenvalues --   -0.91441  -0.90608  -0.89532  -0.87736  -0.87711
 Alpha  occ. eigenvalues --   -0.85340  -0.84446  -0.83838  -0.81692  -0.79672
 Alpha  occ. eigenvalues --   -0.78610  -0.77976  -0.76710  -0.76281  -0.75955
 Alpha  occ. eigenvalues --   -0.75447  -0.75067  -0.74421  -0.73277  -0.72946
 Alpha  occ. eigenvalues --   -0.72816  -0.72240  -0.71935  -0.71461  -0.70567
 Alpha  occ. eigenvalues --   -0.70417  -0.69046  -0.68338  -0.67911  -0.67784
 Alpha  occ. eigenvalues --   -0.67361  -0.66902  -0.66798  -0.66464  -0.65783
 Alpha  occ. eigenvalues --   -0.65330  -0.65128  -0.64549  -0.63998  -0.63647
 Alpha  occ. eigenvalues --   -0.63066  -0.62830  -0.62481  -0.61554  -0.61423
 Alpha  occ. eigenvalues --   -0.61157  -0.61048  -0.60439  -0.60355  -0.60186
 Alpha  occ. eigenvalues --   -0.59953  -0.59379  -0.58551  -0.58460  -0.58282
 Alpha  occ. eigenvalues --   -0.58007  -0.57868  -0.57460  -0.56833  -0.56363
 Alpha  occ. eigenvalues --   -0.56068  -0.55941  -0.55362  -0.55207  -0.54479
 Alpha  occ. eigenvalues --   -0.53895  -0.53853  -0.53667  -0.53256  -0.53130
 Alpha  occ. eigenvalues --   -0.52750  -0.52475  -0.52188  -0.52024  -0.51394
 Alpha  occ. eigenvalues --   -0.51170  -0.50980  -0.50697  -0.50583  -0.50477
 Alpha  occ. eigenvalues --   -0.50064  -0.49934  -0.49483  -0.49299  -0.48969
 Alpha  occ. eigenvalues --   -0.48690  -0.48583  -0.48444  -0.48340  -0.47669
 Alpha  occ. eigenvalues --   -0.47540  -0.47383  -0.46406  -0.46289  -0.45834
 Alpha  occ. eigenvalues --   -0.45739  -0.45670  -0.45271  -0.45222  -0.45093
 Alpha  occ. eigenvalues --   -0.44874  -0.44806  -0.44595  -0.44371  -0.43888
 Alpha  occ. eigenvalues --   -0.43835  -0.43672  -0.42511  -0.42220  -0.42069
 Alpha  occ. eigenvalues --   -0.41898  -0.41641  -0.41279  -0.38982  -0.38719
 Alpha  occ. eigenvalues --   -0.38328  -0.36880  -0.35214  -0.34923  -0.34614
 Alpha  occ. eigenvalues --   -0.32630  -0.32205  -0.31572  -0.31419  -0.26762
 Alpha  occ. eigenvalues --   -0.21225
 Alpha virt. eigenvalues --   -0.08680  -0.01787  -0.00498   0.01069   0.01155
 Alpha virt. eigenvalues --    0.01923   0.02756   0.02916   0.04596   0.04921
 Alpha virt. eigenvalues --    0.06180   0.07100   0.07150   0.07893   0.08065
 Alpha virt. eigenvalues --    0.08283   0.08775   0.09217   0.09404   0.09770
 Alpha virt. eigenvalues --    0.09779   0.09802   0.10233   0.10406   0.10789
 Alpha virt. eigenvalues --    0.10897   0.11319   0.11396   0.11637   0.12301
 Alpha virt. eigenvalues --    0.12585   0.12882   0.13065   0.13283   0.13524
 Alpha virt. eigenvalues --    0.13697   0.13723   0.13949   0.14753   0.14796
 Alpha virt. eigenvalues --    0.15096   0.15353   0.15641   0.15736   0.15753
 Alpha virt. eigenvalues --    0.15954   0.16234   0.16412   0.16728   0.16787
 Alpha virt. eigenvalues --    0.17355   0.17447   0.17705   0.17933   0.18245
 Alpha virt. eigenvalues --    0.18395   0.18622   0.18727   0.19120   0.19357
 Alpha virt. eigenvalues --    0.19524   0.19868   0.19991   0.20289   0.20742
 Alpha virt. eigenvalues --    0.21075   0.22067   0.22946   0.23417   0.23504
 Alpha virt. eigenvalues --    0.23811   0.24077   0.24173   0.24220   0.24310
 Alpha virt. eigenvalues --    0.24322   0.24458   0.24463   0.24522   0.24596
 Alpha virt. eigenvalues --    0.24690   0.24704   0.24995   0.25051   0.25072
 Alpha virt. eigenvalues --    0.25097   0.25134   0.25250   0.25304   0.25340
 Alpha virt. eigenvalues --    0.25412   0.25466   0.25663   0.25671   0.25855
 Alpha virt. eigenvalues --    0.25891   0.25920   0.25973   0.26105   0.26298
 Alpha virt. eigenvalues --    0.26426   0.26469   0.26557   0.26587   0.26821
 Alpha virt. eigenvalues --    0.26867   0.26986   0.26991   0.27029   0.27086
 Alpha virt. eigenvalues --    0.27118   0.27552   0.27612   0.27630   0.27937
 Alpha virt. eigenvalues --    0.28237   0.28494   0.28567   0.29008   0.29082
 Alpha virt. eigenvalues --    0.29097   0.29945   0.29971   0.31114   0.31945
 Alpha virt. eigenvalues --    0.32019   0.32822   0.32998   0.34018   0.34918
 Alpha virt. eigenvalues --    0.34937   0.35225   0.35510   0.35756   0.36304
 Alpha virt. eigenvalues --    0.36713   0.36953   0.36963   0.37746   0.38324
 Alpha virt. eigenvalues --    0.38783   0.39698   0.39889   0.40128   0.40461
 Alpha virt. eigenvalues --    0.40659   0.40973   0.41299   0.41787   0.42162
 Alpha virt. eigenvalues --    0.43219   0.43996   0.45546   0.45806   0.47445
 Alpha virt. eigenvalues --    0.47622   0.47840   0.48363   0.50499   0.53017
 Alpha virt. eigenvalues --    0.54921   0.55674
          Condensed to atoms (all electrons):
 Mulliken charges:
               1
     1  Mg   0.417841
     2  C   -0.064913
     3  C   -0.069778
     4  C   -0.069555
     5  C   -0.072778
     6  N   -0.286619
     7  C    0.155327
     8  C    0.003800
     9  C   -0.002998
    10  C    0.115095
    11  C   -0.052891
    12  C   -0.022297
    13  C    0.006301
    14  C    0.474423
    15  O   -0.513582
    16  O   -0.273446
    17  N   -0.317492
    18  C    0.100892
    19  C   -0.004107
    20  C   -0.076557
    21  C    0.149905
    22  C   -0.043522
    23  C    0.330594
    24  O   -0.538022
    25  C   -0.031896
    26  N   -0.296678
    27  C    0.140751
    28  C    0.011180
    29  C   -0.001818
    30  C    0.133605
    31  C   -0.046649
    32  C   -0.019086
    33  C   -0.057414
    34  N   -0.321685
    35  C    0.107621
    36  C    0.022367
    37  C   -0.059077
    38  C    0.126647
    39  C   -0.032796
    40  C    0.323913
    41  O   -0.528471
    42  C    0.054764
    43  C    0.485893
    44  O   -0.492025
    45  O   -0.262161
    46  C    0.070008
    47  C    0.115238
    48  C   -0.078338
    49  C   -0.017556
    50  C   -0.052495
    51  C   -0.024231
    52  C   -0.037364
    53  C   -0.030501
    54  C   -0.011205
    55  C   -0.068354
    56  C   -0.031950
    57  C   -0.034294
    58  C   -0.046337
    59  C   -0.012600
    60  C   -0.060013
    61  C   -0.035311
    62  C   -0.046054
    63  C   -0.033817
    64  C   -0.008585
    65  C   -0.055089
    66  C   -0.054875
    67  H    0.022096
    68  H    0.044344
    69  H    0.036229
    70  H    0.051525
    71  H    0.029619
    72  H    0.029905
    73  H    0.025731
    74  H    0.020842
    75  H    0.022074
    76  H    0.026854
    77  H    0.036678
    78  H    0.038520
    79  H    0.037530
    80  H    0.038692
    81  H    0.021042
    82  H    0.034059
    83  H    0.037630
    84  H    0.041243
    85  H    0.033464
    86  H    0.028140
    87  H    0.023981
    88  H    0.029325
    89  H    0.022640
    90  H    0.029509
    91  H    0.022612
    92  H    0.016328
    93  H    0.020683
    94  H    0.018995
    95  H    0.020246
    96  H    0.047979
    97  H    0.035615
    98  H    0.060210
    99  H    0.029061
   100  H    0.038209
   101  H    0.051211
   102  H    0.058381
   103  H    0.035997
   104  H    0.033029
   105  H    0.035742
   106  H    0.022352
   107  H    0.027080
   108  H    0.014867
   109  H    0.014937
   110  H    0.025722
   111  H    0.020670
   112  H    0.009285
   113  H    0.013643
   114  H    0.019308
   115  H    0.032828
   116  H    0.035351
   117  H    0.007652
   118  H    0.025546
   119  H    0.014123
   120  H    0.019520
   121  H    0.021908
   122  H    0.008747
   123  H    0.022659
   124  H    0.028225
   125  H    0.019102
   126  H    0.015678
   127  H    0.015478
   128  H    0.019079
   129  H    0.021363
   130  H    0.017852
   131  H    0.009606
   132  H    0.017615
   133  H    0.018226
   134  H    0.020708
   135  H    0.006547
   136  H    0.019787
   137  H    0.017431
   138  H    0.027076
   139  H    0.018564
   140  H    0.016610
 Sum of Mulliken charges =  -0.00000
 Mulliken charges with hydrogens summed into heavy atoms:
               1
     1  Mg   0.417841
     2  C   -0.064913
     3  C   -0.047682
     4  C   -0.025211
     5  C   -0.036549
     6  N   -0.286619
     7  C    0.155327
     8  C    0.055325
     9  C    0.026620
    10  C    0.115095
    11  C    0.023588
    12  C    0.026631
    13  C    0.081499
    14  C    0.474423
    15  O   -0.513582
    16  O   -0.273446
    17  N   -0.317492
    18  C    0.100892
    19  C   -0.004107
    20  C   -0.076557
    21  C    0.149905
    22  C    0.053742
    23  C    0.330594
    24  O   -0.538022
    25  C    0.081037
    26  N   -0.296678
    27  C    0.140751
    28  C    0.044644
    29  C    0.026322
    30  C    0.133605
    31  C    0.029297
    32  C    0.033035
    33  C   -0.001408
    34  N   -0.321685
    35  C    0.107621
    36  C    0.022367
    37  C   -0.059077
    38  C    0.126647
    39  C    0.071044
    40  C    0.323913
    41  O   -0.528471
    42  C    0.114974
    43  C    0.485893
    44  O   -0.492025
    45  O   -0.262161
    46  C    0.188489
    47  C    0.209616
    48  C   -0.045309
    49  C   -0.017556
    50  C    0.032681
    51  C    0.005572
    52  C    0.009028
    53  C   -0.007574
    54  C    0.008103
    55  C    0.007476
    56  C    0.007719
    57  C    0.007135
    58  C   -0.014931
    59  C    0.015625
    60  C   -0.009755
    61  C    0.005130
    62  C   -0.018596
    63  C    0.002024
    64  C    0.012123
    65  C   -0.011324
    66  C    0.007375
 Charge=              0.0000 electrons
 Dipole moment (field-independent basis, Debye):
    X=              4.3034    Y=              4.1678    Z=             -2.8746  Tot=              6.6448
 N-N= 4.338420253213D+03 E-N= 0.000000000000D+00  KE=-9.351206550406D+03
 Leave Link  601 at Fri Apr 29 05:24:30 2022, MaxMem=  6710886400 cpu:               0.8 elap:               0.1
 (Enter /sw/apps/gaussian-16.0/g16/l9999.exe)
 1\1\GINC-BP1-COMPUTE070\SP\RZINDO CIS\STO-3G\C55H74Mg1N4O6\OF15641\29-
 Apr-2022\0\\#p ZINDO=(nstates=5)\\step_1851_chromophore_6 ZINDO\\0,1\M
 g,0,17.621,-1.816,27.677\C,0,16.915,0.374,30.292\C,0,19.593,-3.663,29.
 977\C,0,19.278,-3.498,25.161\C,0,16.542,0.668,25.365\N,0,18.195,-1.638
 ,29.814\C,0,17.718,-0.709,30.676\C,0,18.137,-0.942,32.086\C,0,19.214,-
 2.109,31.972\C,0,18.995,-2.542,30.502\C,0,20.709,-1.661,32.31\C,0,16.8
 47,-1.265,32.966\C,0,16.768,-0.611,34.379\C,0,18.033,-0.1,35.075\O,0,1
 8.302,1.072,35.303\O,0,18.883,-1.117,35.369\N,0,18.93,-3.643,27.588\C,
 0,19.545,-4.213,28.667\C,0,20.231,-5.431,28.147\C,0,20.046,-5.447,26.6
 72\C,0,19.342,-4.156,26.409\C,0,20.915,-6.436,29.062\C,0,20.422,-6.435
 ,25.569\O,0,20.065,-6.351,24.377\C,0,21.258,-7.622,25.937\N,0,17.949,-
 1.398,25.594\C,0,18.638,-2.309,24.77\C,0,18.526,-1.899,23.374\C,0,17.4
 02,-0.789,23.375\C,0,17.252,-0.437,24.873\C,0,19.845,-1.45,22.753\C,0,
 16.026,-1.128,22.787\C,0,15.416,0.092,22.078\N,0,16.684,0.015,27.781\C
 ,0,16.259,0.857,26.735\C,0,15.493,1.971,27.369\C,0,15.81,1.812,28.754\
 C,0,16.48,0.596,28.959\C,0,14.619,3.119,26.808\C,0,15.531,2.425,30.045
 \O,0,14.928,3.48,30.3\C,0,16.237,1.5,31.091\C,0,17.183,2.375,31.966\O,
 0,18.374,2.415,31.906\O,0,16.405,2.946,32.97\C,0,17.164,3.76,33.912\C,
 0,20.243,-0.743,35.851\C,0,20.341,-0.362,37.272\C,0,21.377,-0.591,38.1
 15\C,0,22.713,-1.174,37.66\C,0,21.317,-0.469,39.659\C,0,20.572,-1.587,
 40.414\C,0,21.461,-2.736,40.983\C,0,21.003,-4.119,40.655\C,0,19.524,-4
 .298,41.172\C,0,21.953,-5.158,41.239\C,0,23.242,-5.36,40.321\C,0,23.46
 2,-6.842,39.87\C,0,24.898,-7.502,40.197\C,0,25.347,-8.342,38.998\C,0,2
 4.705,-8.327,41.537\C,0,25.613,-7.773,42.67\C,0,27.042,-8.372,42.882\C
 ,0,27.069,-9.468,43.98\C,0,27.738,-10.674,43.376\C,0,27.678,-9.005,45.
 357\H,0,20.318,-4.119,30.654\H,0,19.613,-3.964,24.233\H,0,16.006,1.231
 ,24.598\H,0,18.576,-0.014,32.451\H,0,19.035,-2.977,32.607\H,0,20.687,-
 0.644,32.702\H,0,21.306,-1.668,31.398\H,0,21.165,-2.338,33.033\H,0,16.
 847,-2.355,32.98\H,0,15.909,-1.011,32.473\H,0,16.349,-1.328,35.085\H,0
 ,16.073,0.224,34.293\H,0,21.97,-6.328,28.814\H,0,20.426,-7.404,28.948\
 H,0,20.797,-6.117,30.098\H,0,22.175,-7.193,26.339\H,0,21.455,-8.123,24
 .989\H,0,20.792,-8.304,26.649\H,0,18.167,-2.816,22.906\H,0,17.784,0.12
 9,22.928\H,0,20.72,-1.817,23.291\H,0,19.881,-0.361,22.719\H,0,19.891,-
 1.977,21.8\H,0,15.345,-1.441,23.578\H,0,16.23,-1.961,22.114\H,0,14.609
 ,0.457,22.714\H,0,15.021,-0.081,21.077\H,0,16.096,0.935,21.954\H,0,14.
 896,3.235,25.76\H,0,14.738,4.021,27.409\H,0,13.565,2.845,26.777\H,0,15
 .396,1.098,31.657\H,0,16.582,4.179,34.733\H,0,17.644,4.581,33.379\H,0,
 17.943,3.258,34.486\H,0,20.66,0.127,35.343\H,0,20.903,-1.595,35.684\H,
 0,19.435,-0.074,37.804\H,0,22.863,-2.074,38.256\H,0,23.454,-0.46,38.02
 \H,0,22.797,-1.216,36.574\H,0,20.885,0.503,39.896\H,0,22.277,-0.327,40
 .155\H,0,19.873,-1.915,39.645\H,0,20.086,-1.161,41.292\H,0,21.417,-2.6
 16,42.066\H,0,22.503,-2.554,40.721\H,0,21.023,-4.077,39.566\H,0,18.829
 ,-4.079,40.362\H,0,19.461,-3.852,42.165\H,0,19.488,-5.377,41.321\H,0,2
 1.41,-6.058,41.528\H,0,22.282,-4.758,42.199\H,0,24.146,-5.023,40.828\H
 ,0,23.229,-4.742,39.423\H,0,23.296,-6.908,38.795\H,0,22.764,-7.604,40.
 216\H,0,25.651,-6.726,40.333\H,0,26.155,-7.833,38.472\H,0,24.505,-8.57
 9,38.348\H,0,25.662,-9.373,39.164\H,0,24.929,-9.379,41.361\H,0,23.704,
 -8.294,41.968\H,0,24.971,-7.778,43.551\H,0,25.842,-6.74,42.405\H,0,27.
 781,-7.605,43.116\H,0,27.318,-8.738,41.893\H,0,26.023,-9.769,44.041\H,
 0,28.191,-11.31,44.137\H,0,28.498,-10.312,42.683\H,0,27.089,-11.402,42
 .891\H,0,27.905,-7.941,45.424\H,0,28.574,-9.577,45.595\H,0,27.019,-9.3
 12,46.169\\Version=ES64L-G16RevA.03\State=1-A\HF=-473.934468\RMSD=4.05
 4e-09\PG=C01 [X(C55H74Mg1N4O6)]\\@


 MAN IS A SINGULAR CREATURE.  HE HAS A SET OF GIFTS
 WHICH MAKE HIM UNIQUE AMONG THE ANIMALS: SO THAT, 
 UNLIKE THEM, HE IS NOT A FIGURE IN THE LANDSCAPE --
 HE IS A SHAPER OF THE LANDSCAPE.

                       -- JACOB BRONOWSKI
 Job cpu time:       0 days  0 hours  2 minutes 26.2 seconds.
 Elapsed time:       0 days  0 hours  0 minutes  6.4 seconds.
 File lengths (MBytes):  RWF=   1263 Int=      0 D2E=      0 Chk=     38 Scr=      1
 Normal termination of Gaussian 16 at Fri Apr 29 05:24:30 2022.
