 Entering Gaussian System, Link 0=g16
 Initial command:
 /sw/apps/gaussian-16.0/g16/l1.exe "/tmp/Gau-135985.inp" -scrdir="/tmp/"
 Entering Link 1 = /sw/apps/gaussian-16.0/g16/l1.exe PID=    135986.
  
 Copyright (c) 1988,1990,1992,1993,1995,1998,2003,2009,2016,
            Gaussian, Inc.  All Rights Reserved.
  
 This is part of the Gaussian(R) 16 program.  It is based on
 the Gaussian(R) 09 system (copyright 2009, Gaussian, Inc.),
 the Gaussian(R) 03 system (copyright 2003, Gaussian, Inc.),
 the Gaussian(R) 98 system (copyright 1998, Gaussian, Inc.),
 the Gaussian(R) 94 system (copyright 1995, Gaussian, Inc.),
 the Gaussian 92(TM) system (copyright 1992, Gaussian, Inc.),
 the Gaussian 90(TM) system (copyright 1990, Gaussian, Inc.),
 the Gaussian 88(TM) system (copyright 1988, Gaussian, Inc.),
 the Gaussian 86(TM) system (copyright 1986, Carnegie Mellon
 University), and the Gaussian 82(TM) system (copyright 1983,
 Carnegie Mellon University). Gaussian is a federally registered
 trademark of Gaussian, Inc.
  
 This software contains proprietary and confidential information,
 including trade secrets, belonging to Gaussian, Inc.
  
 This software is provided under written license and may be
 used, copied, transmitted, or stored only in accord with that
 written license.
  
 The following legend is applicable only to US Government
 contracts under FAR:
  
                    RESTRICTED RIGHTS LEGEND
  
 Use, reproduction and disclosure by the US Government is
 subject to restrictions as set forth in subparagraphs (a)
 and (c) of the Commercial Computer Software - Restricted
 Rights clause in FAR 52.227-19.
  
 Gaussian, Inc.
 340 Quinnipiac St., Bldg. 40, Wallingford CT 06492
  
  
 ---------------------------------------------------------------
 Warning -- This program may not be used in any manner that
 competes with the business of Gaussian, Inc. or will provide
 assistance to any competitor of Gaussian, Inc.  The licensee
 of this program is prohibited from giving any competitor of
 Gaussian, Inc. access to this program.  By using this program,
 the user acknowledges that Gaussian, Inc. is engaged in the
 business of creating and licensing software in the field of
 computational chemistry and represents and warrants to the
 licensee that it is not a competitor of Gaussian, Inc. and that
 it will not use this program in any manner prohibited above.
 ---------------------------------------------------------------
  

 Cite this work as:
 Gaussian 16, Revision A.03,
 M. J. Frisch, G. W. Trucks, H. B. Schlegel, G. E. Scuseria, 
 M. A. Robb, J. R. Cheeseman, G. Scalmani, V. Barone, 
 G. A. Petersson, H. Nakatsuji, X. Li, M. Caricato, A. V. Marenich, 
 J. Bloino, B. G. Janesko, R. Gomperts, B. Mennucci, H. P. Hratchian, 
 J. V. Ortiz, A. F. Izmaylov, J. L. Sonnenberg, D. Williams-Young, 
 F. Ding, F. Lipparini, F. Egidi, J. Goings, B. Peng, A. Petrone, 
 T. Henderson, D. Ranasinghe, V. G. Zakrzewski, J. Gao, N. Rega, 
 G. Zheng, W. Liang, M. Hada, M. Ehara, K. Toyota, R. Fukuda, 
 J. Hasegawa, M. Ishida, T. Nakajima, Y. Honda, O. Kitao, H. Nakai, 
 T. Vreven, K. Throssell, J. A. Montgomery, Jr., J. E. Peralta, 
 F. Ogliaro, M. J. Bearpark, J. J. Heyd, E. N. Brothers, K. N. Kudin, 
 V. N. Staroverov, T. A. Keith, R. Kobayashi, J. Normand, 
 K. Raghavachari, A. P. Rendell, J. C. Burant, S. S. Iyengar, 
 J. Tomasi, M. Cossi, J. M. Millam, M. Klene, C. Adamo, R. Cammi, 
 J. W. Ochterski, R. L. Martin, K. Morokuma, O. Farkas, 
 J. B. Foresman, and D. J. Fox, Gaussian, Inc., Wallingford CT, 2016.
 
 ******************************************
 Gaussian 16:  ES64L-G16RevA.03 25-Dec-2016
                28-Apr-2022 
 ******************************************
 %nproc=24
 Will use up to   24 processors via shared memory.
 %mem=75GB
 ------------------------------
 #p blyp/Def2SVP td=(nstates=5)
 ------------------------------
 1/38=1,172=1/1;
 2/12=2,17=6,18=5,40=1/2;
 3/5=43,7=101,11=9,25=1,30=1,74=402/1,2,3,8;
 4//1;
 5/5=2,38=5/2;
 8/6=1,10=1,108=5/1;
 9/41=5,42=1,70=2/14;
 6/7=2,8=2,9=2,10=2/1;
 99/5=1,9=1/99;
 Leave Link    1 at Thu Apr 28 14:03:00 2022, MaxMem= 10066329600 cpu:               1.0 elap:               0.0
 (Enter /sw/apps/gaussian-16.0/g16/l101.exe)
 ---------------------------------------------------
 step_1601_chromophore_13 TDDFT with blyp functional
 ---------------------------------------------------
 Symbolic Z-matrix:
 Charge =  0 Multiplicity = 1
 Mg                    47.437    24.614    28.949 
 C                     48.102    26.797    31.529 
 C                     46.387    22.256    31.145 
 C                     47.903    22.193    26.591 
 C                     49.182    26.877    26.852 
 N                     47.116    24.6      31.01 
 C                     47.57     25.572    31.917 
 C                     47.472    25.138    33.404 
 C                     47.063    23.646    33.255 
 C                     46.737    23.474    31.678 
 C                     48.176    22.504    33.759 
 C                     46.475    26.038    34.208 
 C                     46.723    25.91     35.752 
 C                     45.588    26.465    36.658 
 O                     44.622    27.094    36.248 
 O                     45.749    26.149    38.013 
 N                     46.822    22.529    28.821 
 C                     46.363    21.797    29.832 
 C                     45.967    20.509    29.283 
 C                     46.378    20.498    27.966 
 C                     47.075    21.743    27.709 
 C                     45.166    19.424    30.046 
 C                     46.325    19.378    26.923 
 O                     46.756    19.647    25.823 
 C                     45.768    18.031    27.269 
 N                     48.531    24.574    27.127 
 C                     48.473    23.451    26.318 
 C                     49.399    23.623    25.153 
 C                     49.439    25.213    25.022 
 C                     48.972    25.637    26.354 
 C                     50.777    22.936    25.226 
 C                     48.671    25.924    23.892 
 C                     47.182    26.357    24.196 
 N                     48.218    26.544    29.1 
 C                     48.793    27.32     28.133 
 C                     49.021    28.663    28.637 
 C                     48.821    28.446    30.036 
 C                     48.418    27.178    30.244 
 C                     49.408    29.87     27.753 
 C                     49.026    29.048    31.383 
 O                     49.343    30.175    31.716 
 C                     48.579    27.977    32.384 
 C                     49.712    27.658    33.32 
 O                     50.605    26.833    33.08 
 O                     49.555    28.397    34.475 
 C                     50.575    28.037    35.486 
 C                     44.551    26.309    38.87 
 C                     44.664    25.041    39.733 
 C                     44.302    24.953    41.014 
 C                     43.679    26.047    41.899 
 C                     44.433    23.687    41.848 
 C                     43.971    22.389    41.134 
 C                     43.219    21.32     42.083 
 C                     41.729    21.03     41.858 
 C                     41.571    20.401    40.484 
 C                     40.872    22.378    42.03 
 C                     40.109    22.502    43.397 
 C                     40.362    23.758    44.14 
 C                     40.446    23.628    45.704 
 C                     39.194    24.157    46.508 
 C                     41.743    24.272    46.277 
 C                     42.878    23.236    46.508 
 C                     43.1      23.068    48.049 
 C                     43.771    24.354    48.783 
 C                     44.954    23.88     49.623 
 C                     42.777    25.244    49.433 
 H                     46.077    21.468    31.835 
 H                     48.078    21.478    25.784 
 H                     49.617    27.564    26.123 
 H                     48.466    25.016    33.835 
 H                     46.244    23.464    33.951 
 H                     47.793    21.694    34.38 
 H                     49.067    22.995    34.151 
 H                     48.522    22.12     32.8 
 H                     45.502    25.592    33.999 
 H                     46.462    27.065    33.843 
 H                     47.658    26.384    36.05 
 H                     46.768    24.853    36.015 
 H                     44.917    19.757    31.053 
 H                     45.773    18.519    30.003 
 H                     44.273    19.208    29.46 
 H                     44.707    18.179    27.473 
 H                     46.363    17.715    28.126 
 H                     45.94     17.398    26.399 
 H                     48.869    23.224    24.288 
 H                     50.434    25.643    24.903 
 H                     51.596    23.585    25.535 
 H                     51.012    22.411    24.3 
 H                     50.788    22.183    26.014 
 H                     48.76     25.36     22.963 
 H                     49.133    26.908    23.823 
 H                     46.633    26.168    23.273 
 H                     47.02     27.395    24.487 
 H                     46.655    25.797    24.968 
 H                     48.948    29.669    26.785 
 H                     50.491    29.839    27.632 
 H                     49.068    30.86     28.057 
 H                     47.842    28.575    32.919 
 H                     50.67     28.897    36.149 
 H                     51.514    27.634    35.106 
 H                     50.133    27.269    36.121 
 H                     43.546    26.31     38.447 
 H                     44.652    27.272    39.371 
 H                     45.095    24.179    39.224 
 H                     44.427    26.222    42.672 
 H                     42.678    25.84     42.276 
 H                     43.55     26.973    41.338 
 H                     43.843    23.771    42.761 
 H                     45.491    23.646    42.109 
 H                     44.808    21.891    40.647 
 H                     43.388    22.567    40.231 
 H                     43.313    21.661    43.114 
 H                     43.688    20.336    42.054 
 H                     41.373    20.271    42.555 
 H                     42.377    19.692    40.295 
 H                     41.583    21.123    39.667 
 H                     40.643    19.832    40.534 
 H                     40.048    22.489    41.325 
 H                     41.443    23.306    42.015 
 H                     40.474    21.596    43.882 
 H                     39.056    22.378    43.144 
 H                     39.507    24.404    43.937 
 H                     41.187    24.354    43.75 
 H                     40.513    22.55     45.85 
 H                     39.045    23.61     47.439 
 H                     38.264    23.991    45.963 
 H                     39.209    25.236    46.657 
 H                     41.502    24.872    47.154 
 H                     42.142    25.029    45.602 
 H                     43.759    23.503    45.923 
 H                     42.722    22.213    46.166 
 H                     43.546    22.098    48.265 
 H                     42.129    23.01     48.541 
 H                     44.289    24.919    48.008 
 H                     45.223    22.837    49.454 
 H                     44.746    23.898    50.693 
 H                     45.792    24.567    49.505 
 H                     42.59     26.188    48.92 
 H                     43.042    25.44     50.472 
 H                     41.732    24.937    49.389 
 
 ITRead=  0  0  0  0  0  0  0  0  0  0  0  0  0  0  0  0  0  0  0  0
 ITRead=  0  0  0  0  0  0  0  0  0  0  0  0  0  0  0  0  0  0  0  0
 ITRead=  0  0  0  0  0  0  0  0  0  0  0  0  0  0  0  0  0  0  0  0
 ITRead=  0  0  0  0  0  0  0  0  0  0  0  0  0  0  0  0  0  0  0  0
 ITRead=  0  0  0  0  0  0  0  0  0  0  0  0  0  0  0  0  0  0  0  0
 ITRead=  0  0  0  0  0  0  0  0  0  0  0  0  0  0  0  0  0  0  0  0
 ITRead=  0  0  0  0  0  0  0  0  0  0  0  0  0  0  0  0  0  0  0  0
 MicOpt= -1 -1 -1 -1 -1 -1 -1 -1 -1 -1 -1 -1 -1 -1 -1 -1 -1 -1 -1 -1
 MicOpt= -1 -1 -1 -1 -1 -1 -1 -1 -1 -1 -1 -1 -1 -1 -1 -1 -1 -1 -1 -1
 MicOpt= -1 -1 -1 -1 -1 -1 -1 -1 -1 -1 -1 -1 -1 -1 -1 -1 -1 -1 -1 -1
 MicOpt= -1 -1 -1 -1 -1 -1 -1 -1 -1 -1 -1 -1 -1 -1 -1 -1 -1 -1 -1 -1
 MicOpt= -1 -1 -1 -1 -1 -1 -1 -1 -1 -1 -1 -1 -1 -1 -1 -1 -1 -1 -1 -1
 MicOpt= -1 -1 -1 -1 -1 -1 -1 -1 -1 -1 -1 -1 -1 -1 -1 -1 -1 -1 -1 -1
 MicOpt= -1 -1 -1 -1 -1 -1 -1 -1 -1 -1 -1 -1 -1 -1 -1 -1 -1 -1 -1 -1
 NAtoms=    140 NQM=      140 NQMF=       0 NMMI=      0 NMMIF=      0
                NMic=       0 NMicF=      0.
                    Isotopes and Nuclear Properties:
 (Nuclear quadrupole moments (NQMom) in fm**2, nuclear magnetic moments (NMagM)
  in nuclear magnetons)

  Atom         1           2           3           4           5           6           7           8           9          10
 IAtWgt=          24          12          12          12          12          14          12          12          12          12
 AtmWgt=  23.9850450  12.0000000  12.0000000  12.0000000  12.0000000  14.0030740  12.0000000  12.0000000  12.0000000  12.0000000
 NucSpn=           0           0           0           0           0           2           0           0           0           0
 AtZEff=  -0.0000000  -0.0000000  -0.0000000  -0.0000000  -0.0000000  -0.0000000  -0.0000000  -0.0000000  -0.0000000  -0.0000000
 NQMom=    0.0000000   0.0000000   0.0000000   0.0000000   0.0000000   2.0440000   0.0000000   0.0000000   0.0000000   0.0000000
 NMagM=    0.0000000   0.0000000   0.0000000   0.0000000   0.0000000   0.4037610   0.0000000   0.0000000   0.0000000   0.0000000
 AtZNuc=  12.0000000   6.0000000   6.0000000   6.0000000   6.0000000   7.0000000   6.0000000   6.0000000   6.0000000   6.0000000

  Atom        11          12          13          14          15          16          17          18          19          20
 IAtWgt=          12          12          12          12          16          16          14          12          12          12
 AtmWgt=  12.0000000  12.0000000  12.0000000  12.0000000  15.9949146  15.9949146  14.0030740  12.0000000  12.0000000  12.0000000
 NucSpn=           0           0           0           0           0           0           2           0           0           0
 AtZEff=  -0.0000000  -0.0000000  -0.0000000  -0.0000000  -0.0000000  -0.0000000  -0.0000000  -0.0000000  -0.0000000  -0.0000000
 NQMom=    0.0000000   0.0000000   0.0000000   0.0000000   0.0000000   0.0000000   2.0440000   0.0000000   0.0000000   0.0000000
 NMagM=    0.0000000   0.0000000   0.0000000   0.0000000   0.0000000   0.0000000   0.4037610   0.0000000   0.0000000   0.0000000
 AtZNuc=   6.0000000   6.0000000   6.0000000   6.0000000   8.0000000   8.0000000   7.0000000   6.0000000   6.0000000   6.0000000

  Atom        21          22          23          24          25          26          27          28          29          30
 IAtWgt=          12          12          12          16          12          14          12          12          12          12
 AtmWgt=  12.0000000  12.0000000  12.0000000  15.9949146  12.0000000  14.0030740  12.0000000  12.0000000  12.0000000  12.0000000
 NucSpn=           0           0           0           0           0           2           0           0           0           0
 AtZEff=  -0.0000000  -0.0000000  -0.0000000  -0.0000000  -0.0000000  -0.0000000  -0.0000000  -0.0000000  -0.0000000  -0.0000000
 NQMom=    0.0000000   0.0000000   0.0000000   0.0000000   0.0000000   2.0440000   0.0000000   0.0000000   0.0000000   0.0000000
 NMagM=    0.0000000   0.0000000   0.0000000   0.0000000   0.0000000   0.4037610   0.0000000   0.0000000   0.0000000   0.0000000
 AtZNuc=   6.0000000   6.0000000   6.0000000   8.0000000   6.0000000   7.0000000   6.0000000   6.0000000   6.0000000   6.0000000

  Atom        31          32          33          34          35          36          37          38          39          40
 IAtWgt=          12          12          12          14          12          12          12          12          12          12
 AtmWgt=  12.0000000  12.0000000  12.0000000  14.0030740  12.0000000  12.0000000  12.0000000  12.0000000  12.0000000  12.0000000
 NucSpn=           0           0           0           2           0           0           0           0           0           0
 AtZEff=  -0.0000000  -0.0000000  -0.0000000  -0.0000000  -0.0000000  -0.0000000  -0.0000000  -0.0000000  -0.0000000  -0.0000000
 NQMom=    0.0000000   0.0000000   0.0000000   2.0440000   0.0000000   0.0000000   0.0000000   0.0000000   0.0000000   0.0000000
 NMagM=    0.0000000   0.0000000   0.0000000   0.4037610   0.0000000   0.0000000   0.0000000   0.0000000   0.0000000   0.0000000
 AtZNuc=   6.0000000   6.0000000   6.0000000   7.0000000   6.0000000   6.0000000   6.0000000   6.0000000   6.0000000   6.0000000

  Atom        41          42          43          44          45          46          47          48          49          50
 IAtWgt=          16          12          12          16          16          12          12          12          12          12
 AtmWgt=  15.9949146  12.0000000  12.0000000  15.9949146  15.9949146  12.0000000  12.0000000  12.0000000  12.0000000  12.0000000
 NucSpn=           0           0           0           0           0           0           0           0           0           0
 AtZEff=  -0.0000000  -0.0000000  -0.0000000  -0.0000000  -0.0000000  -0.0000000  -0.0000000  -0.0000000  -0.0000000  -0.0000000
 NQMom=    0.0000000   0.0000000   0.0000000   0.0000000   0.0000000   0.0000000   0.0000000   0.0000000   0.0000000   0.0000000
 NMagM=    0.0000000   0.0000000   0.0000000   0.0000000   0.0000000   0.0000000   0.0000000   0.0000000   0.0000000   0.0000000
 AtZNuc=   8.0000000   6.0000000   6.0000000   8.0000000   8.0000000   6.0000000   6.0000000   6.0000000   6.0000000   6.0000000

  Atom        51          52          53          54          55          56          57          58          59          60
 IAtWgt=          12          12          12          12          12          12          12          12          12          12
 AtmWgt=  12.0000000  12.0000000  12.0000000  12.0000000  12.0000000  12.0000000  12.0000000  12.0000000  12.0000000  12.0000000
 NucSpn=           0           0           0           0           0           0           0           0           0           0
 AtZEff=  -0.0000000  -0.0000000  -0.0000000  -0.0000000  -0.0000000  -0.0000000  -0.0000000  -0.0000000  -0.0000000  -0.0000000
 NQMom=    0.0000000   0.0000000   0.0000000   0.0000000   0.0000000   0.0000000   0.0000000   0.0000000   0.0000000   0.0000000
 NMagM=    0.0000000   0.0000000   0.0000000   0.0000000   0.0000000   0.0000000   0.0000000   0.0000000   0.0000000   0.0000000
 AtZNuc=   6.0000000   6.0000000   6.0000000   6.0000000   6.0000000   6.0000000   6.0000000   6.0000000   6.0000000   6.0000000

  Atom        61          62          63          64          65          66          67          68          69          70
 IAtWgt=          12          12          12          12          12          12           1           1           1           1
 AtmWgt=  12.0000000  12.0000000  12.0000000  12.0000000  12.0000000  12.0000000   1.0078250   1.0078250   1.0078250   1.0078250
 NucSpn=           0           0           0           0           0           0           1           1           1           1
 AtZEff=  -0.0000000  -0.0000000  -0.0000000  -0.0000000  -0.0000000  -0.0000000  -0.0000000  -0.0000000  -0.0000000  -0.0000000
 NQMom=    0.0000000   0.0000000   0.0000000   0.0000000   0.0000000   0.0000000   0.0000000   0.0000000   0.0000000   0.0000000
 NMagM=    0.0000000   0.0000000   0.0000000   0.0000000   0.0000000   0.0000000   2.7928460   2.7928460   2.7928460   2.7928460
 AtZNuc=   6.0000000   6.0000000   6.0000000   6.0000000   6.0000000   6.0000000   1.0000000   1.0000000   1.0000000   1.0000000

  Atom        71          72          73          74          75          76          77          78          79          80
 IAtWgt=           1           1           1           1           1           1           1           1           1           1
 AtmWgt=   1.0078250   1.0078250   1.0078250   1.0078250   1.0078250   1.0078250   1.0078250   1.0078250   1.0078250   1.0078250
 NucSpn=           1           1           1           1           1           1           1           1           1           1
 AtZEff=  -0.0000000  -0.0000000  -0.0000000  -0.0000000  -0.0000000  -0.0000000  -0.0000000  -0.0000000  -0.0000000  -0.0000000
 NQMom=    0.0000000   0.0000000   0.0000000   0.0000000   0.0000000   0.0000000   0.0000000   0.0000000   0.0000000   0.0000000
 NMagM=    2.7928460   2.7928460   2.7928460   2.7928460   2.7928460   2.7928460   2.7928460   2.7928460   2.7928460   2.7928460
 AtZNuc=   1.0000000   1.0000000   1.0000000   1.0000000   1.0000000   1.0000000   1.0000000   1.0000000   1.0000000   1.0000000

  Atom        81          82          83          84          85          86          87          88          89          90
 IAtWgt=           1           1           1           1           1           1           1           1           1           1
 AtmWgt=   1.0078250   1.0078250   1.0078250   1.0078250   1.0078250   1.0078250   1.0078250   1.0078250   1.0078250   1.0078250
 NucSpn=           1           1           1           1           1           1           1           1           1           1
 AtZEff=  -0.0000000  -0.0000000  -0.0000000  -0.0000000  -0.0000000  -0.0000000  -0.0000000  -0.0000000  -0.0000000  -0.0000000
 NQMom=    0.0000000   0.0000000   0.0000000   0.0000000   0.0000000   0.0000000   0.0000000   0.0000000   0.0000000   0.0000000
 NMagM=    2.7928460   2.7928460   2.7928460   2.7928460   2.7928460   2.7928460   2.7928460   2.7928460   2.7928460   2.7928460
 AtZNuc=   1.0000000   1.0000000   1.0000000   1.0000000   1.0000000   1.0000000   1.0000000   1.0000000   1.0000000   1.0000000

  Atom        91          92          93          94          95          96          97          98          99         100
 IAtWgt=           1           1           1           1           1           1           1           1           1           1
 AtmWgt=   1.0078250   1.0078250   1.0078250   1.0078250   1.0078250   1.0078250   1.0078250   1.0078250   1.0078250   1.0078250
 NucSpn=           1           1           1           1           1           1           1           1           1           1
 AtZEff=  -0.0000000  -0.0000000  -0.0000000  -0.0000000  -0.0000000  -0.0000000  -0.0000000  -0.0000000  -0.0000000  -0.0000000
 NQMom=    0.0000000   0.0000000   0.0000000   0.0000000   0.0000000   0.0000000   0.0000000   0.0000000   0.0000000   0.0000000
 NMagM=    2.7928460   2.7928460   2.7928460   2.7928460   2.7928460   2.7928460   2.7928460   2.7928460   2.7928460   2.7928460
 AtZNuc=   1.0000000   1.0000000   1.0000000   1.0000000   1.0000000   1.0000000   1.0000000   1.0000000   1.0000000   1.0000000

  Atom       101         102         103         104         105         106         107         108         109         110
 IAtWgt=           1           1           1           1           1           1           1           1           1           1
 AtmWgt=   1.0078250   1.0078250   1.0078250   1.0078250   1.0078250   1.0078250   1.0078250   1.0078250   1.0078250   1.0078250
 NucSpn=           1           1           1           1           1           1           1           1           1           1
 AtZEff=  -0.0000000  -0.0000000  -0.0000000  -0.0000000  -0.0000000  -0.0000000  -0.0000000  -0.0000000  -0.0000000  -0.0000000
 NQMom=    0.0000000   0.0000000   0.0000000   0.0000000   0.0000000   0.0000000   0.0000000   0.0000000   0.0000000   0.0000000
 NMagM=    2.7928460   2.7928460   2.7928460   2.7928460   2.7928460   2.7928460   2.7928460   2.7928460   2.7928460   2.7928460
 AtZNuc=   1.0000000   1.0000000   1.0000000   1.0000000   1.0000000   1.0000000   1.0000000   1.0000000   1.0000000   1.0000000

  Atom       111         112         113         114         115         116         117         118         119         120
 IAtWgt=           1           1           1           1           1           1           1           1           1           1
 AtmWgt=   1.0078250   1.0078250   1.0078250   1.0078250   1.0078250   1.0078250   1.0078250   1.0078250   1.0078250   1.0078250
 NucSpn=           1           1           1           1           1           1           1           1           1           1
 AtZEff=  -0.0000000  -0.0000000  -0.0000000  -0.0000000  -0.0000000  -0.0000000  -0.0000000  -0.0000000  -0.0000000  -0.0000000
 NQMom=    0.0000000   0.0000000   0.0000000   0.0000000   0.0000000   0.0000000   0.0000000   0.0000000   0.0000000   0.0000000
 NMagM=    2.7928460   2.7928460   2.7928460   2.7928460   2.7928460   2.7928460   2.7928460   2.7928460   2.7928460   2.7928460
 AtZNuc=   1.0000000   1.0000000   1.0000000   1.0000000   1.0000000   1.0000000   1.0000000   1.0000000   1.0000000   1.0000000

  Atom       121         122         123         124         125         126         127         128         129         130
 IAtWgt=           1           1           1           1           1           1           1           1           1           1
 AtmWgt=   1.0078250   1.0078250   1.0078250   1.0078250   1.0078250   1.0078250   1.0078250   1.0078250   1.0078250   1.0078250
 NucSpn=           1           1           1           1           1           1           1           1           1           1
 AtZEff=  -0.0000000  -0.0000000  -0.0000000  -0.0000000  -0.0000000  -0.0000000  -0.0000000  -0.0000000  -0.0000000  -0.0000000
 NQMom=    0.0000000   0.0000000   0.0000000   0.0000000   0.0000000   0.0000000   0.0000000   0.0000000   0.0000000   0.0000000
 NMagM=    2.7928460   2.7928460   2.7928460   2.7928460   2.7928460   2.7928460   2.7928460   2.7928460   2.7928460   2.7928460
 AtZNuc=   1.0000000   1.0000000   1.0000000   1.0000000   1.0000000   1.0000000   1.0000000   1.0000000   1.0000000   1.0000000

  Atom       131         132         133         134         135         136         137         138         139         140
 IAtWgt=           1           1           1           1           1           1           1           1           1           1
 AtmWgt=   1.0078250   1.0078250   1.0078250   1.0078250   1.0078250   1.0078250   1.0078250   1.0078250   1.0078250   1.0078250
 NucSpn=           1           1           1           1           1           1           1           1           1           1
 AtZEff=  -0.0000000  -0.0000000  -0.0000000  -0.0000000  -0.0000000  -0.0000000  -0.0000000  -0.0000000  -0.0000000  -0.0000000
 NQMom=    0.0000000   0.0000000   0.0000000   0.0000000   0.0000000   0.0000000   0.0000000   0.0000000   0.0000000   0.0000000
 NMagM=    2.7928460   2.7928460   2.7928460   2.7928460   2.7928460   2.7928460   2.7928460   2.7928460   2.7928460   2.7928460
 AtZNuc=   1.0000000   1.0000000   1.0000000   1.0000000   1.0000000   1.0000000   1.0000000   1.0000000   1.0000000   1.0000000
 Leave Link  101 at Thu Apr 28 14:03:00 2022, MaxMem= 10066329600 cpu:               2.8 elap:               0.1
 (Enter /sw/apps/gaussian-16.0/g16/l202.exe)
 Stoichiometry    C55H74MgN4O6
 Framework group  C1[X(C55H74MgN4O6)]
 Deg. of freedom   414
 Full point group                 C1      NOp   1
 Largest Abelian subgroup         C1      NOp   1
 Largest concise Abelian subgroup C1      NOp   1
                         Standard orientation:                         
 ---------------------------------------------------------------------
 Center     Atomic      Atomic             Coordinates (Angstroms)
 Number     Number       Type             X           Y           Z
 ---------------------------------------------------------------------
      1         12           0       -5.782184    0.357881   -0.431430
      2          6           0       -3.639937   -2.327846   -0.182911
      3          6           0       -3.265044    2.501565    0.312683
      4          6           0       -8.057147    2.742454    0.449998
      5          6           0       -8.418664   -2.009762   -0.514143
      6          7           0       -3.725786    0.133983   -0.163000
      7          6           0       -3.050718   -1.084436    0.019444
      8          6           0       -1.589945   -0.924462    0.519124
      9          6           0       -1.536776    0.601781    0.807748
     10          6           0       -2.923220    1.174893    0.197744
     11          6           0       -1.356008    1.062288    2.405310
     12          6           0       -0.555295   -1.453266   -0.529823
     13          6           0        0.837629   -1.720719    0.141039
     14          6           0        2.027620   -1.902978   -0.842724
     15          8           0        1.912903   -1.985152   -2.058037
     16          8           0        3.276845   -1.932668   -0.209987
     17          7           0       -5.618181    2.494479   -0.044280
     18          6           0       -4.482737    3.156386    0.158877
     19          6           0       -4.822223    4.567501    0.262153
     20          6           0       -6.199822    4.642209    0.275211
     21          6           0       -6.717287    3.288411    0.238542
     22          6           0       -3.799293    5.731356    0.269184
     23          6           0       -7.122810    5.849104    0.466403
     24          8           0       -8.313281    5.627133    0.426045
     25          6           0       -6.560173    7.219144    0.691807
     26          7           0       -7.851339    0.263510    0.045866
     27          6           0       -8.550627    1.433087    0.294987
     28          6           0       -9.953349    1.102094    0.703764
     29          6           0      -10.161052   -0.306683   -0.016699
     30          6           0       -8.770114   -0.728363   -0.260760
     31          6           0      -10.284701    1.124162    2.209055
     32          6           0      -11.024469   -0.415208   -1.287517
     33          6           0      -10.289385   -0.232500   -2.674346
     34          7           0       -5.969404   -1.714296   -0.600817
     35          6           0       -7.101368   -2.471815   -0.713563
     36          6           0       -6.754452   -3.853526   -0.996712
     37          6           0       -5.354923   -3.828255   -0.705217
     38          6           0       -4.974927   -2.568156   -0.420175
     39          6           0       -7.768057   -4.931053   -1.443494
     40          6           0       -4.167993   -4.692223   -0.453037
     41          8           0       -4.001529   -5.888104   -0.606872
     42          6           0       -3.030675   -3.731721   -0.088629
     43          6           0       -2.483017   -4.089999    1.265348
     44          8           0       -2.953385   -3.685892    2.338252
     45          8           0       -1.371063   -4.889978    1.096860
     46          6           0       -0.715059   -5.177971    2.392561
     47          6           0        4.457678   -1.728087   -1.081212
     48          6           0        5.297606   -0.801636   -0.185906
     49          6           0        6.630131   -0.802226   -0.121678
     50          6           0        7.615934   -1.674772   -0.918577
     51          6           0        7.436824    0.120129    0.780531
     52          6           0        6.961900    1.597429    0.789167
     53          6           0        8.145244    2.693092    0.879082
     54          6           0        8.411008    3.615051   -0.318493
     55          6           0        7.184958    4.488252   -0.525381
     56          6           0        8.782275    2.742477   -1.615379
     57          6           0       10.312429    2.705422   -1.966788
     58          6           0       10.882145    1.347729   -2.127064
     59          6           0       12.345457    1.147065   -1.589936
     60          6           0       13.476452    1.055241   -2.688198
     61          6           0       12.454462   -0.071912   -0.626876
     62          6           0       12.364618    0.334114    0.870439
     63          6           0       13.764616    0.113690    1.536477
     64          6           0       14.193644   -1.443953    1.716689
     65          6           0       14.641489   -1.667885    3.158581
     66          6           0       15.081697   -1.937414    0.634795
     67          1           0       -2.478272    3.208727    0.584816
     68          1           0       -8.845649    3.450952    0.713427
     69          1           0       -9.277051   -2.672279   -0.644061
     70          1           0       -1.486677   -1.309168    1.534022
     71          1           0       -0.612044    0.981259    0.372814
     72          1           0       -0.610872    1.831984    2.607228
     73          1           0       -1.284841    0.181920    3.044459
     74          1           0       -2.356989    1.431894    2.625038
     75          1           0       -0.429191   -0.611569   -1.211710
     76          1           0       -0.943307   -2.296542   -1.101186
     77          1           0        0.806604   -2.587454    0.800972
     78          1           0        1.120195   -0.845776    0.726765
     79          1           0       -2.780854    5.357947    0.167755
     80          1           0       -3.989692    6.290902    1.185688
     81          1           0       -4.066149    6.402613   -0.546723
     82          1           0       -6.041194    7.494532   -0.226922
     83          1           0       -5.919231    7.097460    1.565143
     84          1           0       -7.411162    7.867220    0.899142
     85          1           0      -10.590339    1.834602    0.207778
     86          1           0      -10.604509   -1.084351    0.605927
     87          1           0      -10.276792    0.148169    2.693636
     88          1           0      -11.213350    1.659801    2.406610
     89          1           0       -9.506972    1.648257    2.764516
     90          1           0      -11.908535    0.216768   -1.197561
     91          1           0      -11.278393   -1.472136   -1.357419
     92          1           0      -10.984819    0.331420   -3.296775
     93          1           0      -10.008896   -1.141212   -3.207204
     94          1           0       -9.367075    0.347700   -2.669247
     95          1           0       -8.533501   -4.385588   -1.996295
     96          1           0       -8.220394   -5.334739   -0.537448
     97          1           0       -7.417390   -5.724906   -2.102998
     98          1           0       -2.319131   -4.052037   -0.848959
     99          1           0       -0.154136   -6.102616    2.256213
    100          1           0       -1.351462   -5.143643    3.277062
    101          1           0        0.059950   -4.423506    2.528778
    102          1           0        4.370838   -1.232489   -2.048578
    103          1           0        4.858438   -2.717810   -1.301233
    104          1           0        4.718264   -0.122944    0.439895
    105          1           0        8.107407   -2.282499   -0.159116
    106          1           0        8.296095   -1.139532   -1.580301
    107          1           0        7.082778   -2.344352   -1.594037
    108          1           0        8.483902    0.127962    0.476735
    109          1           0        7.355169   -0.332893    1.769100
    110          1           0        6.260141    1.778250    1.601928
    111          1           0        6.279715    1.845230   -0.023361
    112          1           0        9.078754    2.164759    1.072738
    113          1           0        8.014837    3.378184    1.717355
    114          1           0        9.217523    4.314378   -0.096905
    115          1           0        6.785028    4.816305    0.434033
    116          1           0        6.373900    3.987351   -1.054721
    117          1           0        7.548184    5.374055   -1.045827
    118          1           0        8.366345    3.115137   -2.551567
    119          1           0        8.547968    1.680097   -1.552923
    120          1           0       10.698734    3.272138   -1.118916
    121          1           0       10.407467    3.301816   -2.874244
    122          1           0       10.928319    1.166759   -3.201619
    123          1           0       10.227383    0.542119   -1.795069
    124          1           0       12.511073    2.052542   -1.006351
    125          1           0       14.430734    1.437146   -2.325341
    126          1           0       13.257843    1.690087   -3.547652
    127          1           0       13.565002    0.061519   -3.125625
    128          1           0       13.335157   -0.663003   -0.876272
    129          1           0       11.655451   -0.791403   -0.805173
    130          1           0       11.522001   -0.166939    1.348578
    131          1           0       12.134593    1.371671    1.112088
    132          1           0       13.873220    0.751879    2.412487
    133          1           0       14.537847    0.483041    0.862711
    134          1           0       13.271081   -2.024300    1.700870
    135          1           0       14.443481   -0.821422    3.816658
    136          1           0       15.720913   -1.789325    3.251234
    137          1           0       14.236653   -2.608868    3.531136
    138          1           0       14.611429   -2.607390   -0.085798
    139          1           0       15.975748   -2.409624    1.042046
    140          1           0       15.380675   -1.219025   -0.128578
 ---------------------------------------------------------------------
 Rotational constants (GHZ):           0.0536713           0.0091607           0.0081752
 Leave Link  202 at Thu Apr 28 14:03:00 2022, MaxMem= 10066329600 cpu:               1.3 elap:               0.1
 (Enter /sw/apps/gaussian-16.0/g16/l301.exe)
 Standard basis: def2SVP (5D, 7F)
 Ernie: Thresh=  0.10000D-02 Tol=  0.10000D-05 Strict=F.
 There are  1364 symmetry adapted cartesian basis functions of A   symmetry.
 There are  1298 symmetry adapted basis functions of A   symmetry.
  1298 basis functions,  2180 primitive gaussians,  1364 cartesian basis functions
   246 alpha electrons      246 beta electrons
       nuclear repulsion energy      9515.5496462116 Hartrees.
 IExCor=  402 DFT=T Ex=B Corr=LYP ExCW=0 ScaHFX=  0.000000
 ScaDFX=  1.000000  1.000000  1.000000  1.000000 ScalE2=  1.000000  1.000000
 IRadAn=      5 IRanWt=     -1 IRanGd=            0 ICorTp=0 IEmpDi=  4
 NAtoms=  140 NActive=  140 NUniq=  140 SFac= 1.00D+00 NAtFMM=   60 NAOKFM=T Big=T
 Integral buffers will be    131072 words long.
 Regular integral format.
 Two-electron integral symmetry is turned on.
 Leave Link  301 at Thu Apr 28 14:03:00 2022, MaxMem= 10066329600 cpu:               1.9 elap:               0.1
 (Enter /sw/apps/gaussian-16.0/g16/l302.exe)
 NPDir=0 NMtPBC=     1 NCelOv=     1 NCel=       1 NClECP=     1 NCelD=      1
         NCelK=      1 NCelE2=     1 NClLst=     1 CellRange=     0.0.
 One-electron integrals computed using PRISM.
 One-electron integral symmetry used in STVInt
   1 Symmetry operations used in ECPInt.
 ECPInt:  NShTT=  192510 NPrTT=  683786 LenC2=   93254 LenP2D=  206387.
 LDataN:  DoStor=T MaxTD1= 4 Len=   56
 NBasis=  1298 RedAO= T EigKep=  2.75D-04  NBF=  1298
 NBsUse=  1298 1.00D-06 EigRej= -1.00D+00 NBFU=  1298
 Precomputing XC quadrature grid using
 IXCGrd= 4 IRadAn=           5 IRanWt=          -1 IRanGd=           0 AccXCQ= 0.00D+00.
 Generated NRdTot=       0 NPtTot=           0 NUsed=           0 NTot=          32
 NSgBfM=   993   980   983   986   993 MxSgAt=   140 MxSgA2=   140.
 Leave Link  302 at Thu Apr 28 14:03:03 2022, MaxMem= 10066329600 cpu:              74.1 elap:               3.1
 (Enter /sw/apps/gaussian-16.0/g16/l303.exe)
 DipDrv:  MaxL=1.
 Leave Link  303 at Thu Apr 28 14:03:04 2022, MaxMem= 10066329600 cpu:               5.7 elap:               0.3
 (Enter /sw/apps/gaussian-16.0/g16/l308.exe)
 Leave Link  308 at Thu Apr 28 14:03:04 2022, MaxMem= 10066329600 cpu:               9.6 elap:               0.5
 (Enter /sw/apps/gaussian-16.0/g16/l401.exe)
 ExpMin= 3.36D-02 ExpMax= 4.95D+03 ExpMxC= 7.45D+02 IAcc=3 IRadAn=         5 AccDes= 0.00D+00
 Harris functional with IExCor=  402 and IRadAn=       5 diagonalized for initial guess.
 HarFok:  IExCor=  402 AccDes= 0.00D+00 IRadAn=         5 IDoV= 1 UseB2=F ITyADJ=14
 ICtDFT=  3500011 ScaDFX=  1.000000  1.000000  1.000000  1.000000
 FoFCou: FMM=F IPFlag=           0 FMFlag=      100000 FMFlg1=        2001
         NFxFlg=           0 DoJE=T BraDBF=F KetDBF=T FulRan=T
         wScrn=  0.000000 ICntrl=       500 IOpCl=  0 I1Cent=   200000004 NGrid=           0
         NMat0=    1 NMatS0=      1 NMatT0=    0 NMatD0=    1 NMtDS0=    0 NMtDT0=    0
 Petite list used in FoFCou.
 Harris En= -3008.74745740965    
 JPrj=0 DoOrth=F DoCkMO=F.
 Leave Link  401 at Thu Apr 28 14:03:10 2022, MaxMem= 10066329600 cpu:             138.6 elap:               5.8
 (Enter /sw/apps/gaussian-16.0/g16/l502.exe)
 Integral symmetry usage will be decided dynamically.
 Closed shell SCF:
 Using DIIS extrapolation, IDIIS=  1040.
 NGot= 10066329600 LenX= 10062561258 LenY= 10060699398
 Requested convergence on RMS density matrix=1.00D-08 within 128 cycles.
 Requested convergence on MAX density matrix=1.00D-06.
 Requested convergence on             energy=1.00D-06.
 No special actions if energy rises.
 Fock matrices will be formed incrementally for  20 cycles.

 Cycle   1  Pass 1  IDiag  1:
 FoFJK:  IHMeth= 1 ICntrl=     500 DoSepK=F KAlg= 0 I1Cent=           0 FoldK=F
 IRaf= 520000000 NMat=       1 IRICut=       1 DoRegI=T DoRafI=F ISym2E= 0 IDoP0=0 IntGTp=1.
 FoFCou: FMM=T IPFlag=           0 FMFlag=      100000 FMFlg1=        2001
         NFxFlg=           0 DoJE=T BraDBF=F KetDBF=F FulRan=T
         wScrn=  0.000000 ICntrl=       500 IOpCl=  0 I1Cent=           0 NGrid=           0
         NMat0=    1 NMatS0=      1 NMatT0=    0 NMatD0=    1 NMtDS0=    0 NMtDT0=    0
 Symmetry not used in FoFCou.
 FMM levels:  10  Number of levels for PrismC:   9
 E= -3005.66878579288    
 DIIS: error= 1.84D-02 at cycle   1 NSaved=   1.
 NSaved= 1 IEnMin= 1 EnMin= -3005.66878579288     IErMin= 1 ErrMin= 1.84D-02
 ErrMax= 1.84D-02  0.00D+00 EMaxC= 1.00D-01 BMatC= 1.53D+00 BMatP= 1.53D+00
 IDIUse=3 WtCom= 8.16D-01 WtEn= 1.84D-01
 Coeff-Com:  0.100D+01
 Coeff-En:   0.100D+01
 Coeff:      0.100D+01
 Gap=     0.045 Goal=   None    Shift=    0.000
 GapD=    0.045 DampG=0.250 DampE=0.500 DampFc=0.2500 IDamp=-1.
 Damping current iteration by 2.50D-01
 RMSDP=3.77D-03 MaxDP=5.72D-01              OVMax= 8.68D-01

 Cycle   2  Pass 1  IDiag  1:
 RMSU=  9.37D-04    CP:  9.89D-01
 E= -3006.16697936426     Delta-E=       -0.498193571377 Rises=F Damp=T
 DIIS: error= 7.73D-03 at cycle   2 NSaved=   2.
 NSaved= 2 IEnMin= 2 EnMin= -3006.16697936426     IErMin= 2 ErrMin= 7.73D-03
 ErrMax= 7.73D-03  0.00D+00 EMaxC= 1.00D-01 BMatC= 2.53D-01 BMatP= 1.53D+00
 IDIUse=3 WtCom= 9.23D-01 WtEn= 7.73D-02
 Coeff-Com: -0.300D+00 0.130D+01
 Coeff-En:   0.724D-01 0.928D+00
 Coeff:     -0.271D+00 0.127D+01
 Gap=    -0.333 Goal=   None    Shift=    0.000
 RMSDP=1.58D-03 MaxDP=2.33D-01 DE=-4.98D-01 OVMax= 5.40D-01

 Cycle   3  Pass 1  IDiag  1:
 RMSU=  1.55D-03    CP:  9.66D-01  1.23D+00
 E= -3005.38541038001     Delta-E=        0.781568984248 Rises=F Damp=F
 DIIS: error= 3.56D-02 at cycle   3 NSaved=   3.
 NSaved= 3 IEnMin= 2 EnMin= -3006.16697936426     IErMin= 2 ErrMin= 7.73D-03
 ErrMax= 3.56D-02  0.00D+00 EMaxC= 1.00D-01 BMatC= 1.48D+00 BMatP= 2.53D-01
 IDIUse=2 WtCom= 0.00D+00 WtEn= 1.00D+00
 Coeff-En:   0.000D+00 0.661D+00 0.339D+00
 Coeff:      0.000D+00 0.661D+00 0.339D+00
 Gap=     0.091 Goal=   None    Shift=    0.000
 RMSDP=2.20D-03 MaxDP=4.75D-01 DE= 7.82D-01 OVMax= 8.57D-01

 Cycle   4  Pass 1  IDiag  1:
 RMSU=  1.24D-03    CP:  9.66D-01  1.92D+00 -1.00D-01
 E= -3003.58089955358     Delta-E=        1.804510826434 Rises=F Damp=F
 DIIS: error= 4.01D-02 at cycle   4 NSaved=   4.
 NSaved= 4 IEnMin= 2 EnMin= -3006.16697936426     IErMin= 2 ErrMin= 7.73D-03
 ErrMax= 4.01D-02  0.00D+00 EMaxC= 1.00D-01 BMatC= 2.55D+00 BMatP= 2.53D-01
 IDIUse=2 WtCom= 0.00D+00 WtEn= 1.00D+00
 EnCoef did     1 forward-backward iterations
 Coeff-En:   0.105D+00 0.000D+00 0.533D+00 0.362D+00
 Coeff:      0.105D+00 0.000D+00 0.533D+00 0.362D+00
 Gap=     0.038 Goal=   None    Shift=    0.000
 RMSDP=1.60D-03 MaxDP=3.56D-01 DE= 1.80D+00 OVMax= 7.01D-01

 Cycle   5  Pass 1  IDiag  1:
 RMSU=  7.71D-04    CP:  9.80D-01  1.21D+00  9.58D-02  4.74D-02
 E= -3006.97408675455     Delta-E=       -3.393187200978 Rises=F Damp=F
 DIIS: error= 2.86D-02 at cycle   5 NSaved=   5.
 NSaved= 5 IEnMin= 5 EnMin= -3006.97408675455     IErMin= 2 ErrMin= 7.73D-03
 ErrMax= 2.86D-02  0.00D+00 EMaxC= 1.00D-01 BMatC= 4.21D-01 BMatP= 2.53D-01
 IDIUse=2 WtCom= 0.00D+00 WtEn= 1.00D+00
 EnCoef did     4 forward-backward iterations
 Coeff-En:   0.000D+00 0.000D+00 0.223D+00 0.136D+00 0.641D+00
 Coeff:      0.000D+00 0.000D+00 0.223D+00 0.136D+00 0.641D+00
 Gap=     0.136 Goal=   None    Shift=    0.000
 RMSDP=1.45D-03 MaxDP=1.98D-01 DE=-3.39D+00 OVMax= 5.03D-01

 Cycle   6  Pass 1  IDiag  1:
 RMSU=  1.23D-03    CP:  9.75D-01  9.62D-01  2.99D-01  1.79D-01  1.73D-01
 E= -3006.38021977000     Delta-E=        0.593866984549 Rises=F Damp=F
 DIIS: error= 4.35D-02 at cycle   6 NSaved=   6.
 NSaved= 6 IEnMin= 5 EnMin= -3006.97408675455     IErMin= 2 ErrMin= 7.73D-03
 ErrMax= 4.35D-02  0.00D+00 EMaxC= 1.00D-01 BMatC= 1.01D+00 BMatP= 2.53D-01
 IDIUse=2 WtCom= 0.00D+00 WtEn= 1.00D+00
 Coeff-En:   0.000D+00 0.000D+00 0.000D+00 0.000D+00 0.657D+00 0.343D+00
 Coeff:      0.000D+00 0.000D+00 0.000D+00 0.000D+00 0.657D+00 0.343D+00
 Gap=     0.089 Goal=   None    Shift=    0.000
 RMSDP=1.03D-03 MaxDP=9.30D-02 DE= 5.94D-01 OVMax= 5.48D-01

 Cycle   7  Pass 1  IDiag  1:
 RMSU=  5.01D-04    CP:  9.76D-01  1.22D+00  3.11D-01 -3.61D-02  6.32D-01
                    CP:  3.92D-01
 E= -3007.19224362299     Delta-E=       -0.812023852988 Rises=F Damp=F
 DIIS: error= 9.63D-03 at cycle   7 NSaved=   7.
 NSaved= 7 IEnMin= 7 EnMin= -3007.19224362299     IErMin= 2 ErrMin= 7.73D-03
 ErrMax= 9.63D-03  0.00D+00 EMaxC= 1.00D-01 BMatC= 1.37D-01 BMatP= 2.53D-01
 IDIUse=3 WtCom= 9.04D-01 WtEn= 9.63D-02
 EnCoef did   100 forward-backward iterations
 Coeff-Com: -0.497D-01 0.107D+00 0.260D-01 0.795D-02 0.410D+00 0.211D+00
 Coeff-Com:  0.288D+00
 Coeff-En:   0.000D+00 0.000D+00 0.000D+00 0.375D-02 0.354D+00 0.118D+00
 Coeff-En:   0.525D+00
 Coeff:     -0.449D-01 0.967D-01 0.235D-01 0.755D-02 0.404D+00 0.202D+00
 Coeff:      0.311D+00
 Gap=     0.035 Goal=   None    Shift=    0.000
 RMSDP=6.89D-04 MaxDP=5.11D-02 DE=-8.12D-01 OVMax= 4.90D-01

 Cycle   8  Pass 1  IDiag  1:
 RMSU=  2.79D-04    CP:  9.76D-01  1.17D+00  2.05D-01  1.08D-01  6.20D-01
                    CP:  4.71D-01 -1.38D-01
 E= -3007.27585523614     Delta-E=       -0.083611613147 Rises=F Damp=F
 DIIS: error= 7.91D-03 at cycle   8 NSaved=   8.
 NSaved= 8 IEnMin= 8 EnMin= -3007.27585523614     IErMin= 2 ErrMin= 7.73D-03
 ErrMax= 7.91D-03  0.00D+00 EMaxC= 1.00D-01 BMatC= 5.07D-02 BMatP= 1.37D-01
 IDIUse=3 WtCom= 9.21D-01 WtEn= 7.91D-02
 EnCoef did     2 forward-backward iterations
 Coeff-Com: -0.289D-01 0.908D-01-0.448D-02-0.727D-03 0.228D+00 0.870D-01
 Coeff-Com:  0.323D+00 0.305D+00
 Coeff-En:   0.000D+00 0.000D+00 0.000D+00 0.000D+00 0.574D-01 0.000D+00
 Coeff-En:   0.353D+00 0.590D+00
 Coeff:     -0.266D-01 0.836D-01-0.412D-02-0.670D-03 0.214D+00 0.801D-01
 Coeff:      0.325D+00 0.328D+00
 Gap=     0.035 Goal=   None    Shift=    0.000
 RMSDP=4.44D-04 MaxDP=4.70D-02 DE=-8.36D-02 OVMax= 3.82D-01

 Cycle   9  Pass 1  IDiag  1:
 RMSU=  1.61D-04    CP:  9.79D-01  1.16D+00  2.14D-01  2.36D-02  7.64D-01
                    CP:  3.89D-01  4.12D-01  1.17D-01
 E= -3007.34092478808     Delta-E=       -0.065069551940 Rises=F Damp=F
 DIIS: error= 3.15D-03 at cycle   9 NSaved=   9.
 NSaved= 9 IEnMin= 9 EnMin= -3007.34092478808     IErMin= 9 ErrMin= 3.15D-03
 ErrMax= 3.15D-03  0.00D+00 EMaxC= 1.00D-01 BMatC= 1.08D-02 BMatP= 5.07D-02
 IDIUse=3 WtCom= 9.69D-01 WtEn= 3.15D-02
 Coeff-Com: -0.108D-01 0.508D-01-0.952D-02 0.193D-02 0.689D-01 0.940D-02
 Coeff-Com:  0.195D+00 0.307D+00 0.387D+00
 Coeff-En:   0.000D+00 0.000D+00 0.000D+00 0.000D+00 0.000D+00 0.000D+00
 Coeff-En:   0.000D+00 0.247D+00 0.753D+00
 Coeff:     -0.105D-01 0.492D-01-0.922D-02 0.187D-02 0.667D-01 0.910D-02
 Coeff:      0.189D+00 0.305D+00 0.399D+00
 Gap=     0.040 Goal=   None    Shift=    0.000
 RMSDP=2.10D-04 MaxDP=2.35D-02 DE=-6.51D-02 OVMax= 1.58D-01

 Cycle  10  Pass 1  IDiag  1:
 RMSU=  1.03D-04    CP:  9.78D-01  1.17D+00  2.02D-01  3.81D-02  7.38D-01
                    CP:  3.96D-01  3.23D-01  4.95D-01  1.44D-01
 E= -3007.35048097748     Delta-E=       -0.009556189401 Rises=F Damp=F
 DIIS: error= 2.63D-03 at cycle  10 NSaved=  10.
 NSaved=10 IEnMin=10 EnMin= -3007.35048097748     IErMin=10 ErrMin= 2.63D-03
 ErrMax= 2.63D-03  0.00D+00 EMaxC= 1.00D-01 BMatC= 4.44D-03 BMatP= 1.08D-02
 IDIUse=3 WtCom= 9.74D-01 WtEn= 2.63D-02
 EnCoef did     6 forward-backward iterations
 Coeff-Com: -0.615D-02 0.303D-01-0.672D-02 0.163D-02 0.149D-01-0.595D-02
 Coeff-Com:  0.977D-01 0.209D+00 0.374D+00 0.291D+00
 Coeff-En:   0.000D+00 0.000D+00 0.000D+00 0.000D+00 0.000D+00 0.000D+00
 Coeff-En:   0.000D+00 0.430D-01 0.359D+00 0.598D+00
 Coeff:     -0.599D-02 0.295D-01-0.655D-02 0.159D-02 0.145D-01-0.580D-02
 Coeff:      0.951D-01 0.204D+00 0.374D+00 0.300D+00
 Gap=     0.041 Goal=   None    Shift=    0.000
 RMSDP=1.08D-04 MaxDP=1.03D-02 DE=-9.56D-03 OVMax= 7.87D-02

 Cycle  11  Pass 1  IDiag  1:
 RMSU=  3.89D-05    CP:  9.78D-01  1.16D+00  2.06D-01  3.85D-02  7.29D-01
                    CP:  4.00D-01  3.11D-01  4.29D-01  5.37D-01  2.66D-01
 E= -3007.35652207224     Delta-E=       -0.006041094755 Rises=F Damp=F
 DIIS: error= 6.37D-04 at cycle  11 NSaved=  11.
 NSaved=11 IEnMin=11 EnMin= -3007.35652207224     IErMin=11 ErrMin= 6.37D-04
 ErrMax= 6.37D-04  0.00D+00 EMaxC= 1.00D-01 BMatC= 5.76D-04 BMatP= 4.44D-03
 IDIUse=3 WtCom= 9.94D-01 WtEn= 6.37D-03
 Coeff-Com: -0.641D-02 0.158D-01-0.208D-02 0.437D-03-0.607D-02-0.746D-03
 Coeff-Com:  0.758D-02 0.540D-01 0.176D+00 0.264D+00 0.497D+00
 Coeff-En:   0.000D+00 0.000D+00 0.000D+00 0.000D+00 0.000D+00 0.000D+00
 Coeff-En:   0.000D+00 0.000D+00 0.000D+00 0.149D+00 0.851D+00
 Coeff:     -0.637D-02 0.157D-01-0.207D-02 0.435D-03-0.603D-02-0.741D-03
 Coeff:      0.753D-02 0.537D-01 0.175D+00 0.264D+00 0.499D+00
 Gap=     0.042 Goal=   None    Shift=    0.000
 RMSDP=3.27D-05 MaxDP=4.63D-03 DE=-6.04D-03 OVMax= 2.01D-02

 Cycle  12  Pass 1  IDiag  1:
 RMSU=  1.68D-05    CP:  9.78D-01  1.16D+00  2.04D-01  3.84D-02  7.36D-01
                    CP:  4.05D-01  3.12D-01  4.32D-01  4.94D-01  4.48D-01
                    CP:  5.36D-01
 E= -3007.35708061989     Delta-E=       -0.000558547659 Rises=F Damp=F
 DIIS: error= 1.88D-04 at cycle  12 NSaved=  12.
 NSaved=12 IEnMin=12 EnMin= -3007.35708061989     IErMin=12 ErrMin= 1.88D-04
 ErrMax= 1.88D-04  0.00D+00 EMaxC= 1.00D-01 BMatC= 1.22D-04 BMatP= 5.76D-04
 IDIUse=3 WtCom= 9.98D-01 WtEn= 1.88D-03
 Coeff-Com: -0.578D-02 0.109D-01-0.520D-03-0.230D-04-0.572D-02 0.209D-02
 Coeff-Com: -0.994D-02 0.916D-02 0.850D-01 0.167D+00 0.393D+00 0.354D+00
 Coeff-En:   0.000D+00 0.000D+00 0.000D+00 0.000D+00 0.000D+00 0.000D+00
 Coeff-En:   0.000D+00 0.000D+00 0.000D+00 0.000D+00 0.153D+00 0.847D+00
 Coeff:     -0.577D-02 0.109D-01-0.519D-03-0.230D-04-0.571D-02 0.208D-02
 Coeff:     -0.992D-02 0.914D-02 0.848D-01 0.167D+00 0.393D+00 0.355D+00
 Gap=     0.042 Goal=   None    Shift=    0.000
 RMSDP=1.33D-05 MaxDP=1.65D-03 DE=-5.59D-04 OVMax= 4.89D-03

 Cycle  13  Pass 1  IDiag  1:
 RMSU=  7.26D-06    CP:  9.78D-01  1.16D+00  2.03D-01  3.88D-02  7.34D-01
                    CP:  4.07D-01  3.10D-01  4.34D-01  4.94D-01  4.45D-01
                    CP:  6.42D-01  4.15D-01
 E= -3007.35719532885     Delta-E=       -0.000114708953 Rises=F Damp=F
 DIIS: error= 7.98D-05 at cycle  13 NSaved=  13.
 NSaved=13 IEnMin=13 EnMin= -3007.35719532885     IErMin=13 ErrMin= 7.98D-05
 ErrMax= 7.98D-05  0.00D+00 EMaxC= 1.00D-01 BMatC= 1.59D-05 BMatP= 1.22D-04
 IDIUse=1 WtCom= 1.00D+00 WtEn= 0.00D+00
 Coeff-Com: -0.413D-02 0.734D-02-0.173D-03-0.145D-03-0.302D-02 0.207D-02
 Coeff-Com: -0.861D-02-0.259D-02 0.376D-01 0.814D-01 0.213D+00 0.272D+00
 Coeff-Com:  0.405D+00
 Coeff:     -0.413D-02 0.734D-02-0.173D-03-0.145D-03-0.302D-02 0.207D-02
 Coeff:     -0.861D-02-0.259D-02 0.376D-01 0.814D-01 0.213D+00 0.272D+00
 Coeff:      0.405D+00
 Gap=     0.042 Goal=   None    Shift=    0.000
 RMSDP=4.77D-06 MaxDP=4.83D-04 DE=-1.15D-04 OVMax= 1.67D-03

 Cycle  14  Pass 1  IDiag  1:
 RMSU=  2.57D-06    CP:  9.78D-01  1.16D+00  2.03D-01  3.83D-02  7.35D-01
                    CP:  4.07D-01  3.11D-01  4.30D-01  5.00D-01  4.50D-01
                    CP:  6.26D-01  4.81D-01  5.50D-01
 E= -3007.35721011344     Delta-E=       -0.000014784595 Rises=F Damp=F
 DIIS: error= 3.54D-05 at cycle  14 NSaved=  14.
 NSaved=14 IEnMin=14 EnMin= -3007.35721011344     IErMin=14 ErrMin= 3.54D-05
 ErrMax= 3.54D-05  0.00D+00 EMaxC= 1.00D-01 BMatC= 2.30D-06 BMatP= 1.59D-05
 IDIUse=1 WtCom= 1.00D+00 WtEn= 0.00D+00
 Coeff-Com: -0.214D-02 0.365D-02-0.169D-03-0.618D-04-0.113D-02 0.119D-02
 Coeff-Com: -0.449D-02-0.417D-02 0.110D-01 0.236D-01 0.754D-01 0.130D+00
 Coeff-Com:  0.278D+00 0.490D+00
 Coeff:     -0.214D-02 0.365D-02-0.169D-03-0.618D-04-0.113D-02 0.119D-02
 Coeff:     -0.449D-02-0.417D-02 0.110D-01 0.236D-01 0.754D-01 0.130D+00
 Coeff:      0.278D+00 0.490D+00
 Gap=     0.042 Goal=   None    Shift=    0.000
 RMSDP=1.92D-06 MaxDP=3.24D-04 DE=-1.48D-05 OVMax= 5.27D-04

 Cycle  15  Pass 1  IDiag  1:
 RMSU=  1.50D-06    CP:  9.78D-01  1.16D+00  2.03D-01  3.83D-02  7.36D-01
                    CP:  4.08D-01  3.11D-01  4.29D-01  5.01D-01  4.48D-01
                    CP:  6.27D-01  4.80D-01  6.16D-01  6.96D-01
 E= -3007.35721182430     Delta-E=       -0.000001710858 Rises=F Damp=F
 DIIS: error= 2.22D-05 at cycle  15 NSaved=  15.
 NSaved=15 IEnMin=15 EnMin= -3007.35721182430     IErMin=15 ErrMin= 2.22D-05
 ErrMax= 2.22D-05  0.00D+00 EMaxC= 1.00D-01 BMatC= 7.10D-07 BMatP= 2.30D-06
 IDIUse=1 WtCom= 1.00D+00 WtEn= 0.00D+00
 Coeff-Com: -0.590D-03 0.839D-03-0.160D-03 0.149D-04-0.140D-03 0.386D-03
 Coeff-Com: -0.134D-02-0.290D-02-0.297D-02-0.755D-02-0.719D-02 0.204D-01
 Coeff-Com:  0.963D-01 0.386D+00 0.519D+00
 Coeff:     -0.590D-03 0.839D-03-0.160D-03 0.149D-04-0.140D-03 0.386D-03
 Coeff:     -0.134D-02-0.290D-02-0.297D-02-0.755D-02-0.719D-02 0.204D-01
 Coeff:      0.963D-01 0.386D+00 0.519D+00
 Gap=     0.042 Goal=   None    Shift=    0.000
 RMSDP=1.12D-06 MaxDP=2.08D-04 DE=-1.71D-06 OVMax= 2.68D-04

 Cycle  16  Pass 1  IDiag  1:
 RMSU=  6.60D-07    CP:  9.78D-01  1.16D+00  2.03D-01  3.84D-02  7.36D-01
                    CP:  4.08D-01  3.11D-01  4.28D-01  5.03D-01  4.49D-01
                    CP:  6.28D-01  4.95D-01  6.23D-01  8.60D-01  6.49D-01
 E= -3007.35721249908     Delta-E=       -0.000000674778 Rises=F Damp=F
 DIIS: error= 1.08D-05 at cycle  16 NSaved=  16.
 NSaved=16 IEnMin=16 EnMin= -3007.35721249908     IErMin=16 ErrMin= 1.08D-05
 ErrMax= 1.08D-05  0.00D+00 EMaxC= 1.00D-01 BMatC= 1.56D-07 BMatP= 7.10D-07
 IDIUse=1 WtCom= 1.00D+00 WtEn= 0.00D+00
 Coeff-Com: -0.113D-03 0.771D-04-0.875D-04 0.114D-04 0.475D-04 0.113D-03
 Coeff-Com: -0.321D-03-0.139D-02-0.443D-02-0.105D-01-0.209D-01-0.110D-01
 Coeff-Com:  0.176D-01 0.183D+00 0.367D+00 0.481D+00
 Coeff:     -0.113D-03 0.771D-04-0.875D-04 0.114D-04 0.475D-04 0.113D-03
 Coeff:     -0.321D-03-0.139D-02-0.443D-02-0.105D-01-0.209D-01-0.110D-01
 Coeff:      0.176D-01 0.183D+00 0.367D+00 0.481D+00
 Gap=     0.042 Goal=   None    Shift=    0.000
 RMSDP=5.69D-07 MaxDP=1.29D-04 DE=-6.75D-07 OVMax= 2.36D-04

 Cycle  17  Pass 1  IDiag  1:
 RMSU=  3.03D-07    CP:  9.78D-01  1.16D+00  2.03D-01  3.84D-02  7.36D-01
                    CP:  4.08D-01  3.11D-01  4.28D-01  5.03D-01  4.49D-01
                    CP:  6.28D-01  4.98D-01  6.51D-01  8.77D-01  7.52D-01
                    CP:  6.61D-01
 E= -3007.35721265394     Delta-E=       -0.000000154863 Rises=F Damp=F
 DIIS: error= 6.38D-06 at cycle  17 NSaved=  17.
 NSaved=17 IEnMin=17 EnMin= -3007.35721265394     IErMin=17 ErrMin= 6.38D-06
 ErrMax= 6.38D-06  0.00D+00 EMaxC= 1.00D-01 BMatC= 3.48D-08 BMatP= 1.56D-07
 IDIUse=1 WtCom= 1.00D+00 WtEn= 0.00D+00
 Coeff-Com: -0.126D-04-0.216D-04-0.300D-04 0.594D-05 0.325D-05 0.245D-04
 Coeff-Com: -0.781D-04-0.396D-03-0.223D-02-0.549D-02-0.127D-01-0.111D-01
 Coeff-Com: -0.490D-02 0.538D-01 0.155D+00 0.374D+00 0.454D+00
 Coeff:     -0.126D-04-0.216D-04-0.300D-04 0.594D-05 0.325D-05 0.245D-04
 Coeff:     -0.781D-04-0.396D-03-0.223D-02-0.549D-02-0.127D-01-0.111D-01
 Coeff:     -0.490D-02 0.538D-01 0.155D+00 0.374D+00 0.454D+00
 Gap=     0.042 Goal=   None    Shift=    0.000
 RMSDP=2.07D-07 MaxDP=2.26D-05 DE=-1.55D-07 OVMax= 5.15D-05

 Cycle  18  Pass 1  IDiag  1:
 RMSU=  1.14D-07    CP:  9.78D-01  1.16D+00  2.03D-01  3.84D-02  7.36D-01
                    CP:  4.08D-01  3.11D-01  4.28D-01  5.03D-01  4.49D-01
                    CP:  6.28D-01  4.99D-01  6.50D-01  8.86D-01  7.36D-01
                    CP:  7.35D-01  5.43D-01
 E= -3007.35721268490     Delta-E=       -0.000000030957 Rises=F Damp=F
 DIIS: error= 2.36D-06 at cycle  18 NSaved=  18.
 NSaved=18 IEnMin=18 EnMin= -3007.35721268490     IErMin=18 ErrMin= 2.36D-06
 ErrMax= 2.36D-06  0.00D+00 EMaxC= 1.00D-01 BMatC= 5.20D-09 BMatP= 3.48D-08
 IDIUse=1 WtCom= 1.00D+00 WtEn= 0.00D+00
 Coeff-Com: -0.216D-04 0.356D-04-0.256D-05-0.789D-06-0.215D-04 0.895D-05
 Coeff-Com: -0.457D-04-0.479D-04-0.670D-03-0.186D-02-0.492D-02-0.522D-02
 Coeff-Com: -0.470D-02 0.102D-01 0.470D-01 0.181D+00 0.326D+00 0.453D+00
 Coeff:     -0.216D-04 0.356D-04-0.256D-05-0.789D-06-0.215D-04 0.895D-05
 Coeff:     -0.457D-04-0.479D-04-0.670D-03-0.186D-02-0.492D-02-0.522D-02
 Coeff:     -0.470D-02 0.102D-01 0.470D-01 0.181D+00 0.326D+00 0.453D+00
 Gap=     0.042 Goal=   None    Shift=    0.000
 RMSDP=7.89D-08 MaxDP=9.67D-06 DE=-3.10D-08 OVMax= 3.11D-05

 Cycle  19  Pass 1  IDiag  1:
 RMSU=  4.11D-08    CP:  9.78D-01  1.16D+00  2.03D-01  3.84D-02  7.36D-01
                    CP:  4.08D-01  3.11D-01  4.28D-01  5.03D-01  4.49D-01
                    CP:  6.28D-01  4.98D-01  6.50D-01  8.88D-01  7.43D-01
                    CP:  7.42D-01  5.90D-01  5.27D-01
 E= -3007.35721268897     Delta-E=       -0.000000004069 Rises=F Damp=F
 DIIS: error= 6.83D-07 at cycle  19 NSaved=  19.
 NSaved=19 IEnMin=19 EnMin= -3007.35721268897     IErMin=19 ErrMin= 6.83D-07
 ErrMax= 6.83D-07  0.00D+00 EMaxC= 1.00D-01 BMatC= 5.38D-10 BMatP= 5.20D-09
 IDIUse=1 WtCom= 1.00D+00 WtEn= 0.00D+00
 Coeff-Com: -0.141D-04 0.264D-04 0.874D-07-0.745D-06-0.136D-04 0.441D-05
 Coeff-Com: -0.224D-04-0.113D-04-0.253D-03-0.786D-03-0.221D-02-0.254D-02
 Coeff-Com: -0.281D-02 0.212D-02 0.177D-01 0.874D-01 0.178D+00 0.305D+00
 Coeff-Com:  0.418D+00
 Coeff:     -0.141D-04 0.264D-04 0.874D-07-0.745D-06-0.136D-04 0.441D-05
 Coeff:     -0.224D-04-0.113D-04-0.253D-03-0.786D-03-0.221D-02-0.254D-02
 Coeff:     -0.281D-02 0.212D-02 0.177D-01 0.874D-01 0.178D+00 0.305D+00
 Coeff:      0.418D+00
 Gap=     0.042 Goal=   None    Shift=    0.000
 RMSDP=2.77D-08 MaxDP=3.89D-06 DE=-4.07D-09 OVMax= 1.12D-05

 Cycle  20  Pass 1  IDiag  1:
 RMSU=  1.55D-08    CP:  9.78D-01  1.16D+00  2.03D-01  3.84D-02  7.36D-01
                    CP:  4.08D-01  3.11D-01  4.28D-01  5.03D-01  4.49D-01
                    CP:  6.27D-01  4.98D-01  6.50D-01  8.88D-01  7.44D-01
                    CP:  7.39D-01  6.00D-01  5.44D-01  5.46D-01
 E= -3007.35721268959     Delta-E=       -0.000000000620 Rises=F Damp=F
 DIIS: error= 3.08D-07 at cycle  20 NSaved=  20.
 NSaved=20 IEnMin=20 EnMin= -3007.35721268959     IErMin=20 ErrMin= 3.08D-07
 ErrMax= 3.08D-07  0.00D+00 EMaxC= 1.00D-01 BMatC= 1.20D-10 BMatP= 5.38D-10
 IDIUse=1 WtCom= 1.00D+00 WtEn= 0.00D+00
 Coeff-Com: -0.434D-05 0.852D-05 0.181D-06-0.246D-06-0.497D-05 0.949D-06
 Coeff-Com: -0.560D-05-0.178D-05-0.568D-04-0.216D-03-0.668D-03-0.910D-03
 Coeff-Com: -0.147D-02-0.140D-02 0.253D-02 0.280D-01 0.684D-01 0.143D+00
 Coeff-Com:  0.325D+00 0.438D+00
 Coeff:     -0.434D-05 0.852D-05 0.181D-06-0.246D-06-0.497D-05 0.949D-06
 Coeff:     -0.560D-05-0.178D-05-0.568D-04-0.216D-03-0.668D-03-0.910D-03
 Coeff:     -0.147D-02-0.140D-02 0.253D-02 0.280D-01 0.684D-01 0.143D+00
 Coeff:      0.325D+00 0.438D+00
 Gap=     0.042 Goal=   None    Shift=    0.000
 RMSDP=1.30D-08 MaxDP=2.48D-06 DE=-6.20D-10 OVMax= 3.95D-06

 Cycle  21  Pass 1  IDiag  1:
 Restarting incremental Fock formation.
 E= -3007.35721268981     Delta-E=       -0.000000000220 Rises=F Damp=F
 DIIS: error= 9.85D-08 at cycle  21 NSaved=  20.
 NSaved=20 IEnMin=20 EnMin= -3007.35721268981     IErMin=20 ErrMin= 9.85D-08
 ErrMax= 9.85D-08  0.00D+00 EMaxC= 1.00D-01 BMatC= 1.30D-11 BMatP= 1.20D-10
 IDIUse=1 WtCom= 1.00D+00 WtEn= 0.00D+00
 Coeff-Com: -0.123D-05 0.247D-05 0.133D-06-0.187D-05 0.685D-07-0.110D-05
 Coeff-Com:  0.634D-06-0.153D-04-0.717D-04-0.249D-03-0.396D-03-0.825D-03
 Coeff-Com: -0.143D-02-0.334D-03 0.103D-01 0.298D-01 0.691D-01 0.188D+00
 Coeff-Com:  0.313D+00 0.394D+00
 Coeff:     -0.123D-05 0.247D-05 0.133D-06-0.187D-05 0.685D-07-0.110D-05
 Coeff:      0.634D-06-0.153D-04-0.717D-04-0.249D-03-0.396D-03-0.825D-03
 Coeff:     -0.143D-02-0.334D-03 0.103D-01 0.298D-01 0.691D-01 0.188D+00
 Coeff:      0.313D+00 0.394D+00
 Gap=     0.042 Goal=   None    Shift=    0.000
 RMSDP=4.20D-09 MaxDP=6.07D-07 DE=-2.20D-10 OVMax= 1.22D-06

 SCF Done:  E(RB-LYP) =  -3007.35721269     A.U. after   21 cycles
            NFock= 21  Conv=0.42D-08     -V/T= 2.0099
 KE= 2.977806798862D+03 PE=-2.602711874095D+04 EE= 1.052640508319D+04
 Leave Link  502 at Thu Apr 28 14:06:45 2022, MaxMem= 10066329600 cpu:            5129.3 elap:             214.6
 (Enter /sw/apps/gaussian-16.0/g16/l801.exe)
 DoSCS=F DFT=T ScalE2(SS,OS)=  1.000000  1.000000
 ExpMin= 3.36D-02 ExpMax= 4.95D+03 ExpMxC= 7.45D+02 IAcc=3 IRadAn=         5 AccDes= 0.00D+00
 HarFok:  IExCor=  205 AccDes= 0.00D+00 IRadAn=         5 IDoV=-2 UseB2=F ITyADJ=14
 ICtDFT= 12500011 ScaDFX=  1.000000  1.000000  1.000000  1.000000
 GSVD:  LWork=       -5460 too small for GESVD, short by       25550 words or       25550 for optimal perf.
 Largest valence mixing into a core orbital is  1.33D-04
 Largest core mixing into a valence orbital is  4.52D-05
 Range of M.O.s used for correlation:    71  1298
 NBasis=  1298 NAE=   246 NBE=   246 NFC=    70 NFV=     0
 NROrb=   1228 NOA=   176 NOB=   176 NVA=  1052 NVB=  1052

 **** Warning!!: The smallest alpha delta epsilon is  0.41636103D-01

 Leave Link  801 at Thu Apr 28 14:06:45 2022, MaxMem= 10066329600 cpu:               7.0 elap:               0.3
 (Enter /sw/apps/gaussian-16.0/g16/l914.exe)
 RHF ground state
 Two-electron integrals replicated using symmetry.
 MDV= 10066329600 DFT=T DoStab=F Mixed=F DoRPA=T DoScal=T NonHer=F
 Making orbital integer symmetry assigments:
 Orbital symmetries:
       Occupied  (A) (A) (A) (A) (A) (A) (A) (A) (A) (A) (A) (A)
                 (A) (A) (A) (A) (A) (A) (A) (A) (A) (A) (A) (A)
                 (A) (A) (A) (A) (A) (A) (A) (A) (A) (A) (A) (A)
                 (A) (A) (A) (A) (A) (A) (A) (A) (A) (A) (A) (A)
                 (A) (A) (A) (A) (A) (A) (A) (A) (A) (A) (A) (A)
                 (A) (A) (A) (A) (A) (A) (A) (A) (A) (A) (A) (A)
                 (A) (A) (A) (A) (A) (A) (A) (A) (A) (A) (A) (A)
                 (A) (A) (A) (A) (A) (A) (A) (A) (A) (A) (A) (A)
                 (A) (A) (A) (A) (A) (A) (A) (A) (A) (A) (A) (A)
                 (A) (A) (A) (A) (A) (A) (A) (A) (A) (A) (A) (A)
                 (A) (A) (A) (A) (A) (A) (A) (A) (A) (A) (A) (A)
                 (A) (A) (A) (A) (A) (A) (A) (A) (A) (A) (A) (A)
                 (A) (A) (A) (A) (A) (A) (A) (A) (A) (A) (A) (A)
                 (A) (A) (A) (A) (A) (A) (A) (A) (A) (A) (A) (A)
                 (A) (A) (A) (A) (A) (A) (A) (A) (A) (A) (A) (A)
                 (A) (A) (A) (A) (A) (A) (A) (A) (A) (A) (A) (A)
                 (A) (A) (A) (A) (A) (A) (A) (A) (A) (A) (A) (A)
                 (A) (A) (A) (A) (A) (A) (A) (A) (A) (A) (A) (A)
                 (A) (A) (A) (A) (A) (A) (A) (A) (A) (A) (A) (A)
                 (A) (A) (A) (A) (A) (A) (A) (A) (A) (A) (A) (A)
                 (A) (A) (A) (A) (A) (A)
       Virtual   (A) (A) (A) (A) (A) (A) (A) (A) (A) (A) (A) (A)
                 (A) (A) (A) (A) (A) (A) (A) (A) (A) (A) (A) (A)
                 (A) (A) (A) (A) (A) (A) (A) (A) (A) (A) (A) (A)
                 (A) (A) (A) (A) (A) (A) (A) (A) (A) (A) (A) (A)
                 (A) (A) (A) (A) (A) (A) (A) (A) (A) (A) (A) (A)
                 (A) (A) (A) (A) (A) (A) (A) (A) (A) (A) (A) (A)
                 (A) (A) (A) (A) (A) (A) (A) (A) (A) (A) (A) (A)
                 (A) (A) (A) (A) (A) (A) (A) (A) (A) (A) (A) (A)
                 (A) (A) (A) (A) (A) (A) (A) (A) (A) (A) (A) (A)
                 (A) (A) (A) (A) (A) (A) (A) (A) (A) (A) (A) (A)
                 (A) (A) (A) (A) (A) (A) (A) (A) (A) (A) (A) (A)
                 (A) (A) (A) (A) (A) (A) (A) (A) (A) (A) (A) (A)
                 (A) (A) (A) (A) (A) (A) (A) (A) (A) (A) (A) (A)
                 (A) (A) (A) (A) (A) (A) (A) (A) (A) (A) (A) (A)
                 (A) (A) (A) (A) (A) (A) (A) (A) (A) (A) (A) (A)
                 (A) (A) (A) (A) (A) (A) (A) (A) (A) (A) (A) (A)
                 (A) (A) (A) (A) (A) (A) (A) (A) (A) (A) (A) (A)
                 (A) (A) (A) (A) (A) (A) (A) (A) (A) (A) (A) (A)
                 (A) (A) (A) (A) (A) (A) (A) (A) (A) (A) (A) (A)
                 (A) (A) (A) (A) (A) (A) (A) (A) (A) (A) (A) (A)
                 (A) (A) (A) (A) (A) (A) (A) (A) (A) (A) (A) (A)
                 (A) (A) (A) (A) (A) (A) (A) (A) (A) (A) (A) (A)
                 (A) (A) (A) (A) (A) (A) (A) (A) (A) (A) (A) (A)
                 (A) (A) (A) (A) (A) (A) (A) (A) (A) (A) (A) (A)
                 (A) (A) (A) (A) (A) (A) (A) (A) (A) (A) (A) (A)
                 (A) (A) (A) (A) (A) (A) (A) (A) (A) (A) (A) (A)
                 (A) (A) (A) (A) (A) (A) (A) (A) (A) (A) (A) (A)
                 (A) (A) (A) (A) (A) (A) (A) (A) (A) (A) (A) (A)
                 (A) (A) (A) (A) (A) (A) (A) (A) (A) (A) (A) (A)
                 (A) (A) (A) (A) (A) (A) (A) (A) (A) (A) (A) (A)
                 (A) (A) (A) (A) (A) (A) (A) (A) (A) (A) (A) (A)
                 (A) (A) (A) (A) (A) (A) (A) (A) (A) (A) (A) (A)
                 (A) (A) (A) (A) (A) (A) (A) (A) (A) (A) (A) (A)
                 (A) (A) (A) (A) (A) (A) (A) (A) (A) (A) (A) (A)
                 (A) (A) (A) (A) (A) (A) (A) (A) (A) (A) (A) (A)
                 (A) (A) (A) (A) (A) (A) (A) (A) (A) (A) (A) (A)
                 (A) (A) (A) (A) (A) (A) (A) (A) (A) (A) (A) (A)
                 (A) (A) (A) (A) (A) (A) (A) (A) (A) (A) (A) (A)
                 (A) (A) (A) (A) (A) (A) (A) (A) (A) (A) (A) (A)
                 (A) (A) (A) (A) (A) (A) (A) (A) (A) (A) (A) (A)
                 (A) (A) (A) (A) (A) (A) (A) (A) (A) (A) (A) (A)
                 (A) (A) (A) (A) (A) (A) (A) (A) (A) (A) (A) (A)
                 (A) (A) (A) (A) (A) (A) (A) (A) (A) (A) (A) (A)
                 (A) (A) (A) (A) (A) (A) (A) (A) (A) (A) (A) (A)
                 (A) (A) (A) (A) (A) (A) (A) (A) (A) (A) (A) (A)
                 (A) (A) (A) (A) (A) (A) (A) (A) (A) (A) (A) (A)
                 (A) (A) (A) (A) (A) (A) (A) (A) (A) (A) (A) (A)
                 (A) (A) (A) (A) (A) (A) (A) (A) (A) (A) (A) (A)
                 (A) (A) (A) (A) (A) (A) (A) (A) (A) (A) (A) (A)
                 (A) (A) (A) (A) (A) (A) (A) (A) (A) (A) (A) (A)
                 (A) (A) (A) (A) (A) (A) (A) (A) (A) (A) (A) (A)
                 (A) (A) (A) (A) (A) (A) (A) (A) (A) (A) (A) (A)
                 (A) (A) (A) (A) (A) (A) (A) (A) (A) (A) (A) (A)
                 (A) (A) (A) (A) (A) (A) (A) (A) (A) (A) (A) (A)
                 (A) (A) (A) (A) (A) (A) (A) (A) (A) (A) (A) (A)
                 (A) (A) (A) (A) (A) (A) (A) (A) (A) (A) (A) (A)
                 (A) (A) (A) (A) (A) (A) (A) (A) (A) (A) (A) (A)
                 (A) (A) (A) (A) (A) (A) (A) (A) (A) (A) (A) (A)
                 (A) (A) (A) (A) (A) (A) (A) (A) (A) (A) (A) (A)
                 (A) (A) (A) (A) (A) (A) (A) (A) (A) (A) (A) (A)
                 (A) (A) (A) (A) (A) (A) (A) (A) (A) (A) (A) (A)
                 (A) (A) (A) (A) (A) (A) (A) (A) (A) (A) (A) (A)
                 (A) (A) (A) (A) (A) (A) (A) (A) (A) (A) (A) (A)
                 (A) (A) (A) (A) (A) (A) (A) (A) (A) (A) (A) (A)
                 (A) (A) (A) (A) (A) (A) (A) (A) (A) (A) (A) (A)
                 (A) (A) (A) (A) (A) (A) (A) (A) (A) (A) (A) (A)
                 (A) (A) (A) (A) (A) (A) (A) (A) (A) (A) (A) (A)
                 (A) (A) (A) (A) (A) (A) (A) (A) (A) (A) (A) (A)
                 (A) (A) (A) (A) (A) (A) (A) (A) (A) (A) (A) (A)
                 (A) (A) (A) (A) (A) (A) (A) (A) (A) (A) (A) (A)
                 (A) (A) (A) (A) (A) (A) (A) (A) (A) (A) (A) (A)
                 (A) (A) (A) (A) (A) (A) (A) (A) (A) (A) (A) (A)
                 (A) (A) (A) (A) (A) (A) (A) (A) (A) (A) (A) (A)
                 (A) (A) (A) (A) (A) (A) (A) (A) (A) (A) (A) (A)
                 (A) (A) (A) (A) (A) (A) (A) (A) (A) (A) (A) (A)
                 (A) (A) (A) (A) (A) (A) (A) (A) (A) (A) (A) (A)
                 (A) (A) (A) (A) (A) (A) (A) (A) (A) (A) (A) (A)
                 (A) (A) (A) (A) (A) (A) (A) (A) (A) (A) (A) (A)
                 (A) (A) (A) (A) (A) (A) (A) (A) (A) (A) (A) (A)
                 (A) (A) (A) (A) (A) (A) (A) (A) (A) (A) (A) (A)
                 (A) (A) (A) (A) (A) (A) (A) (A) (A) (A) (A) (A)
                 (A) (A) (A) (A) (A) (A) (A) (A) (A) (A) (A) (A)
                 (A) (A) (A) (A) (A) (A) (A) (A) (A) (A) (A) (A)
                 (A) (A) (A) (A) (A) (A) (A) (A) (A) (A) (A) (A)
                 (A) (A) (A) (A) (A) (A) (A) (A) (A) (A) (A) (A)
                 (A) (A) (A) (A) (A) (A) (A) (A) (A) (A) (A) (A)
                 (A) (A) (A) (A) (A) (A) (A) (A) (A) (A) (A) (A)
                 (A) (A) (A) (A) (A) (A) (A) (A)
    20 initial guesses have been made.
 Convergence on wavefunction:    0.001000000000000
 Davidson Disk Diagonalization:  ConvIn= 1.00D-03 SkipCon=T Conv= 1.00D-03.
 Max sub-space:  2000 roots to seek:    20 dimension of matrix:       370304
 Iteration     1 Dimension    20 NMult     0 NNew     20
 CISAX will form    20 AO SS matrices at one time.
 NMat=    20 NSing=    20 JSym2X= 0.
 FoFJK:  IHMeth= 1 ICntrl=     500 DoSepK=F KAlg= 0 I1Cent=           0 FoldK=F
 IRaf= 520000000 NMat=      20 IRICut=       1 DoRegI=T DoRafI=F ISym2E= 0 IDoP0=0 IntGTp=1.
 FoFCou: FMM=T IPFlag=           0 FMFlag=      100000 FMFlg1=        2001
         NFxFlg=           0 DoJE=F BraDBF=F KetDBF=F FulRan=T
         wScrn=  0.000000 ICntrl=       500 IOpCl=  0 I1Cent=           0 NGrid=           0
         NMat0=   20 NMatS0=     20 NMatT0=    0 NMatD0=   20 NMtDS0=    0 NMtDT0=    0
 Symmetry not used in FoFCou.
 FMM levels:  10  Number of levels for PrismC:   9
 New state      1 was old state      3
 New state      2 was old state      4
 New state      3 was old state      1
 New state      4 was old state      2
 New state      5 was old state      6
 Excitation Energies [eV] at current iteration:
 Root      1 :     1.920382675301414
 Root      2 :     2.046389070781067
 Root      3 :     2.164627621797669
 Root      4 :     2.330187410522500
 Root      5 :     2.380090667516648
 Root      6 :     2.663331267249430
 Root      7 :     2.870978742724465
 Root      8 :     2.886277676519637
 Root      9 :     2.915054491969838
 Root     10 :     3.165960747684618
 Root     11 :     3.190558300446683
 Root     12 :     3.243575485614937
 Root     13 :     3.276942729648527
 Root     14 :     3.422518149846573
 Root     15 :     3.442971948648720
 Root     16 :     3.505047538539704
 Root     17 :     3.982752215180917
 Root     18 :     4.052556020477889
 Root     19 :     4.385122101008914
 Root     20 :     4.445363958696467
 Iteration     2 Dimension    40 NMult    20 NNew     20
 CISAX will form    20 AO SS matrices at one time.
 NMat=    20 NSing=    20 JSym2X= 0.
 New state      1 was old state      3
 Root      1 not converged, maximum delta is    0.204451215813286
 New state      2 was old state      1
 Root      2 not converged, maximum delta is    0.195693794889661
 New state      3 was old state      2
 Root      3 not converged, maximum delta is    0.141045343678055
 Root      4 not converged, maximum delta is    0.166216393230290
 Root      5 not converged, maximum delta is    0.019568698261217
 Excitation Energies [eV] at current iteration:
 Root      1 :     1.892201403907018   Change is   -0.272426217890651
 Root      2 :     1.915563945704723   Change is   -0.004818729596691
 Root      3 :     2.034862405461960   Change is   -0.011526665319108
 Root      4 :     2.115937034634678   Change is   -0.214250375887822
 Root      5 :     2.380004146454826   Change is   -0.000086521061822
 Root      6 :     2.425311543625421   Change is   -0.238019723624009
 Root      7 :     2.618595492122322   Change is   -0.252383250602142
 Root      8 :     2.870438934598728   Change is   -0.044615557371110
 Root      9 :     2.884317606854932   Change is   -0.001960069664705
 Root     10 :     2.935568122017154   Change is   -0.230392625667465
 Root     11 :     3.173999517978749   Change is   -0.069575967636188
 Root     12 :     3.190558295753688   Change is   -0.000000004692996
 Root     13 :     3.235474826580083   Change is   -0.269572711959620
 Root     14 :     3.254745246505899   Change is   -0.022197483142628
 Root     15 :     3.322421406352884   Change is   -0.100096743493689
 Root     16 :     3.421156978764457   Change is   -0.021814969884263
 Root     17 :     3.498753886783856   Change is   -0.483998328397061
 Root     18 :     3.566723533711594   Change is   -0.485832486766295
 Root     19 :     3.903585788557383   Change is   -0.481536312451531
 Root     20 :     4.080813089382013   Change is   -0.364550869314455
 Iteration     3 Dimension    45 NMult    40 NNew      5
 CISAX will form     5 AO SS matrices at one time.
 NMat=     5 NSing=     5 JSym2X= 0.
 Root      1 not converged, maximum delta is    0.133032480008261
 Root      2 not converged, maximum delta is    0.128640015619170
 Root      3 not converged, maximum delta is    0.096317419838535
 Root      4 not converged, maximum delta is    0.110008264205699
 Root      5 not converged, maximum delta is    0.022703604262815
 Excitation Energies [eV] at current iteration:
 Root      1 :     1.842930973004515   Change is   -0.049270430902503
 Root      2 :     1.912262141639812   Change is   -0.003301804064911
 Root      3 :     2.028056852838690   Change is   -0.006805552623269
 Root      4 :     2.087691906505464   Change is   -0.028245128129214
 Root      5 :     2.379941763127923   Change is   -0.000062383326903
 Iteration     4 Dimension    50 NMult    45 NNew      5
 CISAX will form     5 AO SS matrices at one time.
 NMat=     5 NSing=     5 JSym2X= 0.
 Root      1 not converged, maximum delta is    0.013437162199592
 Root      2 not converged, maximum delta is    0.012939318484351
 Root      3 not converged, maximum delta is    0.060028410054770
 Root      4 not converged, maximum delta is    0.066381472615225
 Root      5 not converged, maximum delta is    0.037580566242628
 Excitation Energies [eV] at current iteration:
 Root      1 :     1.824341496960851   Change is   -0.018589476043664
 Root      2 :     1.911100653435708   Change is   -0.001161488204104
 Root      3 :     2.023351759215643   Change is   -0.004705093623047
 Root      4 :     2.077085484734049   Change is   -0.010606421771415
 Root      5 :     2.379847936095187   Change is   -0.000093827032736
 Iteration     5 Dimension    55 NMult    50 NNew      5
 CISAX will form     5 AO SS matrices at one time.
 NMat=     5 NSing=     5 JSym2X= 0.
 Root      1 not converged, maximum delta is    0.003501376412443
 Root      2 not converged, maximum delta is    0.003467343795097
 Root      3 not converged, maximum delta is    0.018635824131944
 Root      4 not converged, maximum delta is    0.020335282265740
 Root      5 not converged, maximum delta is    0.054558529961390
 Excitation Energies [eV] at current iteration:
 Root      1 :     1.818470337379398   Change is   -0.005871159581453
 Root      2 :     1.910622628914088   Change is   -0.000478024521620
 Root      3 :     2.021653497594738   Change is   -0.001698261620905
 Root      4 :     2.074281501883905   Change is   -0.002803982850144
 Root      5 :     2.379718299282551   Change is   -0.000129636812636
 Iteration     6 Dimension    60 NMult    55 NNew      5
 CISAX will form     5 AO SS matrices at one time.
 NMat=     5 NSing=     5 JSym2X= 0.
 Root      1 not converged, maximum delta is    0.002751664561353
 Root      2 not converged, maximum delta is    0.001957610786208
 Root      3 not converged, maximum delta is    0.007423749061158
 Root      4 not converged, maximum delta is    0.008227644601397
 Root      5 not converged, maximum delta is    0.055762106155512
 Excitation Energies [eV] at current iteration:
 Root      1 :     1.815626170791298   Change is   -0.002844166588100
 Root      2 :     1.910372227616275   Change is   -0.000250401297813
 Root      3 :     2.020887518534848   Change is   -0.000765979059890
 Root      4 :     2.073204542592365   Change is   -0.001076959291540
 Root      5 :     2.379583370458282   Change is   -0.000134928824268
 Iteration     7 Dimension    65 NMult    60 NNew      5
 CISAX will form     5 AO SS matrices at one time.
 NMat=     5 NSing=     5 JSym2X= 0.
 Root      1 not converged, maximum delta is    0.002131136254477
 Root      2 not converged, maximum delta is    0.001047648669385
 Root      3 not converged, maximum delta is    0.002735424980460
 Root      4 not converged, maximum delta is    0.002956839025725
 Root      5 not converged, maximum delta is    0.035783879316364
 Excitation Energies [eV] at current iteration:
 Root      1 :     1.814358852885995   Change is   -0.001267317905303
 Root      2 :     1.910263774615866   Change is   -0.000108453000409
 Root      3 :     2.020587139348277   Change is   -0.000300379186571
 Root      4 :     2.072816533834652   Change is   -0.000388008757713
 Root      5 :     2.379492728725024   Change is   -0.000090641733258
 Iteration     8 Dimension    70 NMult    65 NNew      5
 CISAX will form     5 AO SS matrices at one time.
 NMat=     5 NSing=     5 JSym2X= 0.
 Root      1 not converged, maximum delta is    0.001397948855481
 Root      2 has converged.
 Root      3 not converged, maximum delta is    0.001230547206922
 Root      4 not converged, maximum delta is    0.001319842432469
 Root      5 not converged, maximum delta is    0.018107000186489
 Excitation Energies [eV] at current iteration:
 Root      1 :     1.813801798384095   Change is   -0.000557054501900
 Root      2 :     1.910226063532334   Change is   -0.000037711083532
 Root      3 :     2.020452564997655   Change is   -0.000134574350622
 Root      4 :     2.072645167829360   Change is   -0.000171366005292
 Root      5 :     2.379445778337937   Change is   -0.000046950387087
 Iteration     9 Dimension    74 NMult    70 NNew      4
 CISAX will form     4 AO SS matrices at one time.
 NMat=     4 NSing=     4 JSym2X= 0.
 Root      1 has converged.
 Root      2 has converged.
 Root      3 has converged.
 Root      4 has converged.
 Root      5 not converged, maximum delta is    0.008332731821976
 Excitation Energies [eV] at current iteration:
[...]
 Alpha virt. eigenvalues --    1.08744   1.09053   1.09281   1.09514   1.09776
 Alpha virt. eigenvalues --    1.10476   1.10935   1.11534   1.11837   1.13078
 Alpha virt. eigenvalues --    1.13561   1.14039   1.14478   1.14617   1.14993
 Alpha virt. eigenvalues --    1.15211   1.16206   1.16838   1.17181   1.17499
 Alpha virt. eigenvalues --    1.17625   1.18196   1.18856   1.19479   1.19680
 Alpha virt. eigenvalues --    1.20122   1.20357   1.20488   1.21427   1.21820
 Alpha virt. eigenvalues --    1.22001   1.22562   1.22989   1.23137   1.23763
 Alpha virt. eigenvalues --    1.24026   1.24765   1.25601   1.25760   1.26876
 Alpha virt. eigenvalues --    1.26904   1.27046   1.27877   1.28055   1.28113
 Alpha virt. eigenvalues --    1.28206   1.28530   1.28681   1.29226   1.29445
 Alpha virt. eigenvalues --    1.30085   1.30303   1.30649   1.30770   1.31126
 Alpha virt. eigenvalues --    1.31463   1.32330   1.32507   1.33007   1.33360
 Alpha virt. eigenvalues --    1.33802   1.34282   1.34961   1.35248   1.35523
 Alpha virt. eigenvalues --    1.35576   1.35866   1.36280   1.36956   1.36982
 Alpha virt. eigenvalues --    1.37942   1.38244   1.39459   1.39609   1.39879
 Alpha virt. eigenvalues --    1.40863   1.41188   1.41529   1.41634   1.42035
 Alpha virt. eigenvalues --    1.42399   1.42636   1.42876   1.43951   1.44195
 Alpha virt. eigenvalues --    1.44369   1.44831   1.45431   1.45604   1.46030
 Alpha virt. eigenvalues --    1.46356   1.46959   1.47474   1.47689   1.47787
 Alpha virt. eigenvalues --    1.48152   1.48199   1.48423   1.48678   1.48985
 Alpha virt. eigenvalues --    1.49106   1.49301   1.49530   1.49733   1.49860
 Alpha virt. eigenvalues --    1.50080   1.50339   1.50428   1.50670   1.50734
 Alpha virt. eigenvalues --    1.51122   1.52071   1.52092   1.52214   1.52503
 Alpha virt. eigenvalues --    1.52692   1.53325   1.53609   1.54350   1.54457
 Alpha virt. eigenvalues --    1.54874   1.55304   1.55697   1.56029   1.56185
 Alpha virt. eigenvalues --    1.56693   1.56777   1.56981   1.58076   1.58473
 Alpha virt. eigenvalues --    1.59037   1.59696   1.59844   1.60014   1.60314
 Alpha virt. eigenvalues --    1.60515   1.60732   1.61395   1.61661   1.62271
 Alpha virt. eigenvalues --    1.62418   1.62552   1.64201   1.64522   1.64740
 Alpha virt. eigenvalues --    1.64957   1.65135   1.65407   1.65896   1.66167
 Alpha virt. eigenvalues --    1.66358   1.66421   1.66535   1.67219   1.67418
 Alpha virt. eigenvalues --    1.67546   1.68025   1.68329   1.68386   1.68795
 Alpha virt. eigenvalues --    1.68940   1.69087   1.69130   1.69451   1.69664
 Alpha virt. eigenvalues --    1.69865   1.70026   1.70185   1.70324   1.70466
 Alpha virt. eigenvalues --    1.70520   1.70772   1.71145   1.71574   1.71812
 Alpha virt. eigenvalues --    1.71817   1.71907   1.72168   1.72285   1.72418
 Alpha virt. eigenvalues --    1.72634   1.72670   1.72925   1.73279   1.73444
 Alpha virt. eigenvalues --    1.73558   1.73716   1.73787   1.74040   1.74188
 Alpha virt. eigenvalues --    1.74499   1.74539   1.74729   1.75017   1.75380
 Alpha virt. eigenvalues --    1.75507   1.75785   1.75910   1.76415   1.76516
 Alpha virt. eigenvalues --    1.76579   1.76884   1.77451   1.77710   1.77887
 Alpha virt. eigenvalues --    1.77937   1.78076   1.78138   1.78331   1.78627
 Alpha virt. eigenvalues --    1.78839   1.78934   1.79165   1.79388   1.79470
 Alpha virt. eigenvalues --    1.79956   1.80138   1.80204   1.80539   1.80688
 Alpha virt. eigenvalues --    1.81104   1.81286   1.81507   1.81610   1.81944
 Alpha virt. eigenvalues --    1.82550   1.82789   1.82971   1.83148   1.83386
 Alpha virt. eigenvalues --    1.83711   1.83945   1.84203   1.84652   1.84870
 Alpha virt. eigenvalues --    1.84910   1.84959   1.85237   1.85520   1.85861
 Alpha virt. eigenvalues --    1.86094   1.86590   1.86979   1.87221   1.87626
 Alpha virt. eigenvalues --    1.87827   1.88097   1.88350   1.88442   1.88745
 Alpha virt. eigenvalues --    1.89114   1.89414   1.89666   1.89801   1.89939
 Alpha virt. eigenvalues --    1.90271   1.90330   1.90615   1.90669   1.90697
 Alpha virt. eigenvalues --    1.91655   1.91752   1.91867   1.92256   1.92346
 Alpha virt. eigenvalues --    1.92775   1.93155   1.93361   1.93478   1.93799
 Alpha virt. eigenvalues --    1.93978   1.94056   1.94612   1.94890   1.95290
 Alpha virt. eigenvalues --    1.95418   1.95733   1.95991   1.96269   1.96290
 Alpha virt. eigenvalues --    1.96701   1.97079   1.97379   1.97484   1.97955
 Alpha virt. eigenvalues --    1.98369   1.98516   1.98926   1.99035   1.99401
 Alpha virt. eigenvalues --    1.99787   2.00241   2.00486   2.00530   2.00878
 Alpha virt. eigenvalues --    2.01463   2.01746   2.01756   2.02718   2.02896
 Alpha virt. eigenvalues --    2.03134   2.03194   2.03348   2.03709   2.04123
 Alpha virt. eigenvalues --    2.04630   2.04761   2.05368   2.05550   2.05806
 Alpha virt. eigenvalues --    2.06647   2.06786   2.06824   2.07222   2.07470
 Alpha virt. eigenvalues --    2.07621   2.07960   2.08132   2.08631   2.08715
 Alpha virt. eigenvalues --    2.09204   2.09829   2.10029   2.10421   2.10997
 Alpha virt. eigenvalues --    2.11572   2.12450   2.12917   2.12920   2.13022
 Alpha virt. eigenvalues --    2.13161   2.14233   2.14545   2.15459   2.15709
 Alpha virt. eigenvalues --    2.16643   2.16841   2.17114   2.17889   2.18246
 Alpha virt. eigenvalues --    2.18568   2.18666   2.19058   2.19625   2.19869
 Alpha virt. eigenvalues --    2.19920   2.20547   2.21180   2.21425   2.21819
 Alpha virt. eigenvalues --    2.22283   2.22371   2.23092   2.23657   2.23714
 Alpha virt. eigenvalues --    2.24305   2.24592   2.25034   2.25212   2.25742
 Alpha virt. eigenvalues --    2.25832   2.26213   2.26490   2.26772   2.27004
 Alpha virt. eigenvalues --    2.27080   2.27837   2.27945   2.28137   2.28416
 Alpha virt. eigenvalues --    2.28904   2.28991   2.29522   2.29829   2.30515
 Alpha virt. eigenvalues --    2.30554   2.30916   2.31116   2.31272   2.31421
 Alpha virt. eigenvalues --    2.32144   2.33086   2.33297   2.33474   2.33608
 Alpha virt. eigenvalues --    2.34450   2.34777   2.35239   2.35301   2.35349
 Alpha virt. eigenvalues --    2.36356   2.36680   2.36913   2.37023   2.37511
 Alpha virt. eigenvalues --    2.37657   2.37764   2.38087   2.38136   2.38238
 Alpha virt. eigenvalues --    2.39080   2.39796   2.40116   2.40234   2.40510
 Alpha virt. eigenvalues --    2.41030   2.41313   2.41351   2.41950   2.42155
 Alpha virt. eigenvalues --    2.43006   2.43425   2.44014   2.44479   2.45118
 Alpha virt. eigenvalues --    2.45222   2.45681   2.45975   2.46942   2.47194
 Alpha virt. eigenvalues --    2.47667   2.47794   2.48150   2.48335   2.49249
 Alpha virt. eigenvalues --    2.49495   2.49682   2.49994   2.50786   2.50996
 Alpha virt. eigenvalues --    2.51013   2.51679   2.52128   2.52275   2.52377
 Alpha virt. eigenvalues --    2.53339   2.53524   2.53817   2.55129   2.55194
 Alpha virt. eigenvalues --    2.55584   2.55920   2.56113   2.56698   2.56953
 Alpha virt. eigenvalues --    2.57143   2.57297   2.57908   2.58152   2.58621
 Alpha virt. eigenvalues --    2.59207   2.59538   2.60352   2.60480   2.61248
 Alpha virt. eigenvalues --    2.61534   2.62468   2.62893   2.63211   2.63383
 Alpha virt. eigenvalues --    2.64018   2.64296   2.64419   2.64741   2.65144
 Alpha virt. eigenvalues --    2.65590   2.65938   2.66485   2.66915   2.67371
 Alpha virt. eigenvalues --    2.67657   2.68591   2.68779   2.69142   2.69595
 Alpha virt. eigenvalues --    2.70049   2.70684   2.70986   2.72047   2.72307
 Alpha virt. eigenvalues --    2.73345   2.73414   2.73646   2.73739   2.73906
 Alpha virt. eigenvalues --    2.74839   2.75564   2.76030   2.76199   2.76528
 Alpha virt. eigenvalues --    2.76991   2.77443   2.77628   2.78213   2.79100
 Alpha virt. eigenvalues --    2.79728   2.79798   2.80004   2.80610   2.80913
 Alpha virt. eigenvalues --    2.81351   2.81582   2.82018   2.82828   2.83084
 Alpha virt. eigenvalues --    2.83588   2.83836   2.84213   2.84332   2.84754
 Alpha virt. eigenvalues --    2.84933   2.85169   2.85792   2.85831   2.85935
 Alpha virt. eigenvalues --    2.86152   2.86403   2.86763   2.87284   2.87499
 Alpha virt. eigenvalues --    2.87873   2.87981   2.88020   2.88446   2.88802
 Alpha virt. eigenvalues --    2.89080   2.89342   2.89550   2.89869   2.90506
 Alpha virt. eigenvalues --    2.90684   2.90740   2.90882   2.91756   2.92031
 Alpha virt. eigenvalues --    2.92309   2.92474   2.92895   2.93226   2.93612
 Alpha virt. eigenvalues --    2.93947   2.94041   2.94617   2.94770   2.94892
 Alpha virt. eigenvalues --    2.95895   2.96312   2.96381   2.97144   2.97718
 Alpha virt. eigenvalues --    2.98086   2.98671   2.99057   2.99087   3.00014
 Alpha virt. eigenvalues --    3.00466   3.01167   3.01590   3.01870   3.02153
 Alpha virt. eigenvalues --    3.03079   3.04174   3.04414   3.04598   3.06393
 Alpha virt. eigenvalues --    3.06526   3.06903   3.07093   3.08166   3.09372
 Alpha virt. eigenvalues --    3.09914   3.10457   3.11513   3.12374   3.13067
 Alpha virt. eigenvalues --    3.16023   3.20198   3.24328   3.29562   3.30335
 Alpha virt. eigenvalues --    3.32568   3.36007   3.36971   3.40469   3.43288
 Alpha virt. eigenvalues --    3.47448   3.47863   3.51216   3.51729   3.55713
 Alpha virt. eigenvalues --    3.55965   3.58313
          Condensed to atoms (all electrons):
 Mulliken charges:
               1
     1  Mg   0.690884
     2  C    0.065949
     3  C   -0.055957
     4  C   -0.020355
     5  C   -0.096540
     6  N   -0.262659
     7  C   -0.076932
     8  C    0.034316
     9  C   -0.065565
    10  C    0.093567
    11  C    0.088524
    12  C    0.137201
    13  C    0.092289
    14  C    0.096344
    15  O   -0.187458
    16  O   -0.297858
    17  N   -0.259623
    18  C    0.091797
    19  C   -0.161821
    20  C    0.046649
    21  C    0.068743
    22  C    0.190372
    23  C   -0.115681
    24  O   -0.152779
    25  C    0.161799
    26  N   -0.259482
    27  C    0.030343
    28  C    0.046097
    29  C    0.053196
    30  C    0.031892
    31  C    0.149123
    32  C    0.065928
    33  C    0.054965
    34  N   -0.230178
    35  C    0.133293
    36  C   -0.194946
    37  C    0.059654
    38  C    0.077077
    39  C    0.176348
    40  C   -0.072776
    41  O   -0.119988
    42  C    0.045079
    43  C    0.132483
    44  O   -0.201693
    45  O   -0.265413
    46  C    0.211984
    47  C    0.292618
    48  C   -0.077008
    49  C   -0.158698
    50  C    0.125961
    51  C    0.141221
    52  C    0.065084
    53  C    0.080314
    54  C   -0.042615
    55  C    0.106891
    56  C    0.074811
    57  C    0.048860
    58  C    0.128931
    59  C   -0.064883
    60  C    0.093858
    61  C    0.116339
    62  C    0.063674
    63  C    0.063286
    64  C   -0.063472
    65  C    0.097981
    66  C    0.128683
    67  H   -0.072108
    68  H   -0.038881
    69  H   -0.071740
    70  H   -0.013638
    71  H   -0.030452
    72  H    0.007632
    73  H   -0.002439
    74  H   -0.003940
    75  H   -0.020404
    76  H    0.002784
    77  H    0.013354
    78  H   -0.001821
    79  H   -0.001867
    80  H   -0.005622
    81  H    0.000621
    82  H    0.016835
    83  H    0.012871
    84  H   -0.004896
    85  H   -0.037248
    86  H   -0.034838
    87  H   -0.009839
    88  H   -0.002377
    89  H   -0.016697
    90  H   -0.008308
    91  H   -0.019148
    92  H   -0.012336
    93  H   -0.008166
    94  H   -0.002520
    95  H   -0.009120
    96  H    0.008474
    97  H    0.012229
    98  H    0.013423
    99  H    0.016604
   100  H    0.035321
   101  H   -0.001570
   102  H    0.019026
   103  H    0.006972
   104  H   -0.038838
   105  H    0.007431
   106  H    0.014232
   107  H   -0.034432
   108  H   -0.019370
   109  H   -0.004847
   110  H   -0.037177
   111  H   -0.028628
   112  H   -0.034776
   113  H   -0.036011
   114  H   -0.034335
   115  H   -0.030533
   116  H   -0.004191
   117  H   -0.020536
   118  H   -0.039969
   119  H   -0.031862
   120  H   -0.029818
   121  H   -0.026616
   122  H   -0.051352
   123  H   -0.036767
   124  H   -0.034548
   125  H   -0.009236
   126  H   -0.030450
   127  H   -0.011142
   128  H   -0.051159
   129  H   -0.045467
   130  H   -0.029307
   131  H   -0.025350
   132  H   -0.038724
   133  H   -0.036926
   134  H   -0.032530
   135  H   -0.015139
   136  H   -0.032045
   137  H   -0.014880
   138  H   -0.021879
   139  H   -0.023008
   140  H   -0.016018
 Sum of Mulliken charges =  -0.00000
 Mulliken charges with hydrogens summed into heavy atoms:
               1
     1  Mg   0.690884
     2  C    0.065949
     3  C   -0.128064
     4  C   -0.059236
     5  C   -0.168280
     6  N   -0.262659
     7  C   -0.076932
     8  C    0.020679
     9  C   -0.096017
    10  C    0.093567
    11  C    0.089778
    12  C    0.119581
    13  C    0.103822
    14  C    0.096344
    15  O   -0.187458
    16  O   -0.297858
    17  N   -0.259623
    18  C    0.091797
    19  C   -0.161821
    20  C    0.046649
    21  C    0.068743
    22  C    0.183504
    23  C   -0.115681
    24  O   -0.152779
    25  C    0.186610
    26  N   -0.259482
    27  C    0.030343
    28  C    0.008849
    29  C    0.018358
    30  C    0.031892
    31  C    0.120210
    32  C    0.038472
    33  C    0.031943
    34  N   -0.230178
    35  C    0.133293
    36  C   -0.194946
    37  C    0.059654
    38  C    0.077077
    39  C    0.187932
    40  C   -0.072776
    41  O   -0.119988
    42  C    0.058502
    43  C    0.132483
    44  O   -0.201693
    45  O   -0.265413
    46  C    0.262338
    47  C    0.318615
    48  C   -0.115846
    49  C   -0.158698
    50  C    0.113192
    51  C    0.117004
    52  C   -0.000721
    53  C    0.009527
    54  C   -0.076950
    55  C    0.051631
    56  C    0.002979
    57  C   -0.007574
    58  C    0.040813
    59  C   -0.099432
    60  C    0.043030
    61  C    0.019713
    62  C    0.009017
    63  C   -0.012363
    64  C   -0.096002
    65  C    0.035916
    66  C    0.067779
 Electronic spatial extent (au):  <R**2>=         126848.0049
 Charge=             -0.0000 electrons
 Dipole moment (field-independent basis, Debye):
    X=              2.1371    Y=              4.0991    Z=              1.0560  Tot=              4.7418
 Quadrupole moment (field-independent basis, Debye-Ang):
   XX=           -375.0923   YY=           -418.3128   ZZ=           -407.7273
   XY=             -0.7614   XZ=              5.2279   YZ=             -2.5763
 Traceless Quadrupole moment (field-independent basis, Debye-Ang):
   XX=             25.2852   YY=            -17.9353   ZZ=             -7.3498
   XY=             -0.7614   XZ=              5.2279   YZ=             -2.5763
 Octapole moment (field-independent basis, Debye-Ang**2):
  XXX=           -289.6983  YYY=            163.9451  ZZZ=              9.0503  XYY=            124.4512
  XXY=           -197.6662  XXZ=            -95.4110  XZZ=            -34.6405  YZZ=             -8.1653
  YYZ=             50.8060  XYZ=            -21.5017
 Hexadecapole moment (field-independent basis, Debye-Ang**3):
 XXXX=        -147108.7464 YYYY=         -21837.0852 ZZZZ=          -4457.8679 XXXY=           2396.5702
 XXXZ=           -402.6894 YYYX=           -722.5597 YYYZ=           -245.0282 ZZZX=            -80.2406
 ZZZY=            -47.7732 XXYY=         -29514.0534 XXZZ=         -25917.0233 YYZZ=          -4218.2239
 XXYZ=            338.7623 YYXZ=             29.8801 ZZXY=            -59.7909
 N-N= 9.515549646212D+03 E-N=-2.602711871367D+04  KE= 2.977806798863D+03
 Leave Link  601 at Thu Apr 28 14:15:43 2022, MaxMem= 10066329600 cpu:               9.8 elap:               0.5
 (Enter /sw/apps/gaussian-16.0/g16/l9999.exe)
 1\1\GINC-BP1-COMPUTE139\SP\RBLYP TD-FC\def2SVP\C55H74Mg1N4O6\OF15641\2
 8-Apr-2022\0\\#p blyp/Def2SVP td=(nstates=5)\\step_1601_chromophore_13
  TDDFT with blyp functional\\0,1\Mg,0,47.437,24.614,28.949\C,0,48.102,
 26.797,31.529\C,0,46.387,22.256,31.145\C,0,47.903,22.193,26.591\C,0,49
 .182,26.877,26.852\N,0,47.116,24.6,31.01\C,0,47.57,25.572,31.917\C,0,4
 7.472,25.138,33.404\C,0,47.063,23.646,33.255\C,0,46.737,23.474,31.678\
 C,0,48.176,22.504,33.759\C,0,46.475,26.038,34.208\C,0,46.723,25.91,35.
 752\C,0,45.588,26.465,36.658\O,0,44.622,27.094,36.248\O,0,45.749,26.14
 9,38.013\N,0,46.822,22.529,28.821\C,0,46.363,21.797,29.832\C,0,45.967,
 20.509,29.283\C,0,46.378,20.498,27.966\C,0,47.075,21.743,27.709\C,0,45
 .166,19.424,30.046\C,0,46.325,19.378,26.923\O,0,46.756,19.647,25.823\C
 ,0,45.768,18.031,27.269\N,0,48.531,24.574,27.127\C,0,48.473,23.451,26.
 318\C,0,49.399,23.623,25.153\C,0,49.439,25.213,25.022\C,0,48.972,25.63
 7,26.354\C,0,50.777,22.936,25.226\C,0,48.671,25.924,23.892\C,0,47.182,
 26.357,24.196\N,0,48.218,26.544,29.1\C,0,48.793,27.32,28.133\C,0,49.02
 1,28.663,28.637\C,0,48.821,28.446,30.036\C,0,48.418,27.178,30.244\C,0,
 49.408,29.87,27.753\C,0,49.026,29.048,31.383\O,0,49.343,30.175,31.716\
 C,0,48.579,27.977,32.384\C,0,49.712,27.658,33.32\O,0,50.605,26.833,33.
 08\O,0,49.555,28.397,34.475\C,0,50.575,28.037,35.486\C,0,44.551,26.309
 ,38.87\C,0,44.664,25.041,39.733\C,0,44.302,24.953,41.014\C,0,43.679,26
 .047,41.899\C,0,44.433,23.687,41.848\C,0,43.971,22.389,41.134\C,0,43.2
 19,21.32,42.083\C,0,41.729,21.03,41.858\C,0,41.571,20.401,40.484\C,0,4
 0.872,22.378,42.03\C,0,40.109,22.502,43.397\C,0,40.362,23.758,44.14\C,
 0,40.446,23.628,45.704\C,0,39.194,24.157,46.508\C,0,41.743,24.272,46.2
 77\C,0,42.878,23.236,46.508\C,0,43.1,23.068,48.049\C,0,43.771,24.354,4
 8.783\C,0,44.954,23.88,49.623\C,0,42.777,25.244,49.433\H,0,46.077,21.4
 68,31.835\H,0,48.078,21.478,25.784\H,0,49.617,27.564,26.123\H,0,48.466
 ,25.016,33.835\H,0,46.244,23.464,33.951\H,0,47.793,21.694,34.38\H,0,49
 .067,22.995,34.151\H,0,48.522,22.12,32.8\H,0,45.502,25.592,33.999\H,0,
 46.462,27.065,33.843\H,0,47.658,26.384,36.05\H,0,46.768,24.853,36.015\
 H,0,44.917,19.757,31.053\H,0,45.773,18.519,30.003\H,0,44.273,19.208,29
 .46\H,0,44.707,18.179,27.473\H,0,46.363,17.715,28.126\H,0,45.94,17.398
 ,26.399\H,0,48.869,23.224,24.288\H,0,50.434,25.643,24.903\H,0,51.596,2
 3.585,25.535\H,0,51.012,22.411,24.3\H,0,50.788,22.183,26.014\H,0,48.76
 ,25.36,22.963\H,0,49.133,26.908,23.823\H,0,46.633,26.168,23.273\H,0,47
 .02,27.395,24.487\H,0,46.655,25.797,24.968\H,0,48.948,29.669,26.785\H,
 0,50.491,29.839,27.632\H,0,49.068,30.86,28.057\H,0,47.842,28.575,32.91
 9\H,0,50.67,28.897,36.149\H,0,51.514,27.634,35.106\H,0,50.133,27.269,3
 6.121\H,0,43.546,26.31,38.447\H,0,44.652,27.272,39.371\H,0,45.095,24.1
 79,39.224\H,0,44.427,26.222,42.672\H,0,42.678,25.84,42.276\H,0,43.55,2
 6.973,41.338\H,0,43.843,23.771,42.761\H,0,45.491,23.646,42.109\H,0,44.
 808,21.891,40.647\H,0,43.388,22.567,40.231\H,0,43.313,21.661,43.114\H,
 0,43.688,20.336,42.054\H,0,41.373,20.271,42.555\H,0,42.377,19.692,40.2
 95\H,0,41.583,21.123,39.667\H,0,40.643,19.832,40.534\H,0,40.048,22.489
 ,41.325\H,0,41.443,23.306,42.015\H,0,40.474,21.596,43.882\H,0,39.056,2
 2.378,43.144\H,0,39.507,24.404,43.937\H,0,41.187,24.354,43.75\H,0,40.5
 13,22.55,45.85\H,0,39.045,23.61,47.439\H,0,38.264,23.991,45.963\H,0,39
 .209,25.236,46.657\H,0,41.502,24.872,47.154\H,0,42.142,25.029,45.602\H
 ,0,43.759,23.503,45.923\H,0,42.722,22.213,46.166\H,0,43.546,22.098,48.
 265\H,0,42.129,23.01,48.541\H,0,44.289,24.919,48.008\H,0,45.223,22.837
 ,49.454\H,0,44.746,23.898,50.693\H,0,45.792,24.567,49.505\H,0,42.59,26
 .188,48.92\H,0,43.042,25.44,50.472\H,0,41.732,24.937,49.389\\Version=E
 S64L-G16RevA.03\State=1-A\HF=-3007.3572127\RMSD=4.197e-09\PG=C01 [X(C5
 5H74Mg1N4O6)]\\@


 Happiness is a conscious choice, not an automatic response.
 -- Mildred Barthel
 Job cpu time:       0 days  5 hours  3 minutes 54.3 seconds.
 Elapsed time:       0 days  0 hours 12 minutes 43.1 seconds.
 File lengths (MBytes):  RWF=   8039 Int=      0 D2E=      0 Chk=    390 Scr=      1
 Normal termination of Gaussian 16 at Thu Apr 28 14:15:44 2022.
