 Entering Gaussian System, Link 0=g16
 Initial command:
 /sw/apps/gaussian-16.0/g16/l1.exe "/tmp/Gau-115237.inp" -scrdir="/tmp/"
 Entering Link 1 = /sw/apps/gaussian-16.0/g16/l1.exe PID=    115238.
  
 Copyright (c) 1988,1990,1992,1993,1995,1998,2003,2009,2016,
            Gaussian, Inc.  All Rights Reserved.
  
 This is part of the Gaussian(R) 16 program.  It is based on
 the Gaussian(R) 09 system (copyright 2009, Gaussian, Inc.),
 the Gaussian(R) 03 system (copyright 2003, Gaussian, Inc.),
 the Gaussian(R) 98 system (copyright 1998, Gaussian, Inc.),
 the Gaussian(R) 94 system (copyright 1995, Gaussian, Inc.),
 the Gaussian 92(TM) system (copyright 1992, Gaussian, Inc.),
 the Gaussian 90(TM) system (copyright 1990, Gaussian, Inc.),
 the Gaussian 88(TM) system (copyright 1988, Gaussian, Inc.),
 the Gaussian 86(TM) system (copyright 1986, Carnegie Mellon
 University), and the Gaussian 82(TM) system (copyright 1983,
 Carnegie Mellon University). Gaussian is a federally registered
 trademark of Gaussian, Inc.
  
 This software contains proprietary and confidential information,
 including trade secrets, belonging to Gaussian, Inc.
  
 This software is provided under written license and may be
 used, copied, transmitted, or stored only in accord with that
 written license.
  
 The following legend is applicable only to US Government
 contracts under FAR:
  
                    RESTRICTED RIGHTS LEGEND
  
 Use, reproduction and disclosure by the US Government is
 subject to restrictions as set forth in subparagraphs (a)
 and (c) of the Commercial Computer Software - Restricted
 Rights clause in FAR 52.227-19.
  
 Gaussian, Inc.
 340 Quinnipiac St., Bldg. 40, Wallingford CT 06492
  
  
 ---------------------------------------------------------------
 Warning -- This program may not be used in any manner that
 competes with the business of Gaussian, Inc. or will provide
 assistance to any competitor of Gaussian, Inc.  The licensee
 of this program is prohibited from giving any competitor of
 Gaussian, Inc. access to this program.  By using this program,
 the user acknowledges that Gaussian, Inc. is engaged in the
 business of creating and licensing software in the field of
 computational chemistry and represents and warrants to the
 licensee that it is not a competitor of Gaussian, Inc. and that
 it will not use this program in any manner prohibited above.
 ---------------------------------------------------------------
  

 Cite this work as:
 Gaussian 16, Revision A.03,
 M. J. Frisch, G. W. Trucks, H. B. Schlegel, G. E. Scuseria, 
 M. A. Robb, J. R. Cheeseman, G. Scalmani, V. Barone, 
 G. A. Petersson, H. Nakatsuji, X. Li, M. Caricato, A. V. Marenich, 
 J. Bloino, B. G. Janesko, R. Gomperts, B. Mennucci, H. P. Hratchian, 
 J. V. Ortiz, A. F. Izmaylov, J. L. Sonnenberg, D. Williams-Young, 
 F. Ding, F. Lipparini, F. Egidi, J. Goings, B. Peng, A. Petrone, 
 T. Henderson, D. Ranasinghe, V. G. Zakrzewski, J. Gao, N. Rega, 
 G. Zheng, W. Liang, M. Hada, M. Ehara, K. Toyota, R. Fukuda, 
 J. Hasegawa, M. Ishida, T. Nakajima, Y. Honda, O. Kitao, H. Nakai, 
 T. Vreven, K. Throssell, J. A. Montgomery, Jr., J. E. Peralta, 
 F. Ogliaro, M. J. Bearpark, J. J. Heyd, E. N. Brothers, K. N. Kudin, 
 V. N. Staroverov, T. A. Keith, R. Kobayashi, J. Normand, 
 K. Raghavachari, A. P. Rendell, J. C. Burant, S. S. Iyengar, 
 J. Tomasi, M. Cossi, J. M. Millam, M. Klene, C. Adamo, R. Cammi, 
 J. W. Ochterski, R. L. Martin, K. Morokuma, O. Farkas, 
 J. B. Foresman, and D. J. Fox, Gaussian, Inc., Wallingford CT, 2016.
 
 ******************************************
 Gaussian 16:  ES64L-G16RevA.03 25-Dec-2016
                30-Apr-2022 
 ******************************************
 %nproc=24
 Will use up to   24 processors via shared memory.
 %mem=50gb
 --------------------
 #p ZINDO=(nstates=5)
 --------------------
 1/38=1,172=1/1;
 2/12=2,17=6,18=5,40=1/2;
 3/5=2,25=1,41=400000/1,2,3,8;
 4/5=3,35=1/1;
 5/5=2,35=1,38=5/2;
 8/6=1,108=5/1;
 9/41=5,42=1,49=10/14;
 6/7=2,8=2,9=2,10=2/1;
 99/5=1,9=1/99;
 Leave Link    1 at Sat Apr 30 02:17:09 2022, MaxMem=  6710886400 cpu:               1.0 elap:               0.1
 (Enter /sw/apps/gaussian-16.0/g16/l101.exe)
 ---------------------------
 step_51_chromophore_6 ZINDO
 ---------------------------
 Symbolic Z-matrix:
 Charge =  0 Multiplicity = 1
 Mg                    17.113   -1.765     27.253 
 C                     16.106    0.381     30.065 
 C                     19.026   -3.454     29.633 
 C                     18.18    -3.529     24.823 
 C                     15.43     0.354     25.173 
 N                     17.485   -1.486     29.643 
 C                     16.895   -0.649     30.472 
 C                     17.362   -0.927     31.879 
 C                     18.404   -2.107     31.786 
 C                     18.31    -2.447     30.264 
 C                     19.784   -1.749     32.338 
 C                     16.151   -1.296     32.739 
 C                     16.206   -1.06      34.194 
 C                     17.581   -0.615     34.858 
 O                     18.092    0.542     34.799 
 O                     18.141   -1.644     35.487 
 N                     18.385   -3.308     27.253 
 C                     19.104   -3.872     28.276 
 C                     19.858   -5.023     27.789 
 C                     19.577   -5.141     26.38 
 C                     18.684   -4.003     26.076 
 C                     20.606   -6.009     28.696 
 C                     20.126   -6.117     25.311 
 O                     19.967   -5.982     24.079 
 C                     20.892   -7.268     25.771 
 N                     17.036   -1.449     25.229 
 C                     17.426   -2.45      24.409 
 C                     16.99    -2.172     22.954 
 C                     15.725   -1.276     23.188 
 C                     16.062   -0.735     24.585 
 C                     18.08    -1.629     22.003 
 C                     14.33    -2.059     23.376 
 C                     13.028   -1.269     22.923 
 N                     16.041   -0.027     27.493 
 C                     15.339    0.702     26.545 
 C                     14.644    1.831     27.144 
 C                     14.969    1.751     28.486 
 C                     15.805    0.643     28.708 
 C                     13.818    2.925     26.468 
 C                     14.695    2.434     29.808 
 O                     14.006    3.435     30.114 
 C                     15.444    1.583     30.793 
 C                     16.345    2.516     31.593 
 O                     17.315    3.146     31.091 
 O                     15.939    2.536     32.933 
 C                     16.855    3.387     33.743 
 C                     19.43    -1.454     36.239 
 C                     19.616   -2.508     37.366 
 C                     20.152   -2.493     38.565 
 C                     20.639   -1.217     39.27 
 C                     19.927   -3.719     39.441 
 C                     21.145   -4.625     39.505 
 C                     20.897   -5.981     38.845 
 C                     22.199   -6.433     38.152 
 C                     21.753   -7.511     37.118 
 C                     23.113   -7.137     39.186 
 C                     24.491   -6.531     39.34 
 C                     24.987   -6.503     40.879 
 C                     25.863   -7.805     41.358 
 C                     24.992   -8.686     42.136 
 C                     27.118   -7.346     42.215 
 C                     28.493   -7.84      41.745 
 C                     29.213   -8.852     42.722 
 C                     28.667   -10.274    42.452 
 C                     29.216   -10.957    41.181 
 C                     28.961   -11.149    43.693 
 H                     19.578   -4.017     30.388 
 H                     18.515   -4.137     23.98 
 H                     14.79     0.977     24.545 
 H                     17.767    0.041     32.173 
 H                     18.086   -3.011     32.306 
 H                     20.535   -1.873     31.558 
 H                     19.95    -2.51      33.101 
 H                     19.877   -0.8       32.867 
 H                     15.992   -2.37      32.636 
 H                     15.318   -0.757     32.288 
 H                     15.81    -1.895     34.771 
 H                     15.579   -0.185     34.369 
 H                     20.028   -6.929     28.786 
 H                     20.614   -5.618     29.714 
 H                     21.601   -6.236     28.315 
 H                     20.322   -7.807     26.527 
 H                     21.841   -6.974     26.218 
 H                     21.082   -7.951     24.943 
 H                     16.656   -3.13      22.557 
 H                     15.653   -0.49      22.437 
 H                     17.669   -0.663     21.71 
 H                     18.264   -2.348     21.205 
 H                     18.99    -1.39      22.554 
 H                     14.247   -2.26      24.444 
 H                     14.366   -2.99      22.812 
 H                     12.828   -1.557     21.891 
 H                     13.068   -0.181     22.967 
 H                     12.23    -1.416     23.652 
 H                     13.295    2.563     25.583 
 H                     14.525    3.66      26.082 
 H                     13.149    3.356     27.213 
 H                     14.709    1.216     31.509 
 H                     16.532    4.421     33.867 
 H                     17.822    3.463     33.246 
 H                     16.949    2.964     34.743 
 H                     19.363   -0.526     36.806 
 H                     20.342   -1.421     35.643 
 H                     19.204   -3.475     37.076 
 H                     21.726   -1.279     39.207 
 H                     20.332   -1.222     40.316 
 H                     20.283   -0.355     38.707 
 H                     19.085   -4.266     39.018 
 H                     19.618   -3.283     40.391 
 H                     21.242   -4.885     40.559 
 H                     22.115   -4.186     39.271 
 H                     20.092   -5.897     38.115 
 H                     20.465   -6.737     39.5 
 H                     22.606   -5.575     37.616 
 H                     22.58    -7.834     36.486 
 H                     21.179   -7.037     36.321 
 H                     21.182   -8.296     37.614 
 H                     23.274   -8.172     38.885 
 H                     22.658   -7.069     40.174 
 H                     24.613   -5.508     38.985 
 H                     25.072   -7.209     38.715 
 H                     24.122   -6.387     41.531 
 H                     25.663   -5.658     41.012 
 H                     26.157   -8.416     40.504 
 H                     25.38    -8.92      43.128 
 H                     24.911   -9.658     41.651 
 H                     24.002   -8.312     42.397 
 H                     26.988   -7.518     43.284 
 H                     27.163   -6.26      42.289 
 H                     29.136   -6.96      41.775 
 H                     28.332   -8.249     40.747 
 H                     28.991   -8.542     43.743 
 H                     30.254   -8.84      42.398 
 H                     27.583   -10.267    42.345 
 H                     30.043   -10.404    40.737 
 H                     28.48    -10.873    40.382 
 H                     29.527   -11.984    41.377 
 H                     27.984   -11.5      44.023 
 H                     29.322   -10.622    44.576 
 H                     29.706   -11.938    43.584 
 
 ITRead=  0  0  0  0  0  0  0  0  0  0  0  0  0  0  0  0  0  0  0  0
 ITRead=  0  0  0  0  0  0  0  0  0  0  0  0  0  0  0  0  0  0  0  0
 ITRead=  0  0  0  0  0  0  0  0  0  0  0  0  0  0  0  0  0  0  0  0
 ITRead=  0  0  0  0  0  0  0  0  0  0  0  0  0  0  0  0  0  0  0  0
 ITRead=  0  0  0  0  0  0  0  0  0  0  0  0  0  0  0  0  0  0  0  0
 ITRead=  0  0  0  0  0  0  0  0  0  0  0  0  0  0  0  0  0  0  0  0
 ITRead=  0  0  0  0  0  0  0  0  0  0  0  0  0  0  0  0  0  0  0  0
 MicOpt= -1 -1 -1 -1 -1 -1 -1 -1 -1 -1 -1 -1 -1 -1 -1 -1 -1 -1 -1 -1
 MicOpt= -1 -1 -1 -1 -1 -1 -1 -1 -1 -1 -1 -1 -1 -1 -1 -1 -1 -1 -1 -1
 MicOpt= -1 -1 -1 -1 -1 -1 -1 -1 -1 -1 -1 -1 -1 -1 -1 -1 -1 -1 -1 -1
 MicOpt= -1 -1 -1 -1 -1 -1 -1 -1 -1 -1 -1 -1 -1 -1 -1 -1 -1 -1 -1 -1
 MicOpt= -1 -1 -1 -1 -1 -1 -1 -1 -1 -1 -1 -1 -1 -1 -1 -1 -1 -1 -1 -1
 MicOpt= -1 -1 -1 -1 -1 -1 -1 -1 -1 -1 -1 -1 -1 -1 -1 -1 -1 -1 -1 -1
 MicOpt= -1 -1 -1 -1 -1 -1 -1 -1 -1 -1 -1 -1 -1 -1 -1 -1 -1 -1 -1 -1
 NAtoms=    140 NQM=      140 NQMF=       0 NMMI=      0 NMMIF=      0
                NMic=       0 NMicF=      0.
                    Isotopes and Nuclear Properties:
 (Nuclear quadrupole moments (NQMom) in fm**2, nuclear magnetic moments (NMagM)
  in nuclear magnetons)

  Atom         1           2           3           4           5           6           7           8           9          10
 IAtWgt=          24          12          12          12          12          14          12          12          12          12
 AtmWgt=  23.9850450  12.0000000  12.0000000  12.0000000  12.0000000  14.0030740  12.0000000  12.0000000  12.0000000  12.0000000
 NucSpn=           0           0           0           0           0           2           0           0           0           0
 AtZEff=  -0.0000000  -0.0000000  -0.0000000  -0.0000000  -0.0000000  -0.0000000  -0.0000000  -0.0000000  -0.0000000  -0.0000000
 NQMom=    0.0000000   0.0000000   0.0000000   0.0000000   0.0000000   2.0440000   0.0000000   0.0000000   0.0000000   0.0000000
 NMagM=    0.0000000   0.0000000   0.0000000   0.0000000   0.0000000   0.4037610   0.0000000   0.0000000   0.0000000   0.0000000
 AtZNuc=  12.0000000   6.0000000   6.0000000   6.0000000   6.0000000   7.0000000   6.0000000   6.0000000   6.0000000   6.0000000

  Atom        11          12          13          14          15          16          17          18          19          20
 IAtWgt=          12          12          12          12          16          16          14          12          12          12
 AtmWgt=  12.0000000  12.0000000  12.0000000  12.0000000  15.9949146  15.9949146  14.0030740  12.0000000  12.0000000  12.0000000
 NucSpn=           0           0           0           0           0           0           2           0           0           0
 AtZEff=  -0.0000000  -0.0000000  -0.0000000  -0.0000000  -0.0000000  -0.0000000  -0.0000000  -0.0000000  -0.0000000  -0.0000000
 NQMom=    0.0000000   0.0000000   0.0000000   0.0000000   0.0000000   0.0000000   2.0440000   0.0000000   0.0000000   0.0000000
 NMagM=    0.0000000   0.0000000   0.0000000   0.0000000   0.0000000   0.0000000   0.4037610   0.0000000   0.0000000   0.0000000
 AtZNuc=   6.0000000   6.0000000   6.0000000   6.0000000   8.0000000   8.0000000   7.0000000   6.0000000   6.0000000   6.0000000

  Atom        21          22          23          24          25          26          27          28          29          30
 IAtWgt=          12          12          12          16          12          14          12          12          12          12
 AtmWgt=  12.0000000  12.0000000  12.0000000  15.9949146  12.0000000  14.0030740  12.0000000  12.0000000  12.0000000  12.0000000
 NucSpn=           0           0           0           0           0           2           0           0           0           0
 AtZEff=  -0.0000000  -0.0000000  -0.0000000  -0.0000000  -0.0000000  -0.0000000  -0.0000000  -0.0000000  -0.0000000  -0.0000000
 NQMom=    0.0000000   0.0000000   0.0000000   0.0000000   0.0000000   2.0440000   0.0000000   0.0000000   0.0000000   0.0000000
 NMagM=    0.0000000   0.0000000   0.0000000   0.0000000   0.0000000   0.4037610   0.0000000   0.0000000   0.0000000   0.0000000
 AtZNuc=   6.0000000   6.0000000   6.0000000   8.0000000   6.0000000   7.0000000   6.0000000   6.0000000   6.0000000   6.0000000

  Atom        31          32          33          34          35          36          37          38          39          40
 IAtWgt=          12          12          12          14          12          12          12          12          12          12
 AtmWgt=  12.0000000  12.0000000  12.0000000  14.0030740  12.0000000  12.0000000  12.0000000  12.0000000  12.0000000  12.0000000
 NucSpn=           0           0           0           2           0           0           0           0           0           0
 AtZEff=  -0.0000000  -0.0000000  -0.0000000  -0.0000000  -0.0000000  -0.0000000  -0.0000000  -0.0000000  -0.0000000  -0.0000000
 NQMom=    0.0000000   0.0000000   0.0000000   2.0440000   0.0000000   0.0000000   0.0000000   0.0000000   0.0000000   0.0000000
 NMagM=    0.0000000   0.0000000   0.0000000   0.4037610   0.0000000   0.0000000   0.0000000   0.0000000   0.0000000   0.0000000
 AtZNuc=   6.0000000   6.0000000   6.0000000   7.0000000   6.0000000   6.0000000   6.0000000   6.0000000   6.0000000   6.0000000

  Atom        41          42          43          44          45          46          47          48          49          50
 IAtWgt=          16          12          12          16          16          12          12          12          12          12
 AtmWgt=  15.9949146  12.0000000  12.0000000  15.9949146  15.9949146  12.0000000  12.0000000  12.0000000  12.0000000  12.0000000
 NucSpn=           0           0           0           0           0           0           0           0           0           0
 AtZEff=  -0.0000000  -0.0000000  -0.0000000  -0.0000000  -0.0000000  -0.0000000  -0.0000000  -0.0000000  -0.0000000  -0.0000000
 NQMom=    0.0000000   0.0000000   0.0000000   0.0000000   0.0000000   0.0000000   0.0000000   0.0000000   0.0000000   0.0000000
 NMagM=    0.0000000   0.0000000   0.0000000   0.0000000   0.0000000   0.0000000   0.0000000   0.0000000   0.0000000   0.0000000
 AtZNuc=   8.0000000   6.0000000   6.0000000   8.0000000   8.0000000   6.0000000   6.0000000   6.0000000   6.0000000   6.0000000

  Atom        51          52          53          54          55          56          57          58          59          60
 IAtWgt=          12          12          12          12          12          12          12          12          12          12
 AtmWgt=  12.0000000  12.0000000  12.0000000  12.0000000  12.0000000  12.0000000  12.0000000  12.0000000  12.0000000  12.0000000
 NucSpn=           0           0           0           0           0           0           0           0           0           0
 AtZEff=  -0.0000000  -0.0000000  -0.0000000  -0.0000000  -0.0000000  -0.0000000  -0.0000000  -0.0000000  -0.0000000  -0.0000000
 NQMom=    0.0000000   0.0000000   0.0000000   0.0000000   0.0000000   0.0000000   0.0000000   0.0000000   0.0000000   0.0000000
 NMagM=    0.0000000   0.0000000   0.0000000   0.0000000   0.0000000   0.0000000   0.0000000   0.0000000   0.0000000   0.0000000
 AtZNuc=   6.0000000   6.0000000   6.0000000   6.0000000   6.0000000   6.0000000   6.0000000   6.0000000   6.0000000   6.0000000

  Atom        61          62          63          64          65          66          67          68          69          70
 IAtWgt=          12          12          12          12          12          12           1           1           1           1
 AtmWgt=  12.0000000  12.0000000  12.0000000  12.0000000  12.0000000  12.0000000   1.0078250   1.0078250   1.0078250   1.0078250
 NucSpn=           0           0           0           0           0           0           1           1           1           1
 AtZEff=  -0.0000000  -0.0000000  -0.0000000  -0.0000000  -0.0000000  -0.0000000  -0.0000000  -0.0000000  -0.0000000  -0.0000000
 NQMom=    0.0000000   0.0000000   0.0000000   0.0000000   0.0000000   0.0000000   0.0000000   0.0000000   0.0000000   0.0000000
 NMagM=    0.0000000   0.0000000   0.0000000   0.0000000   0.0000000   0.0000000   2.7928460   2.7928460   2.7928460   2.7928460
 AtZNuc=   6.0000000   6.0000000   6.0000000   6.0000000   6.0000000   6.0000000   1.0000000   1.0000000   1.0000000   1.0000000

  Atom        71          72          73          74          75          76          77          78          79          80
 IAtWgt=           1           1           1           1           1           1           1           1           1           1
 AtmWgt=   1.0078250   1.0078250   1.0078250   1.0078250   1.0078250   1.0078250   1.0078250   1.0078250   1.0078250   1.0078250
 NucSpn=           1           1           1           1           1           1           1           1           1           1
 AtZEff=  -0.0000000  -0.0000000  -0.0000000  -0.0000000  -0.0000000  -0.0000000  -0.0000000  -0.0000000  -0.0000000  -0.0000000
 NQMom=    0.0000000   0.0000000   0.0000000   0.0000000   0.0000000   0.0000000   0.0000000   0.0000000   0.0000000   0.0000000
 NMagM=    2.7928460   2.7928460   2.7928460   2.7928460   2.7928460   2.7928460   2.7928460   2.7928460   2.7928460   2.7928460
 AtZNuc=   1.0000000   1.0000000   1.0000000   1.0000000   1.0000000   1.0000000   1.0000000   1.0000000   1.0000000   1.0000000

  Atom        81          82          83          84          85          86          87          88          89          90
 IAtWgt=           1           1           1           1           1           1           1           1           1           1
 AtmWgt=   1.0078250   1.0078250   1.0078250   1.0078250   1.0078250   1.0078250   1.0078250   1.0078250   1.0078250   1.0078250
 NucSpn=           1           1           1           1           1           1           1           1           1           1
 AtZEff=  -0.0000000  -0.0000000  -0.0000000  -0.0000000  -0.0000000  -0.0000000  -0.0000000  -0.0000000  -0.0000000  -0.0000000
 NQMom=    0.0000000   0.0000000   0.0000000   0.0000000   0.0000000   0.0000000   0.0000000   0.0000000   0.0000000   0.0000000
 NMagM=    2.7928460   2.7928460   2.7928460   2.7928460   2.7928460   2.7928460   2.7928460   2.7928460   2.7928460   2.7928460
 AtZNuc=   1.0000000   1.0000000   1.0000000   1.0000000   1.0000000   1.0000000   1.0000000   1.0000000   1.0000000   1.0000000

  Atom        91          92          93          94          95          96          97          98          99         100
 IAtWgt=           1           1           1           1           1           1           1           1           1           1
 AtmWgt=   1.0078250   1.0078250   1.0078250   1.0078250   1.0078250   1.0078250   1.0078250   1.0078250   1.0078250   1.0078250
 NucSpn=           1           1           1           1           1           1           1           1           1           1
 AtZEff=  -0.0000000  -0.0000000  -0.0000000  -0.0000000  -0.0000000  -0.0000000  -0.0000000  -0.0000000  -0.0000000  -0.0000000
 NQMom=    0.0000000   0.0000000   0.0000000   0.0000000   0.0000000   0.0000000   0.0000000   0.0000000   0.0000000   0.0000000
 NMagM=    2.7928460   2.7928460   2.7928460   2.7928460   2.7928460   2.7928460   2.7928460   2.7928460   2.7928460   2.7928460
 AtZNuc=   1.0000000   1.0000000   1.0000000   1.0000000   1.0000000   1.0000000   1.0000000   1.0000000   1.0000000   1.0000000

  Atom       101         102         103         104         105         106         107         108         109         110
 IAtWgt=           1           1           1           1           1           1           1           1           1           1
 AtmWgt=   1.0078250   1.0078250   1.0078250   1.0078250   1.0078250   1.0078250   1.0078250   1.0078250   1.0078250   1.0078250
 NucSpn=           1           1           1           1           1           1           1           1           1           1
 AtZEff=  -0.0000000  -0.0000000  -0.0000000  -0.0000000  -0.0000000  -0.0000000  -0.0000000  -0.0000000  -0.0000000  -0.0000000
 NQMom=    0.0000000   0.0000000   0.0000000   0.0000000   0.0000000   0.0000000   0.0000000   0.0000000   0.0000000   0.0000000
 NMagM=    2.7928460   2.7928460   2.7928460   2.7928460   2.7928460   2.7928460   2.7928460   2.7928460   2.7928460   2.7928460
 AtZNuc=   1.0000000   1.0000000   1.0000000   1.0000000   1.0000000   1.0000000   1.0000000   1.0000000   1.0000000   1.0000000

  Atom       111         112         113         114         115         116         117         118         119         120
 IAtWgt=           1           1           1           1           1           1           1           1           1           1
 AtmWgt=   1.0078250   1.0078250   1.0078250   1.0078250   1.0078250   1.0078250   1.0078250   1.0078250   1.0078250   1.0078250
 NucSpn=           1           1           1           1           1           1           1           1           1           1
 AtZEff=  -0.0000000  -0.0000000  -0.0000000  -0.0000000  -0.0000000  -0.0000000  -0.0000000  -0.0000000  -0.0000000  -0.0000000
 NQMom=    0.0000000   0.0000000   0.0000000   0.0000000   0.0000000   0.0000000   0.0000000   0.0000000   0.0000000   0.0000000
 NMagM=    2.7928460   2.7928460   2.7928460   2.7928460   2.7928460   2.7928460   2.7928460   2.7928460   2.7928460   2.7928460
 AtZNuc=   1.0000000   1.0000000   1.0000000   1.0000000   1.0000000   1.0000000   1.0000000   1.0000000   1.0000000   1.0000000

  Atom       121         122         123         124         125         126         127         128         129         130
 IAtWgt=           1           1           1           1           1           1           1           1           1           1
 AtmWgt=   1.0078250   1.0078250   1.0078250   1.0078250   1.0078250   1.0078250   1.0078250   1.0078250   1.0078250   1.0078250
 NucSpn=           1           1           1           1           1           1           1           1           1           1
 AtZEff=  -0.0000000  -0.0000000  -0.0000000  -0.0000000  -0.0000000  -0.0000000  -0.0000000  -0.0000000  -0.0000000  -0.0000000
 NQMom=    0.0000000   0.0000000   0.0000000   0.0000000   0.0000000   0.0000000   0.0000000   0.0000000   0.0000000   0.0000000
 NMagM=    2.7928460   2.7928460   2.7928460   2.7928460   2.7928460   2.7928460   2.7928460   2.7928460   2.7928460   2.7928460
 AtZNuc=   1.0000000   1.0000000   1.0000000   1.0000000   1.0000000   1.0000000   1.0000000   1.0000000   1.0000000   1.0000000

  Atom       131         132         133         134         135         136         137         138         139         140
 IAtWgt=           1           1           1           1           1           1           1           1           1           1
 AtmWgt=   1.0078250   1.0078250   1.0078250   1.0078250   1.0078250   1.0078250   1.0078250   1.0078250   1.0078250   1.0078250
 NucSpn=           1           1           1           1           1           1           1           1           1           1
 AtZEff=  -0.0000000  -0.0000000  -0.0000000  -0.0000000  -0.0000000  -0.0000000  -0.0000000  -0.0000000  -0.0000000  -0.0000000
 NQMom=    0.0000000   0.0000000   0.0000000   0.0000000   0.0000000   0.0000000   0.0000000   0.0000000   0.0000000   0.0000000
 NMagM=    2.7928460   2.7928460   2.7928460   2.7928460   2.7928460   2.7928460   2.7928460   2.7928460   2.7928460   2.7928460
 AtZNuc=   1.0000000   1.0000000   1.0000000   1.0000000   1.0000000   1.0000000   1.0000000   1.0000000   1.0000000   1.0000000
 Leave Link  101 at Sat Apr 30 02:17:09 2022, MaxMem=  6710886400 cpu:               3.6 elap:               0.2
 (Enter /sw/apps/gaussian-16.0/g16/l202.exe)
 Stoichiometry    C55H74MgN4O6
 Framework group  C1[X(C55H74MgN4O6)]
 Deg. of freedom   414
 Full point group                 C1      NOp   1
 Largest Abelian subgroup         C1      NOp   1
 Largest concise Abelian subgroup C1      NOp   1
                         Standard orientation:                         
 ---------------------------------------------------------------------
 Center     Atomic      Atomic             Coordinates (Angstroms)
 Number     Number       Type             X           Y           Z
 ---------------------------------------------------------------------
      1         12           0        5.459360    1.220982    0.039214
      2          6           0        4.563242   -2.345995    0.058172
      3          6           0        2.013108    1.766965    0.083234
      4          6           0        6.168803    4.319744   -0.183154
      5          6           0        8.715728    0.290414   -0.384068
      6          7           0        3.508538   -0.235780    0.060699
      7          6           0        3.467116   -1.548480    0.165636
      8          6           0        2.030081   -1.997068    0.259031
      9          6           0        1.142326   -0.697133    0.164841
     10          6           0        2.252747    0.401648    0.141096
     11          6           0        0.152715   -0.715668   -1.000317
     12          6           0        1.827237   -2.736923    1.583323
     13          6           0        0.750069   -3.739254    1.687179
     14          6           0       -0.292251   -3.886738    0.494969
     15          8           0       -0.072059   -4.453272   -0.615800
     16          8           0       -1.446840   -3.313636    0.821401
     17          7           0        4.248800    2.812365    0.009623
     18          6           0        2.879417    2.892211    0.008483
     19          6           0        2.454666    4.288341    0.038371
     20          6           0        3.652927    5.089776    0.044487
     21          6           0        4.760769    4.113964   -0.028896
     22          6           0        1.004592    4.743113    0.250071
     23          6           0        3.850825    6.624784    0.008082
     24          8           0        4.943656    7.194268   -0.198652
     25          6           0        2.679819    7.466175    0.217756
     26          7           0        7.197476    2.165213   -0.499064
     27          6           0        7.271082    3.506294   -0.348784
     28          6           0        8.730110    3.995772   -0.475484
     29          6           0        9.513789    2.720714   -0.008716
     30          6           0        8.454072    1.653637   -0.318885
     31          6           0        9.129359    4.619010   -1.831775
     32          6           0        9.774520    2.592675    1.575609
     33          6           0       11.074344    1.782634    1.998461
     34          7           0        6.454622   -0.567564   -0.155691
     35          6           0        7.818188   -0.800070   -0.253546
     36          6           0        8.117666   -2.223180   -0.292785
     37          6           0        6.876150   -2.828991   -0.224810
     38          6           0        5.872104   -1.848704   -0.142516
     39          6           0        9.466380   -2.921380   -0.464762
     40          6           0        6.233857   -4.197790   -0.169150
     41          8           0        6.711787   -5.355964   -0.193137
     42          6           0        4.772486   -3.882969   -0.025246
     43          6           0        4.042635   -4.643094   -1.126072
     44          8           0        4.183350   -4.394409   -2.354143
     45          8           0        3.205975   -5.612926   -0.560154
     46          6           0        2.430318   -6.315642   -1.620298
     47          6           0       -2.609647   -3.369815   -0.131410
     48          6           0       -3.975480   -3.224650    0.595959
     49          6           0       -5.175590   -3.727037    0.415773
     50          6           0       -5.496348   -4.837812   -0.596976
     51          6           0       -6.203297   -3.479529    1.512876
     52          6           0       -7.200091   -2.392570    1.147665
     53          6           0       -7.063945   -1.155952    2.035404
     54          6           0       -7.342352    0.095257    1.177079
     55          6           0       -6.711369    1.278754    1.971657
     56          6           0       -8.870032    0.345153    1.114531
     57          6           0       -9.455364    0.387824   -0.280245
     58          6           0      -10.896376   -0.340711   -0.369922
     59          6           0      -12.193449    0.639338   -0.148270
     60          6           0      -12.692776    0.442827    1.212664
     61          6           0      -13.321325    0.319544   -1.218682
     62          6           0      -13.826216    1.497806   -2.062688
     63          6           0      -15.326647    1.918055   -1.799681
     64          6           0      -15.370628    2.849891   -0.565644
     65          6           0      -14.905936    4.299674   -0.821617
     66          6           0      -16.813137    2.846345   -0.007706
     67          1           0        0.937228    1.936996    0.155830
     68          1           0        6.433997    5.377779   -0.235807
     69          1           0        9.758710   -0.032115   -0.400672
     70          1           0        1.957189   -2.683054   -0.584531
     71          1           0        0.559148   -0.501678    1.065086
     72          1           0        0.340191    0.135280   -1.654930
     73          1           0       -0.809676   -0.568082   -0.509535
     74          1           0        0.045336   -1.653319   -1.546550
     75          1           0        1.588223   -1.990384    2.341557
     76          1           0        2.797310   -3.183375    1.801157
     77          1           0        0.187047   -3.657178    2.616286
     78          1           0        1.252515   -4.706987    1.666684
     79          1           0        0.881809    5.098770    1.273309
     80          1           0        0.350161    3.871787    0.207869
     81          1           0        0.719690    5.528803   -0.448669
     82          1           0        2.174038    7.165488    1.134669
     83          1           0        1.964367    7.380219   -0.599303
     84          1           0        2.978037    8.509125    0.324968
     85          1           0        8.851670    4.764327    0.287061
     86          1           0       10.429012    2.586565   -0.584348
     87          1           0        9.923264    3.951560   -2.166664
     88          1           0        9.393752    5.666946   -1.691959
     89          1           0        8.331704    4.494245   -2.564580
     90          1           0        8.906561    2.068399    1.975228
     91          1           0        9.851337    3.590566    2.005105
     92          1           0       11.874163    2.512731    2.121814
     93          1           0       11.424282    1.013098    1.310974
     94          1           0       10.849554    1.132058    2.844672
     95          1           0       10.285567   -2.356991   -0.019571
     96          1           0        9.687170   -2.920827   -1.532621
     97          1           0        9.379292   -3.932875   -0.067724
     98          1           0        4.444539   -4.346792    0.904748
     99          1           0        2.879464   -7.241422   -1.980935
    100          1           0        2.362727   -5.684291   -2.506132
    101          1           0        1.444353   -6.573204   -1.233904
    102          1           0       -2.674397   -4.379910   -0.534745
    103          1           0       -2.588286   -2.672164   -0.968594
    104          1           0       -3.901837   -2.544555    1.445065
    105          1           0       -6.014576   -4.318067   -1.403628
    106          1           0       -6.162073   -5.576458   -0.150207
    107          1           0       -4.557591   -5.250876   -0.964212
    108          1           0       -5.654226   -3.187860    2.407612
    109          1           0       -6.629078   -4.470185    1.672211
    110          1           0       -8.169188   -2.794644    1.442813
    111          1           0       -7.339852   -2.168881    0.089929
    112          1           0       -6.058916   -1.108522    2.454507
    113          1           0       -7.640546   -1.189675    2.959298
    114          1           0       -6.808340   -0.022661    0.233662
    115          1           0       -6.751607    2.211909    1.410156
    116          1           0       -5.624718    1.186796    1.961972
    117          1           0       -7.104843    1.303068    2.987959
    118          1           0       -9.100054    1.310762    1.564459
    119          1           0       -9.389162   -0.469995    1.618347
    120          1           0       -8.858767   -0.067420   -1.070348
    121          1           0       -9.509802    1.465321   -0.434864
    122          1           0      -10.929673   -1.156501    0.351301
    123          1           0      -11.024865   -0.736172   -1.377787
    124          1           0      -11.900236    1.689400   -0.169900
    125          1           0      -13.749496    0.176820    1.256795
    126          1           0      -12.634349    1.375388    1.772563
    127          1           0      -12.261944   -0.372577    1.793695
    128          1           0      -14.155747   -0.244564   -0.800630
    129          1           0      -12.998085   -0.464302   -1.902786
    130          1           0      -13.844656    1.125435   -3.087260
    131          1           0      -13.117478    2.308059   -1.888372
    132          1           0      -15.898329    1.008578   -1.615682
    133          1           0      -15.590316    2.521768   -2.668479
    134          1           0      -14.741459    2.470216    0.238438
    135          1           0      -14.767553    4.510070   -1.881550
    136          1           0      -13.881530    4.415757   -0.469098
    137          1           0      -15.596604    5.026628   -0.392222
    138          1           0      -16.712205    2.501655    1.020706
    139          1           0      -17.488298    2.102467   -0.430247
    140          1           0      -17.394312    3.762709   -0.116976
 ---------------------------------------------------------------------
 Rotational constants (GHZ):           0.0439176           0.0095540           0.0080662
 Leave Link  202 at Sat Apr 30 02:17:09 2022, MaxMem=  6710886400 cpu:               0.2 elap:               0.0
 (Enter /sw/apps/gaussian-16.0/g16/l301.exe)
 Standard basis: VSTO-6G (5D, 7F)
 Ernie: Thresh=  0.10000D-02 Tol=  0.10000D-05 Strict=F.
 There are   338 symmetry adapted cartesian basis functions of A   symmetry.
 There are   338 symmetry adapted basis functions of A   symmetry.
   338 basis functions,  2028 primitive gaussians,   338 cartesian basis functions
   176 alpha electrons      176 beta electrons
       nuclear repulsion energy      4772.9532186044 Hartrees.
 IExCor=    0 DFT=F Ex=HF Corr=None ExCW=0 ScaHFX=  1.000000
 ScaDFX=  1.000000  1.000000  1.000000  1.000000 ScalE2=  1.000000  1.000000
 IRadAn=      5 IRanWt=     -1 IRanGd=            0 ICorTp=0 IEmpDi=  4
 Integral buffers will be    131072 words long.
 Regular integral format.
 Two-electron integral symmetry is turned off.
 Leave Link  301 at Sat Apr 30 02:17:09 2022, MaxMem=  6710886400 cpu:               1.2 elap:               0.1
 (Enter /sw/apps/gaussian-16.0/g16/l302.exe)
 Do NDO integrals.
 NPDir=0 NMtPBC=     1 NCelOv=     1 NCel=       1 NClECP=     1 NCelD=      1
         NCelK=      1 NCelE2=     1 NClLst=     1 CellRange=     0.0.
 One-electron integrals computed using PRISM.
 Generate ZINDO/S integrals.
 NDO Nuclear repulsion=  4289.906305469367 Hartrees.
 NBasis=   338 RedAO= F EigKep=  0.00D+00  NBF=   338
 NBsUse=   338 1.00D-04 EigRej=  0.00D+00 NBFU=   338
 Leave Link  302 at Sat Apr 30 02:17:10 2022, MaxMem=  6710886400 cpu:               8.9 elap:               0.4
 (Enter /sw/apps/gaussian-16.0/g16/l303.exe)
 DipDrv:  MaxL=1.
 DipDrv:  will hold  3 matrices at once.
 Leave Link  303 at Sat Apr 30 02:17:10 2022, MaxMem=  6710886400 cpu:               0.6 elap:               0.0
 (Enter /sw/apps/gaussian-16.0/g16/l308.exe)
 Leave Link  308 at Sat Apr 30 02:17:10 2022, MaxMem=  6710886400 cpu:               4.6 elap:               0.2
 (Enter /sw/apps/gaussian-16.0/g16/l401.exe)
 Simple Huckel Guess.
 JPrj=0 DoOrth=F DoCkMO=F.
 Leave Link  401 at Sat Apr 30 02:17:10 2022, MaxMem=  6710886400 cpu:               2.5 elap:               0.1
 (Enter /sw/apps/gaussian-16.0/g16/l502.exe)
 Two-electron integral symmetry not used.
 Closed shell SCF:
 Using DIIS extrapolation, IDIIS=  1040.
 Overlap will be assumed to be unity.
 NGot=  6710886400 LenX=  6710643598 LenY=  6710528913
 Requested convergence on RMS density matrix=1.00D-08 within 128 cycles.
 Requested convergence on MAX density matrix=1.00D-06.
 Requested convergence on             energy=1.00D-06.
 No special actions if energy rises.
 Fock matrices will be formed incrementally for  20 cycles.

 Cycle   1  Pass 1  IDiag  1:
 E= -472.043347349679    
 DIIS: error= 6.43D-02 at cycle   1 NSaved=   1.
 NSaved= 1 IEnMin= 1 EnMin= -472.043347349679     IErMin= 1 ErrMin= 6.43D-02
 ErrMax= 6.43D-02  0.00D+00 EMaxC= 1.00D-01 BMatC= 8.33D-01 BMatP= 8.33D-01
 IDIUse=3 WtCom= 3.57D-01 WtEn= 6.43D-01
 Coeff-Com:  0.100D+01
 Coeff-En:   0.100D+01
 Coeff:      0.100D+01
 GapD=    2.000 DampG=2.000 DampE=0.500 DampFc=1.0000 IDamp=-1.
 RMSDP=4.06D-03 MaxDP=1.82D-01              OVMax= 0.00D+00

 Cycle   2  Pass 1  IDiag  1:
 RMSU=  4.05D-03    CP:  9.95D-01
 E= -473.886727590478     Delta-E=       -1.843380240799 Rises=F Damp=F
 DIIS: error= 2.24D-02 at cycle   2 NSaved=   2.
 NSaved= 2 IEnMin= 2 EnMin= -473.886727590478     IErMin= 2 ErrMin= 2.24D-02
 ErrMax= 2.24D-02  0.00D+00 EMaxC= 1.00D-01 BMatC= 5.45D-02 BMatP= 8.33D-01
 IDIUse=3 WtCom= 7.76D-01 WtEn= 2.24D-01
 Coeff-Com: -0.586D-01 0.106D+01
 Coeff-En:   0.000D+00 0.100D+01
 Coeff:     -0.454D-01 0.105D+01
 RMSDP=1.13D-03 MaxDP=6.23D-02 DE=-1.84D+00 OVMax= 0.00D+00

 Cycle   3  Pass 1  IDiag  1:
 RMSU=  1.08D-03    CP:  9.93D-01  1.08D+00
 E= -473.992499935157     Delta-E=       -0.105772344679 Rises=F Damp=F
 DIIS: error= 1.12D-02 at cycle   3 NSaved=   3.
 NSaved= 3 IEnMin= 3 EnMin= -473.992499935157     IErMin= 3 ErrMin= 1.12D-02
 ErrMax= 1.12D-02  0.00D+00 EMaxC= 1.00D-01 BMatC= 7.67D-03 BMatP= 5.45D-02
 IDIUse=3 WtCom= 8.88D-01 WtEn= 1.12D-01
 Coeff-Com: -0.694D-01 0.236D+00 0.834D+00
 Coeff-En:   0.000D+00 0.000D+00 0.100D+01
 Coeff:     -0.616D-01 0.209D+00 0.852D+00
 RMSDP=3.62D-04 MaxDP=2.00D-02 DE=-1.06D-01 OVMax= 0.00D+00

 Cycle   4  Pass 1  IDiag  1:
 RMSU=  2.21D-04    CP:  9.93D-01  1.15D+00  9.52D-01
 E= -474.006187363643     Delta-E=       -0.013687428486 Rises=F Damp=F
 DIIS: error= 1.65D-03 at cycle   4 NSaved=   4.
 NSaved= 4 IEnMin= 4 EnMin= -474.006187363643     IErMin= 4 ErrMin= 1.65D-03
 ErrMax= 1.65D-03  0.00D+00 EMaxC= 1.00D-01 BMatC= 2.59D-04 BMatP= 7.67D-03
 IDIUse=3 WtCom= 9.84D-01 WtEn= 1.65D-02
 Coeff-Com:  0.482D-02-0.501D-01-0.422D-01 0.109D+01
 Coeff-En:   0.000D+00 0.000D+00 0.000D+00 0.100D+01
 Coeff:      0.474D-02-0.492D-01-0.415D-01 0.109D+01
 RMSDP=1.51D-04 MaxDP=9.14D-03 DE=-1.37D-02 OVMax= 0.00D+00

 Cycle   5  Pass 1  IDiag  1:
 RMSU=  9.87D-05    CP:  9.92D-01  1.16D+00  1.05D+00  1.19D+00
 E= -474.007342335219     Delta-E=       -0.001154971575 Rises=F Damp=F
 DIIS: error= 6.16D-04 at cycle   5 NSaved=   5.
 NSaved= 5 IEnMin= 5 EnMin= -474.007342335219     IErMin= 5 ErrMin= 6.16D-04
 ErrMax= 6.16D-04  0.00D+00 EMaxC= 1.00D-01 BMatC= 6.43D-05 BMatP= 2.59D-04
 IDIUse=3 WtCom= 9.94D-01 WtEn= 6.16D-03
 Coeff-Com:  0.626D-02-0.244D-01-0.992D-01 0.223D+00 0.894D+00
 Coeff-En:   0.000D+00 0.000D+00 0.000D+00 0.000D+00 0.100D+01
 Coeff:      0.622D-02-0.243D-01-0.985D-01 0.222D+00 0.895D+00
 RMSDP=6.23D-05 MaxDP=2.82D-03 DE=-1.15D-03 OVMax= 0.00D+00

 Cycle   6  Pass 1  IDiag  1:
 RMSU=  3.66D-05    CP:  9.92D-01  1.16D+00  1.07D+00  1.37D+00  1.22D+00
 E= -474.007586181340     Delta-E=       -0.000243846122 Rises=F Damp=F
 DIIS: error= 2.40D-04 at cycle   6 NSaved=   6.
 NSaved= 6 IEnMin= 6 EnMin= -474.007586181340     IErMin= 6 ErrMin= 2.40D-04
 ErrMax= 2.40D-04  0.00D+00 EMaxC= 1.00D-01 BMatC= 9.92D-06 BMatP= 6.43D-05
 IDIUse=3 WtCom= 9.98D-01 WtEn= 2.40D-03
 Coeff-Com: -0.605D-03 0.780D-02-0.803D-02-0.119D+00-0.330D-01 0.115D+01
 Coeff-En:   0.000D+00 0.000D+00 0.000D+00 0.000D+00 0.000D+00 0.100D+01
 Coeff:     -0.604D-03 0.778D-02-0.801D-02-0.119D+00-0.329D-01 0.115D+01
 RMSDP=6.08D-05 MaxDP=3.04D-03 DE=-2.44D-04 OVMax= 0.00D+00

 Cycle   7  Pass 1  IDiag  1:
 RMSU=  2.50D-05    CP:  9.92D-01  1.16D+00  1.08D+00  1.45D+00  1.68D+00
                    CP:  1.65D+00
 E= -474.007695079727     Delta-E=       -0.000108898386 Rises=F Damp=F
 DIIS: error= 1.42D-04 at cycle   7 NSaved=   7.
 NSaved= 7 IEnMin= 7 EnMin= -474.007695079727     IErMin= 7 ErrMin= 1.42D-04
 ErrMax= 1.42D-04  0.00D+00 EMaxC= 1.00D-01 BMatC= 4.98D-06 BMatP= 9.92D-06
 IDIUse=3 WtCom= 9.99D-01 WtEn= 1.42D-03
 Coeff-Com: -0.106D-02 0.439D-02 0.145D-01-0.264D-01-0.223D+00 0.208D+00
 Coeff-Com:  0.102D+01
 Coeff-En:   0.000D+00 0.000D+00 0.000D+00 0.000D+00 0.000D+00 0.000D+00
 Coeff-En:   0.100D+01
 Coeff:     -0.106D-02 0.438D-02 0.145D-01-0.263D-01-0.223D+00 0.207D+00
 Coeff:      0.102D+01
 RMSDP=4.26D-05 MaxDP=1.92D-03 DE=-1.09D-04 OVMax= 0.00D+00

 Cycle   8  Pass 1  IDiag  1:
 RMSU=  7.40D-06    CP:  9.92D-01  1.16D+00  1.09D+00  1.49D+00  1.94D+00
                    CP:  2.32D+00  1.76D+00
 E= -474.007755378242     Delta-E=       -0.000060298516 Rises=F Damp=F
 DIIS: error= 1.04D-04 at cycle   8 NSaved=   8.
 NSaved= 8 IEnMin= 8 EnMin= -474.007755378242     IErMin= 8 ErrMin= 1.04D-04
 ErrMax= 1.04D-04  0.00D+00 EMaxC= 1.00D-01 BMatC= 2.31D-06 BMatP= 4.98D-06
 IDIUse=3 WtCom= 9.99D-01 WtEn= 1.04D-03
 Coeff-Com:  0.526D-03-0.419D-02-0.316D-03 0.558D-01 0.163D-01-0.251D+00
 Coeff-Com: -0.105D+01 0.223D+01
 Coeff-En:   0.000D+00 0.000D+00 0.000D+00 0.000D+00 0.000D+00 0.000D+00
 Coeff-En:   0.000D+00 0.100D+01
 Coeff:      0.525D-03-0.419D-02-0.315D-03 0.558D-01 0.162D-01-0.251D+00
 Coeff:     -0.105D+01 0.223D+01
 RMSDP=7.72D-05 MaxDP=3.33D-03 DE=-6.03D-05 OVMax= 0.00D+00

 Cycle   9  Pass 1  IDiag  1:
 RMSU=  2.03D-05    CP:  9.92D-01  1.16D+00  1.09D+00  1.55D+00  2.41D+00
                    CP:  3.00D+00  3.00D+00  2.67D+00
 E= -474.007827630867     Delta-E=       -0.000072252625 Rises=F Damp=F
 DIIS: error= 7.44D-05 at cycle   9 NSaved=   9.
 NSaved= 9 IEnMin= 9 EnMin= -474.007827630867     IErMin= 9 ErrMin= 7.44D-05
 ErrMax= 7.44D-05  0.00D+00 EMaxC= 1.00D-01 BMatC= 1.29D-06 BMatP= 2.31D-06
 IDIUse=1 WtCom= 1.00D+00 WtEn= 0.00D+00
 Coeff-Com:  0.628D-03-0.232D-02-0.899D-02 0.615D-02 0.127D+00 0.458D-01
 Coeff-Com: -0.128D+01 0.723D+00 0.139D+01
 Coeff:      0.628D-03-0.232D-02-0.899D-02 0.615D-02 0.127D+00 0.458D-01
 Coeff:     -0.128D+01 0.723D+00 0.139D+01
 RMSDP=7.03D-05 MaxDP=3.08D-03 DE=-7.23D-05 OVMax= 0.00D+00

 Cycle  10  Pass 1  IDiag  1:
 RMSU=  2.41D-05    CP:  9.92D-01  1.16D+00  1.10D+00  1.60D+00  2.82D+00
                    CP:  3.00D+00  3.00D+00  3.00D+00  3.00D+00
 E= -474.007862473697     Delta-E=       -0.000034842830 Rises=F Damp=F
 DIIS: error= 3.67D-05 at cycle  10 NSaved=  10.
 NSaved=10 IEnMin=10 EnMin= -474.007862473697     IErMin=10 ErrMin= 3.67D-05
 ErrMax= 3.67D-05  0.00D+00 EMaxC= 1.00D-01 BMatC= 1.79D-07 BMatP= 1.29D-06
 IDIUse=1 WtCom= 1.00D+00 WtEn= 0.00D+00
 Coeff-Com: -0.177D-03 0.142D-02 0.113D-03-0.214D-01 0.304D-02 0.119D+00
 Coeff-Com:  0.228D+00-0.436D+00-0.366D+00 0.147D+01
 Coeff:     -0.177D-03 0.142D-02 0.113D-03-0.214D-01 0.304D-02 0.119D+00
 Coeff:      0.228D+00-0.436D+00-0.366D+00 0.147D+01
 RMSDP=2.70D-05 MaxDP=1.08D-03 DE=-3.48D-05 OVMax= 0.00D+00

 Cycle  11  Pass 1  IDiag  1:
 RMSU=  1.53D-05    CP:  9.92D-01  1.16D+00  1.10D+00  1.61D+00  2.96D+00
                    CP:  3.00D+00  3.00D+00  3.00D+00  3.00D+00  1.69D+00
 E= -474.007867638032     Delta-E=       -0.000005164335 Rises=F Damp=F
 DIIS: error= 1.81D-05 at cycle  11 NSaved=  11.
 NSaved=11 IEnMin=11 EnMin= -474.007867638032     IErMin=11 ErrMin= 1.81D-05
 ErrMax= 1.81D-05  0.00D+00 EMaxC= 1.00D-01 BMatC= 3.57D-08 BMatP= 1.79D-07
 IDIUse=1 WtCom= 1.00D+00 WtEn= 0.00D+00
 Coeff-Com: -0.793D-04 0.256D-03 0.153D-02-0.116D-02-0.163D-01-0.145D-01
 Coeff-Com:  0.151D+00-0.302D-01-0.317D+00 0.236D-01 0.120D+01
 Coeff:     -0.793D-04 0.256D-03 0.153D-02-0.116D-02-0.163D-01-0.145D-01
 Coeff:      0.151D+00-0.302D-01-0.317D+00 0.236D-01 0.120D+01
 RMSDP=1.22D-05 MaxDP=5.16D-04 DE=-5.16D-06 OVMax= 0.00D+00

 Cycle  12  Pass 1  IDiag  1:
 RMSU=  2.91D-06    CP:  9.92D-01  1.16D+00  1.10D+00  1.62D+00  3.00D+00
                    CP:  3.00D+00  3.00D+00  3.00D+00  3.00D+00  2.00D+00
                    CP:  1.45D+00
 E= -474.007868424331     Delta-E=       -0.000000786299 Rises=F Damp=F
 DIIS: error= 7.72D-06 at cycle  12 NSaved=  12.
 NSaved=12 IEnMin=12 EnMin= -474.007868424331     IErMin=12 ErrMin= 7.72D-06
 ErrMax= 7.72D-06  0.00D+00 EMaxC= 1.00D-01 BMatC= 6.41D-09 BMatP= 3.57D-08
 IDIUse=1 WtCom= 1.00D+00 WtEn= 0.00D+00
 Coeff-Com:  0.395D-04-0.301D-03-0.231D-05 0.432D-02-0.159D-03-0.213D-01
 Coeff-Com: -0.586D-01 0.117D+00 0.658D-01-0.336D+00 0.235D-01 0.121D+01
 Coeff:      0.395D-04-0.301D-03-0.231D-05 0.432D-02-0.159D-03-0.213D-01
 Coeff:     -0.586D-01 0.117D+00 0.658D-01-0.336D+00 0.235D-01 0.121D+01
 RMSDP=2.37D-06 MaxDP=1.46D-04 DE=-7.86D-07 OVMax= 0.00D+00

 Cycle  13  Pass 1  IDiag  1:
 RMSU=  1.04D-06    CP:  9.92D-01  1.16D+00  1.10D+00  1.62D+00  3.00D+00
                    CP:  3.00D+00  3.00D+00  3.00D+00  3.00D+00  2.04D+00
                    CP:  1.54D+00  1.41D+00
 E= -474.007868499543     Delta-E=       -0.000000075212 Rises=F Damp=F
 DIIS: error= 2.56D-06 at cycle  13 NSaved=  13.
 NSaved=13 IEnMin=13 EnMin= -474.007868499543     IErMin=13 ErrMin= 2.56D-06
 ErrMax= 2.56D-06  0.00D+00 EMaxC= 1.00D-01 BMatC= 1.31D-09 BMatP= 6.41D-09
 IDIUse=1 WtCom= 1.00D+00 WtEn= 0.00D+00
 Coeff-Com:  0.600D-05-0.247D-05-0.234D-03-0.136D-03 0.165D-02 0.551D-02
 Coeff-Com: -0.226D-01-0.608D-02 0.451D-01 0.209D-01-0.996D-01-0.240D+00
 Coeff-Com:  0.130D+01
 Coeff:      0.600D-05-0.247D-05-0.234D-03-0.136D-03 0.165D-02 0.551D-02
 Coeff:     -0.226D-01-0.608D-02 0.451D-01 0.209D-01-0.996D-01-0.240D+00
 Coeff:      0.130D+01
 RMSDP=8.94D-07 MaxDP=4.98D-05 DE=-7.52D-08 OVMax= 0.00D+00

 Cycle  14  Pass 1  IDiag  1:
 RMSU=  3.65D-07    CP:  9.92D-01  1.16D+00  1.10D+00  1.62D+00  3.00D+00
                    CP:  3.00D+00  3.00D+00  3.00D+00  3.00D+00  2.05D+00
                    CP:  1.55D+00  1.56D+00  1.58D+00
 E= -474.007868518940     Delta-E=       -0.000000019397 Rises=F Damp=F
 DIIS: error= 1.60D-06 at cycle  14 NSaved=  14.
 NSaved=14 IEnMin=14 EnMin= -474.007868518940     IErMin=14 ErrMin= 1.60D-06
 ErrMax= 1.60D-06  0.00D+00 EMaxC= 1.00D-01 BMatC= 6.48D-10 BMatP= 1.31D-09
 IDIUse=1 WtCom= 1.00D+00 WtEn= 0.00D+00
 Coeff-Com: -0.210D-04 0.132D-03 0.114D-03-0.154D-02-0.240D-02 0.921D-02
 Coeff-Com:  0.320D-01-0.480D-01-0.331D-01 0.926D-01 0.883D-01-0.459D+00
 Coeff-Com: -0.462D+00 0.178D+01
 Coeff:     -0.210D-04 0.132D-03 0.114D-03-0.154D-02-0.240D-02 0.921D-02
 Coeff:      0.320D-01-0.480D-01-0.331D-01 0.926D-01 0.883D-01-0.459D+00
 Coeff:     -0.462D+00 0.178D+01
 RMSDP=9.96D-07 MaxDP=4.70D-05 DE=-1.94D-08 OVMax= 0.00D+00

 Cycle  15  Pass 1  IDiag  1:
 RMSU=  1.28D-07    CP:  9.92D-01  1.16D+00  1.10D+00  1.62D+00  3.00D+00
                    CP:  3.00D+00  3.00D+00  3.00D+00  3.00D+00  2.05D+00
                    CP:  1.56D+00  1.69D+00  2.31D+00  2.33D+00
 E= -474.007868531922     Delta-E=       -0.000000012982 Rises=F Damp=F
 DIIS: error= 8.36D-07 at cycle  15 NSaved=  15.
 NSaved=15 IEnMin=15 EnMin= -474.007868531922     IErMin=15 ErrMin= 8.36D-07
 ErrMax= 8.36D-07  0.00D+00 EMaxC= 1.00D-01 BMatC= 1.58D-10 BMatP= 6.48D-10
 IDIUse=1 WtCom= 1.00D+00 WtEn= 0.00D+00
 Coeff-Com: -0.145D-05-0.293D-05 0.946D-04 0.119D-03-0.129D-02-0.295D-03
 Coeff-Com:  0.589D-02 0.883D-04-0.102D-01-0.137D-01 0.563D-01 0.575D-01
 Coeff-Com: -0.417D+00 0.182D-01 0.130D+01
 Coeff:     -0.145D-05-0.293D-05 0.946D-04 0.119D-03-0.129D-02-0.295D-03
 Coeff:      0.589D-02 0.883D-04-0.102D-01-0.137D-01 0.563D-01 0.575D-01
 Coeff:     -0.417D+00 0.182D-01 0.130D+01
 RMSDP=4.91D-07 MaxDP=2.55D-05 DE=-1.30D-08 OVMax= 0.00D+00

 Cycle  16  Pass 1  IDiag  1:
 RMSU=  7.57D-08    CP:  9.92D-01  1.16D+00  1.10D+00  1.62D+00  3.00D+00
                    CP:  3.00D+00  3.00D+00  3.00D+00  3.00D+00  2.06D+00
                    CP:  1.56D+00  1.75D+00  2.64D+00  3.00D+00  1.63D+00
 E= -474.007868534600     Delta-E=       -0.000000002678 Rises=F Damp=F
 DIIS: error= 3.66D-07 at cycle  16 NSaved=  16.
 NSaved=16 IEnMin=16 EnMin= -474.007868534600     IErMin=16 ErrMin= 3.66D-07
 ErrMax= 3.66D-07  0.00D+00 EMaxC= 1.00D-01 BMatC= 2.77D-11 BMatP= 1.58D-10
 IDIUse=1 WtCom= 1.00D+00 WtEn= 0.00D+00
 Coeff-Com:  0.528D-05-0.349D-04-0.101D-04 0.422D-03 0.183D-03-0.181D-02
 Coeff-Com: -0.812D-02 0.120D-01 0.875D-02-0.282D-01-0.113D-01 0.114D+00
 Coeff-Com:  0.702D-01-0.460D+00 0.161D+00 0.114D+01
 Coeff:      0.528D-05-0.349D-04-0.101D-04 0.422D-03 0.183D-03-0.181D-02
 Coeff:     -0.812D-02 0.120D-01 0.875D-02-0.282D-01-0.113D-01 0.114D+00
 Coeff:      0.702D-01-0.460D+00 0.161D+00 0.114D+01
 RMSDP=2.10D-07 MaxDP=1.01D-05 DE=-2.68D-09 OVMax= 0.00D+00

 Cycle  17  Pass 1  IDiag  1:
 RMSU=  8.75D-08    CP:  9.92D-01  1.16D+00  1.10D+00  1.62D+00  3.00D+00
                    CP:  3.00D+00  3.00D+00  3.00D+00  3.00D+00  2.06D+00
                    CP:  1.56D+00  1.77D+00  2.77D+00  3.00D+00  2.08D+00
                    CP:  2.08D+00
 E= -474.007868534988     Delta-E=       -0.000000000388 Rises=F Damp=F
 DIIS: error= 1.97D-07 at cycle  17 NSaved=  17.
 NSaved=17 IEnMin=17 EnMin= -474.007868534988     IErMin=17 ErrMin= 1.97D-07
 ErrMax= 1.97D-07  0.00D+00 EMaxC= 1.00D-01 BMatC= 2.54D-12 BMatP= 2.77D-11
 IDIUse=1 WtCom= 1.00D+00 WtEn= 0.00D+00
 Coeff-Com: -0.247D-07 0.125D-05-0.116D-04-0.219D-04 0.101D-03 0.195D-03
 Coeff-Com: -0.570D-03-0.366D-03 0.104D-02 0.182D-02-0.359D-02-0.156D-01
 Coeff-Com:  0.493D-01 0.211D-01-0.151D+00-0.649D-01 0.116D+01
 Coeff:     -0.247D-07 0.125D-05-0.116D-04-0.219D-04 0.101D-03 0.195D-03
 Coeff:     -0.570D-03-0.366D-03 0.104D-02 0.182D-02-0.359D-02-0.156D-01
 Coeff:      0.493D-01 0.211D-01-0.151D+00-0.649D-01 0.116D+01
 RMSDP=3.32D-08 MaxDP=2.13D-06 DE=-3.88D-10 OVMax= 0.00D+00

 Cycle  18  Pass 1  IDiag  1:
 RMSU=  1.23D-08    CP:  9.92D-01  1.16D+00  1.10D+00  1.62D+00  3.00D+00
                    CP:  3.00D+00  3.00D+00  3.00D+00  3.00D+00  2.06D+00
                    CP:  1.56D+00  1.78D+00  2.79D+00  3.00D+00  2.18D+00
                    CP:  2.36D+00  1.08D+00
 E= -474.007868534985     Delta-E=        0.000000000003 Rises=F Damp=F
 DIIS: error= 1.17D-07 at cycle  18 NSaved=  18.
 NSaved=18 IEnMin=17 EnMin= -474.007868534988     IErMin=18 ErrMin= 1.17D-07
 ErrMax= 1.17D-07  0.00D+00 EMaxC= 1.00D-01 BMatC= 5.28D-13 BMatP= 2.54D-12
 IDIUse=1 WtCom= 1.00D+00 WtEn= 0.00D+00
 Coeff-Com: -0.110D-05 0.728D-05 0.171D-05-0.858D-04-0.357D-04 0.376D-03
 Coeff-Com:  0.153D-02-0.239D-02-0.161D-02 0.546D-02 0.309D-02-0.241D-01
 Coeff-Com: -0.108D-01 0.866D-01-0.364D-01-0.229D+00 0.257D-01 0.118D+01
 Coeff:     -0.110D-05 0.728D-05 0.171D-05-0.858D-04-0.357D-04 0.376D-03
 Coeff:      0.153D-02-0.239D-02-0.161D-02 0.546D-02 0.309D-02-0.241D-01
 Coeff:     -0.108D-01 0.866D-01-0.364D-01-0.229D+00 0.257D-01 0.118D+01
 RMSDP=1.76D-08 MaxDP=1.16D-06 DE= 2.73D-12 OVMax= 0.00D+00

 Cycle  19  Pass 1  IDiag  1:
 RMSU=  4.35D-09    CP:  9.92D-01  1.16D+00  1.10D+00  1.62D+00  3.00D+00
                    CP:  3.00D+00  3.00D+00  3.00D+00  3.00D+00  2.06D+00
                    CP:  1.56D+00  1.78D+00  2.79D+00  3.00D+00  2.23D+00
                    CP:  2.49D+00  1.14D+00  1.65D+00
 E= -474.007868535010     Delta-E=       -0.000000000025 Rises=F Damp=F
 DIIS: error= 5.68D-08 at cycle  19 NSaved=  19.
 NSaved=19 IEnMin=19 EnMin= -474.007868535010     IErMin=19 ErrMin= 5.68D-08
 ErrMax= 5.68D-08  0.00D+00 EMaxC= 1.00D-01 BMatC= 8.12D-14 BMatP= 5.28D-13
 IDIUse=1 WtCom= 1.00D+00 WtEn= 0.00D+00
 Coeff-Com:  0.819D-09-0.110D-06 0.205D-05 0.227D-05-0.154D-04-0.318D-04
 Coeff-Com:  0.795D-04 0.398D-04-0.994D-04-0.400D-03 0.655D-03 0.224D-02
 Coeff-Com: -0.754D-02-0.550D-02 0.270D-01 0.179D-01-0.210D+00 0.209D-01
 Coeff-Com:  0.115D+01
 Coeff:      0.819D-09-0.110D-06 0.205D-05 0.227D-05-0.154D-04-0.318D-04
 Coeff:      0.795D-04 0.398D-04-0.994D-04-0.400D-03 0.655D-03 0.224D-02
 Coeff:     -0.754D-02-0.550D-02 0.270D-01 0.179D-01-0.210D+00 0.209D-01
 Coeff:      0.115D+01
 RMSDP=6.37D-09 MaxDP=4.84D-07 DE=-2.46D-11 OVMax= 0.00D+00

 SCF Done:  E(RZINDO/S) =  -474.007868535     A.U. after   19 cycles
            NFock= 19  Conv=0.64D-08     -V/T= 0.9488
 KE=-9.254063038431D+03 PE=-1.619095201022D-06 EE= 4.490148866046D+03
 Leave Link  502 at Sat Apr 30 02:17:11 2022, MaxMem=  6710886400 cpu:              20.0 elap:               0.9
 (Enter /sw/apps/gaussian-16.0/g16/l801.exe)
 Range of M.O.s used for correlation:     1   338
 NBasis=   338 NAE=   176 NBE=   176 NFC=     0 NFV=     0
 NROrb=    338 NOA=   176 NOB=   176 NVA=   162 NVB=   162
 Leave Link  801 at Sat Apr 30 02:17:11 2022, MaxMem=  6710886400 cpu:               0.5 elap:               0.0
 (Enter /sw/apps/gaussian-16.0/g16/l914.exe)
 RHF ground state
 Two-electron integral symmetry not used.
 MDV=  6710886400 DFT=F DoStab=F Mixed=F DoRPA=F DoScal=F NonHer=F
 Making orbital integer symmetry assigments:
 Orbital symmetries:
       Occupied  (A) (A) (A) (A) (A) (A) (A) (A) (A) (A) (A) (A)
                 (A) (A) (A) (A) (A) (A) (A) (A) (A) (A) (A) (A)
                 (A) (A) (A) (A) (A) (A) (A) (A) (A) (A) (A) (A)
                 (A) (A) (A) (A) (A) (A) (A) (A) (A) (A) (A) (A)
                 (A) (A) (A) (A) (A) (A) (A) (A) (A) (A) (A) (A)
                 (A) (A) (A) (A) (A) (A) (A) (A) (A) (A) (A) (A)
                 (A) (A) (A) (A) (A) (A) (A) (A) (A) (A) (A) (A)
                 (A) (A) (A) (A) (A) (A) (A) (A) (A) (A) (A) (A)
                 (A) (A) (A) (A) (A) (A) (A) (A) (A) (A) (A) (A)
                 (A) (A) (A) (A) (A) (A) (A) (A) (A) (A) (A) (A)
                 (A) (A) (A) (A) (A) (A) (A) (A) (A) (A) (A) (A)
                 (A) (A) (A) (A) (A) (A) (A) (A) (A) (A) (A) (A)
                 (A) (A) (A) (A) (A) (A) (A) (A) (A) (A) (A) (A)
                 (A) (A) (A) (A) (A) (A) (A) (A) (A) (A) (A) (A)
                 (A) (A) (A) (A) (A) (A) (A) (A)
       Virtual   (A) (A) (A) (A) (A) (A) (A) (A) (A) (A) (A) (A)
                 (A) (A) (A) (A) (A) (A) (A) (A) (A) (A) (A) (A)
                 (A) (A) (A) (A) (A) (A) (A) (A) (A) (A) (A) (A)
                 (A) (A) (A) (A) (A) (A) (A) (A) (A) (A) (A) (A)
                 (A) (A) (A) (A) (A) (A) (A) (A) (A) (A) (A) (A)
                 (A) (A) (A) (A) (A) (A) (A) (A) (A) (A) (A) (A)
                 (A) (A) (A) (A) (A) (A) (A) (A) (A) (A) (A) (A)
                 (A) (A) (A) (A) (A) (A) (A) (A) (A) (A) (A) (A)
                 (A) (A) (A) (A) (A) (A) (A) (A) (A) (A) (A) (A)
                 (A) (A) (A) (A) (A) (A) (A) (A) (A) (A) (A) (A)
                 (A) (A) (A) (A) (A) (A) (A) (A) (A) (A) (A) (A)
                 (A) (A) (A) (A) (A) (A) (A) (A) (A) (A) (A) (A)
                 (A) (A) (A) (A) (A) (A) (A) (A) (A) (A) (A) (A)
                 (A) (A) (A) (A) (A) (A)
    20 initial guesses have been made.
 Convergence on wavefunction:    0.001000000000000
 Davidson Disk Diagonalization:  ConvIn= 1.00D-03 SkipCon=T Conv= 1.00D-03.
 Max sub-space:  2000 roots to seek:    20 dimension of matrix:        57024
 Iteration     1 Dimension    20 NMult     0 NNew     20
 CISAX will form    20 AO SS matrices at one time.
 NMat=    20 NSing=    20 JSym2X= 0.
 New state      3 was old state      4
 New state      4 was old state      3
 New state      5 was old state     14
 Excitation Energies [eV] at current iteration:
 Root      1 :     1.631698180522857
 Root      2 :     2.171244880140026
 Root      3 :     3.375191669288483
 Root      4 :     3.435407177973210
 Root      5 :     3.543240571822728
 Root      6 :     3.583775716681325
 Root      7 :     3.700004280501572
 Root      8 :     3.853590249227710
 Root      9 :     3.893689762846692
 Root     10 :     4.026994828345869
 Root     11 :     4.184925610779426
 Root     12 :     4.246097990246477
 Root     13 :     4.344053497397415
 Root     14 :     4.413463442925257
 Root     15 :     4.483168900034170
 Root     16 :     4.684105857831573
 Root     17 :     4.819856193146664
 Root     18 :     5.419090462725896
 Root     19 :     5.547672506700384
 Root     20 :     5.799729259432556
 Iteration     2 Dimension    40 NMult    20 NNew     20
 CISAX will form    20 AO SS matrices at one time.
 NMat=    20 NSing=    20 JSym2X= 0.
 Root      1 not converged, maximum delta is    0.038695089472137
 Root      2 not converged, maximum delta is    0.024841617223251
 New state      3 was old state      4
 Root      3 not converged, maximum delta is    0.194680019346564
 New state      4 was old state      3
 Root      4 not converged, maximum delta is    0.127323152253503
 Root      5 not converged, maximum delta is    0.187360624343880
 Excitation Energies [eV] at current iteration:
 Root      1 :     1.308080213727777   Change is   -0.323617966795079
 Root      2 :     1.967316110843865   Change is   -0.203928769296162
 Root      3 :     3.060454049007922   Change is   -0.374953128965289
 Root      4 :     3.164335702879364   Change is   -0.210855966409120
 Root      5 :     3.340510968230914   Change is   -0.202729603591813
 Root      6 :     3.494245319596814   Change is   -0.205758960904758
 Root      7 :     3.516572243573419   Change is   -0.067203473107906
 Root      8 :     3.645295066853180   Change is   -0.208295182374530
 Root      9 :     3.656431920828954   Change is   -0.237257842017738
 Root     10 :     3.736056053207794   Change is   -0.290938775138075
 Root     11 :     3.832147371569636   Change is   -0.352778239209790
 Root     12 :     4.090070361215494   Change is   -0.323393081709763
 Root     13 :     4.152240651913890   Change is   -0.330928248120281
 Root     14 :     4.156876097646955   Change is   -0.089221892599522
 Root     15 :     4.247449040188856   Change is   -0.572407152957807
 Root     16 :     4.288307486502766   Change is   -0.055746010894649
 Root     17 :     4.449405668008722   Change is   -0.234700189822851
 Root     18 :     5.381439359188973   Change is   -0.166233147511411
 Root     19 :     5.411654351295760   Change is   -0.007436111430136
 Root     20 :     5.776970852869800   Change is   -0.022758406562756
 Iteration     3 Dimension    45 NMult    40 NNew      5
 CISAX will form     5 AO SS matrices at one time.
 NMat=     5 NSing=     5 JSym2X= 0.
 Root      1 not converged, maximum delta is    0.009981479352056
 Root      2 not converged, maximum delta is    0.015751072763274
 Root      3 not converged, maximum delta is    0.027502948021585
 Root      4 not converged, maximum delta is    0.029931397413203
 Root      5 not converged, maximum delta is    0.019267954043637
 Excitation Energies [eV] at current iteration:
 Root      1 :     1.293528383326564   Change is   -0.014551830401213
 Root      2 :     1.942114182381969   Change is   -0.025201928461896
 Root      3 :     3.039258965735815   Change is   -0.021195083272107
 Root      4 :     3.126601928827732   Change is   -0.037733774051631
 Root      5 :     3.312918582462978   Change is   -0.027592385767936
 Iteration     4 Dimension    50 NMult    45 NNew      5
 CISAX will form     5 AO SS matrices at one time.
 NMat=     5 NSing=     5 JSym2X= 0.
 Root      1 not converged, maximum delta is    0.001833358939283
 Root      2 not converged, maximum delta is    0.001966747082349
 Root      3 not converged, maximum delta is    0.006947025118470
 Root      4 not converged, maximum delta is    0.008795986367267
 Root      5 not converged, maximum delta is    0.005837567468606
 Excitation Energies [eV] at current iteration:
 Root      1 :     1.292817530171980   Change is   -0.000710853154584
 Root      2 :     1.941485438170797   Change is   -0.000628744211172
 Root      3 :     3.036051329420471   Change is   -0.003207636315344
 Root      4 :     3.122706457675052   Change is   -0.003895471152681
 Root      5 :     3.311369578055187   Change is   -0.001549004407791
 Iteration     5 Dimension    55 NMult    50 NNew      5
 CISAX will form     5 AO SS matrices at one time.
 NMat=     5 NSing=     5 JSym2X= 0.
 Root      1 has converged.
 Root      2 has converged.
 Root      3 not converged, maximum delta is    0.006768179710687
 Root      4 not converged, maximum delta is    0.013072262832744
 Root      5 not converged, maximum delta is    0.001766053287364
 Excitation Energies [eV] at current iteration:
 Root      1 :     1.292776942706977   Change is   -0.000040587465003
 Root      2 :     1.941447902135938   Change is   -0.000037536034860
 Root      3 :     3.035203894971038   Change is   -0.000847434449434
 Root      4 :     3.121081272972207   Change is   -0.001625184702845
 Root      5 :     3.311177618596996   Change is   -0.000191959458191
 Iteration     6 Dimension    58 NMult    55 NNew      3
 CISAX will form     3 AO SS matrices at one time.
 NMat=     3 NSing=     3 JSym2X= 0.
 Root      1 has converged.
 Root      2 has converged.
 Root      3 not converged, maximum delta is    0.027539776827880
 Root      4 not converged, maximum delta is    0.082378063643089
 No map to state      5
 Excitation Energies [eV] at current iteration:
 Root      1 :     1.292776752540007   Change is   -0.000000190166970
 Root      2 :     1.941446161433179   Change is   -0.000001740702759
 Root      3 :     3.034101954685531   Change is   -0.001101940285507
 Root      4 :     3.115298244570572   Change is   -0.005783028401635
 Root      5 :     3.228358434540795
 Iteration     7 Dimension    61 NMult    58 NNew      3
 CISAX will form     3 AO SS matrices at one time.
 NMat=     3 NSing=     3 JSym2X= 0.
 Root      1 has converged.
 Root      2 has converged.
 Root      3 not converged, maximum delta is    0.074673573178555
 Root      4 not converged, maximum delta is    0.295362500858675
 Root      5 not converged, maximum delta is    0.310414476022703
 Excitation Energies [eV] at current iteration:
 Root      1 :     1.292776605136485   Change is   -0.000000147403522
 Root      2 :     1.941445143660118   Change is   -0.000001017773061
 Root      3 :     3.031564080813988   Change is   -0.002537873871543
 Root      4 :     3.079582782761043   Change is   -0.035715461809529
 Root      5 :     3.137037356521595   Change is   -0.091321078019200
 Iteration     8 Dimension    64 NMult    61 NNew      3
 CISAX will form     3 AO SS matrices at one time.
 NMat=     3 NSing=     3 JSym2X= 0.
 Root      1 has converged.
 Root      2 has converged.
 Root      3 not converged, maximum delta is    0.036065049982817
 Root      4 not converged, maximum delta is    0.060232634217015
 Root      5 not converged, maximum delta is    0.040180195224179
 Excitation Energies [eV] at current iteration:
 Root      1 :     1.292776493816806   Change is   -0.000000111319679
 Root      2 :     1.941444830485418   Change is   -0.000000313174700
 Root      3 :     3.030197144713160   Change is   -0.001366936100828
 Root      4 :     3.068178442858622   Change is   -0.011404339902421
 Root      5 :     3.133492664033792   Change is   -0.003544692487803
 Iteration     9 Dimension    67 NMult    64 NNew      3
 CISAX will form     3 AO SS matrices at one time.
 NMat=     3 NSing=     3 JSym2X= 0.
 Root      1 has converged.
 Root      2 has converged.
 Root      3 not converged, maximum delta is    0.010568385004960
 Root      4 not converged, maximum delta is    0.016899836475199
 Root      5 not converged, maximum delta is    0.008718708036661
 Excitation Energies [eV] at current iteration:
 Root      1 :     1.292776358177031   Change is   -0.000000135639775
 Root      2 :     1.941443950780638   Change is   -0.000000879704780
 Root      3 :     3.029768906498620   Change is   -0.000428238214540
 Root      4 :     3.065339968500500   Change is   -0.002838474358123
 Root      5 :     3.132882776933082   Change is   -0.000609887100711
 Iteration    10 Dimension    70 NMult    67 NNew      3
 CISAX will form     3 AO SS matrices at one time.
 NMat=     3 NSing=     3 JSym2X= 0.
 Root      1 has converged.
 Root      2 has converged.
 Root      3 not converged, maximum delta is    0.051731442362179
 Root      4 not converged, maximum delta is    0.167793122730265
 Root      5 not converged, maximum delta is    0.384820720639460
 Excitation Energies [eV] at current iteration:
 Root      1 :     1.292776270394259   Change is   -0.000000087782772
 Root      2 :     1.941442826516511   Change is   -0.000001124264127
 Root      3 :     3.029031994677938   Change is   -0.000736911820682
 Root      4 :     3.053482150037177   Change is   -0.011857818463322
 Root      5 :     3.099860207119436   Change is   -0.033022569813646
 Iteration    11 Dimension    73 NMult    70 NNew      3
 CISAX will form     3 AO SS matrices at one time.
 NMat=     3 NSing=     3 JSym2X= 0.
 Root      1 has converged.
 Root      2 has converged.
 New state      3 was old state      4
 Root      3 not converged, maximum delta is    0.285445290765107
 New state      4 was old state      3
 Root      4 not converged, maximum delta is    0.112594938381087
 Root      5 not converged, maximum delta is    0.275712122004524
 Excitation Energies [eV] at current iteration:
 Root      1 :     1.292776217206583   Change is   -0.000000053187676
 Root      2 :     1.941442371952564   Change is   -0.000000454563947
 Root      3 :     2.990606893494763   Change is   -0.062875256542414
 Root      4 :     3.030460903569944   Change is    0.001428908892006
 Root      5 :     3.071346325121938   Change is   -0.028513881997498
 Iteration    12 Dimension    76 NMult    73 NNew      3
 CISAX will form     3 AO SS matrices at one time.
 NMat=     3 NSing=     3 JSym2X= 0.
 Root      1 has converged.
 Root      2 has converged.
 Root      3 not converged, maximum delta is    0.016611097947537
 Root      4 not converged, maximum delta is    0.011602824250745
 Root      5 not converged, maximum delta is    0.014337251751167
 Excitation Energies [eV] at current iteration:
 Root      1 :     1.292776192843063   Change is   -0.000000024363521
 Root      2 :     1.941442228524627   Change is   -0.000000143427938
 Root      3 :     2.980226392011033   Change is   -0.010380501483730
 Root      4 :     3.030313132568164   Change is   -0.000147771001780
 Root      5 :     3.070570135775500   Change is   -0.000776189346438
 Iteration    13 Dimension    79 NMult    76 NNew      3
 CISAX will form     3 AO SS matrices at one time.
 NMat=     3 NSing=     3 JSym2X= 0.
 Root      1 has converged.
 Root      2 has converged.
 Root      3 not converged, maximum delta is    0.002894670845739
 Root      4 not converged, maximum delta is    0.001148447208456
 Root      5 not converged, maximum delta is    0.001632064683815
 Excitation Energies [eV] at current iteration:
 Root      1 :     1.292776189713892   Change is   -0.000000003129171
 Root      2 :     1.941442218034744   Change is   -0.000000010489882
 Root      3 :     2.978953560929903   Change is   -0.001272831081130
 Root      4 :     3.030298788885597   Change is   -0.000014343682567
 Root      5 :     3.070485580761422   Change is   -0.000084555014078
 Iteration    14 Dimension    82 NMult    79 NNew      3
 CISAX will form     3 AO SS matrices at one time.
 NMat=     3 NSing=     3 JSym2X= 0.
 Root      1 has converged.
 Root      2 has converged.
 Root      3 not converged, maximum delta is    0.001139771703366
 Root      4 has converged.
 Root      5 has converged.
 Excitation Energies [eV] at current iteration:
 Root      1 :     1.292776167540128   Change is   -0.000000022173764
 Root      2 :     1.941442204456917   Change is   -0.000000013577827
 Root      3 :     2.978796794031096   Change is   -0.000156766898807
 Root      4 :     3.030297027434119   Change is   -0.000001761451478
 Root      5 :     3.070475016914048   Change is   -0.000010563847374
 Iteration    15 Dimension    83 NMult    82 NNew      1
 CISAX will form     1 AO SS matrices at one time.
 NMat=     1 NSing=     1 JSym2X= 0.
 Root      1 has converged.
 Root      2 has converged.
 Root      3 has converged.
 Root      4 has converged.
 Root      5 has converged.
 Excitation Energies [eV] at current iteration:
 Root      1 :     1.292776164454503   Change is   -0.000000003085625
 Root      2 :     1.941442197795710   Change is   -0.000000006661207
 Root      3 :     2.978774882400250   Change is   -0.000021911630846
 Root      4 :     3.030296813325267   Change is   -0.000000214108852
 Root      5 :     3.070473608143605   Change is   -0.000001408770443
 Convergence achieved on expansion vectors.
 ***********************************************************************
 Excited states from <AA,BB:AA,BB> singles matrix:
 ***********************************************************************
 
 1PDM for each excited state written to RWF  633
 Ground to excited state transition densities written to RWF  633
 Ground to excited state transition electric dipole moments (Au):
       state          X           Y           Z        Dip. S.      Osc.
         1        -2.4208      3.4983      0.0728     18.1041      0.5734
         2         0.8606      0.7757     -0.1257      1.3581      0.0646
         3         0.0912      0.0368      0.0223      0.0102      0.0007
         4         3.0117      1.9788     -0.2479     13.0479      0.9687
         5         1.1614      1.3412     -0.1030      3.1584      0.2376
 Ground to excited state transition velocity dipole moments (Au):
       state          X           Y           Z        Dip. S.      Osc.
         1        -0.0516      0.0263      0.0093      0.0034      0.0483
         2        -0.0120     -0.0179     -0.0002      0.0005      0.0043
         3        -0.0040      0.0006      0.0044      0.0000      0.0002
         4        -0.1137     -0.0603     -0.0086      0.0166      0.0995
         5        -0.0397     -0.0592     -0.0013      0.0051      0.0300
 Ground to excited state transition magnetic dipole moments (Au):
       state          X           Y           Z
         1         0.0135     -0.1217      0.1973
         2        -0.0512     -0.0390     -1.1077
         3         0.2048     -0.7729     -0.0141
         4         0.2788      0.2806     -0.2887
         5        -0.4797     -0.3660     -0.1663
 Ground to excited state transition velocity quadrupole moments (Au):
       state          XX          YY          ZZ          XY          XZ          YZ
         1        -1.0583      0.0670      0.0302      0.3051      0.1507      0.0519
         2        -0.1796     -0.0432      0.0130     -0.1543     -0.0246      0.0163
         3        -0.0787      0.0080      0.0096     -0.0078      0.0210     -0.0478
         4        -1.9438      0.3348     -0.0142     -0.7957     -0.1766      0.0158
         5        -0.4304     -0.3050      0.0309     -0.4095     -0.1001      0.0534
 <0|del|b> * <b|rxdel|0> + <0|del|b> * <b|delr+rdel|0>
 Rotatory Strengths (R) in cgs (10**-40 erg-esu-cm/Gauss)
       state          XX          YY          ZZ    R(velocity)    E-M Angle
         1       -18.3728    -32.6349     20.4279    -10.1933       98.67
         2         2.2759      2.8361      9.6704      4.9274       86.43
         3        -1.9222     -2.0999     -4.7570     -2.9264      106.53
         4       -58.0139   -120.1310   -114.8526    -97.6658      136.94
         5        51.5984     52.0563    152.7600     85.4716       23.51
 1/2[<0|r|b>*<b|rxdel|0> + (<0|rxdel|b>*<b|r|0>)*]
 Rotatory Strengths (R) in cgs (10**-40 erg-esu-cm/Gauss)
       state          XX          YY          ZZ     R(length)
         1        23.1387    301.1553    -10.1548    104.7131
         2        31.1788     21.3874    -98.4727    -15.3022
         3       -13.2113     20.1083      0.2223      2.3731
         4      -593.8588   -392.7067    -50.5990   -345.7215
         5       393.9758    347.0884    -12.1104    242.9846
  1/2[<0|del|b>*<b|r|0> + (<0|r|b>*<b|del|0>)*] (Au)
       state          X           Y           Z        Dip. S.   Osc.(frdel)
         1         0.1250      0.0919      0.0007     -0.2176     -0.1451
         2        -0.0104     -0.0139      0.0000      0.0242      0.0161
         3        -0.0004      0.0000      0.0001      0.0002      0.0002
         4        -0.3423     -0.1193      0.0021      0.4595      0.3063
         5        -0.0461     -0.0794      0.0001      0.1254      0.0836

 Excitation energies and oscillator strengths:
 
 Excited State   1:      Singlet-A      1.2928 eV  959.05 nm  f=0.5734  <S**2>=0.000
     175 ->178         0.17825
     176 ->177         0.66771
 This state for optimization and/or second-order correction.
 Total Energy, E(CIS/TDA) =  -473.960359885    
 Copying the excited state density for this state as the 1-particle RhoCI density.
 
 Excited State   2:      Singlet-A      1.9414 eV  638.62 nm  f=0.0646  <S**2>=0.000
     175 ->177         0.56135
     176 ->178        -0.39578
 
 Excited State   3:      Singlet-A      2.9788 eV  416.23 nm  f=0.0007  <S**2>=0.000
     167 ->177         0.13495
     167 ->179        -0.19172
     168 ->177         0.34513
     168 ->178        -0.14009
     168 ->179        -0.41090
     168 ->181         0.10145
     168 ->182        -0.17496
     168 ->186         0.15229
 
 Excited State   4:      Singlet-A      3.0303 eV  409.15 nm  f=0.9687  <S**2>=0.000
     170 ->181        -0.16063
     171 ->177        -0.10896
     175 ->177         0.34043
     176 ->178         0.48804
     176 ->181        -0.13430
 
 Excited State   5:      Singlet-A      3.0705 eV  403.80 nm  f=0.2376  <S**2>=0.000
     170 ->177         0.19633
     170 ->179         0.19665
     170 ->181         0.37066
     170 ->182        -0.13988
     170 ->186        -0.16899
     170 ->187         0.15172
     170 ->188        -0.10150
     175 ->177         0.14931
     176 ->178         0.24491
     176 ->179         0.17403
 SavETr:  write IOETrn=   770 NScale= 10 NData=  16 NLR=1 NState=    5 LETran=     100.
 Leave Link  914 at Sat Apr 30 02:17:17 2022, MaxMem=  6710886400 cpu:             142.6 elap:               6.0
 (Enter /sw/apps/gaussian-16.0/g16/l601.exe)
 Copying SCF densities to generalized density rwf, IOpCl= 0 IROHF=0.

 **********************************************************************

            Population analysis using the SCF density.

 **********************************************************************

 Orbital symmetries:
       Occupied  (A) (A) (A) (A) (A) (A) (A) (A) (A) (A) (A) (A)
                 (A) (A) (A) (A) (A) (A) (A) (A) (A) (A) (A) (A)
                 (A) (A) (A) (A) (A) (A) (A) (A) (A) (A) (A) (A)
                 (A) (A) (A) (A) (A) (A) (A) (A) (A) (A) (A) (A)
                 (A) (A) (A) (A) (A) (A) (A) (A) (A) (A) (A) (A)
                 (A) (A) (A) (A) (A) (A) (A) (A) (A) (A) (A) (A)
                 (A) (A) (A) (A) (A) (A) (A) (A) (A) (A) (A) (A)
                 (A) (A) (A) (A) (A) (A) (A) (A) (A) (A) (A) (A)
                 (A) (A) (A) (A) (A) (A) (A) (A) (A) (A) (A) (A)
                 (A) (A) (A) (A) (A) (A) (A) (A) (A) (A) (A) (A)
                 (A) (A) (A) (A) (A) (A) (A) (A) (A) (A) (A) (A)
                 (A) (A) (A) (A) (A) (A) (A) (A) (A) (A) (A) (A)
                 (A) (A) (A) (A) (A) (A) (A) (A) (A) (A) (A) (A)
                 (A) (A) (A) (A) (A) (A) (A) (A) (A) (A) (A) (A)
                 (A) (A) (A) (A) (A) (A) (A) (A)
       Virtual   (A) (A) (A) (A) (A) (A) (A) (A) (A) (A) (A) (A)
                 (A) (A) (A) (A) (A) (A) (A) (A) (A) (A) (A) (A)
                 (A) (A) (A) (A) (A) (A) (A) (A) (A) (A) (A) (A)
                 (A) (A) (A) (A) (A) (A) (A) (A) (A) (A) (A) (A)
                 (A) (A) (A) (A) (A) (A) (A) (A) (A) (A) (A) (A)
                 (A) (A) (A) (A) (A) (A) (A) (A) (A) (A) (A) (A)
                 (A) (A) (A) (A) (A) (A) (A) (A) (A) (A) (A) (A)
                 (A) (A) (A) (A) (A) (A) (A) (A) (A) (A) (A) (A)
                 (A) (A) (A) (A) (A) (A) (A) (A) (A) (A) (A) (A)
                 (A) (A) (A) (A) (A) (A) (A) (A) (A) (A) (A) (A)
                 (A) (A) (A) (A) (A) (A) (A) (A) (A) (A) (A) (A)
                 (A) (A) (A) (A) (A) (A) (A) (A) (A) (A) (A) (A)
                 (A) (A) (A) (A) (A) (A) (A) (A) (A) (A) (A) (A)
                 (A) (A) (A) (A) (A) (A)
 The electronic state is 1-A.
 Alpha  occ. eigenvalues --   -1.83890  -1.81649  -1.78131  -1.71921  -1.69895
 Alpha  occ. eigenvalues --   -1.69099  -1.65773  -1.62155  -1.57689  -1.56645
 Alpha  occ. eigenvalues --   -1.55155  -1.51224  -1.48754  -1.46974  -1.43925
 Alpha  occ. eigenvalues --   -1.42795  -1.42033  -1.39970  -1.38474  -1.38050
 Alpha  occ. eigenvalues --   -1.36344  -1.33535  -1.33339  -1.31101  -1.29376
 Alpha  occ. eigenvalues --   -1.28797  -1.24188  -1.22094  -1.20946  -1.18255
 Alpha  occ. eigenvalues --   -1.17817  -1.16221  -1.15129  -1.14457  -1.13732
 Alpha  occ. eigenvalues --   -1.13179  -1.09819  -1.09198  -1.04615  -1.03916
 Alpha  occ. eigenvalues --   -1.03544  -1.00991  -0.97927  -0.97519  -0.96455
 Alpha  occ. eigenvalues --   -0.95276  -0.94309  -0.93659  -0.93020  -0.92313
 Alpha  occ. eigenvalues --   -0.91766  -0.90329  -0.90085  -0.88596  -0.87395
 Alpha  occ. eigenvalues --   -0.85884  -0.84050  -0.82965  -0.82102  -0.80551
 Alpha  occ. eigenvalues --   -0.78961  -0.78636  -0.77160  -0.76828  -0.76171
 Alpha  occ. eigenvalues --   -0.75261  -0.75124  -0.74609  -0.74151  -0.73194
 Alpha  occ. eigenvalues --   -0.72656  -0.72557  -0.72048  -0.71465  -0.70991
 Alpha  occ. eigenvalues --   -0.69991  -0.69346  -0.68827  -0.68164  -0.68101
 Alpha  occ. eigenvalues --   -0.67269  -0.66586  -0.65994  -0.65702  -0.65207
 Alpha  occ. eigenvalues --   -0.65138  -0.64780  -0.64702  -0.64583  -0.63637
 Alpha  occ. eigenvalues --   -0.63354  -0.63210  -0.62672  -0.62470  -0.61885
 Alpha  occ. eigenvalues --   -0.61642  -0.61009  -0.60469  -0.60245  -0.60077
 Alpha  occ. eigenvalues --   -0.59749  -0.59681  -0.59318  -0.58073  -0.57970
 Alpha  occ. eigenvalues --   -0.57632  -0.57580  -0.57114  -0.56899  -0.56577
 Alpha  occ. eigenvalues --   -0.56221  -0.55986  -0.55174  -0.54762  -0.54453
 Alpha  occ. eigenvalues --   -0.53976  -0.53851  -0.53400  -0.53334  -0.52929
 Alpha  occ. eigenvalues --   -0.52840  -0.52509  -0.51887  -0.51763  -0.50947
 Alpha  occ. eigenvalues --   -0.50776  -0.50671  -0.50154  -0.50078  -0.49898
 Alpha  occ. eigenvalues --   -0.49812  -0.49690  -0.49645  -0.49274  -0.48983
 Alpha  occ. eigenvalues --   -0.48810  -0.48409  -0.48123  -0.47907  -0.47839
 Alpha  occ. eigenvalues --   -0.47617  -0.47477  -0.46782  -0.46639  -0.46396
 Alpha  occ. eigenvalues --   -0.46285  -0.45990  -0.45573  -0.45323  -0.45224
 Alpha  occ. eigenvalues --   -0.44728  -0.44436  -0.44226  -0.43669  -0.43448
 Alpha  occ. eigenvalues --   -0.43243  -0.42664  -0.42332  -0.42276  -0.42182
 Alpha  occ. eigenvalues --   -0.41802  -0.41548  -0.41339  -0.39079  -0.38926
 Alpha  occ. eigenvalues --   -0.38133  -0.37101  -0.36068  -0.34936  -0.34473
 Alpha  occ. eigenvalues --   -0.33858  -0.33237  -0.32534  -0.31866  -0.26555
 Alpha  occ. eigenvalues --   -0.21735
 Alpha virt. eigenvalues --   -0.08342  -0.01642  -0.00504   0.01168   0.01366
 Alpha virt. eigenvalues --    0.02106   0.02605   0.03221   0.04763   0.04963
 Alpha virt. eigenvalues --    0.06370   0.06918   0.07610   0.07964   0.08009
 Alpha virt. eigenvalues --    0.08203   0.08439   0.08960   0.09351   0.09637
 Alpha virt. eigenvalues --    0.09785   0.10042   0.10104   0.10476   0.10607
 Alpha virt. eigenvalues --    0.11049   0.11396   0.11492   0.11729   0.12070
 Alpha virt. eigenvalues --    0.12355   0.12812   0.12920   0.13308   0.13380
 Alpha virt. eigenvalues --    0.13622   0.14158   0.14264   0.14361   0.14718
 Alpha virt. eigenvalues --    0.15206   0.15526   0.15592   0.15651   0.15807
 Alpha virt. eigenvalues --    0.16039   0.16046   0.16368   0.16527   0.16733
 Alpha virt. eigenvalues --    0.17001   0.17294   0.17461   0.17726   0.17919
 Alpha virt. eigenvalues --    0.18113   0.18257   0.19022   0.19068   0.19293
 Alpha virt. eigenvalues --    0.19613   0.19723   0.19851   0.20755   0.20876
 Alpha virt. eigenvalues --    0.21180   0.21881   0.23177   0.23290   0.23549
 Alpha virt. eigenvalues --    0.23882   0.24030   0.24102   0.24264   0.24269
 Alpha virt. eigenvalues --    0.24311   0.24500   0.24604   0.24630   0.24756
 Alpha virt. eigenvalues --    0.24799   0.24859   0.24891   0.25014   0.25143
 Alpha virt. eigenvalues --    0.25152   0.25159   0.25217   0.25331   0.25431
 Alpha virt. eigenvalues --    0.25447   0.25587   0.25726   0.25911   0.25973
 Alpha virt. eigenvalues --    0.26037   0.26123   0.26188   0.26229   0.26258
 Alpha virt. eigenvalues --    0.26298   0.26366   0.26499   0.26542   0.26678
 Alpha virt. eigenvalues --    0.26765   0.26837   0.27033   0.27102   0.27311
 Alpha virt. eigenvalues --    0.27315   0.27378   0.27543   0.27932   0.28054
 Alpha virt. eigenvalues --    0.28148   0.28261   0.28721   0.28967   0.29249
 Alpha virt. eigenvalues --    0.29366   0.30016   0.30585   0.30976   0.31068
 Alpha virt. eigenvalues --    0.31186   0.31757   0.32175   0.33583   0.34648
 Alpha virt. eigenvalues --    0.35159   0.35392   0.35678   0.35811   0.36046
 Alpha virt. eigenvalues --    0.36386   0.36537   0.37148   0.37195   0.37858
 Alpha virt. eigenvalues --    0.39146   0.39283   0.39997   0.40086   0.40535
 Alpha virt. eigenvalues --    0.41057   0.41315   0.41513   0.41939   0.41986
 Alpha virt. eigenvalues --    0.43179   0.44515   0.44601   0.45715   0.46085
 Alpha virt. eigenvalues --    0.47548   0.47634   0.48163   0.50654   0.53498
 Alpha virt. eigenvalues --    0.54350   0.55569
          Condensed to atoms (all electrons):
 Mulliken charges:
               1
     1  Mg   0.432453
     2  C   -0.055353
     3  C   -0.056373
     4  C   -0.060498
     5  C   -0.084324
     6  N   -0.303557
     7  C    0.181026
     8  C    0.004956
     9  C    0.004800
    10  C    0.075022
    11  C   -0.051528
    12  C   -0.012061
    13  C    0.011370
    14  C    0.466344
    15  O   -0.545737
    16  O   -0.251487
    17  N   -0.310636
    18  C    0.082575
    19  C   -0.020848
    20  C   -0.067440
    21  C    0.112676
    22  C   -0.044857
    23  C    0.334438
    24  O   -0.541484
    25  C   -0.024039
    26  N   -0.273356
    27  C    0.115517
    28  C    0.003843
    29  C    0.001356
    30  C    0.173621
    31  C   -0.048040
    32  C   -0.029077
    33  C   -0.063970
    34  N   -0.348729
    35  C    0.135363
    36  C    0.048834
    37  C   -0.035184
    38  C    0.123517
    39  C   -0.034888
    40  C    0.340256
    41  O   -0.515196
    42  C    0.063997
    43  C    0.485591
    44  O   -0.519440
    45  O   -0.259338
    46  C    0.069441
    47  C    0.100127
    48  C   -0.088857
    49  C   -0.011159
    50  C   -0.047021
    51  C   -0.018217
    52  C   -0.029602
    53  C   -0.031992
    54  C   -0.015830
    55  C   -0.065222
    56  C   -0.029474
    57  C   -0.043768
    58  C   -0.051132
    59  C   -0.008936
    60  C   -0.051622
    61  C   -0.041235
    62  C   -0.045008
    63  C   -0.033793
    64  C   -0.009655
    65  C   -0.057824
    66  C   -0.066212
    67  H    0.020783
    68  H    0.032675
    69  H    0.017772
    70  H    0.050438
    71  H    0.027105
    72  H    0.027486
    73  H    0.009085
    74  H    0.035504
    75  H    0.021263
    76  H    0.022880
    77  H    0.035646
    78  H    0.036859
    79  H    0.025775
    80  H    0.021997
    81  H    0.031360
    82  H    0.030544
    83  H    0.041338
    84  H    0.033104
    85  H    0.021036
    86  H    0.035826
    87  H    0.020425
    88  H    0.035623
    89  H    0.029237
    90  H    0.029765
    91  H    0.027643
    92  H    0.027130
    93  H    0.018000
    94  H    0.023204
    95  H    0.026020
    96  H    0.039089
    97  H    0.043179
    98  H    0.049166
    99  H    0.039427
   100  H    0.054278
   101  H    0.039906
   102  H    0.047538
   103  H    0.059403
   104  H    0.016050
   105  H    0.028185
   106  H    0.030711
   107  H    0.030406
   108  H    0.024868
   109  H    0.022491
   110  H    0.004531
   111  H    0.033008
   112  H    0.008583
   113  H    0.022903
   114  H    0.033061
   115  H    0.012814
   116  H    0.005388
   117  H    0.029957
   118  H    0.023220
   119  H    0.021079
   120  H    0.022004
   121  H    0.019914
   122  H    0.028401
   123  H    0.015635
   124  H    0.028779
   125  H    0.008656
   126  H    0.010830
   127  H    0.017087
   128  H    0.017651
   129  H    0.010094
   130  H    0.012337
   131  H    0.028531
   132  H    0.031654
   133  H    0.025379
   134  H    0.022684
   135  H    0.015372
   136  H    0.014162
   137  H    0.026201
   138  H    0.013691
   139  H    0.009911
   140  H    0.023137
 Sum of Mulliken charges =  -0.00000
 Mulliken charges with hydrogens summed into heavy atoms:
               1
     1  Mg   0.432453
     2  C   -0.055353
     3  C   -0.035589
     4  C   -0.027823
     5  C   -0.066552
     6  N   -0.303557
     7  C    0.181026
     8  C    0.055394
     9  C    0.031905
    10  C    0.075022
    11  C    0.020548
    12  C    0.032082
    13  C    0.083875
    14  C    0.466344
    15  O   -0.545737
    16  O   -0.251487
    17  N   -0.310636
    18  C    0.082575
    19  C   -0.020848
    20  C   -0.067440
    21  C    0.112676
    22  C    0.034275
    23  C    0.334438
    24  O   -0.541484
    25  C    0.080947
    26  N   -0.273356
    27  C    0.115517
    28  C    0.024879
    29  C    0.037182
    30  C    0.173621
    31  C    0.037245
    32  C    0.028330
    33  C    0.004364
    34  N   -0.348729
    35  C    0.135363
    36  C    0.048834
    37  C   -0.035184
    38  C    0.123517
    39  C    0.073400
    40  C    0.340256
    41  O   -0.515196
    42  C    0.113163
    43  C    0.485591
    44  O   -0.519440
    45  O   -0.259338
    46  C    0.203053
    47  C    0.207069
    48  C   -0.072807
    49  C   -0.011159
    50  C    0.042282
    51  C    0.029142
    52  C    0.007937
    53  C   -0.000506
    54  C    0.017231
    55  C   -0.017062
    56  C    0.014824
    57  C   -0.001849
    58  C   -0.007096
    59  C    0.019843
    60  C   -0.015050
    61  C   -0.013490
    62  C   -0.004141
    63  C    0.023239
    64  C    0.013029
    65  C   -0.002088
    66  C   -0.019472
 Charge=             -0.0000 electrons
 Dipole moment (field-independent basis, Debye):
    X=             -4.2389    Y=             -0.1348    Z=              6.8593  Tot=              8.0645
 N-N= 4.289906305469D+03 E-N= 0.000000000000D+00  KE=-9.254063038431D+03
 Leave Link  601 at Sat Apr 30 02:17:17 2022, MaxMem=  6710886400 cpu:               1.2 elap:               0.1
 (Enter /sw/apps/gaussian-16.0/g16/l9999.exe)
 1\1\GINC-BP1-COMPUTE102\SP\RZINDO CIS\STO-3G\C55H74Mg1N4O6\OF15641\30-
 Apr-2022\0\\#p ZINDO=(nstates=5)\\step_51_chromophore_6 ZINDO\\0,1\Mg,
 0,17.113,-1.765,27.253\C,0,16.106,0.381,30.065\C,0,19.026,-3.454,29.63
 3\C,0,18.18,-3.529,24.823\C,0,15.43,0.354,25.173\N,0,17.485,-1.486,29.
 643\C,0,16.895,-0.649,30.472\C,0,17.362,-0.927,31.879\C,0,18.404,-2.10
 7,31.786\C,0,18.31,-2.447,30.264\C,0,19.784,-1.749,32.338\C,0,16.151,-
 1.296,32.739\C,0,16.206,-1.06,34.194\C,0,17.581,-0.615,34.858\O,0,18.0
 92,0.542,34.799\O,0,18.141,-1.644,35.487\N,0,18.385,-3.308,27.253\C,0,
 19.104,-3.872,28.276\C,0,19.858,-5.023,27.789\C,0,19.577,-5.141,26.38\
 C,0,18.684,-4.003,26.076\C,0,20.606,-6.009,28.696\C,0,20.126,-6.117,25
 .311\O,0,19.967,-5.982,24.079\C,0,20.892,-7.268,25.771\N,0,17.036,-1.4
 49,25.229\C,0,17.426,-2.45,24.409\C,0,16.99,-2.172,22.954\C,0,15.725,-
 1.276,23.188\C,0,16.062,-0.735,24.585\C,0,18.08,-1.629,22.003\C,0,14.3
 3,-2.059,23.376\C,0,13.028,-1.269,22.923\N,0,16.041,-0.027,27.493\C,0,
 15.339,0.702,26.545\C,0,14.644,1.831,27.144\C,0,14.969,1.751,28.486\C,
 0,15.805,0.643,28.708\C,0,13.818,2.925,26.468\C,0,14.695,2.434,29.808\
 O,0,14.006,3.435,30.114\C,0,15.444,1.583,30.793\C,0,16.345,2.516,31.59
 3\O,0,17.315,3.146,31.091\O,0,15.939,2.536,32.933\C,0,16.855,3.387,33.
 743\C,0,19.43,-1.454,36.239\C,0,19.616,-2.508,37.366\C,0,20.152,-2.493
 ,38.565\C,0,20.639,-1.217,39.27\C,0,19.927,-3.719,39.441\C,0,21.145,-4
 .625,39.505\C,0,20.897,-5.981,38.845\C,0,22.199,-6.433,38.152\C,0,21.7
 53,-7.511,37.118\C,0,23.113,-7.137,39.186\C,0,24.491,-6.531,39.34\C,0,
 24.987,-6.503,40.879\C,0,25.863,-7.805,41.358\C,0,24.992,-8.686,42.136
 \C,0,27.118,-7.346,42.215\C,0,28.493,-7.84,41.745\C,0,29.213,-8.852,42
 .722\C,0,28.667,-10.274,42.452\C,0,29.216,-10.957,41.181\C,0,28.961,-1
 1.149,43.693\H,0,19.578,-4.017,30.388\H,0,18.515,-4.137,23.98\H,0,14.7
 9,0.977,24.545\H,0,17.767,0.041,32.173\H,0,18.086,-3.011,32.306\H,0,20
 .535,-1.873,31.558\H,0,19.95,-2.51,33.101\H,0,19.877,-0.8,32.867\H,0,1
 5.992,-2.37,32.636\H,0,15.318,-0.757,32.288\H,0,15.81,-1.895,34.771\H,
 0,15.579,-0.185,34.369\H,0,20.028,-6.929,28.786\H,0,20.614,-5.618,29.7
 14\H,0,21.601,-6.236,28.315\H,0,20.322,-7.807,26.527\H,0,21.841,-6.974
 ,26.218\H,0,21.082,-7.951,24.943\H,0,16.656,-3.13,22.557\H,0,15.653,-0
 .49,22.437\H,0,17.669,-0.663,21.71\H,0,18.264,-2.348,21.205\H,0,18.99,
 -1.39,22.554\H,0,14.247,-2.26,24.444\H,0,14.366,-2.99,22.812\H,0,12.82
 8,-1.557,21.891\H,0,13.068,-0.181,22.967\H,0,12.23,-1.416,23.652\H,0,1
 3.295,2.563,25.583\H,0,14.525,3.66,26.082\H,0,13.149,3.356,27.213\H,0,
 14.709,1.216,31.509\H,0,16.532,4.421,33.867\H,0,17.822,3.463,33.246\H,
 0,16.949,2.964,34.743\H,0,19.363,-0.526,36.806\H,0,20.342,-1.421,35.64
 3\H,0,19.204,-3.475,37.076\H,0,21.726,-1.279,39.207\H,0,20.332,-1.222,
 40.316\H,0,20.283,-0.355,38.707\H,0,19.085,-4.266,39.018\H,0,19.618,-3
 .283,40.391\H,0,21.242,-4.885,40.559\H,0,22.115,-4.186,39.271\H,0,20.0
 92,-5.897,38.115\H,0,20.465,-6.737,39.5\H,0,22.606,-5.575,37.616\H,0,2
 2.58,-7.834,36.486\H,0,21.179,-7.037,36.321\H,0,21.182,-8.296,37.614\H
 ,0,23.274,-8.172,38.885\H,0,22.658,-7.069,40.174\H,0,24.613,-5.508,38.
 985\H,0,25.072,-7.209,38.715\H,0,24.122,-6.387,41.531\H,0,25.663,-5.65
 8,41.012\H,0,26.157,-8.416,40.504\H,0,25.38,-8.92,43.128\H,0,24.911,-9
 .658,41.651\H,0,24.002,-8.312,42.397\H,0,26.988,-7.518,43.284\H,0,27.1
 63,-6.26,42.289\H,0,29.136,-6.96,41.775\H,0,28.332,-8.249,40.747\H,0,2
 8.991,-8.542,43.743\H,0,30.254,-8.84,42.398\H,0,27.583,-10.267,42.345\
 H,0,30.043,-10.404,40.737\H,0,28.48,-10.873,40.382\H,0,29.527,-11.984,
 41.377\H,0,27.984,-11.5,44.023\H,0,29.322,-10.622,44.576\H,0,29.706,-1
 1.938,43.584\\Version=ES64L-G16RevA.03\State=1-A\HF=-474.0078685\RMSD=
 6.375e-09\PG=C01 [X(C55H74Mg1N4O6)]\\@


 THE LENGTH OF A MEETING IS PROPORTIONAL TO THE
 SQUARE OF THE PARTICIPANTS.
 Job cpu time:       0 days  0 hours  3 minutes  8.2 seconds.
 Elapsed time:       0 days  0 hours  0 minutes  8.1 seconds.
 File lengths (MBytes):  RWF=   1275 Int=      0 D2E=      0 Chk=     38 Scr=      1
 Normal termination of Gaussian 16 at Sat Apr 30 02:17:17 2022.
