 Entering Gaussian System, Link 0=g16
 Initial command:
 /sw/apps/gaussian-16.0/g16/l1.exe "/tmp/Gau-134234.inp" -scrdir="/tmp/"
 Entering Link 1 = /sw/apps/gaussian-16.0/g16/l1.exe PID=    134235.
  
 Copyright (c) 1988,1990,1992,1993,1995,1998,2003,2009,2016,
            Gaussian, Inc.  All Rights Reserved.
  
 This is part of the Gaussian(R) 16 program.  It is based on
 the Gaussian(R) 09 system (copyright 2009, Gaussian, Inc.),
 the Gaussian(R) 03 system (copyright 2003, Gaussian, Inc.),
 the Gaussian(R) 98 system (copyright 1998, Gaussian, Inc.),
 the Gaussian(R) 94 system (copyright 1995, Gaussian, Inc.),
 the Gaussian 92(TM) system (copyright 1992, Gaussian, Inc.),
 the Gaussian 90(TM) system (copyright 1990, Gaussian, Inc.),
 the Gaussian 88(TM) system (copyright 1988, Gaussian, Inc.),
 the Gaussian 86(TM) system (copyright 1986, Carnegie Mellon
 University), and the Gaussian 82(TM) system (copyright 1983,
 Carnegie Mellon University). Gaussian is a federally registered
 trademark of Gaussian, Inc.
  
 This software contains proprietary and confidential information,
 including trade secrets, belonging to Gaussian, Inc.
  
 This software is provided under written license and may be
 used, copied, transmitted, or stored only in accord with that
 written license.
  
 The following legend is applicable only to US Government
 contracts under FAR:
  
                    RESTRICTED RIGHTS LEGEND
  
 Use, reproduction and disclosure by the US Government is
 subject to restrictions as set forth in subparagraphs (a)
 and (c) of the Commercial Computer Software - Restricted
 Rights clause in FAR 52.227-19.
  
 Gaussian, Inc.
 340 Quinnipiac St., Bldg. 40, Wallingford CT 06492
  
  
 ---------------------------------------------------------------
 Warning -- This program may not be used in any manner that
 competes with the business of Gaussian, Inc. or will provide
 assistance to any competitor of Gaussian, Inc.  The licensee
 of this program is prohibited from giving any competitor of
 Gaussian, Inc. access to this program.  By using this program,
 the user acknowledges that Gaussian, Inc. is engaged in the
 business of creating and licensing software in the field of
 computational chemistry and represents and warrants to the
 licensee that it is not a competitor of Gaussian, Inc. and that
 it will not use this program in any manner prohibited above.
 ---------------------------------------------------------------
  

 Cite this work as:
 Gaussian 16, Revision A.03,
 M. J. Frisch, G. W. Trucks, H. B. Schlegel, G. E. Scuseria, 
 M. A. Robb, J. R. Cheeseman, G. Scalmani, V. Barone, 
 G. A. Petersson, H. Nakatsuji, X. Li, M. Caricato, A. V. Marenich, 
 J. Bloino, B. G. Janesko, R. Gomperts, B. Mennucci, H. P. Hratchian, 
 J. V. Ortiz, A. F. Izmaylov, J. L. Sonnenberg, D. Williams-Young, 
 F. Ding, F. Lipparini, F. Egidi, J. Goings, B. Peng, A. Petrone, 
 T. Henderson, D. Ranasinghe, V. G. Zakrzewski, J. Gao, N. Rega, 
 G. Zheng, W. Liang, M. Hada, M. Ehara, K. Toyota, R. Fukuda, 
 J. Hasegawa, M. Ishida, T. Nakajima, Y. Honda, O. Kitao, H. Nakai, 
 T. Vreven, K. Throssell, J. A. Montgomery, Jr., J. E. Peralta, 
 F. Ogliaro, M. J. Bearpark, J. J. Heyd, E. N. Brothers, K. N. Kudin, 
 V. N. Staroverov, T. A. Keith, R. Kobayashi, J. Normand, 
 K. Raghavachari, A. P. Rendell, J. C. Burant, S. S. Iyengar, 
 J. Tomasi, M. Cossi, J. M. Millam, M. Klene, C. Adamo, R. Cammi, 
 J. W. Ochterski, R. L. Martin, K. Morokuma, O. Farkas, 
 J. B. Foresman, and D. J. Fox, Gaussian, Inc., Wallingford CT, 2016.
 
 ******************************************
 Gaussian 16:  ES64L-G16RevA.03 25-Dec-2016
                 5-May-2022 
 ******************************************
 %nproc=24
 Will use up to   24 processors via shared memory.
 %mem=50gb
 --------------------
 #p ZINDO=(nstates=5)
 --------------------
 1/38=1,172=1/1;
 2/12=2,17=6,18=5,40=1/2;
 3/5=2,25=1,41=400000/1,2,3,8;
 4/5=3,35=1/1;
 5/5=2,35=1,38=5/2;
 8/6=1,108=5/1;
 9/41=5,42=1,49=10/14;
 6/7=2,8=2,9=2,10=2/1;
 99/5=1,9=1/99;
 Leave Link    1 at Thu May  5 06:47:45 2022, MaxMem=  6710886400 cpu:               1.7 elap:               0.1
 (Enter /sw/apps/gaussian-16.0/g16/l101.exe)
 -----------------------------
 step_651_chromophore_18 ZINDO
 -----------------------------
 Symbolic Z-matrix:
 Charge =  0 Multiplicity = 1
 Mg                    34.693    49.332    24.259 
 C                     34.831    47.552    27.338 
 C                     33.17     51.957    25.95 
 C                     34.383    50.906    21.372 
 C                     36.004    46.47     22.623 
 N                     34.201    49.7      26.43 
 C                     34.353    48.843    27.432 
 C                     33.931    49.517    28.753 
 C                     33.316    50.888    28.299 
 C                     33.559    50.886    26.764 
 C                     31.795    51.061    28.761 
 C                     35.115    49.646    29.796 
 C                     34.845    49.245    31.298 
 C                     33.381    49.116    31.753 
 O                     32.746    48.038    31.885 
 O                     32.777    50.325    32.04 
 N                     33.96     51.168    23.791 
 C                     33.39     52.133    24.548 
 C                     33.086    53.271    23.782 
 C                     33.342    52.974    22.452 
 C                     33.941    51.653    22.504 
 C                     32.494    54.542    24.466 
 C                     32.925    53.686    21.226 
 O                     33.21     53.464    20.032 
 C                     32.119    55.043    21.447 
 N                     35.079    48.759    22.285 
 C                     34.926    49.612    21.289 
 C                     35.244    48.936    19.929 
 C                     36.024    47.717    20.409 
 C                     35.646    47.644    21.846 
 C                     33.902    48.718    19.149 
 C                     37.482    47.77     20.125 
 C                     38.39     48.884    20.662 
 N                     35.198    47.365    24.782 
 C                     35.801    46.372    24.039 
 C                     36.145    45.284    24.845 
 C                     35.783    45.736    26.179 
 C                     35.196    46.993    26.103 
 C                     36.773    43.983    24.58 
 C                     35.78     45.263    27.52 
 O                     36.119    44.114    27.919 
 C                     35.093    46.449    28.428 
 C                     33.804    45.993    28.91 
 O                     32.655    46.223    28.477 
 O                     34.045    45.212    30.056 
 C                     32.881    44.739    30.757 
 C                     31.361    50.363    32.368 
 C                     30.815    51.772    32.356 
 C                     29.863    52.299    33.127 
 C                     28.81     51.564    33.99 
 C                     29.864    53.783    33.334 
 C                     30.826    54.33     34.443 
 C                     31.285    55.761    34.147 
 C                     31.094    56.73     35.396 
 C                     32.362    57.05     36.03 
 C                     30.238    58.049    34.986 
 C                     29.468    58.412    36.318 
 C                     29.627    59.856    36.827 
 C                     28.704    60.884    36.146 
 C                     29.514    61.639    35.128 
 C                     28.114    61.827    37.269 
 C                     26.707    62.386    36.947 
 C                     26.538    63.875    37.162 
 C                     26.547    64.621    35.844 
 C                     26.824    66.096    36.164 
 C                     25.202    64.468    34.945 
 H                     32.717    52.786    26.498 
 H                     34.292    51.456    20.432 
 H                     36.246    45.543    22.099 
 H                     33.158    48.888    29.193 
 H                     33.92     51.58     28.885 
 H                     31.357    50.232    29.317 
 H                     31.081    51.168    27.945 
 H                     31.762    51.994    29.325 
 H                     35.619    50.613    29.801 
 H                     35.888    48.982    29.409 
 H                     35.308    49.953    31.985 
 H                     35.385    48.315    31.479 
 H                     31.444    54.755    24.263 
 H                     33.104    55.399    24.183 
 H                     32.535    54.5      25.554 
 H                     32.748    55.71     22.036 
 H                     31.11     54.915    21.839 
 H                     31.927    55.343    20.417 
 H                     35.764    49.519    19.169 
 H                     35.695    46.759    20.008 
 H                     33.949    49.303    18.23 
 H                     33.048    49.017    19.758 
 H                     33.784    47.697    18.788 
 H                     37.593    47.947    19.055 
 H                     37.91     46.776    20.257 
 H                     39.136    48.473    21.342 
 H                     37.982    49.665    21.304 
 H                     38.888    49.27     19.773 
 H                     37.094    43.448    25.474 
 H                     37.622    44.12     23.91 
 H                     36.066    43.332    24.067 
 H                     35.729    46.847    29.218 
 H                     33.118    44.215    31.683 
 H                     32.404    43.962    30.16 
 H                     32.18     45.551    30.954 
 H                     31.023    49.733    33.191 
 H                     30.882    49.963    31.474 
 H                     31.444    52.461    31.792 
 H                     29.122    50.524    34.09 
 H                     27.775    51.652    33.659 
 H                     28.895    52.008    34.982 
 H                     28.868    53.996    33.722 
 H                     29.923    54.301    32.377 
 H                     31.769    53.797    34.562 
 H                     30.244    54.248    35.361 
 H                     30.642    56.179    33.374 
 H                     32.325    55.854    33.832 
 H                     30.538    56.036    36.026 
 H                     32.552    56.117    36.56 
 H                     32.364    57.848    36.773 
 H                     33.208    57.212    35.363 
 H                     29.476    57.936    34.216 
 H                     30.829    58.894    34.632 
 H                     29.729    57.793    37.176 
 H                     28.433    58.119    36.139 
 H                     30.671    60.037    36.569 
 H                     29.609    59.82     37.916 
 H                     27.802    60.421    35.747 
 H                     29.265    62.682    35.323 
 H                     29.24     61.275    34.138 
 H                     30.591    61.702    35.285 
 H                     28.915    62.54     37.465 
 H                     27.988    61.264    38.193 
 H                     26.068    61.93     37.704 
 H                     26.379    62.059    35.96 
 H                     27.327    64.302    37.781 
 H                     25.566    64.018    37.635 
 H                     27.418    64.247    35.306 
 H                     27.207    66.235    37.175 
 H                     25.934    66.703    36. 
 H                     27.588    66.377    35.439 
 H                     24.564    63.704    35.39 
 H                     25.485    64.151    33.941 
 H                     24.61     65.382    34.953 
 
 ITRead=  0  0  0  0  0  0  0  0  0  0  0  0  0  0  0  0  0  0  0  0
 ITRead=  0  0  0  0  0  0  0  0  0  0  0  0  0  0  0  0  0  0  0  0
 ITRead=  0  0  0  0  0  0  0  0  0  0  0  0  0  0  0  0  0  0  0  0
 ITRead=  0  0  0  0  0  0  0  0  0  0  0  0  0  0  0  0  0  0  0  0
 ITRead=  0  0  0  0  0  0  0  0  0  0  0  0  0  0  0  0  0  0  0  0
 ITRead=  0  0  0  0  0  0  0  0  0  0  0  0  0  0  0  0  0  0  0  0
 ITRead=  0  0  0  0  0  0  0  0  0  0  0  0  0  0  0  0  0  0  0  0
 MicOpt= -1 -1 -1 -1 -1 -1 -1 -1 -1 -1 -1 -1 -1 -1 -1 -1 -1 -1 -1 -1
 MicOpt= -1 -1 -1 -1 -1 -1 -1 -1 -1 -1 -1 -1 -1 -1 -1 -1 -1 -1 -1 -1
 MicOpt= -1 -1 -1 -1 -1 -1 -1 -1 -1 -1 -1 -1 -1 -1 -1 -1 -1 -1 -1 -1
 MicOpt= -1 -1 -1 -1 -1 -1 -1 -1 -1 -1 -1 -1 -1 -1 -1 -1 -1 -1 -1 -1
 MicOpt= -1 -1 -1 -1 -1 -1 -1 -1 -1 -1 -1 -1 -1 -1 -1 -1 -1 -1 -1 -1
 MicOpt= -1 -1 -1 -1 -1 -1 -1 -1 -1 -1 -1 -1 -1 -1 -1 -1 -1 -1 -1 -1
 MicOpt= -1 -1 -1 -1 -1 -1 -1 -1 -1 -1 -1 -1 -1 -1 -1 -1 -1 -1 -1 -1
 NAtoms=    140 NQM=      140 NQMF=       0 NMMI=      0 NMMIF=      0
                NMic=       0 NMicF=      0.
                    Isotopes and Nuclear Properties:
 (Nuclear quadrupole moments (NQMom) in fm**2, nuclear magnetic moments (NMagM)
  in nuclear magnetons)

  Atom         1           2           3           4           5           6           7           8           9          10
 IAtWgt=          24          12          12          12          12          14          12          12          12          12
 AtmWgt=  23.9850450  12.0000000  12.0000000  12.0000000  12.0000000  14.0030740  12.0000000  12.0000000  12.0000000  12.0000000
 NucSpn=           0           0           0           0           0           2           0           0           0           0
 AtZEff=  -0.0000000  -0.0000000  -0.0000000  -0.0000000  -0.0000000  -0.0000000  -0.0000000  -0.0000000  -0.0000000  -0.0000000
 NQMom=    0.0000000   0.0000000   0.0000000   0.0000000   0.0000000   2.0440000   0.0000000   0.0000000   0.0000000   0.0000000
 NMagM=    0.0000000   0.0000000   0.0000000   0.0000000   0.0000000   0.4037610   0.0000000   0.0000000   0.0000000   0.0000000
 AtZNuc=  12.0000000   6.0000000   6.0000000   6.0000000   6.0000000   7.0000000   6.0000000   6.0000000   6.0000000   6.0000000

  Atom        11          12          13          14          15          16          17          18          19          20
 IAtWgt=          12          12          12          12          16          16          14          12          12          12
 AtmWgt=  12.0000000  12.0000000  12.0000000  12.0000000  15.9949146  15.9949146  14.0030740  12.0000000  12.0000000  12.0000000
 NucSpn=           0           0           0           0           0           0           2           0           0           0
 AtZEff=  -0.0000000  -0.0000000  -0.0000000  -0.0000000  -0.0000000  -0.0000000  -0.0000000  -0.0000000  -0.0000000  -0.0000000
 NQMom=    0.0000000   0.0000000   0.0000000   0.0000000   0.0000000   0.0000000   2.0440000   0.0000000   0.0000000   0.0000000
 NMagM=    0.0000000   0.0000000   0.0000000   0.0000000   0.0000000   0.0000000   0.4037610   0.0000000   0.0000000   0.0000000
 AtZNuc=   6.0000000   6.0000000   6.0000000   6.0000000   8.0000000   8.0000000   7.0000000   6.0000000   6.0000000   6.0000000

  Atom        21          22          23          24          25          26          27          28          29          30
 IAtWgt=          12          12          12          16          12          14          12          12          12          12
 AtmWgt=  12.0000000  12.0000000  12.0000000  15.9949146  12.0000000  14.0030740  12.0000000  12.0000000  12.0000000  12.0000000
 NucSpn=           0           0           0           0           0           2           0           0           0           0
 AtZEff=  -0.0000000  -0.0000000  -0.0000000  -0.0000000  -0.0000000  -0.0000000  -0.0000000  -0.0000000  -0.0000000  -0.0000000
 NQMom=    0.0000000   0.0000000   0.0000000   0.0000000   0.0000000   2.0440000   0.0000000   0.0000000   0.0000000   0.0000000
 NMagM=    0.0000000   0.0000000   0.0000000   0.0000000   0.0000000   0.4037610   0.0000000   0.0000000   0.0000000   0.0000000
 AtZNuc=   6.0000000   6.0000000   6.0000000   8.0000000   6.0000000   7.0000000   6.0000000   6.0000000   6.0000000   6.0000000

  Atom        31          32          33          34          35          36          37          38          39          40
 IAtWgt=          12          12          12          14          12          12          12          12          12          12
 AtmWgt=  12.0000000  12.0000000  12.0000000  14.0030740  12.0000000  12.0000000  12.0000000  12.0000000  12.0000000  12.0000000
 NucSpn=           0           0           0           2           0           0           0           0           0           0
 AtZEff=  -0.0000000  -0.0000000  -0.0000000  -0.0000000  -0.0000000  -0.0000000  -0.0000000  -0.0000000  -0.0000000  -0.0000000
 NQMom=    0.0000000   0.0000000   0.0000000   2.0440000   0.0000000   0.0000000   0.0000000   0.0000000   0.0000000   0.0000000
 NMagM=    0.0000000   0.0000000   0.0000000   0.4037610   0.0000000   0.0000000   0.0000000   0.0000000   0.0000000   0.0000000
 AtZNuc=   6.0000000   6.0000000   6.0000000   7.0000000   6.0000000   6.0000000   6.0000000   6.0000000   6.0000000   6.0000000

  Atom        41          42          43          44          45          46          47          48          49          50
 IAtWgt=          16          12          12          16          16          12          12          12          12          12
 AtmWgt=  15.9949146  12.0000000  12.0000000  15.9949146  15.9949146  12.0000000  12.0000000  12.0000000  12.0000000  12.0000000
 NucSpn=           0           0           0           0           0           0           0           0           0           0
 AtZEff=  -0.0000000  -0.0000000  -0.0000000  -0.0000000  -0.0000000  -0.0000000  -0.0000000  -0.0000000  -0.0000000  -0.0000000
 NQMom=    0.0000000   0.0000000   0.0000000   0.0000000   0.0000000   0.0000000   0.0000000   0.0000000   0.0000000   0.0000000
 NMagM=    0.0000000   0.0000000   0.0000000   0.0000000   0.0000000   0.0000000   0.0000000   0.0000000   0.0000000   0.0000000
 AtZNuc=   8.0000000   6.0000000   6.0000000   8.0000000   8.0000000   6.0000000   6.0000000   6.0000000   6.0000000   6.0000000

  Atom        51          52          53          54          55          56          57          58          59          60
 IAtWgt=          12          12          12          12          12          12          12          12          12          12
 AtmWgt=  12.0000000  12.0000000  12.0000000  12.0000000  12.0000000  12.0000000  12.0000000  12.0000000  12.0000000  12.0000000
 NucSpn=           0           0           0           0           0           0           0           0           0           0
 AtZEff=  -0.0000000  -0.0000000  -0.0000000  -0.0000000  -0.0000000  -0.0000000  -0.0000000  -0.0000000  -0.0000000  -0.0000000
 NQMom=    0.0000000   0.0000000   0.0000000   0.0000000   0.0000000   0.0000000   0.0000000   0.0000000   0.0000000   0.0000000
 NMagM=    0.0000000   0.0000000   0.0000000   0.0000000   0.0000000   0.0000000   0.0000000   0.0000000   0.0000000   0.0000000
 AtZNuc=   6.0000000   6.0000000   6.0000000   6.0000000   6.0000000   6.0000000   6.0000000   6.0000000   6.0000000   6.0000000

  Atom        61          62          63          64          65          66          67          68          69          70
 IAtWgt=          12          12          12          12          12          12           1           1           1           1
 AtmWgt=  12.0000000  12.0000000  12.0000000  12.0000000  12.0000000  12.0000000   1.0078250   1.0078250   1.0078250   1.0078250
 NucSpn=           0           0           0           0           0           0           1           1           1           1
 AtZEff=  -0.0000000  -0.0000000  -0.0000000  -0.0000000  -0.0000000  -0.0000000  -0.0000000  -0.0000000  -0.0000000  -0.0000000
 NQMom=    0.0000000   0.0000000   0.0000000   0.0000000   0.0000000   0.0000000   0.0000000   0.0000000   0.0000000   0.0000000
 NMagM=    0.0000000   0.0000000   0.0000000   0.0000000   0.0000000   0.0000000   2.7928460   2.7928460   2.7928460   2.7928460
 AtZNuc=   6.0000000   6.0000000   6.0000000   6.0000000   6.0000000   6.0000000   1.0000000   1.0000000   1.0000000   1.0000000

  Atom        71          72          73          74          75          76          77          78          79          80
 IAtWgt=           1           1           1           1           1           1           1           1           1           1
 AtmWgt=   1.0078250   1.0078250   1.0078250   1.0078250   1.0078250   1.0078250   1.0078250   1.0078250   1.0078250   1.0078250
 NucSpn=           1           1           1           1           1           1           1           1           1           1
 AtZEff=  -0.0000000  -0.0000000  -0.0000000  -0.0000000  -0.0000000  -0.0000000  -0.0000000  -0.0000000  -0.0000000  -0.0000000
 NQMom=    0.0000000   0.0000000   0.0000000   0.0000000   0.0000000   0.0000000   0.0000000   0.0000000   0.0000000   0.0000000
 NMagM=    2.7928460   2.7928460   2.7928460   2.7928460   2.7928460   2.7928460   2.7928460   2.7928460   2.7928460   2.7928460
 AtZNuc=   1.0000000   1.0000000   1.0000000   1.0000000   1.0000000   1.0000000   1.0000000   1.0000000   1.0000000   1.0000000

  Atom        81          82          83          84          85          86          87          88          89          90
 IAtWgt=           1           1           1           1           1           1           1           1           1           1
 AtmWgt=   1.0078250   1.0078250   1.0078250   1.0078250   1.0078250   1.0078250   1.0078250   1.0078250   1.0078250   1.0078250
 NucSpn=           1           1           1           1           1           1           1           1           1           1
 AtZEff=  -0.0000000  -0.0000000  -0.0000000  -0.0000000  -0.0000000  -0.0000000  -0.0000000  -0.0000000  -0.0000000  -0.0000000
 NQMom=    0.0000000   0.0000000   0.0000000   0.0000000   0.0000000   0.0000000   0.0000000   0.0000000   0.0000000   0.0000000
 NMagM=    2.7928460   2.7928460   2.7928460   2.7928460   2.7928460   2.7928460   2.7928460   2.7928460   2.7928460   2.7928460
 AtZNuc=   1.0000000   1.0000000   1.0000000   1.0000000   1.0000000   1.0000000   1.0000000   1.0000000   1.0000000   1.0000000

  Atom        91          92          93          94          95          96          97          98          99         100
 IAtWgt=           1           1           1           1           1           1           1           1           1           1
 AtmWgt=   1.0078250   1.0078250   1.0078250   1.0078250   1.0078250   1.0078250   1.0078250   1.0078250   1.0078250   1.0078250
 NucSpn=           1           1           1           1           1           1           1           1           1           1
 AtZEff=  -0.0000000  -0.0000000  -0.0000000  -0.0000000  -0.0000000  -0.0000000  -0.0000000  -0.0000000  -0.0000000  -0.0000000
 NQMom=    0.0000000   0.0000000   0.0000000   0.0000000   0.0000000   0.0000000   0.0000000   0.0000000   0.0000000   0.0000000
 NMagM=    2.7928460   2.7928460   2.7928460   2.7928460   2.7928460   2.7928460   2.7928460   2.7928460   2.7928460   2.7928460
 AtZNuc=   1.0000000   1.0000000   1.0000000   1.0000000   1.0000000   1.0000000   1.0000000   1.0000000   1.0000000   1.0000000

  Atom       101         102         103         104         105         106         107         108         109         110
 IAtWgt=           1           1           1           1           1           1           1           1           1           1
 AtmWgt=   1.0078250   1.0078250   1.0078250   1.0078250   1.0078250   1.0078250   1.0078250   1.0078250   1.0078250   1.0078250
 NucSpn=           1           1           1           1           1           1           1           1           1           1
 AtZEff=  -0.0000000  -0.0000000  -0.0000000  -0.0000000  -0.0000000  -0.0000000  -0.0000000  -0.0000000  -0.0000000  -0.0000000
 NQMom=    0.0000000   0.0000000   0.0000000   0.0000000   0.0000000   0.0000000   0.0000000   0.0000000   0.0000000   0.0000000
 NMagM=    2.7928460   2.7928460   2.7928460   2.7928460   2.7928460   2.7928460   2.7928460   2.7928460   2.7928460   2.7928460
 AtZNuc=   1.0000000   1.0000000   1.0000000   1.0000000   1.0000000   1.0000000   1.0000000   1.0000000   1.0000000   1.0000000

  Atom       111         112         113         114         115         116         117         118         119         120
 IAtWgt=           1           1           1           1           1           1           1           1           1           1
 AtmWgt=   1.0078250   1.0078250   1.0078250   1.0078250   1.0078250   1.0078250   1.0078250   1.0078250   1.0078250   1.0078250
 NucSpn=           1           1           1           1           1           1           1           1           1           1
 AtZEff=  -0.0000000  -0.0000000  -0.0000000  -0.0000000  -0.0000000  -0.0000000  -0.0000000  -0.0000000  -0.0000000  -0.0000000
 NQMom=    0.0000000   0.0000000   0.0000000   0.0000000   0.0000000   0.0000000   0.0000000   0.0000000   0.0000000   0.0000000
 NMagM=    2.7928460   2.7928460   2.7928460   2.7928460   2.7928460   2.7928460   2.7928460   2.7928460   2.7928460   2.7928460
 AtZNuc=   1.0000000   1.0000000   1.0000000   1.0000000   1.0000000   1.0000000   1.0000000   1.0000000   1.0000000   1.0000000

  Atom       121         122         123         124         125         126         127         128         129         130
 IAtWgt=           1           1           1           1           1           1           1           1           1           1
 AtmWgt=   1.0078250   1.0078250   1.0078250   1.0078250   1.0078250   1.0078250   1.0078250   1.0078250   1.0078250   1.0078250
 NucSpn=           1           1           1           1           1           1           1           1           1           1
 AtZEff=  -0.0000000  -0.0000000  -0.0000000  -0.0000000  -0.0000000  -0.0000000  -0.0000000  -0.0000000  -0.0000000  -0.0000000
 NQMom=    0.0000000   0.0000000   0.0000000   0.0000000   0.0000000   0.0000000   0.0000000   0.0000000   0.0000000   0.0000000
 NMagM=    2.7928460   2.7928460   2.7928460   2.7928460   2.7928460   2.7928460   2.7928460   2.7928460   2.7928460   2.7928460
 AtZNuc=   1.0000000   1.0000000   1.0000000   1.0000000   1.0000000   1.0000000   1.0000000   1.0000000   1.0000000   1.0000000

  Atom       131         132         133         134         135         136         137         138         139         140
 IAtWgt=           1           1           1           1           1           1           1           1           1           1
 AtmWgt=   1.0078250   1.0078250   1.0078250   1.0078250   1.0078250   1.0078250   1.0078250   1.0078250   1.0078250   1.0078250
 NucSpn=           1           1           1           1           1           1           1           1           1           1
 AtZEff=  -0.0000000  -0.0000000  -0.0000000  -0.0000000  -0.0000000  -0.0000000  -0.0000000  -0.0000000  -0.0000000  -0.0000000
 NQMom=    0.0000000   0.0000000   0.0000000   0.0000000   0.0000000   0.0000000   0.0000000   0.0000000   0.0000000   0.0000000
 NMagM=    2.7928460   2.7928460   2.7928460   2.7928460   2.7928460   2.7928460   2.7928460   2.7928460   2.7928460   2.7928460
 AtZNuc=   1.0000000   1.0000000   1.0000000   1.0000000   1.0000000   1.0000000   1.0000000   1.0000000   1.0000000   1.0000000
 Leave Link  101 at Thu May  5 06:47:45 2022, MaxMem=  6710886400 cpu:               3.8 elap:               0.2
 (Enter /sw/apps/gaussian-16.0/g16/l202.exe)
 Stoichiometry    C55H74MgN4O6
 Framework group  C1[X(C55H74MgN4O6)]
 Deg. of freedom   414
 Full point group                 C1      NOp   1
 Largest Abelian subgroup         C1      NOp   1
 Largest concise Abelian subgroup C1      NOp   1
                         Standard orientation:                         
 ---------------------------------------------------------------------
 Center     Atomic      Atomic             Coordinates (Angstroms)
 Number     Number       Type             X           Y           Z
 ---------------------------------------------------------------------
      1         12           0        5.310145    1.226726    0.165145
      2          6           0        4.576095   -2.252783    0.313043
      3          6           0        1.900744    1.841873   -0.094118
      4          6           0        5.997002    4.439708   -0.171485
      5          6           0        8.766992    0.428940    0.162627
      6          7           0        3.485609   -0.098616    0.237717
      7          6           0        3.472633   -1.424461    0.297081
      8          6           0        2.014801   -1.921212    0.370332
      9          6           0        1.160792   -0.622990    0.148358
     10          6           0        2.238889    0.494389    0.081670
     11          6           0        0.195679   -0.733370   -1.121755
     12          6           0        1.684975   -2.698623    1.709433
     13          6           0        0.889858   -4.058365    1.616719
     14          6           0        0.153363   -4.369419    0.302268
     15          8           0        0.564574   -5.137824   -0.605032
     16          8           0       -1.064813   -3.729155    0.179893
     17          7           0        4.109132    2.854607   -0.021355
     18          6           0        2.764922    2.981232   -0.100333
     19          6           0        2.381511    4.331344   -0.166750
     20          6           0        3.531018    5.099013   -0.276127
     21          6           0        4.604482    4.133231   -0.129544
     22          6           0        0.870196    4.717905   -0.182813
     23          6           0        3.689970    6.514380   -0.670308
     24          8           0        4.711854    7.229101   -0.703064
     25          6           0        2.341423    7.317763   -0.945847
     26          7           0        7.107501    2.277449   -0.033582
     27          6           0        7.118946    3.596256   -0.094005
     28          6           0        8.565572    4.128534   -0.271913
     29          6           0        9.360201    2.899825    0.156572
     30          6           0        8.346852    1.815357    0.055396
     31          6           0        8.728720    4.663803   -1.736071
     32          6           0       10.035580    3.033932    1.473807
     33          6           0        9.268093    3.309763    2.773310
     34          7           0        6.481394   -0.511845    0.108681
     35          6           0        7.847406   -0.670052    0.212079
     36          6           0        8.185855   -2.019505    0.339143
     37          6           0        6.890949   -2.678602    0.400063
     38          6           0        5.880408   -1.738658    0.239730
     39          6           0        9.460536   -2.739290    0.458762
     40          6           0        6.344762   -3.987545    0.501892
     41          8           0        6.984654   -5.075755    0.527564
     42          6           0        4.712016   -3.816386    0.413153
     43          6           0        4.241827   -4.379024   -0.837504
     44          8           0        3.949556   -3.816735   -1.914072
     45          8           0        4.117135   -5.767673   -0.643945
     46          6           0        3.562617   -6.513491   -1.742258
     47          6           0       -1.814627   -3.838365   -1.061049
     48          6           0       -2.953943   -2.847566   -1.122834
     49          6           0       -4.150464   -2.994288   -1.693171
     50          6           0       -4.592607   -4.043445   -2.740826
     51          6           0       -5.283222   -2.157611   -1.181372
     52          6           0       -6.017590   -2.688030    0.096866
     53          6           0       -6.624740   -1.549109    0.921661
     54          6           0       -8.151261   -1.813383    1.289541
     55          6           0       -8.315892   -2.166753    2.689614
     56          6           0       -9.085880   -0.563997    0.835537
     57          6           0      -10.467335   -1.249741    0.488795
     58          6           0      -11.710434   -0.675616    1.192061
     59          6           0      -12.298717    0.585538    0.531844
     60          6           0      -11.858235    1.781497    1.330660
     61          6           0      -13.871099    0.427837    0.496869
     62          6           0      -14.549978    1.147154   -0.693728
     63          6           0      -15.752839    1.994260   -0.336738
     64          6           0      -15.403217    3.467848   -0.341880
     65          6           0      -16.502717    4.193653    0.444923
     66          6           0      -15.208297    4.134885   -1.810792
     67          1           0        0.825162    2.023652   -0.147352
     68          1           0        6.198969    5.510112   -0.259943
     69          1           0        9.816705    0.180156   -0.006720
     70          1           0        1.875136   -2.607680   -0.463949
     71          1           0        0.535926   -0.641737    1.040696
     72          1           0        0.237391   -1.664886   -1.686342
     73          1           0        0.390550   -0.002690   -1.906124
     74          1           0       -0.808131   -0.526228   -0.748753
     75          1           0        1.212848   -2.095750    2.485815
     76          1           0        2.661610   -2.914114    2.142954
     77          1           0        0.138080   -4.130471    2.402361
     78          1           0        1.595437   -4.854333    1.857252
     79          1           0        0.477093    5.090855   -1.129099
     80          1           0        0.696082    5.452655    0.602340
     81          1           0        0.212542    3.880611    0.048742
     82          1           0        1.740524    7.278198   -0.037659
     83          1           0        1.809656    7.019204   -1.849293
     84          1           0        2.733202    8.295787   -1.224670
     85          1           0        8.850698    5.040788    0.251905
     86          1           0       10.144729    2.582960   -0.529663
     87          1           0        8.943571    5.731429   -1.681225
     88          1           0        7.825653    4.477484   -2.318611
     89          1           0        9.606361    4.259105   -2.238716
     90          1           0       10.645751    3.936318    1.429765
     91          1           0       10.775266    2.240148    1.580649
     92          1           0        9.377223    2.474570    3.464961
     93          1           0        8.180603    3.386422    2.764495
     94          1           0        9.761062    4.187844    3.189577
     95          1           0        9.361410   -3.783220    0.756896
     96          1           0       10.107346   -2.216492    1.163595
     97          1           0        9.973448   -2.739386   -0.502353
     98          1           0        4.165413   -4.184891    1.280580
     99          1           0        3.405039   -7.567358   -1.512576
    100          1           0        4.297839   -6.553034   -2.545721
    101          1           0        2.634737   -6.063992   -2.097988
    102          1           0       -2.042739   -4.842596   -1.418760
    103          1           0       -1.142815   -3.406164   -1.803038
    104          1           0       -2.826993   -2.018161   -0.426825
    105          1           0       -3.843339   -4.835325   -2.762437
    106          1           0       -4.813616   -3.660206   -3.737226
    107          1           0       -5.499911   -4.488721   -2.332225
    108          1           0       -6.037439   -2.226687   -1.965154
    109          1           0       -4.994409   -1.107451   -1.143890
    110          1           0       -5.393554   -3.204049    0.826114
    111          1           0       -6.764475   -3.378334   -0.295326
    112          1           0       -6.641371   -0.648229    0.310236
    113          1           0       -6.107761   -1.333328    1.857420
    114          1           0       -8.290910   -2.700617    0.672301
    115          1           0       -7.959876   -3.196497    2.670408
    116          1           0       -9.331370   -2.184991    3.086261
    117          1           0       -7.688945   -1.629268    3.400175
    118          1           0       -8.789810   -0.010508   -0.054579
    119          1           0       -9.213060    0.216808    1.585731
    120          1           0      -10.508416   -2.318448    0.697661
    121          1           0      -10.529565   -1.233326   -0.599770
    122          1           0      -11.288007   -0.443660    2.170332
    123          1           0      -12.394147   -1.505128    1.370906
    124          1           0      -12.056531    0.641346   -0.529008
    125          1           0      -12.776718    2.351979    1.467823
    126          1           0      -11.074581    2.293144    0.772291
    127          1           0      -11.611666    1.624710    2.380978
    128          1           0      -14.187543    0.696974    1.504745
    129          1           0      -14.132609   -0.622764    0.376577
    130          1           0      -14.961840    0.330972   -1.288307
    131          1           0      -13.812744    1.685401   -1.289933
    132          1           0      -16.153411    1.760084    0.649524
    133          1           0      -16.505952    1.813663   -1.104311
    134          1           0      -14.489196    3.550218    0.246117
    135          1           0      -17.108828    3.507978    1.037046
    136          1           0      -17.128424    4.788328   -0.220132
    137          1           0      -15.948287    4.859790    1.106096
    138          1           0      -15.211328    3.344299   -2.561612
    139          1           0      -14.245518    4.645598   -1.839475
    140          1           0      -16.043672    4.784124   -2.068786
 ---------------------------------------------------------------------
 Rotational constants (GHZ):           0.0420581           0.0095214           0.0080129
 Leave Link  202 at Thu May  5 06:47:45 2022, MaxMem=  6710886400 cpu:               0.2 elap:               0.0
 (Enter /sw/apps/gaussian-16.0/g16/l301.exe)
 Standard basis: VSTO-6G (5D, 7F)
 Ernie: Thresh=  0.10000D-02 Tol=  0.10000D-05 Strict=F.
 There are   338 symmetry adapted cartesian basis functions of A   symmetry.
 There are   338 symmetry adapted basis functions of A   symmetry.
   338 basis functions,  2028 primitive gaussians,   338 cartesian basis functions
   176 alpha electrons      176 beta electrons
       nuclear repulsion energy      4783.0021337670 Hartrees.
 IExCor=    0 DFT=F Ex=HF Corr=None ExCW=0 ScaHFX=  1.000000
 ScaDFX=  1.000000  1.000000  1.000000  1.000000 ScalE2=  1.000000  1.000000
 IRadAn=      5 IRanWt=     -1 IRanGd=            0 ICorTp=0 IEmpDi=  4
 Integral buffers will be    131072 words long.
 Regular integral format.
 Two-electron integral symmetry is turned off.
 Leave Link  301 at Thu May  5 06:47:45 2022, MaxMem=  6710886400 cpu:               1.1 elap:               0.1
 (Enter /sw/apps/gaussian-16.0/g16/l302.exe)
 Do NDO integrals.
 NPDir=0 NMtPBC=     1 NCelOv=     1 NCel=       1 NClECP=     1 NCelD=      1
         NCelK=      1 NCelE2=     1 NClLst=     1 CellRange=     0.0.
 One-electron integrals computed using PRISM.
 Generate ZINDO/S integrals.
 NDO Nuclear repulsion=  4294.665998432283 Hartrees.
 NBasis=   338 RedAO= F EigKep=  0.00D+00  NBF=   338
 NBsUse=   338 1.00D-04 EigRej=  0.00D+00 NBFU=   338
 Leave Link  302 at Thu May  5 06:47:45 2022, MaxMem=  6710886400 cpu:               8.6 elap:               0.4
 (Enter /sw/apps/gaussian-16.0/g16/l303.exe)
 DipDrv:  MaxL=1.
 DipDrv:  will hold  3 matrices at once.
 Leave Link  303 at Thu May  5 06:47:45 2022, MaxMem=  6710886400 cpu:               1.3 elap:               0.1
 (Enter /sw/apps/gaussian-16.0/g16/l308.exe)
 Leave Link  308 at Thu May  5 06:47:46 2022, MaxMem=  6710886400 cpu:               4.6 elap:               0.2
 (Enter /sw/apps/gaussian-16.0/g16/l401.exe)
 Simple Huckel Guess.
 JPrj=0 DoOrth=F DoCkMO=F.
 Leave Link  401 at Thu May  5 06:47:46 2022, MaxMem=  6710886400 cpu:               3.2 elap:               0.2
 (Enter /sw/apps/gaussian-16.0/g16/l502.exe)
 Two-electron integral symmetry not used.
 Closed shell SCF:
 Using DIIS extrapolation, IDIIS=  1040.
 Overlap will be assumed to be unity.
 NGot=  6710886400 LenX=  6710643598 LenY=  6710528913
 Requested convergence on RMS density matrix=1.00D-08 within 128 cycles.
 Requested convergence on MAX density matrix=1.00D-06.
 Requested convergence on             energy=1.00D-06.
 No special actions if energy rises.
 Fock matrices will be formed incrementally for  20 cycles.

 Cycle   1  Pass 1  IDiag  1:
 E= -472.321231448157    
 DIIS: error= 5.08D-02 at cycle   1 NSaved=   1.
 NSaved= 1 IEnMin= 1 EnMin= -472.321231448157     IErMin= 1 ErrMin= 5.08D-02
 ErrMax= 5.08D-02  0.00D+00 EMaxC= 1.00D-01 BMatC= 8.34D-01 BMatP= 8.34D-01
 IDIUse=3 WtCom= 4.92D-01 WtEn= 5.08D-01
 Coeff-Com:  0.100D+01
 Coeff-En:   0.100D+01
 Coeff:      0.100D+01
 GapD=    2.000 DampG=2.000 DampE=0.500 DampFc=1.0000 IDamp=-1.
 RMSDP=4.06D-03 MaxDP=1.57D-01              OVMax= 0.00D+00

 Cycle   2  Pass 1  IDiag  1:
 RMSU=  4.05D-03    CP:  9.95D-01
 E= -474.156542463015     Delta-E=       -1.835311014858 Rises=F Damp=F
 DIIS: error= 1.90D-02 at cycle   2 NSaved=   2.
 NSaved= 2 IEnMin= 2 EnMin= -474.156542463015     IErMin= 2 ErrMin= 1.90D-02
 ErrMax= 1.90D-02  0.00D+00 EMaxC= 1.00D-01 BMatC= 5.48D-02 BMatP= 8.34D-01
 IDIUse=3 WtCom= 8.10D-01 WtEn= 1.90D-01
 Coeff-Com: -0.585D-01 0.106D+01
 Coeff-En:   0.000D+00 0.100D+01
 Coeff:     -0.474D-01 0.105D+01
 RMSDP=1.14D-03 MaxDP=6.44D-02 DE=-1.84D+00 OVMax= 0.00D+00

 Cycle   3  Pass 1  IDiag  1:
 RMSU=  1.09D-03    CP:  9.93D-01  1.08D+00
 E= -474.261423859704     Delta-E=       -0.104881396689 Rises=F Damp=F
 DIIS: error= 8.17D-03 at cycle   3 NSaved=   3.
 NSaved= 3 IEnMin= 3 EnMin= -474.261423859704     IErMin= 3 ErrMin= 8.17D-03
 ErrMax= 8.17D-03  0.00D+00 EMaxC= 1.00D-01 BMatC= 8.00D-03 BMatP= 5.48D-02
 IDIUse=3 WtCom= 9.18D-01 WtEn= 8.17D-02
 Coeff-Com: -0.694D-01 0.244D+00 0.825D+00
 Coeff-En:   0.000D+00 0.000D+00 0.100D+01
 Coeff:     -0.637D-01 0.224D+00 0.840D+00
 RMSDP=3.88D-04 MaxDP=2.11D-02 DE=-1.05D-01 OVMax= 0.00D+00

 Cycle   4  Pass 1  IDiag  1:
 RMSU=  2.45D-04    CP:  9.93D-01  1.15D+00  9.27D-01
 E= -474.275552100646     Delta-E=       -0.014128240941 Rises=F Damp=F
 DIIS: error= 1.57D-03 at cycle   4 NSaved=   4.
 NSaved= 4 IEnMin= 4 EnMin= -474.275552100646     IErMin= 4 ErrMin= 1.57D-03
 ErrMax= 1.57D-03  0.00D+00 EMaxC= 1.00D-01 BMatC= 3.08D-04 BMatP= 8.00D-03
 IDIUse=3 WtCom= 9.84D-01 WtEn= 1.57D-02
 Coeff-Com:  0.869D-04-0.337D-01 0.138D-01 0.102D+01
 Coeff-En:   0.000D+00 0.000D+00 0.000D+00 0.100D+01
 Coeff:      0.856D-04-0.332D-01 0.136D-01 0.102D+01
 RMSDP=1.30D-04 MaxDP=7.94D-03 DE=-1.41D-02 OVMax= 0.00D+00

 Cycle   5  Pass 1  IDiag  1:
 RMSU=  8.68D-05    CP:  9.92D-01  1.15D+00  1.01D+00  1.07D+00
 E= -474.276597752281     Delta-E=       -0.001045651636 Rises=F Damp=F
 DIIS: error= 8.61D-04 at cycle   5 NSaved=   5.
 NSaved= 5 IEnMin= 5 EnMin= -474.276597752281     IErMin= 5 ErrMin= 8.61D-04
 ErrMax= 8.61D-04  0.00D+00 EMaxC= 1.00D-01 BMatC= 6.00D-05 BMatP= 3.08D-04
 IDIUse=3 WtCom= 9.91D-01 WtEn= 8.61D-03
 Coeff-Com:  0.642D-02-0.262D-01-0.971D-01 0.202D+00 0.915D+00
 Coeff-En:   0.000D+00 0.000D+00 0.000D+00 0.000D+00 0.100D+01
 Coeff:      0.636D-02-0.260D-01-0.962D-01 0.200D+00 0.916D+00
 RMSDP=6.57D-05 MaxDP=3.60D-03 DE=-1.05D-03 OVMax= 0.00D+00

 Cycle   6  Pass 1  IDiag  1:
 RMSU=  3.85D-05    CP:  9.92D-01  1.16D+00  1.03D+00  1.28D+00  1.02D+00
 E= -474.276802560064     Delta-E=       -0.000204807782 Rises=F Damp=F
 DIIS: error= 2.14D-04 at cycle   6 NSaved=   6.
 NSaved= 6 IEnMin= 6 EnMin= -474.276802560064     IErMin= 6 ErrMin= 2.14D-04
 ErrMax= 2.14D-04  0.00D+00 EMaxC= 1.00D-01 BMatC= 8.84D-06 BMatP= 6.00D-05
 IDIUse=3 WtCom= 9.98D-01 WtEn= 2.14D-03
 Coeff-Com:  0.338D-03 0.377D-02-0.193D-01-0.104D+00 0.139D+00 0.980D+00
 Coeff-En:   0.000D+00 0.000D+00 0.000D+00 0.000D+00 0.000D+00 0.100D+01
 Coeff:      0.337D-03 0.376D-02-0.193D-01-0.104D+00 0.139D+00 0.980D+00
 RMSDP=2.71D-05 MaxDP=1.81D-03 DE=-2.05D-04 OVMax= 0.00D+00

 Cycle   7  Pass 1  IDiag  1:
 RMSU=  1.38D-05    CP:  9.92D-01  1.16D+00  1.03D+00  1.32D+00  1.20D+00
                    CP:  1.28D+00
 E= -474.276841262341     Delta-E=       -0.000038702277 Rises=F Damp=F
 DIIS: error= 7.32D-05 at cycle   7 NSaved=   7.
 NSaved= 7 IEnMin= 7 EnMin= -474.276841262341     IErMin= 7 ErrMin= 7.32D-05
 ErrMax= 7.32D-05  0.00D+00 EMaxC= 1.00D-01 BMatC= 1.07D-06 BMatP= 8.84D-06
 IDIUse=1 WtCom= 1.00D+00 WtEn= 0.00D+00
 Coeff-Com: -0.646D-03 0.307D-02 0.784D-02-0.265D-01-0.617D-01-0.718D-01
 Coeff-Com:  0.115D+01
 Coeff:     -0.646D-03 0.307D-02 0.784D-02-0.265D-01-0.617D-01-0.718D-01
 Coeff:      0.115D+01
 RMSDP=2.17D-05 MaxDP=1.27D-03 DE=-3.87D-05 OVMax= 0.00D+00

 Cycle   8  Pass 1  IDiag  1:
 RMSU=  8.08D-06    CP:  9.92D-01  1.16D+00  1.03D+00  1.35D+00  1.24D+00
                    CP:  1.70D+00  1.66D+00
 E= -474.276854990769     Delta-E=       -0.000013728428 Rises=F Damp=F
 DIIS: error= 6.64D-05 at cycle   8 NSaved=   8.
 NSaved= 8 IEnMin= 8 EnMin= -474.276854990769     IErMin= 8 ErrMin= 6.64D-05
 ErrMax= 6.64D-05  0.00D+00 EMaxC= 1.00D-01 BMatC= 7.21D-07 BMatP= 1.07D-06
 IDIUse=1 WtCom= 1.00D+00 WtEn= 0.00D+00
 Coeff-Com: -0.332D-04-0.936D-03 0.389D-02 0.194D-01-0.795D-03-0.305D+00
 Coeff-Com:  0.279D+00 0.100D+01
 Coeff:     -0.332D-04-0.936D-03 0.389D-02 0.194D-01-0.795D-03-0.305D+00
 Coeff:      0.279D+00 0.100D+01
 RMSDP=1.53D-05 MaxDP=8.81D-04 DE=-1.37D-05 OVMax= 0.00D+00

 Cycle   9  Pass 1  IDiag  1:
 RMSU=  3.31D-06    CP:  9.92D-01  1.16D+00  1.03D+00  1.36D+00  1.27D+00
                    CP:  1.93D+00  2.35D+00  1.63D+00
 E= -474.276862685040     Delta-E=       -0.000007694272 Rises=F Damp=F
 DIIS: error= 4.17D-05 at cycle   9 NSaved=   9.
 NSaved= 9 IEnMin= 9 EnMin= -474.276862685040     IErMin= 9 ErrMin= 4.17D-05
 ErrMax= 4.17D-05  0.00D+00 EMaxC= 1.00D-01 BMatC= 3.25D-07 BMatP= 7.21D-07
 IDIUse=1 WtCom= 1.00D+00 WtEn= 0.00D+00
 Coeff-Com:  0.307D-03-0.139D-02-0.354D-02 0.511D-02 0.592D-01-0.385D-01
 Coeff-Com: -0.360D+00-0.541D+00 0.188D+01
 Coeff:      0.307D-03-0.139D-02-0.354D-02 0.511D-02 0.592D-01-0.385D-01
 Coeff:     -0.360D+00-0.541D+00 0.188D+01
 RMSDP=2.44D-05 MaxDP=1.24D-03 DE=-7.69D-06 OVMax= 0.00D+00

 Cycle  10  Pass 1  IDiag  1:
 RMSU=  5.31D-06    CP:  9.92D-01  1.16D+00  1.03D+00  1.39D+00  1.29D+00
                    CP:  2.31D+00  3.00D+00  2.99D+00  2.61D+00
 E= -474.276870460410     Delta-E=       -0.000007775369 Rises=F Damp=F
 DIIS: error= 2.94D-05 at cycle  10 NSaved=  10.
 NSaved=10 IEnMin=10 EnMin= -474.276870460410     IErMin=10 ErrMin= 2.94D-05
 ErrMax= 2.94D-05  0.00D+00 EMaxC= 1.00D-01 BMatC= 1.40D-07 BMatP= 3.25D-07
 IDIUse=1 WtCom= 1.00D+00 WtEn= 0.00D+00
 Coeff-Com: -0.532D-04 0.657D-03-0.579D-03-0.134D-01 0.139D-01 0.669D-01
 Coeff-Com:  0.101D+00-0.512D+00-0.196D+00 0.154D+01
 Coeff:     -0.532D-04 0.657D-03-0.579D-03-0.134D-01 0.139D-01 0.669D-01
 Coeff:      0.101D+00-0.512D+00-0.196D+00 0.154D+01
 RMSDP=1.71D-05 MaxDP=8.61D-04 DE=-7.78D-06 OVMax= 0.00D+00

 Cycle  11  Pass 1  IDiag  1:
 RMSU=  9.31D-06    CP:  9.92D-01  1.16D+00  1.03D+00  1.41D+00  1.29D+00
                    CP:  2.55D+00  3.00D+00  3.00D+00  3.00D+00  2.77D+00
 E= -474.276873623217     Delta-E=       -0.000003162808 Rises=F Damp=F
 DIIS: error= 1.51D-05 at cycle  11 NSaved=  11.
 NSaved=11 IEnMin=11 EnMin= -474.276873623217     IErMin=11 ErrMin= 1.51D-05
 ErrMax= 1.51D-05  0.00D+00 EMaxC= 1.00D-01 BMatC= 4.30D-08 BMatP= 1.40D-07
 IDIUse=1 WtCom= 1.00D+00 WtEn= 0.00D+00
 Coeff-Com: -0.755D-04 0.297D-03 0.124D-02-0.233D-02-0.777D-02-0.251D-01
 Coeff-Com:  0.147D+00 0.108D+00-0.425D+00-0.355D+00 0.156D+01
 Coeff:     -0.755D-04 0.297D-03 0.124D-02-0.233D-02-0.777D-02-0.251D-01
 Coeff:      0.147D+00 0.108D+00-0.425D+00-0.355D+00 0.156D+01
 RMSDP=1.15D-05 MaxDP=5.62D-04 DE=-3.16D-06 OVMax= 0.00D+00

 Cycle  12  Pass 1  IDiag  1:
 RMSU=  5.44D-06    CP:  9.92D-01  1.16D+00  1.03D+00  1.42D+00  1.28D+00
                    CP:  2.70D+00  3.00D+00  3.00D+00  3.00D+00  3.00D+00
                    CP:  1.74D+00
 E= -474.276874752138     Delta-E=       -0.000001128920 Rises=F Damp=F
 DIIS: error= 9.50D-06 at cycle  12 NSaved=  12.
 NSaved=12 IEnMin=12 EnMin= -474.276874752138     IErMin=12 ErrMin= 9.50D-06
 ErrMax= 9.50D-06  0.00D+00 EMaxC= 1.00D-01 BMatC= 1.49D-08 BMatP= 4.30D-08
 IDIUse=1 WtCom= 1.00D+00 WtEn= 0.00D+00
 Coeff-Com:  0.387D-04-0.326D-03 0.721D-04 0.470D-02 0.153D-02-0.371D-01
 Coeff-Com: -0.296D-01 0.845D-01 0.311D+00-0.708D+00-0.945D-01 0.147D+01
 Coeff:      0.387D-04-0.326D-03 0.721D-04 0.470D-02 0.153D-02-0.371D-01
 Coeff:     -0.296D-01 0.845D-01 0.311D+00-0.708D+00-0.945D-01 0.147D+01
 RMSDP=6.02D-06 MaxDP=2.64D-04 DE=-1.13D-06 OVMax= 0.00D+00

 Cycle  13  Pass 1  IDiag  1:
 RMSU=  1.49D-06    CP:  9.92D-01  1.16D+00  1.03D+00  1.42D+00  1.28D+00
                    CP:  2.77D+00  3.00D+00  3.00D+00  3.00D+00  3.00D+00
                    CP:  2.12D+00  1.68D+00
 E= -474.276875096567     Delta-E=       -0.000000344429 Rises=F Damp=F
 DIIS: error= 5.01D-06 at cycle  13 NSaved=  13.
 NSaved=13 IEnMin=13 EnMin= -474.276875096567     IErMin=13 ErrMin= 5.01D-06
 ErrMax= 5.01D-06  0.00D+00 EMaxC= 1.00D-01 BMatC= 5.00D-09 BMatP= 1.49D-08
 IDIUse=1 WtCom= 1.00D+00 WtEn= 0.00D+00
 Coeff-Com:  0.162D-04-0.458D-04-0.396D-03 0.220D-03 0.259D-02 0.634D-02
 Coeff-Com: -0.191D-01-0.122D+00 0.190D+00 0.109D+00-0.287D+00-0.392D+00
 Coeff-Com:  0.151D+01
 Coeff:      0.162D-04-0.458D-04-0.396D-03 0.220D-03 0.259D-02 0.634D-02
 Coeff:     -0.191D-01-0.122D+00 0.190D+00 0.109D+00-0.287D+00-0.392D+00
 Coeff:      0.151D+01
 RMSDP=3.07D-06 MaxDP=1.34D-04 DE=-3.44D-07 OVMax= 0.00D+00

 Cycle  14  Pass 1  IDiag  1:
 RMSU=  4.82D-07    CP:  9.92D-01  1.16D+00  1.03D+00  1.42D+00  1.28D+00
                    CP:  2.79D+00  3.00D+00  3.00D+00  3.00D+00  3.00D+00
                    CP:  2.28D+00  2.00D+00  2.09D+00
 E= -474.276875214195     Delta-E=       -0.000000117628 Rises=F Damp=F
 DIIS: error= 3.42D-06 at cycle  14 NSaved=  14.
 NSaved=14 IEnMin=14 EnMin= -474.276875214195     IErMin=14 ErrMin= 3.42D-06
 ErrMax= 3.42D-06  0.00D+00 EMaxC= 1.00D-01 BMatC= 2.34D-09 BMatP= 5.00D-09
 IDIUse=1 WtCom= 1.00D+00 WtEn= 0.00D+00
 Coeff-Com: -0.329D-04 0.217D-03 0.138D-03-0.245D-02-0.358D-02 0.155D-01
 Coeff-Com:  0.480D-01-0.716D-01-0.141D+00 0.224D+00 0.281D+00-0.766D+00
 Coeff-Com: -0.487D+00 0.190D+01
 Coeff:     -0.329D-04 0.217D-03 0.138D-03-0.245D-02-0.358D-02 0.155D-01
 Coeff:      0.480D-01-0.716D-01-0.141D+00 0.224D+00 0.281D+00-0.766D+00
 Coeff:     -0.487D+00 0.190D+01
 RMSDP=3.19D-06 MaxDP=1.46D-04 DE=-1.18D-07 OVMax= 0.00D+00

 Cycle  15  Pass 1  IDiag  1:
 RMSU=  6.44D-07    CP:  9.92D-01  1.16D+00  1.03D+00  1.43D+00  1.28D+00
                    CP:  2.82D+00  3.00D+00  3.00D+00  3.00D+00  3.00D+00
                    CP:  2.43D+00  2.31D+00  3.00D+00  2.46D+00
 E= -474.276875283341     Delta-E=       -0.000000069146 Rises=F Damp=F
 DIIS: error= 2.10D-06 at cycle  15 NSaved=  15.
 NSaved=15 IEnMin=15 EnMin= -474.276875283341     IErMin=15 ErrMin= 2.10D-06
 ErrMax= 2.10D-06  0.00D+00 EMaxC= 1.00D-01 BMatC= 5.10D-10 BMatP= 2.34D-09
 IDIUse=1 WtCom= 1.00D+00 WtEn= 0.00D+00
 Coeff-Com: -0.808D-05 0.307D-04 0.171D-03-0.164D-03-0.193D-02-0.500D-03
 Coeff-Com:  0.165D-01 0.118D-01-0.457D-01-0.494D-01 0.166D+00 0.394D-01
 Coeff-Com: -0.569D+00 0.177D+00 0.126D+01
 Coeff:     -0.808D-05 0.307D-04 0.171D-03-0.164D-03-0.193D-02-0.500D-03
 Coeff:      0.165D-01 0.118D-01-0.457D-01-0.494D-01 0.166D+00 0.394D-01
 Coeff:     -0.569D+00 0.177D+00 0.126D+01
 RMSDP=1.40D-06 MaxDP=6.90D-05 DE=-6.91D-08 OVMax= 0.00D+00

 Cycle  16  Pass 1  IDiag  1:
 RMSU=  3.29D-07    CP:  9.92D-01  1.16D+00  1.03D+00  1.43D+00  1.28D+00
                    CP:  2.83D+00  3.00D+00  3.00D+00  3.00D+00  3.00D+00
                    CP:  2.49D+00  2.44D+00  3.00D+00  3.00D+00  2.40D+00
 E= -474.276875294668     Delta-E=       -0.000000011327 Rises=F Damp=F
 DIIS: error= 8.40D-07 at cycle  16 NSaved=  16.
 NSaved=16 IEnMin=16 EnMin= -474.276875294668     IErMin=16 ErrMin= 8.40D-07
 ErrMax= 8.40D-07  0.00D+00 EMaxC= 1.00D-01 BMatC= 6.58D-11 BMatP= 5.10D-10
 IDIUse=1 WtCom= 1.00D+00 WtEn= 0.00D+00
 Coeff-Com:  0.760D-05-0.503D-04-0.166D-04 0.577D-03 0.495D-03-0.318D-02
 Coeff-Com: -0.955D-02 0.977D-02 0.424D-01-0.622D-01-0.483D-01 0.159D+00
 Coeff-Com:  0.112D+00-0.434D+00 0.308D-01 0.120D+01
 Coeff:      0.760D-05-0.503D-04-0.166D-04 0.577D-03 0.495D-03-0.318D-02
 Coeff:     -0.955D-02 0.977D-02 0.424D-01-0.622D-01-0.483D-01 0.159D+00
 Coeff:      0.112D+00-0.434D+00 0.308D-01 0.120D+01
 RMSDP=3.86D-07 MaxDP=2.15D-05 DE=-1.13D-08 OVMax= 0.00D+00

 Cycle  17  Pass 1  IDiag  1:
 RMSU=  1.05D-07    CP:  9.92D-01  1.16D+00  1.03D+00  1.43D+00  1.28D+00
                    CP:  2.83D+00  3.00D+00  3.00D+00  3.00D+00  3.00D+00
                    CP:  2.50D+00  2.47D+00  3.00D+00  3.00D+00  2.84D+00
                    CP:  1.38D+00
 E= -474.276875295667     Delta-E=       -0.000000001000 Rises=F Damp=F
 DIIS: error= 5.53D-07 at cycle  17 NSaved=  17.
 NSaved=17 IEnMin=17 EnMin= -474.276875295667     IErMin=17 ErrMin= 5.53D-07
 ErrMax= 5.53D-07  0.00D+00 EMaxC= 1.00D-01 BMatC= 7.32D-12 BMatP= 6.58D-11
 IDIUse=1 WtCom= 1.00D+00 WtEn= 0.00D+00
 Coeff-Com:  0.358D-06-0.409D-06-0.186D-04-0.140D-04 0.154D-03 0.289D-03
 Coeff-Com: -0.121D-02-0.250D-02 0.336D-02 0.533D-02-0.808D-02-0.209D-01
 Coeff-Com:  0.610D-01 0.157D-02-0.106D+00-0.111D+00 0.118D+01
 Coeff:      0.358D-06-0.409D-06-0.186D-04-0.140D-04 0.154D-03 0.289D-03
 Coeff:     -0.121D-02-0.250D-02 0.336D-02 0.533D-02-0.808D-02-0.209D-01
 Coeff:      0.610D-01 0.157D-02-0.106D+00-0.111D+00 0.118D+01
 RMSDP=6.02D-08 MaxDP=4.09D-06 DE=-1.00D-09 OVMax= 0.00D+00

 Cycle  18  Pass 1  IDiag  1:
 RMSU=  2.93D-08    CP:  9.92D-01  1.16D+00  1.03D+00  1.43D+00  1.28D+00
                    CP:  2.83D+00  3.00D+00  3.00D+00  3.00D+00  3.00D+00
                    CP:  2.50D+00  2.47D+00  3.00D+00  3.00D+00  2.86D+00
                    CP:  1.41D+00  1.27D+00
 E= -474.276875295709     Delta-E=       -0.000000000042 Rises=F Damp=F
 DIIS: error= 3.16D-07 at cycle  18 NSaved=  18.
 NSaved=18 IEnMin=18 EnMin= -474.276875295709     IErMin=18 ErrMin= 3.16D-07
 ErrMax= 3.16D-07  0.00D+00 EMaxC= 1.00D-01 BMatC= 2.29D-12 BMatP= 7.32D-12
 IDIUse=1 WtCom= 1.00D+00 WtEn= 0.00D+00
 Coeff-Com: -0.219D-05 0.143D-04 0.479D-05-0.162D-03-0.125D-03 0.866D-03
 Coeff-Com:  0.256D-02-0.231D-02-0.114D-01 0.159D-01 0.155D-01-0.460D-01
 Coeff-Com: -0.290D-01 0.110D+00 0.317D-02-0.349D+00-0.998D-02 0.130D+01
 Coeff:     -0.219D-05 0.143D-04 0.479D-05-0.162D-03-0.125D-03 0.866D-03
 Coeff:      0.256D-02-0.231D-02-0.114D-01 0.159D-01 0.155D-01-0.460D-01
 Coeff:     -0.290D-01 0.110D+00 0.317D-02-0.349D+00-0.998D-02 0.130D+01
 RMSDP=4.56D-08 MaxDP=3.12D-06 DE=-4.18D-11 OVMax= 0.00D+00

 Cycle  19  Pass 1  IDiag  1:
 RMSU=  1.20D-08    CP:  9.92D-01  1.16D+00  1.03D+00  1.43D+00  1.28D+00
                    CP:  2.83D+00  3.00D+00  3.00D+00  3.00D+00  3.00D+00
                    CP:  2.51D+00  2.47D+00  3.00D+00  3.00D+00  2.91D+00
                    CP:  1.46D+00  1.47D+00  1.63D+00
 E= -474.276875295720     Delta-E=       -0.000000000011 Rises=F Damp=F
 DIIS: error= 1.20D-07 at cycle  19 NSaved=  19.
 NSaved=19 IEnMin=19 EnMin= -474.276875295720     IErMin=19 ErrMin= 1.20D-07
 ErrMax= 1.20D-07  0.00D+00 EMaxC= 1.00D-01 BMatC= 3.11D-13 BMatP= 2.29D-12
 IDIUse=1 WtCom= 1.00D+00 WtEn= 0.00D+00
 Coeff-Com: -0.950D-07 0.306D-06 0.457D-05-0.908D-06-0.287D-04-0.580D-04
 Coeff-Com:  0.224D-03 0.533D-03-0.874D-03-0.965D-03 0.213D-02 0.402D-02
 Coeff-Com: -0.123D-01-0.352D-03 0.225D-01 0.306D-01-0.243D+00 0.442D-02
 Coeff-Com:  0.119D+01
 Coeff:     -0.950D-07 0.306D-06 0.457D-05-0.908D-06-0.287D-04-0.580D-04
 Coeff:      0.224D-03 0.533D-03-0.874D-03-0.965D-03 0.213D-02 0.402D-02
 Coeff:     -0.123D-01-0.352D-03 0.225D-01 0.306D-01-0.243D+00 0.442D-02
 Coeff:      0.119D+01
 RMSDP=1.17D-08 MaxDP=1.32D-06 DE=-1.09D-11 OVMax= 0.00D+00

 Cycle  20  Pass 1  IDiag  1:
 RMSU=  3.78D-09    CP:  9.92D-01  1.16D+00  1.03D+00  1.43D+00  1.28D+00
                    CP:  2.83D+00  3.00D+00  3.00D+00  3.00D+00  3.00D+00
                    CP:  2.50D+00  2.47D+00  3.00D+00  3.00D+00  2.91D+00
                    CP:  1.46D+00  1.52D+00  1.93D+00  1.33D+00
 E= -474.276875295752     Delta-E=       -0.000000000032 Rises=F Damp=F
 DIIS: error= 3.54D-08 at cycle  20 NSaved=  20.
 NSaved=20 IEnMin=20 EnMin= -474.276875295752     IErMin=20 ErrMin= 3.54D-08
 ErrMax= 3.54D-08  0.00D+00 EMaxC= 1.00D-01 BMatC= 4.45D-14 BMatP= 3.11D-13
 IDIUse=1 WtCom= 1.00D+00 WtEn= 0.00D+00
 Coeff-Com:  0.361D-06-0.237D-05-0.478D-06 0.263D-04 0.213D-04-0.151D-03
 Coeff-Com: -0.394D-03 0.484D-03 0.166D-02-0.251D-02-0.263D-02 0.774D-02
 Coeff-Com:  0.397D-02-0.172D-01-0.167D-02 0.609D-01-0.125D-01-0.194D+00
 Coeff-Com:  0.224D-01 0.113D+01
 Coeff:      0.361D-06-0.237D-05-0.478D-06 0.263D-04 0.213D-04-0.151D-03
 Coeff:     -0.394D-03 0.484D-03 0.166D-02-0.251D-02-0.263D-02 0.774D-02
 Coeff:      0.397D-02-0.172D-01-0.167D-02 0.609D-01-0.125D-01-0.194D+00
 Coeff:      0.224D-01 0.113D+01
 RMSDP=4.61D-09 MaxDP=3.87D-07 DE=-3.18D-11 OVMax= 0.00D+00

 SCF Done:  E(RZINDO/S) =  -474.276875296     A.U. after   20 cycles
            NFock= 20  Conv=0.46D-08     -V/T= 0.9488
 KE=-9.263723669027D+03 PE= 6.787595339119D-07 EE= 4.494780794620D+03
 Leave Link  502 at Thu May  5 06:47:48 2022, MaxMem=  6710886400 cpu:              40.9 elap:               1.9
 (Enter /sw/apps/gaussian-16.0/g16/l801.exe)
 Range of M.O.s used for correlation:     1   338
 NBasis=   338 NAE=   176 NBE=   176 NFC=     0 NFV=     0
 NROrb=    338 NOA=   176 NOB=   176 NVA=   162 NVB=   162
 Leave Link  801 at Thu May  5 06:47:48 2022, MaxMem=  6710886400 cpu:               1.3 elap:               0.1
 (Enter /sw/apps/gaussian-16.0/g16/l914.exe)
 RHF ground state
 Two-electron integral symmetry not used.
 MDV=  6710886400 DFT=F DoStab=F Mixed=F DoRPA=F DoScal=F NonHer=F
 Making orbital integer symmetry assigments:
 Orbital symmetries:
       Occupied  (A) (A) (A) (A) (A) (A) (A) (A) (A) (A) (A) (A)
                 (A) (A) (A) (A) (A) (A) (A) (A) (A) (A) (A) (A)
                 (A) (A) (A) (A) (A) (A) (A) (A) (A) (A) (A) (A)
                 (A) (A) (A) (A) (A) (A) (A) (A) (A) (A) (A) (A)
                 (A) (A) (A) (A) (A) (A) (A) (A) (A) (A) (A) (A)
                 (A) (A) (A) (A) (A) (A) (A) (A) (A) (A) (A) (A)
                 (A) (A) (A) (A) (A) (A) (A) (A) (A) (A) (A) (A)
                 (A) (A) (A) (A) (A) (A) (A) (A) (A) (A) (A) (A)
                 (A) (A) (A) (A) (A) (A) (A) (A) (A) (A) (A) (A)
                 (A) (A) (A) (A) (A) (A) (A) (A) (A) (A) (A) (A)
                 (A) (A) (A) (A) (A) (A) (A) (A) (A) (A) (A) (A)
                 (A) (A) (A) (A) (A) (A) (A) (A) (A) (A) (A) (A)
                 (A) (A) (A) (A) (A) (A) (A) (A) (A) (A) (A) (A)
                 (A) (A) (A) (A) (A) (A) (A) (A) (A) (A) (A) (A)
                 (A) (A) (A) (A) (A) (A) (A) (A)
       Virtual   (A) (A) (A) (A) (A) (A) (A) (A) (A) (A) (A) (A)
                 (A) (A) (A) (A) (A) (A) (A) (A) (A) (A) (A) (A)
                 (A) (A) (A) (A) (A) (A) (A) (A) (A) (A) (A) (A)
                 (A) (A) (A) (A) (A) (A) (A) (A) (A) (A) (A) (A)
                 (A) (A) (A) (A) (A) (A) (A) (A) (A) (A) (A) (A)
                 (A) (A) (A) (A) (A) (A) (A) (A) (A) (A) (A) (A)
                 (A) (A) (A) (A) (A) (A) (A) (A) (A) (A) (A) (A)
                 (A) (A) (A) (A) (A) (A) (A) (A) (A) (A) (A) (A)
                 (A) (A) (A) (A) (A) (A) (A) (A) (A) (A) (A) (A)
                 (A) (A) (A) (A) (A) (A) (A) (A) (A) (A) (A) (A)
                 (A) (A) (A) (A) (A) (A) (A) (A) (A) (A) (A) (A)
                 (A) (A) (A) (A) (A) (A) (A) (A) (A) (A) (A) (A)
                 (A) (A) (A) (A) (A) (A) (A) (A) (A) (A) (A) (A)
                 (A) (A) (A) (A) (A) (A)
    20 initial guesses have been made.
 Convergence on wavefunction:    0.001000000000000
 Davidson Disk Diagonalization:  ConvIn= 1.00D-03 SkipCon=T Conv= 1.00D-03.
 Max sub-space:  2000 roots to seek:    20 dimension of matrix:        57024
 Iteration     1 Dimension    20 NMult     0 NNew     20
 CISAX will form    20 AO SS matrices at one time.
 NMat=    20 NSing=    20 JSym2X= 0.
 New state      3 was old state      6
 New state      5 was old state      3
 Excitation Energies [eV] at current iteration:
 Root      1 :     1.627131875877417
 Root      2 :     2.149916882334207
 Root      3 :     3.269928058929628
 Root      4 :     3.327730711994521
 Root      5 :     3.447631564376662
 Root      6 :     3.678731681684199
 Root      7 :     3.730985553575152
 Root      8 :     3.814297726592321
 Root      9 :     3.978815151624368
 Root     10 :     4.012490461231952
 Root     11 :     4.132558277117425
 Root     12 :     4.189248758866238
 Root     13 :     4.302700633488398
 Root     14 :     4.321166570612684
 Root     15 :     4.425732235092555
 Root     16 :     4.543187383519546
 Root     17 :     4.548813389435485
 Root     18 :     4.655901200226277
 Root     19 :     4.794292051631482
 Root     20 :     5.716783395986706
 Iteration     2 Dimension    40 NMult    20 NNew     20
 CISAX will form    20 AO SS matrices at one time.
 NMat=    20 NSing=    20 JSym2X= 0.
 Root      1 not converged, maximum delta is    0.048959194342074
 Root      2 not converged, maximum delta is    0.031383171440410
 New state      3 was old state      4
 Root      3 not converged, maximum delta is    0.310032221685750
 New state      4 was old state      3
 Root      4 not converged, maximum delta is    0.249373608527540
 Root      5 not converged, maximum delta is    0.320931817096756
 Excitation Energies [eV] at current iteration:
 Root      1 :     1.268315214737694   Change is   -0.358816661139723
 Root      2 :     1.928017926396663   Change is   -0.221898955937545
 Root      3 :     3.044957543064895   Change is   -0.282773168929625
 Root      4 :     3.056085852749459   Change is   -0.213842206180168
 Root      5 :     3.144800255625176   Change is   -0.302831308751487
 Root      6 :     3.410317116835577   Change is   -0.722241160281848
 Root      7 :     3.455289701466815   Change is   -0.223441980217384
 Root      8 :     3.513992511455571   Change is   -0.216993042119582
 Root      9 :     3.670237538626681   Change is   -0.342252922605270
 Root     10 :     3.682352788065680   Change is   -0.860834595453866
 Root     11 :     3.721107209158291   Change is   -0.093190517434030
 Root     12 :     3.780484805473086   Change is   -0.198330346151282
 Root     13 :     3.843072395561653   Change is   -0.346176363304586
 Root     14 :     4.048517746701746   Change is   -0.254182886786652
 Root     15 :     4.064214001014250   Change is   -0.361518234078305
 Root     16 :     4.215151809824974   Change is   -0.106014760787711
 Root     17 :     4.488612616366496   Change is   -0.060200773068989
 Root     18 :     4.576689702881095   Change is   -0.217602348750388
 Root     19 :     4.647403339221219   Change is   -0.008497861005059
 Root     20 :     5.647742316135719
 Iteration     3 Dimension    45 NMult    40 NNew      5
 CISAX will form     5 AO SS matrices at one time.
 NMat=     5 NSing=     5 JSym2X= 0.
 Root      1 not converged, maximum delta is    0.010101816884621
 Root      2 not converged, maximum delta is    0.016887588093321
 Root      3 not converged, maximum delta is    0.136163792168673
 Root      4 not converged, maximum delta is    0.127605981381531
 Root      5 not converged, maximum delta is    0.026541876384674
 Excitation Energies [eV] at current iteration:
 Root      1 :     1.251336547319950   Change is   -0.016978667417744
 Root      2 :     1.903153887441478   Change is   -0.024864038955185
 Root      3 :     3.015012626810562   Change is   -0.029944916254333
 Root      4 :     3.030162321628889   Change is   -0.025923531120571
 Root      5 :     3.116216015619201   Change is   -0.028584240005975
 Iteration     4 Dimension    50 NMult    45 NNew      5
 CISAX will form     5 AO SS matrices at one time.
 NMat=     5 NSing=     5 JSym2X= 0.
 Root      1 not converged, maximum delta is    0.002471546566432
 Root      2 not converged, maximum delta is    0.002353536841509
 Root      3 not converged, maximum delta is    0.054134325700998
 Root      4 not converged, maximum delta is    0.004361146111028
 Root      5 not converged, maximum delta is    0.099632086643484
 Excitation Energies [eV] at current iteration:
 Root      1 :     1.250475777834102   Change is   -0.000860769485848
 Root      2 :     1.902528181927531   Change is   -0.000625705513946
 Root      3 :     3.007657550770987   Change is   -0.007355076039576
 Root      4 :     3.028101055535492   Change is   -0.002061266093396
 Root      5 :     3.105727730757998   Change is   -0.010488284861202
 Iteration     5 Dimension    55 NMult    50 NNew      5
 CISAX will form     5 AO SS matrices at one time.
 NMat=     5 NSing=     5 JSym2X= 0.
 Root      1 has converged.
 Root      2 has converged.
 Root      3 not converged, maximum delta is    0.265120391387044
 New state      4 was old state      5
 Root      4 not converged, maximum delta is    0.531566130836264
 New state      5 was old state      4
 Root      5 not converged, maximum delta is    0.039850966933228
 Excitation Energies [eV] at current iteration:
 Root      1 :     1.250425085394250   Change is   -0.000050692439852
 Root      2 :     1.902481057602378   Change is   -0.000047124325154
 Root      3 :     2.933331860364020   Change is   -0.074325690406966
 Root      4 :     3.024132737535671   Change is   -0.081594993222327
 Root      5 :     3.027864098974712   Change is   -0.000236956560781
 Iteration     6 Dimension    58 NMult    55 NNew      3
 CISAX will form     3 AO SS matrices at one time.
 NMat=     3 NSing=     3 JSym2X= 0.
 Root      1 has converged.
 Root      2 has converged.
 Root      3 not converged, maximum delta is    0.044751300947068
 Root      4 not converged, maximum delta is    0.043918816871746
 Root      5 not converged, maximum delta is    0.021726441043600
 Excitation Energies [eV] at current iteration:
 Root      1 :     1.250424670015402   Change is   -0.000000415378848
 Root      2 :     1.902479938309592   Change is   -0.000001119292786
 Root      3 :     2.897297794387358   Change is   -0.036034065976662
 Root      4 :     3.020236014586863   Change is   -0.003896722948808
 Root      5 :     3.027786537203578   Change is   -0.000077561771133
 Iteration     7 Dimension    61 NMult    58 NNew      3
 CISAX will form     3 AO SS matrices at one time.
 NMat=     3 NSing=     3 JSym2X= 0.
 Root      1 has converged.
 Root      2 has converged.
 Root      3 not converged, maximum delta is    0.024410421068572
 Root      4 not converged, maximum delta is    0.035678248782276
 Root      5 not converged, maximum delta is    0.013603407091402
 Excitation Energies [eV] at current iteration:
 Root      1 :     1.250424563476900   Change is   -0.000000106538503
 Root      2 :     1.902478993616906   Change is   -0.000000944692686
 Root      3 :     2.891263615681626   Change is   -0.006034178705732
 Root      4 :     3.019060678829677   Change is   -0.001175335757186
 Root      5 :     3.027670315924175   Change is   -0.000116221279403
 Iteration     8 Dimension    64 NMult    61 NNew      3
 CISAX will form     3 AO SS matrices at one time.
 NMat=     3 NSing=     3 JSym2X= 0.
 Root      1 has converged.
 Root      2 has converged.
 Root      3 not converged, maximum delta is    0.033387443047420
 Root      4 not converged, maximum delta is    0.325630233739400
 No map to state      5
 Excitation Energies [eV] at current iteration:
 Root      1 :     1.250424499770943   Change is   -0.000000063705957
 Root      2 :     1.902478636242837   Change is   -0.000000357374069
 Root      3 :     2.889610649609989   Change is   -0.001652966071638
 Root      4 :     2.951053006447014   Change is   -0.068007672382663
 Root      5 :     3.020451613304873
 Iteration     9 Dimension    67 NMult    64 NNew      3
 CISAX will form     3 AO SS matrices at one time.
 NMat=     3 NSing=     3 JSym2X= 0.
 Root      1 has converged.
 Root      2 has converged.
 Root      3 not converged, maximum delta is    0.038798665494220
 Root      4 not converged, maximum delta is    0.034966565742038
 Root      5 not converged, maximum delta is    0.010366303872695
 Excitation Energies [eV] at current iteration:
 Root      1 :     1.250424442215711   Change is   -0.000000057555232
 Root      2 :     1.902478287952337   Change is   -0.000000348290501
 Root      3 :     2.888509568244907   Change is   -0.001101081365082
 Root      4 :     2.925297851767712   Change is   -0.025755154679301
 Root      5 :     3.020186007721654   Change is   -0.000265605583218
 Iteration    10 Dimension    70 NMult    67 NNew      3
 CISAX will form     3 AO SS matrices at one time.
 NMat=     3 NSing=     3 JSym2X= 0.
 Root      1 has converged.
 Root      2 has converged.
 Root      3 not converged, maximum delta is    0.015998200112256
 Root      4 not converged, maximum delta is    0.016862262577125
 Root      5 not converged, maximum delta is    0.001896175956675
 Excitation Energies [eV] at current iteration:
 Root      1 :     1.250424226332186   Change is   -0.000000215883525
 Root      2 :     1.902477811333892   Change is   -0.000000476618445
 Root      3 :     2.888016950397813   Change is   -0.000492617847093
 Root      4 :     2.920297291147361   Change is   -0.005000560620352
 Root      5 :     3.020132405525745   Change is   -0.000053602195910
 Iteration    11 Dimension    73 NMult    70 NNew      3
 CISAX will form     3 AO SS matrices at one time.
 NMat=     3 NSing=     3 JSym2X= 0.
 Root      1 has converged.
 Root      2 has converged.
 Root      3 not converged, maximum delta is    0.003882915320267
 Root      4 not converged, maximum delta is    0.004987889936113
 Root      5 has converged.
 Excitation Energies [eV] at current iteration:
 Root      1 :     1.250424104685841   Change is   -0.000000121646345
 Root      2 :     1.902477536007219   Change is   -0.000000275326673
 Root      3 :     2.887886751667178   Change is   -0.000130198730636
 Root      4 :     2.919337412188866   Change is   -0.000959878958494
 Root      5 :     3.020118867825436   Change is   -0.000013537700309
 Iteration    12 Dimension    75 NMult    73 NNew      2
 CISAX will form     2 AO SS matrices at one time.
 NMat=     2 NSing=     2 JSym2X= 0.
 Root      1 has converged.
 Root      2 has converged.
 Root      3 has converged.
 Root      4 not converged, maximum delta is    0.001089901647261
 Root      5 has converged.
 Excitation Energies [eV] at current iteration:
 Root      1 :     1.250424045944174   Change is   -0.000000058741667
 Root      2 :     1.902477495716771   Change is   -0.000000040290448
 Root      3 :     2.887866710904994   Change is   -0.000020040762183
 Root      4 :     2.919199250226631   Change is   -0.000138161962235
 Root      5 :     3.020116690626835   Change is   -0.000002177198601
 Iteration    13 Dimension    76 NMult    75 NNew      1
 CISAX will form     1 AO SS matrices at one time.
 NMat=     1 NSing=     1 JSym2X= 0.
 Root      1 has converged.
 Root      2 has converged.
 Root      3 has converged.
 Root      4 has converged.
 Root      5 has converged.
 Excitation Energies [eV] at current iteration:
 Root      1 :     1.250424034819081   Change is   -0.000000011125093
 Root      2 :     1.902477495713381   Change is   -0.000000000003390
 Root      3 :     2.887864022855817   Change is   -0.000002688049178
 Root      4 :     2.919181159574070   Change is   -0.000018090652561
 Root      5 :     3.020116415724140   Change is   -0.000000274902696
 Convergence achieved on expansion vectors.
 ***********************************************************************
 Excited states from <AA,BB:AA,BB> singles matrix:
 ***********************************************************************
 
 1PDM for each excited state written to RWF  633
 Ground to excited state transition densities written to RWF  633
 Ground to excited state transition electric dipole moments (Au):
       state          X           Y           Z        Dip. S.      Osc.
         1        -2.6344      3.6986     -0.3191     20.7218      0.6348
         2         1.1637      1.0751     -0.0569      2.5131      0.1171
         3        -0.2753     -0.3895      0.0676      0.2321      0.0164
         4        -0.0487     -0.0389      0.0242      0.0045      0.0003
         5        -1.9157     -1.4768      0.0259      5.8515      0.4330
 Ground to excited state transition velocity dipole moments (Au):
       state          X           Y           Z        Dip. S.      Osc.
         1        -0.0612      0.0320      0.0005      0.0048      0.0692
         2        -0.0010     -0.0156     -0.0023      0.0003      0.0024
         3         0.0029      0.0049      0.0061      0.0001      0.0004
         4         0.0072     -0.0070      0.0070      0.0001      0.0009
         5         0.0785      0.0373      0.0028      0.0076      0.0454
 Ground to excited state transition magnetic dipole moments (Au):
       state          X           Y           Z
         1         0.0781     -0.0576     -0.0142
         2         0.0295      0.0213     -0.3400
         3         0.2944     -0.6664      0.0329
         4        -0.4940     -0.5809     -0.0421
         5        -0.1055      0.1823      0.8074
 Ground to excited state transition velocity quadrupole moments (Au):
       state          XX          YY          ZZ          XY          XZ          YZ
         1        -1.2987      0.0868      0.0186      0.3312      0.0004      0.1374
         2         0.1240     -0.0158      0.0137     -0.0651     -0.0088      0.0592
         3         0.0879      0.0111      0.0309      0.1131      0.0323     -0.0975
         4         0.1214     -0.1604     -0.0307      0.0249      0.0181      0.1053
         5         1.8659     -0.5690      0.0378      0.7613      0.0018      0.0381
 <0|del|b> * <b|rxdel|0> + <0|del|b> * <b|delr+rdel|0>
 Rotatory Strengths (R) in cgs (10**-40 erg-esu-cm/Gauss)
       state          XX          YY          ZZ    R(velocity)    E-M Angle
         1       -12.9784   -102.8953     13.8354    -34.0128      168.21
         2         2.3648      2.7673     -0.8338      1.4328       85.50
         3        -8.5486      0.2388     -6.7327     -5.0142      111.72
         4        13.3678    -10.7643     -1.2877      0.4386       88.77
         5        35.5976    -16.4432    -14.0516      1.7009       89.37
 1/2[<0|r|b>*<b|rxdel|0> + (<0|rxdel|b>*<b|r|0>)*]
 Rotatory Strengths (R) in cgs (10**-40 erg-esu-cm/Gauss)
       state          XX          YY          ZZ     R(length)
         1       145.4800    150.7751     -3.1967     97.6861
         2       -24.2365    -16.2189    -13.6747    -18.0434
         3        57.3229   -183.5769     -1.5748    -42.6096
         4       -16.9950    -15.9854      0.7202    -10.7534
         5      -142.9663    190.3320    -14.7727     10.8643
  1/2[<0|del|b>*<b|r|0> + (<0|r|b>*<b|del|0>)*] (Au)
       state          X           Y           Z        Dip. S.   Osc.(frdel)
         1         0.1612      0.1184     -0.0002     -0.2794     -0.1863
         2        -0.0012     -0.0168      0.0001      0.0178      0.0119
         3        -0.0008     -0.0019      0.0004      0.0023      0.0015
         4        -0.0004      0.0003      0.0002     -0.0001     -0.0001
         5        -0.1504     -0.0551      0.0001      0.2054      0.1369

 Excitation energies and oscillator strengths:
 
 Excited State   1:      Singlet-A      1.2504 eV  991.54 nm  f=0.6348  <S**2>=0.000
     175 ->178        -0.19693
     176 ->177         0.66066
 This state for optimization and/or second-order correction.
 Total Energy, E(CIS/TDA) =  -474.230923058    
 Copying the excited state density for this state as the 1-particle RhoCI density.
 
 Excited State   2:      Singlet-A      1.9025 eV  651.70 nm  f=0.1171  <S**2>=0.000
     175 ->177         0.58300
     176 ->178         0.37267
 
 Excited State   3:      Singlet-A      2.8879 eV  429.33 nm  f=0.0164  <S**2>=0.000
     167 ->179         0.10582
     168 ->179        -0.14148
     169 ->177        -0.10149
     169 ->179         0.10931
     170 ->177         0.35614
     170 ->179        -0.35744
     170 ->180         0.19712
     170 ->186        -0.14639
     173 ->177         0.10758
 
 Excited State   4:      Singlet-A      2.9192 eV  424.72 nm  f=0.0003  <S**2>=0.000
     168 ->177         0.30393
     168 ->178         0.18654
     168 ->179         0.30096
     168 ->180         0.36714
     168 ->182        -0.14001
     168 ->186         0.18481
     168 ->188         0.12372
     170 ->179        -0.10169
 
 Excited State   5:      Singlet-A      3.0201 eV  410.53 nm  f=0.4330  <S**2>=0.000
     172 ->177        -0.25139
     173 ->177         0.30895
     175 ->177        -0.22520
     176 ->178         0.32959
     176 ->179         0.35022
     176 ->180         0.10565
 SavETr:  write IOETrn=   770 NScale= 10 NData=  16 NLR=1 NState=    5 LETran=     100.
 Leave Link  914 at Thu May  5 06:47:53 2022, MaxMem=  6710886400 cpu:             120.7 elap:               5.1
 (Enter /sw/apps/gaussian-16.0/g16/l601.exe)
 Copying SCF densities to generalized density rwf, IOpCl= 0 IROHF=0.

 **********************************************************************

            Population analysis using the SCF density.

 **********************************************************************

 Orbital symmetries:
       Occupied  (A) (A) (A) (A) (A) (A) (A) (A) (A) (A) (A) (A)
                 (A) (A) (A) (A) (A) (A) (A) (A) (A) (A) (A) (A)
                 (A) (A) (A) (A) (A) (A) (A) (A) (A) (A) (A) (A)
                 (A) (A) (A) (A) (A) (A) (A) (A) (A) (A) (A) (A)
                 (A) (A) (A) (A) (A) (A) (A) (A) (A) (A) (A) (A)
                 (A) (A) (A) (A) (A) (A) (A) (A) (A) (A) (A) (A)
                 (A) (A) (A) (A) (A) (A) (A) (A) (A) (A) (A) (A)
                 (A) (A) (A) (A) (A) (A) (A) (A) (A) (A) (A) (A)
                 (A) (A) (A) (A) (A) (A) (A) (A) (A) (A) (A) (A)
                 (A) (A) (A) (A) (A) (A) (A) (A) (A) (A) (A) (A)
                 (A) (A) (A) (A) (A) (A) (A) (A) (A) (A) (A) (A)
                 (A) (A) (A) (A) (A) (A) (A) (A) (A) (A) (A) (A)
                 (A) (A) (A) (A) (A) (A) (A) (A) (A) (A) (A) (A)
                 (A) (A) (A) (A) (A) (A) (A) (A) (A) (A) (A) (A)
                 (A) (A) (A) (A) (A) (A) (A) (A)
       Virtual   (A) (A) (A) (A) (A) (A) (A) (A) (A) (A) (A) (A)
                 (A) (A) (A) (A) (A) (A) (A) (A) (A) (A) (A) (A)
                 (A) (A) (A) (A) (A) (A) (A) (A) (A) (A) (A) (A)
                 (A) (A) (A) (A) (A) (A) (A) (A) (A) (A) (A) (A)
                 (A) (A) (A) (A) (A) (A) (A) (A) (A) (A) (A) (A)
                 (A) (A) (A) (A) (A) (A) (A) (A) (A) (A) (A) (A)
                 (A) (A) (A) (A) (A) (A) (A) (A) (A) (A) (A) (A)
                 (A) (A) (A) (A) (A) (A) (A) (A) (A) (A) (A) (A)
                 (A) (A) (A) (A) (A) (A) (A) (A) (A) (A) (A) (A)
                 (A) (A) (A) (A) (A) (A) (A) (A) (A) (A) (A) (A)
                 (A) (A) (A) (A) (A) (A) (A) (A) (A) (A) (A) (A)
                 (A) (A) (A) (A) (A) (A) (A) (A) (A) (A) (A) (A)
                 (A) (A) (A) (A) (A) (A) (A) (A) (A) (A) (A) (A)
                 (A) (A) (A) (A) (A) (A)
 The electronic state is 1-A.
 Alpha  occ. eigenvalues --   -1.86067  -1.83468  -1.81550  -1.73057  -1.70488
 Alpha  occ. eigenvalues --   -1.70229  -1.65943  -1.62098  -1.56587  -1.56209
 Alpha  occ. eigenvalues --   -1.55752  -1.51657  -1.48683  -1.48224  -1.46451
 Alpha  occ. eigenvalues --   -1.42903  -1.41460  -1.39878  -1.38948  -1.38201
 Alpha  occ. eigenvalues --   -1.35340  -1.33566  -1.32683  -1.31676  -1.29390
 Alpha  occ. eigenvalues --   -1.27366  -1.25092  -1.21817  -1.19890  -1.18760
 Alpha  occ. eigenvalues --   -1.17624  -1.15757  -1.15727  -1.15172  -1.14746
 Alpha  occ. eigenvalues --   -1.13550  -1.11889  -1.10746  -1.04816  -1.02986
 Alpha  occ. eigenvalues --   -1.02575  -1.01090  -0.99134  -0.98321  -0.97686
 Alpha  occ. eigenvalues --   -0.95879  -0.94605  -0.94004  -0.93466  -0.92191
 Alpha  occ. eigenvalues --   -0.91254  -0.90315  -0.89566  -0.88208  -0.87308
 Alpha  occ. eigenvalues --   -0.85927  -0.85120  -0.83520  -0.82004  -0.81250
 Alpha  occ. eigenvalues --   -0.79710  -0.77867  -0.77276  -0.76580  -0.75778
 Alpha  occ. eigenvalues --   -0.75220  -0.75093  -0.74704  -0.74394  -0.73522
 Alpha  occ. eigenvalues --   -0.73096  -0.72717  -0.72346  -0.71374  -0.70692
 Alpha  occ. eigenvalues --   -0.70467  -0.69913  -0.68876  -0.68045  -0.67806
 Alpha  occ. eigenvalues --   -0.67432  -0.66820  -0.66235  -0.65869  -0.65484
 Alpha  occ. eigenvalues --   -0.65304  -0.64497  -0.64079  -0.63532  -0.63142
 Alpha  occ. eigenvalues --   -0.62928  -0.62903  -0.62804  -0.62262  -0.62231
 Alpha  occ. eigenvalues --   -0.61912  -0.61075  -0.60832  -0.60480  -0.59697
 Alpha  occ. eigenvalues --   -0.59301  -0.59156  -0.58922  -0.58768  -0.58500
 Alpha  occ. eigenvalues --   -0.57670  -0.57142  -0.57102  -0.56799  -0.56276
 Alpha  occ. eigenvalues --   -0.55636  -0.55486  -0.55214  -0.54959  -0.54934
 Alpha  occ. eigenvalues --   -0.54472  -0.54352  -0.53469  -0.53233  -0.53119
 Alpha  occ. eigenvalues --   -0.52906  -0.52501  -0.51915  -0.51754  -0.51307
 Alpha  occ. eigenvalues --   -0.50702  -0.50518  -0.50309  -0.50163  -0.49968
 Alpha  occ. eigenvalues --   -0.49760  -0.49737  -0.49238  -0.49094  -0.48722
 Alpha  occ. eigenvalues --   -0.48335  -0.48260  -0.48090  -0.48062  -0.47628
 Alpha  occ. eigenvalues --   -0.47383  -0.47196  -0.47152  -0.46698  -0.46547
 Alpha  occ. eigenvalues --   -0.46431  -0.45858  -0.45770  -0.45227  -0.45104
 Alpha  occ. eigenvalues --   -0.44979  -0.44608  -0.44507  -0.44071  -0.43918
 Alpha  occ. eigenvalues --   -0.43865  -0.42943  -0.42357  -0.42339  -0.42038
 Alpha  occ. eigenvalues --   -0.41850  -0.40902  -0.40216  -0.39069  -0.38932
 Alpha  occ. eigenvalues --   -0.38402  -0.36903  -0.35329  -0.35045  -0.34915
 Alpha  occ. eigenvalues --   -0.33881  -0.32713  -0.32134  -0.31672  -0.26493
 Alpha  occ. eigenvalues --   -0.22320
 Alpha virt. eigenvalues --   -0.09119  -0.02159  -0.01051   0.00803   0.01187
 Alpha virt. eigenvalues --    0.02564   0.02889   0.03104   0.04209   0.04953
 Alpha virt. eigenvalues --    0.06411   0.06472   0.07244   0.07524   0.07892
 Alpha virt. eigenvalues --    0.08452   0.08770   0.08929   0.09312   0.09863
 Alpha virt. eigenvalues --    0.09957   0.09987   0.10060   0.10414   0.10595
 Alpha virt. eigenvalues --    0.11085   0.11241   0.11542   0.11581   0.11924
 Alpha virt. eigenvalues --    0.12417   0.12631   0.12766   0.13164   0.13530
 Alpha virt. eigenvalues --    0.13602   0.13843   0.14156   0.14823   0.15003
 Alpha virt. eigenvalues --    0.15208   0.15500   0.15688   0.15770   0.15787
 Alpha virt. eigenvalues --    0.15921   0.16204   0.16665   0.16858   0.16868
 Alpha virt. eigenvalues --    0.17239   0.17658   0.17791   0.17919   0.18008
 Alpha virt. eigenvalues --    0.18352   0.18597   0.18895   0.19149   0.19406
 Alpha virt. eigenvalues --    0.19617   0.19732   0.19821   0.20567   0.20963
 Alpha virt. eigenvalues --    0.21542   0.21803   0.22687   0.22896   0.23382
 Alpha virt. eigenvalues --    0.23617   0.23933   0.24033   0.24037   0.24091
 Alpha virt. eigenvalues --    0.24398   0.24524   0.24696   0.24733   0.24804
 Alpha virt. eigenvalues --    0.24916   0.24921   0.25025   0.25039   0.25076
 Alpha virt. eigenvalues --    0.25104   0.25329   0.25342   0.25386   0.25419
 Alpha virt. eigenvalues --    0.25564   0.25714   0.25798   0.25821   0.25879
 Alpha virt. eigenvalues --    0.25920   0.26062   0.26108   0.26113   0.26208
 Alpha virt. eigenvalues --    0.26288   0.26323   0.26330   0.26507   0.26519
 Alpha virt. eigenvalues --    0.26721   0.26739   0.26912   0.26997   0.27070
 Alpha virt. eigenvalues --    0.27086   0.27188   0.27643   0.27838   0.27871
 Alpha virt. eigenvalues --    0.27954   0.28271   0.28358   0.28579   0.29541
 Alpha virt. eigenvalues --    0.29886   0.29910   0.30179   0.30886   0.31536
 Alpha virt. eigenvalues --    0.31957   0.32660   0.33447   0.33902   0.34803
 Alpha virt. eigenvalues --    0.34992   0.35250   0.35454   0.35692   0.35932
 Alpha virt. eigenvalues --    0.36701   0.37058   0.37257   0.37818   0.38775
 Alpha virt. eigenvalues --    0.38788   0.39094   0.39870   0.40475   0.40913
 Alpha virt. eigenvalues --    0.41158   0.41337   0.41650   0.41882   0.42755
 Alpha virt. eigenvalues --    0.43301   0.44482   0.44813   0.45359   0.47063
 Alpha virt. eigenvalues --    0.47441   0.48233   0.48524   0.51223   0.53641
 Alpha virt. eigenvalues --    0.54789   0.55459
          Condensed to atoms (all electrons):
 Mulliken charges:
               1
     1  Mg   0.422761
     2  C   -0.048073
     3  C   -0.076971
     4  C   -0.064382
     5  C   -0.085175
     6  N   -0.281257
     7  C    0.159304
     8  C   -0.006051
     9  C   -0.005725
    10  C    0.117602
    11  C   -0.057650
    12  C   -0.024185
    13  C    0.009508
    14  C    0.468566
    15  O   -0.526008
    16  O   -0.270343
    17  N   -0.314105
    18  C    0.109883
    19  C    0.004971
    20  C   -0.032838
    21  C    0.120749
    22  C   -0.050965
    23  C    0.318849
    24  O   -0.527400
    25  C   -0.046878
    26  N   -0.234691
    27  C    0.133708
    28  C   -0.002012
    29  C    0.020724
    30  C    0.138326
    31  C   -0.053815
    32  C   -0.019013
    33  C   -0.056626
    34  N   -0.343997
    35  C    0.110194
    36  C    0.049226
    37  C   -0.062139
    38  C    0.127703
    39  C   -0.029776
    40  C    0.320086
    41  O   -0.535658
    42  C    0.059882
    43  C    0.493856
    44  O   -0.521284
    45  O   -0.269437
    46  C    0.076977
    47  C    0.105865
    48  C   -0.084569
    49  C   -0.011264
    50  C   -0.044325
    51  C   -0.022137
    52  C   -0.025190
    53  C   -0.047616
    54  C   -0.013222
    55  C   -0.045469
    56  C   -0.043181
    57  C   -0.046448
    58  C   -0.038024
    59  C   -0.009657
    60  C   -0.055433
    61  C   -0.043772
    62  C   -0.037295
    63  C   -0.026671
    64  C   -0.019307
    65  C   -0.062960
    66  C   -0.061702
    67  H    0.028398
    68  H    0.046959
    69  H    0.038896
    70  H    0.047126
    71  H    0.032634
    72  H    0.034801
    73  H    0.019947
    74  H    0.017147
    75  H    0.026992
    76  H    0.017856
    77  H    0.034986
    78  H    0.039319
    79  H    0.031375
    80  H    0.025358
    81  H    0.020130
    82  H    0.043616
    83  H    0.034637
    84  H    0.034546
    85  H    0.034166
    86  H    0.023231
    87  H    0.020911
    88  H    0.032045
    89  H    0.017402
    90  H    0.007388
    91  H    0.018474
    92  H    0.012710
    93  H    0.029324
    94  H    0.023059
    95  H    0.042020
    96  H    0.022979
    97  H    0.033728
    98  H    0.066572
    99  H    0.030269
   100  H    0.034855
   101  H    0.051944
   102  H    0.061955
   103  H    0.039961
   104  H    0.026453
   105  H    0.020289
   106  H    0.039747
   107  H    0.022879
   108  H    0.007163
   109  H    0.026608
   110  H    0.023117
   111  H    0.026261
   112  H    0.015087
   113  H    0.022576
   114  H    0.028383
   115  H    0.007855
   116  H    0.017345
   117  H    0.019983
   118  H    0.019571
   119  H    0.025747
   120  H    0.013148
   121  H    0.009915
   122  H    0.013937
   123  H    0.017943
   124  H    0.026581
   125  H    0.013122
   126  H    0.023371
   127  H    0.024677
   128  H    0.020826
   129  H    0.011841
   130  H    0.008687
   131  H    0.026291
   132  H    0.022872
   133  H    0.014972
   134  H    0.020094
   135  H    0.021910
   136  H    0.020623
   137  H    0.012290
   138  H    0.017065
   139  H    0.022955
   140  H    0.026056
 Sum of Mulliken charges =  -0.00000
 Mulliken charges with hydrogens summed into heavy atoms:
               1
     1  Mg   0.422761
     2  C   -0.048073
     3  C   -0.048573
     4  C   -0.017423
     5  C   -0.046279
     6  N   -0.281257
     7  C    0.159304
     8  C    0.041075
     9  C    0.026909
    10  C    0.117602
    11  C    0.014245
    12  C    0.020664
    13  C    0.083813
    14  C    0.468566
    15  O   -0.526008
    16  O   -0.270343
    17  N   -0.314105
    18  C    0.109883
    19  C    0.004971
    20  C   -0.032838
    21  C    0.120749
    22  C    0.025898
    23  C    0.318849
    24  O   -0.527400
    25  C    0.065920
    26  N   -0.234691
    27  C    0.133708
    28  C    0.032154
    29  C    0.043955
    30  C    0.138326
    31  C    0.016543
    32  C    0.006848
    33  C    0.008466
    34  N   -0.343997
    35  C    0.110194
    36  C    0.049226
    37  C   -0.062139
    38  C    0.127703
    39  C    0.068950
    40  C    0.320086
    41  O   -0.535658
    42  C    0.126453
    43  C    0.493856
    44  O   -0.521284
    45  O   -0.269437
    46  C    0.194046
    47  C    0.207781
    48  C   -0.058116
    49  C   -0.011264
    50  C    0.038589
    51  C    0.011634
    52  C    0.024188
    53  C   -0.009953
    54  C    0.015161
    55  C   -0.000287
    56  C    0.002137
    57  C   -0.023384
    58  C   -0.006144
    59  C    0.016924
    60  C    0.005737
    61  C   -0.011105
    62  C   -0.002317
    63  C    0.011174
    64  C    0.000787
    65  C   -0.008138
    66  C    0.004373
 Charge=              0.0000 electrons
 Dipole moment (field-independent basis, Debye):
    X=             -5.1096    Y=              2.7447    Z=              3.7945  Tot=              6.9310
 N-N= 4.294665998432D+03 E-N= 0.000000000000D+00  KE=-9.263723669027D+03
 Leave Link  601 at Thu May  5 06:47:53 2022, MaxMem=  6710886400 cpu:               5.8 elap:               0.3
 (Enter /sw/apps/gaussian-16.0/g16/l9999.exe)
 1\1\GINC-BP1-COMPUTE130\SP\RZINDO CIS\STO-3G\C55H74Mg1N4O6\OF15641\05-
 May-2022\0\\#p ZINDO=(nstates=5)\\step_651_chromophore_18 ZINDO\\0,1\M
 g,0,34.693,49.332,24.259\C,0,34.831,47.552,27.338\C,0,33.17,51.957,25.
 95\C,0,34.383,50.906,21.372\C,0,36.004,46.47,22.623\N,0,34.201,49.7,26
 .43\C,0,34.353,48.843,27.432\C,0,33.931,49.517,28.753\C,0,33.316,50.88
 8,28.299\C,0,33.559,50.886,26.764\C,0,31.795,51.061,28.761\C,0,35.115,
 49.646,29.796\C,0,34.845,49.245,31.298\C,0,33.381,49.116,31.753\O,0,32
 .746,48.038,31.885\O,0,32.777,50.325,32.04\N,0,33.96,51.168,23.791\C,0
 ,33.39,52.133,24.548\C,0,33.086,53.271,23.782\C,0,33.342,52.974,22.452
 \C,0,33.941,51.653,22.504\C,0,32.494,54.542,24.466\C,0,32.925,53.686,2
 1.226\O,0,33.21,53.464,20.032\C,0,32.119,55.043,21.447\N,0,35.079,48.7
 59,22.285\C,0,34.926,49.612,21.289\C,0,35.244,48.936,19.929\C,0,36.024
 ,47.717,20.409\C,0,35.646,47.644,21.846\C,0,33.902,48.718,19.149\C,0,3
 7.482,47.77,20.125\C,0,38.39,48.884,20.662\N,0,35.198,47.365,24.782\C,
 0,35.801,46.372,24.039\C,0,36.145,45.284,24.845\C,0,35.783,45.736,26.1
 79\C,0,35.196,46.993,26.103\C,0,36.773,43.983,24.58\C,0,35.78,45.263,2
 7.52\O,0,36.119,44.114,27.919\C,0,35.093,46.449,28.428\C,0,33.804,45.9
 93,28.91\O,0,32.655,46.223,28.477\O,0,34.045,45.212,30.056\C,0,32.881,
 44.739,30.757\C,0,31.361,50.363,32.368\C,0,30.815,51.772,32.356\C,0,29
 .863,52.299,33.127\C,0,28.81,51.564,33.99\C,0,29.864,53.783,33.334\C,0
 ,30.826,54.33,34.443\C,0,31.285,55.761,34.147\C,0,31.094,56.73,35.396\
 C,0,32.362,57.05,36.03\C,0,30.238,58.049,34.986\C,0,29.468,58.412,36.3
 18\C,0,29.627,59.856,36.827\C,0,28.704,60.884,36.146\C,0,29.514,61.639
 ,35.128\C,0,28.114,61.827,37.269\C,0,26.707,62.386,36.947\C,0,26.538,6
 3.875,37.162\C,0,26.547,64.621,35.844\C,0,26.824,66.096,36.164\C,0,25.
 202,64.468,34.945\H,0,32.717,52.786,26.498\H,0,34.292,51.456,20.432\H,
 0,36.246,45.543,22.099\H,0,33.158,48.888,29.193\H,0,33.92,51.58,28.885
 \H,0,31.357,50.232,29.317\H,0,31.081,51.168,27.945\H,0,31.762,51.994,2
 9.325\H,0,35.619,50.613,29.801\H,0,35.888,48.982,29.409\H,0,35.308,49.
 953,31.985\H,0,35.385,48.315,31.479\H,0,31.444,54.755,24.263\H,0,33.10
 4,55.399,24.183\H,0,32.535,54.5,25.554\H,0,32.748,55.71,22.036\H,0,31.
 11,54.915,21.839\H,0,31.927,55.343,20.417\H,0,35.764,49.519,19.169\H,0
 ,35.695,46.759,20.008\H,0,33.949,49.303,18.23\H,0,33.048,49.017,19.758
 \H,0,33.784,47.697,18.788\H,0,37.593,47.947,19.055\H,0,37.91,46.776,20
 .257\H,0,39.136,48.473,21.342\H,0,37.982,49.665,21.304\H,0,38.888,49.2
 7,19.773\H,0,37.094,43.448,25.474\H,0,37.622,44.12,23.91\H,0,36.066,43
 .332,24.067\H,0,35.729,46.847,29.218\H,0,33.118,44.215,31.683\H,0,32.4
 04,43.962,30.16\H,0,32.18,45.551,30.954\H,0,31.023,49.733,33.191\H,0,3
 0.882,49.963,31.474\H,0,31.444,52.461,31.792\H,0,29.122,50.524,34.09\H
 ,0,27.775,51.652,33.659\H,0,28.895,52.008,34.982\H,0,28.868,53.996,33.
 722\H,0,29.923,54.301,32.377\H,0,31.769,53.797,34.562\H,0,30.244,54.24
 8,35.361\H,0,30.642,56.179,33.374\H,0,32.325,55.854,33.832\H,0,30.538,
 56.036,36.026\H,0,32.552,56.117,36.56\H,0,32.364,57.848,36.773\H,0,33.
 208,57.212,35.363\H,0,29.476,57.936,34.216\H,0,30.829,58.894,34.632\H,
 0,29.729,57.793,37.176\H,0,28.433,58.119,36.139\H,0,30.671,60.037,36.5
 69\H,0,29.609,59.82,37.916\H,0,27.802,60.421,35.747\H,0,29.265,62.682,
 35.323\H,0,29.24,61.275,34.138\H,0,30.591,61.702,35.285\H,0,28.915,62.
 54,37.465\H,0,27.988,61.264,38.193\H,0,26.068,61.93,37.704\H,0,26.379,
 62.059,35.96\H,0,27.327,64.302,37.781\H,0,25.566,64.018,37.635\H,0,27.
 418,64.247,35.306\H,0,27.207,66.235,37.175\H,0,25.934,66.703,36.\H,0,2
 7.588,66.377,35.439\H,0,24.564,63.704,35.39\H,0,25.485,64.151,33.941\H
 ,0,24.61,65.382,34.953\\Version=ES64L-G16RevA.03\State=1-A\HF=-474.276
 8753\RMSD=4.607e-09\PG=C01 [X(C55H74Mg1N4O6)]\\@


 REALITY IS FOR PEOPLE WHO CAN'T FACE SCIENCE FICTION.
 Job cpu time:       0 days  0 hours  3 minutes 14.4 seconds.
 Elapsed time:       0 days  0 hours  0 minutes  8.6 seconds.
 File lengths (MBytes):  RWF=   1273 Int=      0 D2E=      0 Chk=     38 Scr=      1
 Normal termination of Gaussian 16 at Thu May  5 06:47:53 2022.
