 Entering Gaussian System, Link 0=g16
 Initial command:
 /sw/apps/gaussian-16.0/g16/l1.exe "/tmp/Gau-127578.inp" -scrdir="/tmp/"
 Entering Link 1 = /sw/apps/gaussian-16.0/g16/l1.exe PID=    127579.
  
 Copyright (c) 1988,1990,1992,1993,1995,1998,2003,2009,2016,
            Gaussian, Inc.  All Rights Reserved.
  
 This is part of the Gaussian(R) 16 program.  It is based on
 the Gaussian(R) 09 system (copyright 2009, Gaussian, Inc.),
 the Gaussian(R) 03 system (copyright 2003, Gaussian, Inc.),
 the Gaussian(R) 98 system (copyright 1998, Gaussian, Inc.),
 the Gaussian(R) 94 system (copyright 1995, Gaussian, Inc.),
 the Gaussian 92(TM) system (copyright 1992, Gaussian, Inc.),
 the Gaussian 90(TM) system (copyright 1990, Gaussian, Inc.),
 the Gaussian 88(TM) system (copyright 1988, Gaussian, Inc.),
 the Gaussian 86(TM) system (copyright 1986, Carnegie Mellon
 University), and the Gaussian 82(TM) system (copyright 1983,
 Carnegie Mellon University). Gaussian is a federally registered
 trademark of Gaussian, Inc.
  
 This software contains proprietary and confidential information,
 including trade secrets, belonging to Gaussian, Inc.
  
 This software is provided under written license and may be
 used, copied, transmitted, or stored only in accord with that
 written license.
  
 The following legend is applicable only to US Government
 contracts under FAR:
  
                    RESTRICTED RIGHTS LEGEND
  
 Use, reproduction and disclosure by the US Government is
 subject to restrictions as set forth in subparagraphs (a)
 and (c) of the Commercial Computer Software - Restricted
 Rights clause in FAR 52.227-19.
  
 Gaussian, Inc.
 340 Quinnipiac St., Bldg. 40, Wallingford CT 06492
  
  
 ---------------------------------------------------------------
 Warning -- This program may not be used in any manner that
 competes with the business of Gaussian, Inc. or will provide
 assistance to any competitor of Gaussian, Inc.  The licensee
 of this program is prohibited from giving any competitor of
 Gaussian, Inc. access to this program.  By using this program,
 the user acknowledges that Gaussian, Inc. is engaged in the
 business of creating and licensing software in the field of
 computational chemistry and represents and warrants to the
 licensee that it is not a competitor of Gaussian, Inc. and that
 it will not use this program in any manner prohibited above.
 ---------------------------------------------------------------
  

 Cite this work as:
 Gaussian 16, Revision A.03,
 M. J. Frisch, G. W. Trucks, H. B. Schlegel, G. E. Scuseria, 
 M. A. Robb, J. R. Cheeseman, G. Scalmani, V. Barone, 
 G. A. Petersson, H. Nakatsuji, X. Li, M. Caricato, A. V. Marenich, 
 J. Bloino, B. G. Janesko, R. Gomperts, B. Mennucci, H. P. Hratchian, 
 J. V. Ortiz, A. F. Izmaylov, J. L. Sonnenberg, D. Williams-Young, 
 F. Ding, F. Lipparini, F. Egidi, J. Goings, B. Peng, A. Petrone, 
 T. Henderson, D. Ranasinghe, V. G. Zakrzewski, J. Gao, N. Rega, 
 G. Zheng, W. Liang, M. Hada, M. Ehara, K. Toyota, R. Fukuda, 
 J. Hasegawa, M. Ishida, T. Nakajima, Y. Honda, O. Kitao, H. Nakai, 
 T. Vreven, K. Throssell, J. A. Montgomery, Jr., J. E. Peralta, 
 F. Ogliaro, M. J. Bearpark, J. J. Heyd, E. N. Brothers, K. N. Kudin, 
 V. N. Staroverov, T. A. Keith, R. Kobayashi, J. Normand, 
 K. Raghavachari, A. P. Rendell, J. C. Burant, S. S. Iyengar, 
 J. Tomasi, M. Cossi, J. M. Millam, M. Klene, C. Adamo, R. Cammi, 
 J. W. Ochterski, R. L. Martin, K. Morokuma, O. Farkas, 
 J. B. Foresman, and D. J. Fox, Gaussian, Inc., Wallingford CT, 2016.
 
 ******************************************
 Gaussian 16:  ES64L-G16RevA.03 25-Dec-2016
                 4-May-2022 
 ******************************************
 %nproc=24
 Will use up to   24 processors via shared memory.
 %mem=50gb
 --------------------
 #p ZINDO=(nstates=5)
 --------------------
 1/38=1,172=1/1;
 2/12=2,17=6,18=5,40=1/2;
 3/5=2,25=1,41=400000/1,2,3,8;
 4/5=3,35=1/1;
 5/5=2,35=1,38=5/2;
 8/6=1,108=5/1;
 9/41=5,42=1,49=10/14;
 6/7=2,8=2,9=2,10=2/1;
 99/5=1,9=1/99;
 Leave Link    1 at Wed May  4 00:29:05 2022, MaxMem=  6710886400 cpu:               0.6 elap:               0.0
 (Enter /sw/apps/gaussian-16.0/g16/l101.exe)
 ------------------------------
 step_1101_chromophore_26 ZINDO
 ------------------------------
 Symbolic Z-matrix:
 Charge =  0 Multiplicity = 1
 Mg                   -9.316     18.656    42.937 
 C                    -5.902     17.798    43.083 
 C                    -8.482     21.978    42.602 
 C                    -12.545    19.327    42.386 
 C                    -10.047    15.145    42.766 
 N                    -7.361     19.7      42.636 
 C                    -6.038     19.206    42.825 
 C                    -5.018     20.386    42.813 
 C                    -5.963     21.675    42.978 
 C                    -7.378     21.079    42.619 
 C                    -5.885     22.552    44.319 
 C                    -4.143     20.197    41.552 
 C                    -4.71      19.527    40.278 
 C                    -4.354     20.085    38.915 
 O                    -3.267     19.947    38.424 
 O                    -5.485     20.682    38.228 
 N                    -10.404    20.415    42.687 
 C                    -9.829     21.635    42.578 
 C                    -10.906    22.577    42.261 
 C                    -12.157    21.886    42.182 
 C                    -11.683    20.476    42.422 
 C                    -10.802    24.072    42.049 
 C                    -13.569    22.499    42.087 
 O                    -13.794    23.732    41.947 
 C                    -14.926    21.662    42.166 
 N                    -10.966    17.399    42.465 
 C                    -12.219    17.958    42.465 
 C                    -13.315    16.901    42.342 
 C                    -12.5      15.621    42.571 
 C                    -11.099    16.072    42.561 
 C                    -14.481    17.005    43.346 
 C                    -12.763    14.438    41.557 
 C                    -13.481    13.155    42.164 
 N                    -8.284     16.798    43.032 
 C                    -8.713     15.483    43.018 
 C                    -7.582     14.583    43.32 
 C                    -6.528     15.539    43.396 
 C                    -6.908     16.796    43.139 
 C                    -7.639     13.13     43.587 
 C                    -5.076     15.618    43.619 
 O                    -4.258     14.693    43.93 
 C                    -4.658     17.079    43.425 
 C                    -3.798     17.422    44.651 
 O                    -2.577     17.432    44.705 
 O                    -4.661     17.631    45.698 
 C                    -3.988     18.012    46.983 
 C                    -5.228     21.315    36.87 
 C                    -6.154     20.642    35.786 
 C                    -6.034     19.349    35.387 
 C                    -4.992     18.283    35.725 
 C                    -7.046     18.89     34.352 
 C                    -8.428     18.358    34.937 
 C                    -9.395     18.325    33.672 
 C                    -10.475    19.483    33.918 
 C                    -11.777    18.847    34.139 
 C                    -10.502    20.553    32.766 
 C                    -11.01     21.959    33.158 
 C                    -9.858     23.027    33.151 
 C                    -10.254    24.264    32.288 
 C                    -9.851     25.628    32.889 
 C                    -9.685     24.185    30.835 
 C                    -10.743    24.34     29.752 
 C                    -10.88     23.247    28.636 
 C                    -12.352    23.061    28.195 
 C                    -12.471    21.618    27.682 
 C                    -12.807    24.137    27.161 
 H                    -8.227     23.04     42.587 
 H                    -13.622    19.446    42.248 
 H                    -10.182    14.061    42.773 
 H                    -4.341     20.327    43.665 
 H                    -5.628     22.391    42.227 
 H                    -5.016     22.434    44.967 
 H                    -6.846     22.479    44.829 
 H                    -5.915     23.589    43.986 
 H                    -3.189     19.79     41.887 
 H                    -3.822     21.165    41.166 
 H                    -5.788     19.692    40.287 
 H                    -4.441     18.473    40.214 
 H                    -10.966    24.406    41.024 
 H                    -9.79      24.31     42.377 
 H                    -11.638    24.526    42.581 
 H                    -14.938    20.995    43.028 
 H                    -15.229    21.19     41.231 
 H                    -15.736    22.375    42.319 
 H                    -13.789    16.847    41.362 
 H                    -12.69     15.255    43.58 
 H                    -14.093    17.751    44.04 
 H                    -14.552    16.054    43.873 
 H                    -15.351    17.363    42.797 
 H                    -11.814    14.126    41.12 
 H                    -13.351    14.724    40.685 
 H                    -13.877    13.251    43.175 
 H                    -12.682    12.419    42.251 
 H                    -14.275    12.766    41.525 
 H                    -6.614     12.813    43.779 
 H                    -7.926     12.574    42.695 
 H                    -8.172     12.861    44.499 
 H                    -4.102     17.121    42.488 
 H                    -4.656     18.708    47.49 
 H                    -2.993     18.444    46.872 
 H                    -3.914     17.175    47.677 
 H                    -4.182     21.159    36.606 
 H                    -5.51      22.366    36.937 
 H                    -7.021     21.234    35.493 
 H                    -4.358     18.737    36.486 
 H                    -4.364     18.       34.88 
 H                    -5.442     17.382    36.144 
 H                    -6.514     18.053    33.9 
 H                    -7.076     19.57     33.5 
 H                    -8.792     18.876    35.825 
 H                    -8.201     17.311    35.137 
 H                    -9.878     17.349    33.631 
 H                    -8.842     18.519    32.753 
 H                    -10.206    20.012    34.832 
 H                    -12.098    18.872    35.18 
 H                    -11.8      17.843    33.717 
 H                    -12.649    19.399    33.787 
 H                    -11.173    20.178    31.993 
 H                    -9.455     20.636    32.475 
 H                    -11.445    21.911    34.156 
 H                    -11.843    22.264    32.525 
 H                    -8.949     22.569    32.763 
 H                    -9.66      23.375    34.165 
 H                    -11.338    24.366    32.232 
 H                    -8.899     25.493    33.403 
 H                    -10.519    26.024    33.655 
 H                    -9.699     26.383    32.117 
 H                    -9.246     23.207    30.638 
 H                    -8.892     24.918    30.685 
 H                    -10.411    25.287    29.326 
 H                    -11.757    24.425    30.143 
 H                    -10.469    22.297    28.977 
 H                    -10.252    23.548    27.798 
 H                    -12.993    23.141    29.073 
 H                    -11.534    21.062    27.694 
 H                    -12.895    21.56     26.68 
 H                    -13.196    21.213    28.389 
 H                    -13.585    24.765    27.597 
 H                    -13.252    23.723    26.257 
 H                    -11.98     24.777    26.854 
 
 ITRead=  0  0  0  0  0  0  0  0  0  0  0  0  0  0  0  0  0  0  0  0
 ITRead=  0  0  0  0  0  0  0  0  0  0  0  0  0  0  0  0  0  0  0  0
 ITRead=  0  0  0  0  0  0  0  0  0  0  0  0  0  0  0  0  0  0  0  0
 ITRead=  0  0  0  0  0  0  0  0  0  0  0  0  0  0  0  0  0  0  0  0
 ITRead=  0  0  0  0  0  0  0  0  0  0  0  0  0  0  0  0  0  0  0  0
 ITRead=  0  0  0  0  0  0  0  0  0  0  0  0  0  0  0  0  0  0  0  0
 ITRead=  0  0  0  0  0  0  0  0  0  0  0  0  0  0  0  0  0  0  0  0
 MicOpt= -1 -1 -1 -1 -1 -1 -1 -1 -1 -1 -1 -1 -1 -1 -1 -1 -1 -1 -1 -1
 MicOpt= -1 -1 -1 -1 -1 -1 -1 -1 -1 -1 -1 -1 -1 -1 -1 -1 -1 -1 -1 -1
 MicOpt= -1 -1 -1 -1 -1 -1 -1 -1 -1 -1 -1 -1 -1 -1 -1 -1 -1 -1 -1 -1
 MicOpt= -1 -1 -1 -1 -1 -1 -1 -1 -1 -1 -1 -1 -1 -1 -1 -1 -1 -1 -1 -1
 MicOpt= -1 -1 -1 -1 -1 -1 -1 -1 -1 -1 -1 -1 -1 -1 -1 -1 -1 -1 -1 -1
 MicOpt= -1 -1 -1 -1 -1 -1 -1 -1 -1 -1 -1 -1 -1 -1 -1 -1 -1 -1 -1 -1
 MicOpt= -1 -1 -1 -1 -1 -1 -1 -1 -1 -1 -1 -1 -1 -1 -1 -1 -1 -1 -1 -1
 NAtoms=    140 NQM=      140 NQMF=       0 NMMI=      0 NMMIF=      0
                NMic=       0 NMicF=      0.
                    Isotopes and Nuclear Properties:
 (Nuclear quadrupole moments (NQMom) in fm**2, nuclear magnetic moments (NMagM)
  in nuclear magnetons)

  Atom         1           2           3           4           5           6           7           8           9          10
 IAtWgt=          24          12          12          12          12          14          12          12          12          12
 AtmWgt=  23.9850450  12.0000000  12.0000000  12.0000000  12.0000000  14.0030740  12.0000000  12.0000000  12.0000000  12.0000000
 NucSpn=           0           0           0           0           0           2           0           0           0           0
 AtZEff=  -0.0000000  -0.0000000  -0.0000000  -0.0000000  -0.0000000  -0.0000000  -0.0000000  -0.0000000  -0.0000000  -0.0000000
 NQMom=    0.0000000   0.0000000   0.0000000   0.0000000   0.0000000   2.0440000   0.0000000   0.0000000   0.0000000   0.0000000
 NMagM=    0.0000000   0.0000000   0.0000000   0.0000000   0.0000000   0.4037610   0.0000000   0.0000000   0.0000000   0.0000000
 AtZNuc=  12.0000000   6.0000000   6.0000000   6.0000000   6.0000000   7.0000000   6.0000000   6.0000000   6.0000000   6.0000000

  Atom        11          12          13          14          15          16          17          18          19          20
 IAtWgt=          12          12          12          12          16          16          14          12          12          12
 AtmWgt=  12.0000000  12.0000000  12.0000000  12.0000000  15.9949146  15.9949146  14.0030740  12.0000000  12.0000000  12.0000000
 NucSpn=           0           0           0           0           0           0           2           0           0           0
 AtZEff=  -0.0000000  -0.0000000  -0.0000000  -0.0000000  -0.0000000  -0.0000000  -0.0000000  -0.0000000  -0.0000000  -0.0000000
 NQMom=    0.0000000   0.0000000   0.0000000   0.0000000   0.0000000   0.0000000   2.0440000   0.0000000   0.0000000   0.0000000
 NMagM=    0.0000000   0.0000000   0.0000000   0.0000000   0.0000000   0.0000000   0.4037610   0.0000000   0.0000000   0.0000000
 AtZNuc=   6.0000000   6.0000000   6.0000000   6.0000000   8.0000000   8.0000000   7.0000000   6.0000000   6.0000000   6.0000000

  Atom        21          22          23          24          25          26          27          28          29          30
 IAtWgt=          12          12          12          16          12          14          12          12          12          12
 AtmWgt=  12.0000000  12.0000000  12.0000000  15.9949146  12.0000000  14.0030740  12.0000000  12.0000000  12.0000000  12.0000000
 NucSpn=           0           0           0           0           0           2           0           0           0           0
 AtZEff=  -0.0000000  -0.0000000  -0.0000000  -0.0000000  -0.0000000  -0.0000000  -0.0000000  -0.0000000  -0.0000000  -0.0000000
 NQMom=    0.0000000   0.0000000   0.0000000   0.0000000   0.0000000   2.0440000   0.0000000   0.0000000   0.0000000   0.0000000
 NMagM=    0.0000000   0.0000000   0.0000000   0.0000000   0.0000000   0.4037610   0.0000000   0.0000000   0.0000000   0.0000000
 AtZNuc=   6.0000000   6.0000000   6.0000000   8.0000000   6.0000000   7.0000000   6.0000000   6.0000000   6.0000000   6.0000000

  Atom        31          32          33          34          35          36          37          38          39          40
 IAtWgt=          12          12          12          14          12          12          12          12          12          12
 AtmWgt=  12.0000000  12.0000000  12.0000000  14.0030740  12.0000000  12.0000000  12.0000000  12.0000000  12.0000000  12.0000000
 NucSpn=           0           0           0           2           0           0           0           0           0           0
 AtZEff=  -0.0000000  -0.0000000  -0.0000000  -0.0000000  -0.0000000  -0.0000000  -0.0000000  -0.0000000  -0.0000000  -0.0000000
 NQMom=    0.0000000   0.0000000   0.0000000   2.0440000   0.0000000   0.0000000   0.0000000   0.0000000   0.0000000   0.0000000
 NMagM=    0.0000000   0.0000000   0.0000000   0.4037610   0.0000000   0.0000000   0.0000000   0.0000000   0.0000000   0.0000000
 AtZNuc=   6.0000000   6.0000000   6.0000000   7.0000000   6.0000000   6.0000000   6.0000000   6.0000000   6.0000000   6.0000000

  Atom        41          42          43          44          45          46          47          48          49          50
 IAtWgt=          16          12          12          16          16          12          12          12          12          12
 AtmWgt=  15.9949146  12.0000000  12.0000000  15.9949146  15.9949146  12.0000000  12.0000000  12.0000000  12.0000000  12.0000000
 NucSpn=           0           0           0           0           0           0           0           0           0           0
 AtZEff=  -0.0000000  -0.0000000  -0.0000000  -0.0000000  -0.0000000  -0.0000000  -0.0000000  -0.0000000  -0.0000000  -0.0000000
 NQMom=    0.0000000   0.0000000   0.0000000   0.0000000   0.0000000   0.0000000   0.0000000   0.0000000   0.0000000   0.0000000
 NMagM=    0.0000000   0.0000000   0.0000000   0.0000000   0.0000000   0.0000000   0.0000000   0.0000000   0.0000000   0.0000000
 AtZNuc=   8.0000000   6.0000000   6.0000000   8.0000000   8.0000000   6.0000000   6.0000000   6.0000000   6.0000000   6.0000000

  Atom        51          52          53          54          55          56          57          58          59          60
 IAtWgt=          12          12          12          12          12          12          12          12          12          12
 AtmWgt=  12.0000000  12.0000000  12.0000000  12.0000000  12.0000000  12.0000000  12.0000000  12.0000000  12.0000000  12.0000000
 NucSpn=           0           0           0           0           0           0           0           0           0           0
 AtZEff=  -0.0000000  -0.0000000  -0.0000000  -0.0000000  -0.0000000  -0.0000000  -0.0000000  -0.0000000  -0.0000000  -0.0000000
 NQMom=    0.0000000   0.0000000   0.0000000   0.0000000   0.0000000   0.0000000   0.0000000   0.0000000   0.0000000   0.0000000
 NMagM=    0.0000000   0.0000000   0.0000000   0.0000000   0.0000000   0.0000000   0.0000000   0.0000000   0.0000000   0.0000000
 AtZNuc=   6.0000000   6.0000000   6.0000000   6.0000000   6.0000000   6.0000000   6.0000000   6.0000000   6.0000000   6.0000000

  Atom        61          62          63          64          65          66          67          68          69          70
 IAtWgt=          12          12          12          12          12          12           1           1           1           1
 AtmWgt=  12.0000000  12.0000000  12.0000000  12.0000000  12.0000000  12.0000000   1.0078250   1.0078250   1.0078250   1.0078250
 NucSpn=           0           0           0           0           0           0           1           1           1           1
 AtZEff=  -0.0000000  -0.0000000  -0.0000000  -0.0000000  -0.0000000  -0.0000000  -0.0000000  -0.0000000  -0.0000000  -0.0000000
 NQMom=    0.0000000   0.0000000   0.0000000   0.0000000   0.0000000   0.0000000   0.0000000   0.0000000   0.0000000   0.0000000
 NMagM=    0.0000000   0.0000000   0.0000000   0.0000000   0.0000000   0.0000000   2.7928460   2.7928460   2.7928460   2.7928460
 AtZNuc=   6.0000000   6.0000000   6.0000000   6.0000000   6.0000000   6.0000000   1.0000000   1.0000000   1.0000000   1.0000000

  Atom        71          72          73          74          75          76          77          78          79          80
 IAtWgt=           1           1           1           1           1           1           1           1           1           1
 AtmWgt=   1.0078250   1.0078250   1.0078250   1.0078250   1.0078250   1.0078250   1.0078250   1.0078250   1.0078250   1.0078250
 NucSpn=           1           1           1           1           1           1           1           1           1           1
 AtZEff=  -0.0000000  -0.0000000  -0.0000000  -0.0000000  -0.0000000  -0.0000000  -0.0000000  -0.0000000  -0.0000000  -0.0000000
 NQMom=    0.0000000   0.0000000   0.0000000   0.0000000   0.0000000   0.0000000   0.0000000   0.0000000   0.0000000   0.0000000
 NMagM=    2.7928460   2.7928460   2.7928460   2.7928460   2.7928460   2.7928460   2.7928460   2.7928460   2.7928460   2.7928460
 AtZNuc=   1.0000000   1.0000000   1.0000000   1.0000000   1.0000000   1.0000000   1.0000000   1.0000000   1.0000000   1.0000000

  Atom        81          82          83          84          85          86          87          88          89          90
 IAtWgt=           1           1           1           1           1           1           1           1           1           1
 AtmWgt=   1.0078250   1.0078250   1.0078250   1.0078250   1.0078250   1.0078250   1.0078250   1.0078250   1.0078250   1.0078250
 NucSpn=           1           1           1           1           1           1           1           1           1           1
 AtZEff=  -0.0000000  -0.0000000  -0.0000000  -0.0000000  -0.0000000  -0.0000000  -0.0000000  -0.0000000  -0.0000000  -0.0000000
 NQMom=    0.0000000   0.0000000   0.0000000   0.0000000   0.0000000   0.0000000   0.0000000   0.0000000   0.0000000   0.0000000
 NMagM=    2.7928460   2.7928460   2.7928460   2.7928460   2.7928460   2.7928460   2.7928460   2.7928460   2.7928460   2.7928460
 AtZNuc=   1.0000000   1.0000000   1.0000000   1.0000000   1.0000000   1.0000000   1.0000000   1.0000000   1.0000000   1.0000000

  Atom        91          92          93          94          95          96          97          98          99         100
 IAtWgt=           1           1           1           1           1           1           1           1           1           1
 AtmWgt=   1.0078250   1.0078250   1.0078250   1.0078250   1.0078250   1.0078250   1.0078250   1.0078250   1.0078250   1.0078250
 NucSpn=           1           1           1           1           1           1           1           1           1           1
 AtZEff=  -0.0000000  -0.0000000  -0.0000000  -0.0000000  -0.0000000  -0.0000000  -0.0000000  -0.0000000  -0.0000000  -0.0000000
 NQMom=    0.0000000   0.0000000   0.0000000   0.0000000   0.0000000   0.0000000   0.0000000   0.0000000   0.0000000   0.0000000
 NMagM=    2.7928460   2.7928460   2.7928460   2.7928460   2.7928460   2.7928460   2.7928460   2.7928460   2.7928460   2.7928460
 AtZNuc=   1.0000000   1.0000000   1.0000000   1.0000000   1.0000000   1.0000000   1.0000000   1.0000000   1.0000000   1.0000000

  Atom       101         102         103         104         105         106         107         108         109         110
 IAtWgt=           1           1           1           1           1           1           1           1           1           1
 AtmWgt=   1.0078250   1.0078250   1.0078250   1.0078250   1.0078250   1.0078250   1.0078250   1.0078250   1.0078250   1.0078250
 NucSpn=           1           1           1           1           1           1           1           1           1           1
 AtZEff=  -0.0000000  -0.0000000  -0.0000000  -0.0000000  -0.0000000  -0.0000000  -0.0000000  -0.0000000  -0.0000000  -0.0000000
 NQMom=    0.0000000   0.0000000   0.0000000   0.0000000   0.0000000   0.0000000   0.0000000   0.0000000   0.0000000   0.0000000
 NMagM=    2.7928460   2.7928460   2.7928460   2.7928460   2.7928460   2.7928460   2.7928460   2.7928460   2.7928460   2.7928460
 AtZNuc=   1.0000000   1.0000000   1.0000000   1.0000000   1.0000000   1.0000000   1.0000000   1.0000000   1.0000000   1.0000000

  Atom       111         112         113         114         115         116         117         118         119         120
 IAtWgt=           1           1           1           1           1           1           1           1           1           1
 AtmWgt=   1.0078250   1.0078250   1.0078250   1.0078250   1.0078250   1.0078250   1.0078250   1.0078250   1.0078250   1.0078250
 NucSpn=           1           1           1           1           1           1           1           1           1           1
 AtZEff=  -0.0000000  -0.0000000  -0.0000000  -0.0000000  -0.0000000  -0.0000000  -0.0000000  -0.0000000  -0.0000000  -0.0000000
 NQMom=    0.0000000   0.0000000   0.0000000   0.0000000   0.0000000   0.0000000   0.0000000   0.0000000   0.0000000   0.0000000
 NMagM=    2.7928460   2.7928460   2.7928460   2.7928460   2.7928460   2.7928460   2.7928460   2.7928460   2.7928460   2.7928460
 AtZNuc=   1.0000000   1.0000000   1.0000000   1.0000000   1.0000000   1.0000000   1.0000000   1.0000000   1.0000000   1.0000000

  Atom       121         122         123         124         125         126         127         128         129         130
 IAtWgt=           1           1           1           1           1           1           1           1           1           1
 AtmWgt=   1.0078250   1.0078250   1.0078250   1.0078250   1.0078250   1.0078250   1.0078250   1.0078250   1.0078250   1.0078250
 NucSpn=           1           1           1           1           1           1           1           1           1           1
 AtZEff=  -0.0000000  -0.0000000  -0.0000000  -0.0000000  -0.0000000  -0.0000000  -0.0000000  -0.0000000  -0.0000000  -0.0000000
 NQMom=    0.0000000   0.0000000   0.0000000   0.0000000   0.0000000   0.0000000   0.0000000   0.0000000   0.0000000   0.0000000
 NMagM=    2.7928460   2.7928460   2.7928460   2.7928460   2.7928460   2.7928460   2.7928460   2.7928460   2.7928460   2.7928460
 AtZNuc=   1.0000000   1.0000000   1.0000000   1.0000000   1.0000000   1.0000000   1.0000000   1.0000000   1.0000000   1.0000000

  Atom       131         132         133         134         135         136         137         138         139         140
 IAtWgt=           1           1           1           1           1           1           1           1           1           1
 AtmWgt=   1.0078250   1.0078250   1.0078250   1.0078250   1.0078250   1.0078250   1.0078250   1.0078250   1.0078250   1.0078250
 NucSpn=           1           1           1           1           1           1           1           1           1           1
 AtZEff=  -0.0000000  -0.0000000  -0.0000000  -0.0000000  -0.0000000  -0.0000000  -0.0000000  -0.0000000  -0.0000000  -0.0000000
 NQMom=    0.0000000   0.0000000   0.0000000   0.0000000   0.0000000   0.0000000   0.0000000   0.0000000   0.0000000   0.0000000
 NMagM=    2.7928460   2.7928460   2.7928460   2.7928460   2.7928460   2.7928460   2.7928460   2.7928460   2.7928460   2.7928460
 AtZNuc=   1.0000000   1.0000000   1.0000000   1.0000000   1.0000000   1.0000000   1.0000000   1.0000000   1.0000000   1.0000000
 Leave Link  101 at Wed May  4 00:29:05 2022, MaxMem=  6710886400 cpu:               3.5 elap:               0.2
 (Enter /sw/apps/gaussian-16.0/g16/l202.exe)
 Stoichiometry    C55H74MgN4O6
 Framework group  C1[X(C55H74MgN4O6)]
 Deg. of freedom   414
 Full point group                 C1      NOp   1
 Largest Abelian subgroup         C1      NOp   1
 Largest concise Abelian subgroup C1      NOp   1
                         Standard orientation:                         
 ---------------------------------------------------------------------
 Center     Atomic      Atomic             Coordinates (Angstroms)
 Number     Number       Type             X           Y           Z
 ---------------------------------------------------------------------
      1         12           0       -3.413537    1.314720    0.538139
      2          6           0       -4.663113   -1.889207   -0.227553
      3          6           0       -2.089611    0.111939    3.478208
      4          6           0       -1.911589    4.269874    0.975747
      5          6           0       -4.375625    2.326918   -2.769513
      6          7           0       -3.219705   -0.750622    1.374412
      7          6           0       -3.882375   -1.948197    0.978471
      8          6           0       -3.678725   -3.055856    2.057619
      9          6           0       -3.131970   -2.226250    3.320387
     10          6           0       -2.694515   -0.870698    2.644049
     11          6           0       -4.035526   -2.098528    4.639769
     12          6           0       -2.819045   -4.158924    1.397575
     13          6           0       -1.784776   -3.816958    0.299025
     14          6           0       -0.437120   -4.509547    0.295609
     15          8           0       -0.301637   -5.658158   -0.026931
     16          8           0        0.666363   -3.615485    0.596471
     17          7           0       -2.287200    2.148843    2.079545
     18          6           0       -1.876853    1.448978    3.162462
     19          6           0       -0.992522    2.336782    3.922426
     20          6           0       -0.880518    3.602254    3.263063
     21          6           0       -1.725331    3.329073    2.045673
     22          6           0       -0.277747    2.046035    5.224481
     23          6           0       -0.237851    4.895047    3.805468
     24          8           0        0.393430    4.964775    4.895026
     25          6           0       -0.296666    6.311556    3.071778
     26          7           0       -3.061567    2.938115   -0.790785
     27          6           0       -2.561629    4.101993   -0.263584
     28          6           0       -2.580768    5.242656   -1.279515
     29          6           0       -3.448237    4.623167   -2.383506
     30          6           0       -3.603483    3.215931   -1.981154
     31          6           0       -3.171844    6.581528   -0.793263
     32          6           0       -2.907709    4.774992   -3.860541
     33          6           0       -3.755728    5.726892   -4.811758
     34          7           0       -4.423510    0.511270   -1.153202
     35          6           0       -4.792364    1.051976   -2.371826
     36          6           0       -5.660495    0.104419   -3.099047
     37          6           0       -5.626223   -0.995785   -2.194058
     38          6           0       -4.844359   -0.802863   -1.125429
     39          6           0       -6.420423    0.357254   -4.341758
     40          6           0       -6.139644   -2.366670   -2.047953
     41          8           0       -6.951389   -3.005684   -2.792401
     42          6           0       -5.527437   -2.955444   -0.773030
     43          6           0       -6.707416   -3.560958    0.002421
     44          8           0       -7.039686   -4.736991    0.022432
     45          8           0       -7.369978   -2.517453    0.599721
     46          6           0       -8.545113   -2.932214    1.434196
     47          6           0        2.060331   -4.218014    0.665134
     48          6           0        3.006978   -3.486036   -0.361281
     49          6           0        2.863508   -3.563722   -1.709922
     50          6           0        1.923023   -4.401044   -2.576377
     51          6           0        3.864799   -2.758267   -2.519063
     52          6           0        3.468345   -1.238164   -2.778459
     53          6           0        4.822330   -0.566923   -3.281014
     54          6           0        5.279895    0.423918   -2.107665
     55          6           0        5.154071    1.798101   -2.601963
     56          6           0        6.715606    0.099527   -1.554277
     57          6           0        6.998139    0.541906   -0.100647
     58          6           0        7.125138   -0.682170    0.875716
     59          6           0        8.448843   -0.601952    1.696157
     60          6           0        8.313479   -0.996012    3.182932
     61          6           0        9.593692   -1.459475    1.067518
     62          6           0       10.874256   -0.678819    0.808656
     63          6           0       11.509951   -0.680040   -0.624789
     64          6           0       12.185031    0.673767   -0.952409
     65          6           0       12.145379    0.818333   -2.481169
     66          6           0       13.617462    0.790113   -0.345315
     67          1           0       -1.746523   -0.241498    4.453127
     68          1           0       -1.490281    5.275475    1.042095
     69          1           0       -4.747824    2.564131   -3.768777
     70          1           0       -4.626506   -3.525104    2.320738
     71          1           0       -2.272222   -2.782190    3.695416
     72          1           0       -4.866530   -2.792514    4.769407
     73          1           0       -4.295166   -1.047951    4.773279
     74          1           0       -3.348333   -2.240882    5.473231
     75          1           0       -3.494365   -4.974897    1.140436
     76          1           0       -2.192064   -4.647142    2.144301
     77          1           0       -1.478661   -2.783242    0.463689
     78          1           0       -2.177140   -3.990530   -0.702621
     79          1           0        0.805898    1.953030    5.146121
     80          1           0       -0.723797    1.110006    5.561025
     81          1           0       -0.393273    2.929046    5.852956
     82          1           0       -1.314352    6.572700    2.781610
     83          1           0        0.443005    6.450682    2.282887
     84          1           0        0.017813    7.062911    3.795965
     85          1           0       -1.607011    5.498009   -1.697347
     86          1           0       -4.445915    5.059866   -2.338005
     87          1           0       -3.614095    6.281604    0.157082
     88          1           0       -3.978324    6.855426   -1.472779
     89          1           0       -2.341662    7.274614   -0.663285
     90          1           0       -2.852185    3.788876   -4.322501
     91          1           0       -1.879597    5.131561   -3.921917
     92          1           0       -4.537242    6.319688   -4.336383
     93          1           0       -4.292061    5.040003   -5.466125
     94          1           0       -3.136468    6.398798   -5.407692
     95          1           0       -6.950732   -0.567120   -4.570417
     96          1           0       -5.754034    0.498165   -5.192192
     97          1           0       -7.214496    1.097119   -4.240560
     98          1           0       -4.799551   -3.701149   -1.093928
     99          1           0       -8.588895   -2.241180    2.275768
    100          1           0       -8.520882   -3.964731    1.783898
    101          1           0       -9.494197   -2.774353    0.922337
    102          1           0        1.994554   -5.276278    0.412350
    103          1           0        2.451954   -4.030874    1.665246
    104          1           0        3.691892   -2.763430    0.082267
    105          1           0        1.255459   -4.897507   -1.872761
    106          1           0        2.431936   -5.165629   -3.163673
    107          1           0        1.321278   -3.786823   -3.247568
    108          1           0        3.839358   -3.291716   -3.469159
    109          1           0        4.888137   -2.977696   -2.212740
    110          1           0        2.944815   -0.743575   -1.959519
    111          1           0        2.850827   -1.314879   -3.673179
    112          1           0        4.614848   -0.012217   -4.195781
    113          1           0        5.590483   -1.320499   -3.454421
    114          1           0        4.588036    0.307830   -1.273726
    115          1           0        4.301860    2.331295   -2.181503
    116          1           0        5.170973    1.826592   -3.690784
    117          1           0        5.878588    2.516748   -2.217760
    118          1           0        7.431660    0.621755   -2.189053
    119          1           0        6.761572   -0.988550   -1.596169
    120          1           0        6.184676    1.183696    0.236869
    121          1           0        7.875772    1.186097   -0.051858
    122          1           0        7.092414   -1.604809    0.297567
    123          1           0        6.293585   -0.690323    1.580668
    124          1           0        8.791760    0.429705    1.777927
    125          1           0        7.577309   -1.797811    3.245364
    126          1           0        7.926535   -0.220417    3.845143
    127          1           0        9.249499   -1.382369    3.587539
    128          1           0        9.308905   -1.834166    0.084401
    129          1           0        9.810982   -2.333068    1.682544
    130          1           0       11.526945   -1.184296    1.520695
    131          1           0       10.792154    0.382472    1.043653
    132          1           0       10.757814   -0.914643   -1.377751
    133          1           0       12.226806   -1.499423   -0.669072
    134          1           0       11.575006    1.477646   -0.540325
    135          1           0       11.710106   -0.036142   -2.998528
    136          1           0       13.125703    1.020750   -2.911443
    137          1           0       11.531102    1.713872   -2.582020
    138          1           0       13.638521    1.579357    0.407290
    139          1           0       14.383926    1.068314   -1.067654
    140          1           0       13.933937   -0.141286    0.123853
 ---------------------------------------------------------------------
 Rotational constants (GHZ):           0.0360099           0.0152047           0.0137283
 Leave Link  202 at Wed May  4 00:29:05 2022, MaxMem=  6710886400 cpu:               0.2 elap:               0.0
 (Enter /sw/apps/gaussian-16.0/g16/l301.exe)
 Standard basis: VSTO-6G (5D, 7F)
 Ernie: Thresh=  0.10000D-02 Tol=  0.10000D-05 Strict=F.
 There are   338 symmetry adapted cartesian basis functions of A   symmetry.
 There are   338 symmetry adapted basis functions of A   symmetry.
   338 basis functions,  2028 primitive gaussians,   338 cartesian basis functions
   176 alpha electrons      176 beta electrons
       nuclear repulsion energy      5022.8846549985 Hartrees.
 IExCor=    0 DFT=F Ex=HF Corr=None ExCW=0 ScaHFX=  1.000000
 ScaDFX=  1.000000  1.000000  1.000000  1.000000 ScalE2=  1.000000  1.000000
 IRadAn=      5 IRanWt=     -1 IRanGd=            0 ICorTp=0 IEmpDi=  4
 Integral buffers will be    131072 words long.
 Regular integral format.
 Two-electron integral symmetry is turned off.
 Leave Link  301 at Wed May  4 00:29:05 2022, MaxMem=  6710886400 cpu:               1.2 elap:               0.1
 (Enter /sw/apps/gaussian-16.0/g16/l302.exe)
 Do NDO integrals.
 NPDir=0 NMtPBC=     1 NCelOv=     1 NCel=       1 NClECP=     1 NCelD=      1
         NCelK=      1 NCelE2=     1 NClLst=     1 CellRange=     0.0.
 One-electron integrals computed using PRISM.
 Generate ZINDO/S integrals.
 NDO Nuclear repulsion=  4536.991110743864 Hartrees.
 NBasis=   338 RedAO= F EigKep=  0.00D+00  NBF=   338
 NBsUse=   338 1.00D-04 EigRej=  0.00D+00 NBFU=   338
 Leave Link  302 at Wed May  4 00:29:06 2022, MaxMem=  6710886400 cpu:               9.8 elap:               0.4
 (Enter /sw/apps/gaussian-16.0/g16/l303.exe)
 DipDrv:  MaxL=1.
 DipDrv:  will hold  3 matrices at once.
 Leave Link  303 at Wed May  4 00:29:06 2022, MaxMem=  6710886400 cpu:               0.6 elap:               0.0
 (Enter /sw/apps/gaussian-16.0/g16/l308.exe)
 Leave Link  308 at Wed May  4 00:29:06 2022, MaxMem=  6710886400 cpu:               5.2 elap:               0.3
 (Enter /sw/apps/gaussian-16.0/g16/l401.exe)
 Simple Huckel Guess.
 JPrj=0 DoOrth=F DoCkMO=F.
 Leave Link  401 at Wed May  4 00:29:06 2022, MaxMem=  6710886400 cpu:               3.0 elap:               0.1
 (Enter /sw/apps/gaussian-16.0/g16/l502.exe)
 Two-electron integral symmetry not used.
 Closed shell SCF:
 Using DIIS extrapolation, IDIIS=  1040.
 Overlap will be assumed to be unity.
 NGot=  6710886400 LenX=  6710643598 LenY=  6710528913
 Requested convergence on RMS density matrix=1.00D-08 within 128 cycles.
 Requested convergence on MAX density matrix=1.00D-06.
 Requested convergence on             energy=1.00D-06.
 No special actions if energy rises.
 Fock matrices will be formed incrementally for  20 cycles.

 Cycle   1  Pass 1  IDiag  1:
 E= -471.813588144179    
 DIIS: error= 5.96D-02 at cycle   1 NSaved=   1.
 NSaved= 1 IEnMin= 1 EnMin= -471.813588144179     IErMin= 1 ErrMin= 5.96D-02
 ErrMax= 5.96D-02  0.00D+00 EMaxC= 1.00D-01 BMatC= 8.33D-01 BMatP= 8.33D-01
 IDIUse=3 WtCom= 4.04D-01 WtEn= 5.96D-01
 Coeff-Com:  0.100D+01
 Coeff-En:   0.100D+01
 Coeff:      0.100D+01
 GapD=    2.000 DampG=2.000 DampE=0.500 DampFc=1.0000 IDamp=-1.
 RMSDP=4.06D-03 MaxDP=1.78D-01              OVMax= 0.00D+00

 Cycle   2  Pass 1  IDiag  1:
 RMSU=  4.06D-03    CP:  9.95D-01
 E= -473.645755095103     Delta-E=       -1.832166950924 Rises=F Damp=F
 DIIS: error= 2.16D-02 at cycle   2 NSaved=   2.
 NSaved= 2 IEnMin= 2 EnMin= -473.645755095103     IErMin= 2 ErrMin= 2.16D-02
 ErrMax= 2.16D-02  0.00D+00 EMaxC= 1.00D-01 BMatC= 5.63D-02 BMatP= 8.33D-01
 IDIUse=3 WtCom= 7.84D-01 WtEn= 2.16D-01
 Coeff-Com: -0.540D-01 0.105D+01
 Coeff-En:   0.000D+00 0.100D+01
 Coeff:     -0.423D-01 0.104D+01
 RMSDP=1.16D-03 MaxDP=6.04D-02 DE=-1.83D+00 OVMax= 0.00D+00

 Cycle   3  Pass 1  IDiag  1:
 RMSU=  1.12D-03    CP:  9.93D-01  1.07D+00
 E= -473.751203815452     Delta-E=       -0.105448720349 Rises=F Damp=F
 DIIS: error= 1.02D-02 at cycle   3 NSaved=   3.
 NSaved= 3 IEnMin= 3 EnMin= -473.751203815452     IErMin= 3 ErrMin= 1.02D-02
 ErrMax= 1.02D-02  0.00D+00 EMaxC= 1.00D-01 BMatC= 8.84D-03 BMatP= 5.63D-02
 IDIUse=3 WtCom= 8.98D-01 WtEn= 1.02D-01
 Coeff-Com: -0.706D-01 0.253D+00 0.817D+00
 Coeff-En:   0.000D+00 0.000D+00 0.100D+01
 Coeff:     -0.634D-01 0.227D+00 0.836D+00
 RMSDP=4.14D-04 MaxDP=1.95D-02 DE=-1.05D-01 OVMax= 0.00D+00

 Cycle   4  Pass 1  IDiag  1:
 RMSU=  2.62D-04    CP:  9.93D-01  1.15D+00  9.05D-01
 E= -473.766511232288     Delta-E=       -0.015307416837 Rises=F Damp=F
 DIIS: error= 1.34D-03 at cycle   4 NSaved=   4.
 NSaved= 4 IEnMin= 4 EnMin= -473.766511232288     IErMin= 4 ErrMin= 1.34D-03
 ErrMax= 1.34D-03  0.00D+00 EMaxC= 1.00D-01 BMatC= 3.72D-04 BMatP= 8.84D-03
 IDIUse=3 WtCom= 9.87D-01 WtEn= 1.34D-02
 Coeff-Com: -0.278D-02-0.268D-01 0.557D-01 0.974D+00
 Coeff-En:   0.000D+00 0.000D+00 0.000D+00 0.100D+01
 Coeff:     -0.274D-02-0.265D-01 0.550D-01 0.974D+00
 RMSDP=1.43D-04 MaxDP=6.42D-03 DE=-1.53D-02 OVMax= 0.00D+00

 Cycle   5  Pass 1  IDiag  1:
 RMSU=  9.74D-05    CP:  9.92D-01  1.15D+00  9.97D-01  1.00D+00
 E= -473.767651937704     Delta-E=       -0.001140705415 Rises=F Damp=F
 DIIS: error= 6.04D-04 at cycle   5 NSaved=   5.
 NSaved= 5 IEnMin= 5 EnMin= -473.767651937704     IErMin= 5 ErrMin= 6.04D-04
 ErrMax= 6.04D-04  0.00D+00 EMaxC= 1.00D-01 BMatC= 7.57D-05 BMatP= 3.72D-04
 IDIUse=3 WtCom= 9.94D-01 WtEn= 6.04D-03
 Coeff-Com:  0.665D-02-0.287D-01-0.956D-01 0.215D+00 0.903D+00
 Coeff-En:   0.000D+00 0.000D+00 0.000D+00 0.000D+00 0.100D+01
 Coeff:      0.661D-02-0.285D-01-0.951D-01 0.213D+00 0.904D+00
 RMSDP=6.09D-05 MaxDP=2.56D-03 DE=-1.14D-03 OVMax= 0.00D+00

 Cycle   6  Pass 1  IDiag  1:
 RMSU=  3.25D-05    CP:  9.92D-01  1.15D+00  1.01D+00  1.18D+00  1.02D+00
 E= -473.767876209323     Delta-E=       -0.000224271619 Rises=F Damp=F
 DIIS: error= 2.64D-04 at cycle   6 NSaved=   6.
 NSaved= 6 IEnMin= 6 EnMin= -473.767876209323     IErMin= 6 ErrMin= 2.64D-04
 ErrMax= 2.64D-04  0.00D+00 EMaxC= 1.00D-01 BMatC= 7.50D-06 BMatP= 7.57D-05
 IDIUse=3 WtCom= 9.97D-01 WtEn= 2.64D-03
 Coeff-Com:  0.498D-03 0.325D-02-0.218D-01-0.845D-01 0.654D-01 0.104D+01
 Coeff-En:   0.000D+00 0.000D+00 0.000D+00 0.000D+00 0.000D+00 0.100D+01
 Coeff:      0.497D-03 0.324D-02-0.218D-01-0.843D-01 0.653D-01 0.104D+01
 RMSDP=2.87D-05 MaxDP=9.91D-04 DE=-2.24D-04 OVMax= 0.00D+00

 Cycle   7  Pass 1  IDiag  1:
 RMSU=  1.49D-05    CP:  9.92D-01  1.15D+00  1.02D+00  1.20D+00  1.24D+00
                    CP:  1.14D+00
 E= -473.767908395415     Delta-E=       -0.000032186093 Rises=F Damp=F
 DIIS: error= 7.52D-05 at cycle   7 NSaved=   7.
 NSaved= 7 IEnMin= 7 EnMin= -473.767908395415     IErMin= 7 ErrMin= 7.52D-05
 ErrMax= 7.52D-05  0.00D+00 EMaxC= 1.00D-01 BMatC= 1.38D-06 BMatP= 7.50D-06
 IDIUse=1 WtCom= 1.00D+00 WtEn= 0.00D+00
 Coeff-Com: -0.714D-03 0.422D-02 0.539D-02-0.320D-01-0.115D+00 0.214D+00
 Coeff-Com:  0.923D+00
 Coeff:     -0.714D-03 0.422D-02 0.539D-02-0.320D-01-0.115D+00 0.214D+00
 Coeff:      0.923D+00
 RMSDP=1.20D-05 MaxDP=7.01D-04 DE=-3.22D-05 OVMax= 0.00D+00

 Cycle   8  Pass 1  IDiag  1:
 RMSU=  6.04D-06    CP:  9.92D-01  1.15D+00  1.02D+00  1.21D+00  1.29D+00
                    CP:  1.34D+00  1.36D+00
 E= -473.767915649236     Delta-E=       -0.000007253821 Rises=F Damp=F
 DIIS: error= 4.54D-05 at cycle   8 NSaved=   8.
 NSaved= 8 IEnMin= 8 EnMin= -473.767915649236     IErMin= 8 ErrMin= 4.54D-05
 ErrMax= 4.54D-05  0.00D+00 EMaxC= 1.00D-01 BMatC= 3.36D-07 BMatP= 1.38D-06
 IDIUse=1 WtCom= 1.00D+00 WtEn= 0.00D+00
 Coeff-Com: -0.118D-03-0.169D-03 0.315D-02 0.157D-01-0.421D-01-0.755D-01
 Coeff-Com: -0.292D-01 0.113D+01
 Coeff:     -0.118D-03-0.169D-03 0.315D-02 0.157D-01-0.421D-01-0.755D-01
 Coeff:     -0.292D-01 0.113D+01
 RMSDP=1.11D-05 MaxDP=4.16D-04 DE=-7.25D-06 OVMax= 0.00D+00

 Cycle   9  Pass 1  IDiag  1:
 RMSU=  3.30D-06    CP:  9.92D-01  1.15D+00  1.02D+00  1.21D+00  1.34D+00
                    CP:  1.40D+00  1.90D+00  1.64D+00
 E= -473.767919323240     Delta-E=       -0.000003674004 Rises=F Damp=F
 DIIS: error= 2.80D-05 at cycle   9 NSaved=   9.
 NSaved= 9 IEnMin= 9 EnMin= -473.767919323240     IErMin= 9 ErrMin= 2.80D-05
 ErrMax= 2.80D-05  0.00D+00 EMaxC= 1.00D-01 BMatC= 2.17D-07 BMatP= 3.36D-07
 IDIUse=1 WtCom= 1.00D+00 WtEn= 0.00D+00
 Coeff-Com:  0.204D-03-0.106D-02-0.210D-02 0.979D-02 0.125D-01 0.262D-01
 Coeff-Com: -0.425D+00 0.410D-02 0.138D+01
 Coeff:      0.204D-03-0.106D-02-0.210D-02 0.979D-02 0.125D-01 0.262D-01
 Coeff:     -0.425D+00 0.410D-02 0.138D+01
 RMSDP=1.21D-05 MaxDP=4.93D-04 DE=-3.67D-06 OVMax= 0.00D+00

 Cycle  10  Pass 1  IDiag  1:
 RMSU=  1.68D-06    CP:  9.92D-01  1.15D+00  1.03D+00  1.20D+00  1.38D+00
                    CP:  1.47D+00  2.44D+00  2.65D+00  2.24D+00
 E= -473.767922431371     Delta-E=       -0.000003108131 Rises=F Damp=F
 DIIS: error= 2.01D-05 at cycle  10 NSaved=  10.
 NSaved=10 IEnMin=10 EnMin= -473.767922431371     IErMin=10 ErrMin= 2.01D-05
 ErrMax= 2.01D-05  0.00D+00 EMaxC= 1.00D-01 BMatC= 1.00D-07 BMatP= 2.17D-07
 IDIUse=1 WtCom= 1.00D+00 WtEn= 0.00D+00
 Coeff-Com: -0.169D-04 0.422D-03-0.908D-03-0.676D-02-0.356D-02 0.907D-01
 Coeff-Com: -0.336D-01-0.195D+00-0.526D+00 0.167D+01
 Coeff:     -0.169D-04 0.422D-03-0.908D-03-0.676D-02-0.356D-02 0.907D-01
 Coeff:     -0.336D-01-0.195D+00-0.526D+00 0.167D+01
 RMSDP=1.21D-05 MaxDP=4.55D-04 DE=-3.11D-06 OVMax= 0.00D+00

 Cycle  11  Pass 1  IDiag  1:
 RMSU=  4.74D-06    CP:  9.92D-01  1.15D+00  1.03D+00  1.20D+00  1.42D+00
                    CP:  1.50D+00  2.96D+00  3.00D+00  3.00D+00  2.38D+00
 E= -473.767924572684     Delta-E=       -0.000002141313 Rises=F Damp=F
 DIIS: error= 1.25D-05 at cycle  11 NSaved=  11.
 NSaved=11 IEnMin=11 EnMin= -473.767924572684     IErMin=11 ErrMin= 1.25D-05
 ErrMax= 1.25D-05  0.00D+00 EMaxC= 1.00D-01 BMatC= 4.74D-08 BMatP= 1.00D-07
 IDIUse=1 WtCom= 1.00D+00 WtEn= 0.00D+00
 Coeff-Com: -0.104D-03 0.500D-03 0.128D-02-0.356D-02-0.143D-01 0.661D-02
 Coeff-Com:  0.131D+00 0.213D+00-0.963D+00-0.279D+00 0.191D+01
 Coeff:     -0.104D-03 0.500D-03 0.128D-02-0.356D-02-0.143D-01 0.661D-02
 Coeff:      0.131D+00 0.213D+00-0.963D+00-0.279D+00 0.191D+01
 RMSDP=1.57D-05 MaxDP=5.87D-04 DE=-2.14D-06 OVMax= 0.00D+00

 Cycle  12  Pass 1  IDiag  1:
 RMSU=  9.49D-06    CP:  9.92D-01  1.15D+00  1.03D+00  1.19D+00  1.48D+00
                    CP:  1.52D+00  3.00D+00  3.00D+00  3.00D+00  3.00D+00
                    CP:  3.00D+00
 E= -473.767926147942     Delta-E=       -0.000001575258 Rises=F Damp=F
 DIIS: error= 5.80D-06 at cycle  12 NSaved=  12.
 NSaved=12 IEnMin=12 EnMin= -473.767926147942     IErMin=12 ErrMin= 5.80D-06
 ErrMax= 5.80D-06  0.00D+00 EMaxC= 1.00D-01 BMatC= 9.84D-09 BMatP= 4.74D-08
 IDIUse=1 WtCom= 1.00D+00 WtEn= 0.00D+00
 Coeff-Com:  0.275D-04-0.269D-03 0.235D-03 0.349D-02 0.149D-02-0.260D-01
 Coeff-Com: -0.571D-01 0.164D+00 0.339D+00-0.624D+00-0.391D+00 0.159D+01
 Coeff:      0.275D-04-0.269D-03 0.235D-03 0.349D-02 0.149D-02-0.260D-01
 Coeff:     -0.571D-01 0.164D+00 0.339D+00-0.624D+00-0.391D+00 0.159D+01
 RMSDP=7.23D-06 MaxDP=2.55D-04 DE=-1.58D-06 OVMax= 0.00D+00

 Cycle  13  Pass 1  IDiag  1:
 RMSU=  4.61D-06    CP:  9.92D-01  1.15D+00  1.03D+00  1.19D+00  1.50D+00
                    CP:  1.53D+00  3.00D+00  3.00D+00  3.00D+00  3.00D+00
                    CP:  3.00D+00  1.54D+00
 E= -473.767926441766     Delta-E=       -0.000000293823 Rises=F Damp=F
 DIIS: error= 3.51D-06 at cycle  13 NSaved=  13.
 NSaved=13 IEnMin=13 EnMin= -473.767926441766     IErMin=13 ErrMin= 3.51D-06
 ErrMax= 3.51D-06  0.00D+00 EMaxC= 1.00D-01 BMatC= 1.81D-09 BMatP= 9.84D-09
 IDIUse=1 WtCom= 1.00D+00 WtEn= 0.00D+00
 Coeff-Com:  0.236D-04-0.130D-03-0.241D-03 0.109D-02 0.353D-02-0.335D-02
 Coeff-Com: -0.431D-01-0.198D-02 0.178D+00 0.452D-01-0.460D+00 0.201D+00
 Coeff-Com:  0.108D+01
 Coeff:      0.236D-04-0.130D-03-0.241D-03 0.109D-02 0.353D-02-0.335D-02
 Coeff:     -0.431D-01-0.198D-02 0.178D+00 0.452D-01-0.460D+00 0.201D+00
 Coeff:      0.108D+01
 RMSDP=2.23D-06 MaxDP=7.48D-05 DE=-2.94D-07 OVMax= 0.00D+00

 Cycle  14  Pass 1  IDiag  1:
 RMSU=  3.97D-07    CP:  9.92D-01  1.15D+00  1.03D+00  1.19D+00  1.50D+00
                    CP:  1.53D+00  3.00D+00  3.00D+00  3.00D+00  3.00D+00
                    CP:  3.00D+00  1.70D+00  1.31D+00
 E= -473.767926478629     Delta-E=       -0.000000036864 Rises=F Damp=F
 DIIS: error= 1.98D-06 at cycle  14 NSaved=  14.
 NSaved=14 IEnMin=14 EnMin= -473.767926478629     IErMin=14 ErrMin= 1.98D-06
 ErrMax= 1.98D-06  0.00D+00 EMaxC= 1.00D-01 BMatC= 6.15D-10 BMatP= 1.81D-09
 IDIUse=1 WtCom= 1.00D+00 WtEn= 0.00D+00
 Coeff-Com: -0.135D-04 0.106D-03-0.297D-04-0.121D-02-0.962D-03 0.794D-02
 Coeff-Com:  0.201D-01-0.229D-01-0.154D+00 0.224D+00 0.975D-01-0.394D+00
 Coeff-Com: -0.229D+00 0.145D+01
 Coeff:     -0.135D-04 0.106D-03-0.297D-04-0.121D-02-0.962D-03 0.794D-02
 Coeff:      0.201D-01-0.229D-01-0.154D+00 0.224D+00 0.975D-01-0.394D+00
 Coeff:     -0.229D+00 0.145D+01
 RMSDP=8.82D-07 MaxDP=3.13D-05 DE=-3.69D-08 OVMax= 0.00D+00

 Cycle  15  Pass 1  IDiag  1:
 RMSU=  2.29D-07    CP:  9.92D-01  1.15D+00  1.03D+00  1.19D+00  1.50D+00
                    CP:  1.53D+00  3.00D+00  3.00D+00  3.00D+00  3.00D+00
                    CP:  3.00D+00  1.74D+00  1.41D+00  2.36D+00
 E= -473.767926490308     Delta-E=       -0.000000011679 Rises=F Damp=F
 DIIS: error= 1.33D-06 at cycle  15 NSaved=  15.
 NSaved=15 IEnMin=15 EnMin= -473.767926490308     IErMin=15 ErrMin= 1.33D-06
 ErrMax= 1.33D-06  0.00D+00 EMaxC= 1.00D-01 BMatC= 2.32D-10 BMatP= 6.15D-10
 IDIUse=1 WtCom= 1.00D+00 WtEn= 0.00D+00
 Coeff-Com: -0.607D-05 0.297D-04 0.927D-04-0.211D-03-0.113D-02 0.351D-03
 Coeff-Com:  0.110D-01 0.108D-01-0.604D-01-0.500D-02 0.868D-01 0.478D-01
 Coeff-Com: -0.400D+00-0.246D+00 0.156D+01
 Coeff:     -0.607D-05 0.297D-04 0.927D-04-0.211D-03-0.113D-02 0.351D-03
 Coeff:      0.110D-01 0.108D-01-0.604D-01-0.500D-02 0.868D-01 0.478D-01
 Coeff:     -0.400D+00-0.246D+00 0.156D+01
 RMSDP=7.21D-07 MaxDP=2.96D-05 DE=-1.17D-08 OVMax= 0.00D+00

 Cycle  16  Pass 1  IDiag  1:
 RMSU=  2.69D-07    CP:  9.92D-01  1.15D+00  1.03D+00  1.19D+00  1.51D+00
                    CP:  1.53D+00  3.00D+00  3.00D+00  3.00D+00  3.00D+00
                    CP:  3.00D+00  1.78D+00  1.49D+00  3.00D+00  1.79D+00
 E= -473.767926495841     Delta-E=       -0.000000005533 Rises=F Damp=F
 DIIS: error= 5.27D-07 at cycle  16 NSaved=  16.
 NSaved=16 IEnMin=16 EnMin= -473.767926495841     IErMin=16 ErrMin= 5.27D-07
 ErrMax= 5.27D-07  0.00D+00 EMaxC= 1.00D-01 BMatC= 6.43D-11 BMatP= 2.32D-10
 IDIUse=1 WtCom= 1.00D+00 WtEn= 0.00D+00
 Coeff-Com:  0.720D-05-0.508D-04-0.248D-05 0.545D-03 0.540D-03-0.296D-02
 Coeff-Com: -0.109D-01 0.104D-01 0.688D-01-0.681D-01-0.916D-01 0.182D+00
 Coeff-Com:  0.146D+00-0.560D+00-0.194D+00 0.152D+01
 Coeff:      0.720D-05-0.508D-04-0.248D-05 0.545D-03 0.540D-03-0.296D-02
 Coeff:     -0.109D-01 0.104D-01 0.688D-01-0.681D-01-0.916D-01 0.182D+00
 Coeff:      0.146D+00-0.560D+00-0.194D+00 0.152D+01
 RMSDP=4.21D-07 MaxDP=1.68D-05 DE=-5.53D-09 OVMax= 0.00D+00

 Cycle  17  Pass 1  IDiag  1:
 RMSU=  6.23D-08    CP:  9.92D-01  1.15D+00  1.03D+00  1.19D+00  1.51D+00
                    CP:  1.53D+00  3.00D+00  3.00D+00  3.00D+00  3.00D+00
                    CP:  3.00D+00  1.79D+00  1.52D+00  3.00D+00  2.47D+00
                    CP:  2.28D+00
 E= -473.767926497429     Delta-E=       -0.000000001588 Rises=F Damp=F
 DIIS: error= 4.11D-07 at cycle  17 NSaved=  17.
 NSaved=17 IEnMin=17 EnMin= -473.767926497429     IErMin=17 ErrMin= 4.11D-07
 ErrMax= 4.11D-07  0.00D+00 EMaxC= 1.00D-01 BMatC= 1.16D-11 BMatP= 6.43D-11
 IDIUse=1 WtCom= 1.00D+00 WtEn= 0.00D+00
 Coeff-Com:  0.129D-05-0.625D-05-0.222D-04 0.394D-04 0.256D-03-0.548D-04
 Coeff-Com: -0.264D-02-0.172D-02 0.107D-01 0.480D-02-0.219D-01-0.855D-02
 Coeff-Com:  0.781D-01 0.353D-01-0.265D+00-0.815D-01 0.125D+01
 Coeff:      0.129D-05-0.625D-05-0.222D-04 0.394D-04 0.256D-03-0.548D-04
 Coeff:     -0.264D-02-0.172D-02 0.107D-01 0.480D-02-0.219D-01-0.855D-02
 Coeff:      0.781D-01 0.353D-01-0.265D+00-0.815D-01 0.125D+01
 RMSDP=1.63D-07 MaxDP=6.62D-06 DE=-1.59D-09 OVMax= 0.00D+00

 Cycle  18  Pass 1  IDiag  1:
 RMSU=  3.26D-08    CP:  9.92D-01  1.15D+00  1.03D+00  1.19D+00  1.51D+00
                    CP:  1.53D+00  3.00D+00  3.00D+00  3.00D+00  3.00D+00
                    CP:  3.00D+00  1.79D+00  1.53D+00  3.00D+00  2.69D+00
                    CP:  2.74D+00  1.27D+00
 E= -473.767926497698     Delta-E=       -0.000000000268 Rises=F Damp=F
 DIIS: error= 2.89D-07 at cycle  18 NSaved=  18.
 NSaved=18 IEnMin=18 EnMin= -473.767926497698     IErMin=18 ErrMin= 2.89D-07
 ErrMax= 2.89D-07  0.00D+00 EMaxC= 1.00D-01 BMatC= 3.19D-12 BMatP= 1.16D-11
 IDIUse=1 WtCom= 1.00D+00 WtEn= 0.00D+00
 Coeff-Com: -0.227D-05 0.155D-04 0.217D-05-0.163D-03-0.153D-03 0.837D-03
 Coeff-Com:  0.329D-02-0.208D-02-0.215D-01 0.190D-01 0.281D-01-0.491D-01
 Coeff-Com: -0.450D-01 0.137D+00 0.123D+00-0.464D+00-0.198D+00 0.147D+01
 Coeff:     -0.227D-05 0.155D-04 0.217D-05-0.163D-03-0.153D-03 0.837D-03
 Coeff:      0.329D-02-0.208D-02-0.215D-01 0.190D-01 0.281D-01-0.491D-01
 Coeff:     -0.450D-01 0.137D+00 0.123D+00-0.464D+00-0.198D+00 0.147D+01
 RMSDP=7.29D-08 MaxDP=2.73D-06 DE=-2.68D-10 OVMax= 0.00D+00

 Cycle  19  Pass 1  IDiag  1:
 RMSU=  9.83D-09    CP:  9.92D-01  1.15D+00  1.03D+00  1.19D+00  1.51D+00
                    CP:  1.53D+00  3.00D+00  3.00D+00  3.00D+00  3.00D+00
                    CP:  3.00D+00  1.79D+00  1.54D+00  3.00D+00  2.80D+00
                    CP:  2.95D+00  1.49D+00  1.98D+00
 E= -473.767926497747     Delta-E=       -0.000000000049 Rises=F Damp=F
 DIIS: error= 1.26D-07 at cycle  19 NSaved=  19.
 NSaved=19 IEnMin=19 EnMin= -473.767926497747     IErMin=19 ErrMin= 1.26D-07
 ErrMax= 1.26D-07  0.00D+00 EMaxC= 1.00D-01 BMatC= 5.00D-13 BMatP= 3.19D-12
 IDIUse=1 WtCom= 1.00D+00 WtEn= 0.00D+00
 Coeff-Com: -0.209D-06 0.988D-06 0.541D-05-0.794D-05-0.364D-04-0.335D-04
 Coeff-Com:  0.418D-03 0.485D-03-0.182D-02-0.100D-02 0.290D-02 0.281D-02
 Coeff-Com: -0.110D-01-0.217D-01 0.553D-01 0.460D-01-0.254D+00-0.396D-01
 Coeff-Com:  0.122D+01
 Coeff:     -0.209D-06 0.988D-06 0.541D-05-0.794D-05-0.364D-04-0.335D-04
 Coeff:      0.418D-03 0.485D-03-0.182D-02-0.100D-02 0.290D-02 0.281D-02
 Coeff:     -0.110D-01-0.217D-01 0.553D-01 0.460D-01-0.254D+00-0.396D-01
 Coeff:      0.122D+01
 RMSDP=2.28D-08 MaxDP=1.29D-06 DE=-4.91D-11 OVMax= 0.00D+00

 Cycle  20  Pass 1  IDiag  1:
 RMSU=  4.81D-09    CP:  9.92D-01  1.15D+00  1.03D+00  1.19D+00  1.51D+00
                    CP:  1.53D+00  3.00D+00  3.00D+00  3.00D+00  3.00D+00
                    CP:  3.00D+00  1.79D+00  1.54D+00  3.00D+00  2.83D+00
                    CP:  3.00D+00  1.56D+00  2.35D+00  1.40D+00
 E= -473.767926497761     Delta-E=       -0.000000000015 Rises=F Damp=F
 DIIS: error= 4.68D-08 at cycle  20 NSaved=  20.
 NSaved=20 IEnMin=20 EnMin= -473.767926497761     IErMin=20 ErrMin= 4.68D-08
 ErrMax= 4.68D-08  0.00D+00 EMaxC= 1.00D-01 BMatC= 8.68D-14 BMatP= 5.00D-13
 IDIUse=1 WtCom= 1.00D+00 WtEn= 0.00D+00
 Coeff-Com:  0.453D-06-0.312D-05 0.154D-06 0.310D-04 0.348D-04-0.180D-03
 Coeff-Com: -0.633D-03 0.527D-03 0.395D-02-0.355D-02-0.539D-02 0.989D-02
 Coeff-Com:  0.971D-02-0.301D-01-0.221D-01 0.971D-01 0.134D-01-0.265D+00
 Coeff-Com:  0.465D-01 0.115D+01
 Coeff:      0.453D-06-0.312D-05 0.154D-06 0.310D-04 0.348D-04-0.180D-03
 Coeff:     -0.633D-03 0.527D-03 0.395D-02-0.355D-02-0.539D-02 0.989D-02
 Coeff:      0.971D-02-0.301D-01-0.221D-01 0.971D-01 0.134D-01-0.265D+00
 Coeff:      0.465D-01 0.115D+01
 RMSDP=7.41D-09 MaxDP=5.36D-07 DE=-1.46D-11 OVMax= 0.00D+00

 SCF Done:  E(RZINDO/S) =  -473.767926498     A.U. after   20 cycles
            NFock= 20  Conv=0.74D-08     -V/T= 0.9514
 KE=-9.747010351490D+03 PE= 8.680381142767D-07 EE= 4.736251313380D+03
 Leave Link  502 at Wed May  4 00:29:07 2022, MaxMem=  6710886400 cpu:              22.4 elap:               1.0
 (Enter /sw/apps/gaussian-16.0/g16/l801.exe)
 Range of M.O.s used for correlation:     1   338
 NBasis=   338 NAE=   176 NBE=   176 NFC=     0 NFV=     0
 NROrb=    338 NOA=   176 NOB=   176 NVA=   162 NVB=   162
 Leave Link  801 at Wed May  4 00:29:07 2022, MaxMem=  6710886400 cpu:               0.5 elap:               0.0
 (Enter /sw/apps/gaussian-16.0/g16/l914.exe)
 RHF ground state
 Two-electron integral symmetry not used.
 MDV=  6710886400 DFT=F DoStab=F Mixed=F DoRPA=F DoScal=F NonHer=F
 Making orbital integer symmetry assigments:
 Orbital symmetries:
       Occupied  (A) (A) (A) (A) (A) (A) (A) (A) (A) (A) (A) (A)
                 (A) (A) (A) (A) (A) (A) (A) (A) (A) (A) (A) (A)
                 (A) (A) (A) (A) (A) (A) (A) (A) (A) (A) (A) (A)
                 (A) (A) (A) (A) (A) (A) (A) (A) (A) (A) (A) (A)
                 (A) (A) (A) (A) (A) (A) (A) (A) (A) (A) (A) (A)
                 (A) (A) (A) (A) (A) (A) (A) (A) (A) (A) (A) (A)
                 (A) (A) (A) (A) (A) (A) (A) (A) (A) (A) (A) (A)
                 (A) (A) (A) (A) (A) (A) (A) (A) (A) (A) (A) (A)
                 (A) (A) (A) (A) (A) (A) (A) (A) (A) (A) (A) (A)
                 (A) (A) (A) (A) (A) (A) (A) (A) (A) (A) (A) (A)
                 (A) (A) (A) (A) (A) (A) (A) (A) (A) (A) (A) (A)
                 (A) (A) (A) (A) (A) (A) (A) (A) (A) (A) (A) (A)
                 (A) (A) (A) (A) (A) (A) (A) (A) (A) (A) (A) (A)
                 (A) (A) (A) (A) (A) (A) (A) (A) (A) (A) (A) (A)
                 (A) (A) (A) (A) (A) (A) (A) (A)
       Virtual   (A) (A) (A) (A) (A) (A) (A) (A) (A) (A) (A) (A)
                 (A) (A) (A) (A) (A) (A) (A) (A) (A) (A) (A) (A)
                 (A) (A) (A) (A) (A) (A) (A) (A) (A) (A) (A) (A)
                 (A) (A) (A) (A) (A) (A) (A) (A) (A) (A) (A) (A)
                 (A) (A) (A) (A) (A) (A) (A) (A) (A) (A) (A) (A)
                 (A) (A) (A) (A) (A) (A) (A) (A) (A) (A) (A) (A)
                 (A) (A) (A) (A) (A) (A) (A) (A) (A) (A) (A) (A)
                 (A) (A) (A) (A) (A) (A) (A) (A) (A) (A) (A) (A)
                 (A) (A) (A) (A) (A) (A) (A) (A) (A) (A) (A) (A)
                 (A) (A) (A) (A) (A) (A) (A) (A) (A) (A) (A) (A)
                 (A) (A) (A) (A) (A) (A) (A) (A) (A) (A) (A) (A)
                 (A) (A) (A) (A) (A) (A) (A) (A) (A) (A) (A) (A)
                 (A) (A) (A) (A) (A) (A) (A) (A) (A) (A) (A) (A)
                 (A) (A) (A) (A) (A) (A)
    20 initial guesses have been made.
 Convergence on wavefunction:    0.001000000000000
 Davidson Disk Diagonalization:  ConvIn= 1.00D-03 SkipCon=T Conv= 1.00D-03.
 Max sub-space:  2000 roots to seek:    20 dimension of matrix:        57024
 Iteration     1 Dimension    20 NMult     0 NNew     20
 CISAX will form    20 AO SS matrices at one time.
 NMat=    20 NSing=    20 JSym2X= 0.
 New state      3 was old state      4
 New state      4 was old state      8
 New state      5 was old state      9
 Excitation Energies [eV] at current iteration:
 Root      1 :     1.605273857679100
 Root      2 :     2.089833990642407
 Root      3 :     3.207560117979862
 Root      4 :     3.264606895062609
 Root      5 :     3.315947756843542
 Root      6 :     3.476978172957646
 Root      7 :     3.639394648879307
 Root      8 :     3.720454278061044
 Root      9 :     3.748315157201339
 Root     10 :     3.902777915285936
 Root     11 :     4.101395763404971
 Root     12 :     4.257618968553937
 Root     13 :     4.423599484233199
 Root     14 :     4.445152438504976
 Root     15 :     4.470748995048354
 Root     16 :     4.526091181165470
 Root     17 :     4.604419236692184
 Root     18 :     4.626793056742753
 Root     19 :     4.628035293552061
 Root     20 :     5.576887691766807
 Iteration     2 Dimension    40 NMult    20 NNew     20
 CISAX will form    20 AO SS matrices at one time.
 NMat=    20 NSing=    20 JSym2X= 0.
 Root      1 not converged, maximum delta is    0.045320098440239
 Root      2 not converged, maximum delta is    0.034539220928547
 New state      3 was old state      4
 Root      3 not converged, maximum delta is    0.378613013006531
 New state      4 was old state      3
 Root      4 not converged, maximum delta is    0.242206523852392
 New state      5 was old state      6
 Root      5 not converged, maximum delta is    0.383786330833057
 Excitation Energies [eV] at current iteration:
 Root      1 :     1.244582708176202   Change is   -0.360691149502898
 Root      2 :     1.895678174833185   Change is   -0.194155815809222
 Root      3 :     2.962641366131828   Change is   -0.301965528930781
 Root      4 :     3.010139492069703   Change is   -0.197420625910159
 Root      5 :     3.203402356925329   Change is   -0.273575816032317
 Root      6 :     3.246965095355180   Change is   -0.068982661488361
 Root      7 :     3.410015054941305   Change is   -0.338300102260034
 Root      8 :     3.447318067814649   Change is   -0.192076581064658
 Root      9 :     3.487303572714340   Change is   -0.233150705346704
 Root     10 :     3.608874102918910   Change is   -0.293903812367026
 Root     11 :     3.636130709566804   Change is   -0.787468774666395
 Root     12 :     3.733749504771876   Change is   -0.367646258633095
 Root     13 :     4.064770473383927   Change is   -0.192848495170011
 Root     14 :     4.199838012233874   Change is   -0.270910982814480
 Root     15 :     4.233339104964723   Change is   -0.371080131727461
 Root     16 :     4.321015340706731   Change is   -0.124137097798245
 Root     17 :     4.415681837666089   Change is   -0.211111219076665
 Root     18 :     4.480475211533109   Change is   -0.045615969632361
 Root     19 :     4.621460999047964   Change is   -0.006574294504096
 Root     20 :     5.541173376609369   Change is   -0.035714315157438
 Iteration     3 Dimension    45 NMult    40 NNew      5
 CISAX will form     5 AO SS matrices at one time.
 NMat=     5 NSing=     5 JSym2X= 0.
 Root      1 not converged, maximum delta is    0.010899192638945
 Root      2 not converged, maximum delta is    0.018028635883156
 Root      3 not converged, maximum delta is    0.031511299135005
 Root      4 not converged, maximum delta is    0.026025992651968
 Root      5 not converged, maximum delta is    0.076708186829895
 Excitation Energies [eV] at current iteration:
 Root      1 :     1.227267010041516   Change is   -0.017315698134686
 Root      2 :     1.868869178473779   Change is   -0.026808996359406
 Root      3 :     2.943771329296819   Change is   -0.018870036835009
 Root      4 :     2.979462993906667   Change is   -0.030676498163036
 Root      5 :     3.166447234047660   Change is   -0.036955122877669
 Iteration     4 Dimension    50 NMult    45 NNew      5
 CISAX will form     5 AO SS matrices at one time.
 NMat=     5 NSing=     5 JSym2X= 0.
 Root      1 not converged, maximum delta is    0.001578980553227
 Root      2 not converged, maximum delta is    0.002792016578972
 Root      3 not converged, maximum delta is    0.042872270116759
 Root      4 not converged, maximum delta is    0.025425337466133
 Root      5 not converged, maximum delta is    0.215208117175477
 Excitation Energies [eV] at current iteration:
 Root      1 :     1.226460537207974   Change is   -0.000806472833541
 Root      2 :     1.868158595235625   Change is   -0.000710583238154
 Root      3 :     2.937858516363499   Change is   -0.005912812933320
 Root      4 :     2.976537664452579   Change is   -0.002925329454088
 Root      5 :     3.081283262320079   Change is   -0.085163971727581
 Iteration     5 Dimension    55 NMult    50 NNew      5
 CISAX will form     5 AO SS matrices at one time.
 NMat=     5 NSing=     5 JSym2X= 0.
 Root      1 has converged.
 Root      2 has converged.
 New state      3 was old state      5
 Root      3 not converged, maximum delta is    0.349579257460120
 New state      4 was old state      3
 Root      4 not converged, maximum delta is    0.197183657573371
 New state      5 was old state      4
 Root      5 not converged, maximum delta is    0.071720794838485
 Excitation Energies [eV] at current iteration:
 Root      1 :     1.226415966638304   Change is   -0.000044570569671
 Root      2 :     1.868118847840043   Change is   -0.000039747395582
 Root      3 :     2.896395240902045   Change is   -0.184888021418035
 Root      4 :     2.952148357547281   Change is    0.014289841183783
 Root      5 :     2.977716838346559   Change is    0.001179173893980
 Iteration     6 Dimension    58 NMult    55 NNew      3
 CISAX will form     3 AO SS matrices at one time.
 NMat=     3 NSing=     3 JSym2X= 0.
 Root      1 has converged.
 Root      2 has converged.
 Root      3 not converged, maximum delta is    0.074179351963064
 Root      4 not converged, maximum delta is    0.049887308739281
 Root      5 not converged, maximum delta is    0.017333151587249
 Excitation Energies [eV] at current iteration:
 Root      1 :     1.226415655072711   Change is   -0.000000311565593
 Root      2 :     1.868118724097420   Change is   -0.000000123742624
 Root      3 :     2.870843124371284   Change is   -0.025552116530761
 Root      4 :     2.947798989202155   Change is   -0.004349368345126
 Root      5 :     2.977120188399532   Change is   -0.000596649947026
 Iteration     7 Dimension    61 NMult    58 NNew      3
 CISAX will form     3 AO SS matrices at one time.
 NMat=     3 NSing=     3 JSym2X= 0.
 Root      1 has converged.
 Root      2 has converged.
 Root      3 not converged, maximum delta is    0.016544853950853
 Root      4 not converged, maximum delta is    0.006123545467142
 Root      5 not converged, maximum delta is    0.013258412432110
 Excitation Energies [eV] at current iteration:
 Root      1 :     1.226415142132731   Change is   -0.000000512939979
 Root      2 :     1.868118595882530   Change is   -0.000000128214890
 Root      3 :     2.866476002026378   Change is   -0.004367122344907
 Root      4 :     2.947309042506817   Change is   -0.000489946695338
 Root      5 :     2.976655553453173   Change is   -0.000464634946360
 Iteration     8 Dimension    64 NMult    61 NNew      3
 CISAX will form     3 AO SS matrices at one time.
 NMat=     3 NSing=     3 JSym2X= 0.
 Root      1 has converged.
 Root      2 has converged.
 Root      3 not converged, maximum delta is    0.004852889901549
 Root      4 not converged, maximum delta is    0.020162592643098
 Root      5 not converged, maximum delta is    0.195850258762883
 Excitation Energies [eV] at current iteration:
 Root      1 :     1.226414854712217   Change is   -0.000000287420514
 Root      2 :     1.868118545249622   Change is   -0.000000050632908
 Root      3 :     2.865813658172030   Change is   -0.000662343854348
 Root      4 :     2.947154675944482   Change is   -0.000154366562336
 Root      5 :     2.970063767369321   Change is   -0.006591786083852
 Iteration     9 Dimension    67 NMult    64 NNew      3
 CISAX will form     3 AO SS matrices at one time.
 NMat=     3 NSing=     3 JSym2X= 0.
 Root      1 has converged.
 Root      2 has converged.
 Root      3 not converged, maximum delta is    0.001343824889983
 New state      4 was old state      5
 Root      4 not converged, maximum delta is    0.341500028691322
 New state      5 was old state      4
 Root      5 not converged, maximum delta is    0.085293098975516
 Excitation Energies [eV] at current iteration:
 Root      1 :     1.226414744834495   Change is   -0.000000109877722
 Root      2 :     1.868118472390323   Change is   -0.000000072859299
 Root      3 :     2.865727429006019   Change is   -0.000086229166011
 Root      4 :     2.935778592838531   Change is   -0.034285174530790
 Root      5 :     2.947537270507417   Change is    0.000382594562936
 Iteration    10 Dimension    70 NMult    67 NNew      3
 CISAX will form     3 AO SS matrices at one time.
 NMat=     3 NSing=     3 JSym2X= 0.
 Root      1 has converged.
 Root      2 has converged.
 Root      3 has converged.
 Root      4 not converged, maximum delta is    0.028260027645168
 Root      5 not converged, maximum delta is    0.020731357951250
 Excitation Energies [eV] at current iteration:
 Root      1 :     1.226414740095378   Change is   -0.000000004739117
 Root      2 :     1.868118423727008   Change is   -0.000000048663315
 Root      3 :     2.865718160043469   Change is   -0.000009268962550
 Root      4 :     2.930088074119892   Change is   -0.005690518718638
 Root      5 :     2.947437760579910   Change is   -0.000099509927508
 Iteration    11 Dimension    72 NMult    70 NNew      2
 CISAX will form     2 AO SS matrices at one time.
 NMat=     2 NSing=     2 JSym2X= 0.
 Root      1 has converged.
 Root      2 has converged.
 Root      3 has converged.
 Root      4 not converged, maximum delta is    0.003810360647340
 Root      5 not converged, maximum delta is    0.001739462859388
 Excitation Energies [eV] at current iteration:
 Root      1 :     1.226414736677647   Change is   -0.000000003417731
 Root      2 :     1.868118394028011   Change is   -0.000000029698997
 Root      3 :     2.865718103157556   Change is   -0.000000056885914
 Root      4 :     2.929363100469287   Change is   -0.000724973650605
 Root      5 :     2.947429352715426   Change is   -0.000008407864483
 Iteration    12 Dimension    74 NMult    72 NNew      2
 CISAX will form     2 AO SS matrices at one time.
 NMat=     2 NSing=     2 JSym2X= 0.
 Root      1 has converged.
 Root      2 has converged.
 Root      3 has converged.
 Root      4 not converged, maximum delta is    0.001429823350987
 Root      5 has converged.
 Excitation Energies [eV] at current iteration:
 Root      1 :     1.226414731843765   Change is   -0.000000004833882
 Root      2 :     1.868118362710880   Change is   -0.000000031317131
 Root      3 :     2.865718081684426   Change is   -0.000000021473129
 Root      4 :     2.929284504366230   Change is   -0.000078596103057
 Root      5 :     2.947428511181843   Change is   -0.000000841533583
 Iteration    13 Dimension    75 NMult    74 NNew      1
 CISAX will form     1 AO SS matrices at one time.
 NMat=     1 NSing=     1 JSym2X= 0.
 Root      1 has converged.
 Root      2 has converged.
 Root      3 has converged.
 Root      4 has converged.
 Root      5 has converged.
 Excitation Energies [eV] at current iteration:
 Root      1 :     1.226414730877862   Change is   -0.000000000965903
 Root      2 :     1.868118358927001   Change is   -0.000000003783879
 Root      3 :     2.865718078094850   Change is   -0.000000003589576
 Root      4 :     2.929273669938401   Change is   -0.000010834427829
 Root      5 :     2.947428434186970   Change is   -0.000000076994873
 Convergence achieved on expansion vectors.
 ***********************************************************************
 Excited states from <AA,BB:AA,BB> singles matrix:
 ***********************************************************************
 
 1PDM for each excited state written to RWF  633
 Ground to excited state transition densities written to RWF  633
 Ground to excited state transition electric dipole moments (Au):
       state          X           Y           Z        Dip. S.      Osc.
         1         2.2694      1.1064      3.5857     19.2317      0.5778
         2        -0.0957     -0.4718      0.3299      0.3406      0.0156
         3         0.1072      0.6082     -0.1243      0.3968      0.0279
         4        -0.0171     -0.1132      0.0249      0.0137      0.0010
         5         0.5762      3.5630     -1.0196     14.0669      1.0158
 Ground to excited state transition velocity dipole moments (Au):
       state          X           Y           Z        Dip. S.      Osc.
         1         0.0319     -0.0075      0.0745      0.0066      0.0980
         2         0.0062      0.0113      0.0011      0.0002      0.0016
         3        -0.0060     -0.0138      0.0020      0.0002      0.0015
         4         0.0001      0.0080      0.0022      0.0001      0.0004
         5        -0.0135     -0.1037      0.0243      0.0115      0.0710
 Ground to excited state transition magnetic dipole moments (Au):
       state          X           Y           Z
         1         0.2407      0.3240      0.0002
         2        -0.3579      0.0981      0.0889
         3         0.6053      0.4384      0.4403
         4        -0.4638     -0.0830     -0.6156
         5         0.2487      0.0686      0.6715
 Ground to excited state transition velocity quadrupole moments (Au):
       state          XX          YY          ZZ          XY          XZ          YZ
         1        -0.3614     -0.1182     -0.0828      0.0760     -0.4224     -0.0844
         2        -0.1421      0.0740     -0.0234     -0.1080      0.0145      0.0220
         3         0.1699     -0.1450      0.0438      0.1075     -0.0027      0.0012
         4         0.0106      0.0386      0.0302     -0.0039      0.0517      0.1453
         5         0.5100     -0.3675      0.0372      0.6155     -0.3313     -0.0299
 <0|del|b> * <b|rxdel|0> + <0|del|b> * <b|delr+rdel|0>
 Rotatory Strengths (R) in cgs (10**-40 erg-esu-cm/Gauss)
       state          XX          YY          ZZ    R(velocity)    E-M Angle
         1         0.6343     -5.1414     87.2294     27.5741       80.76
         2         4.7677     -9.6831     -5.6344     -3.5166      101.93
         3       -16.7428     -9.9198    -32.4053    -19.6893      131.77
         4        -7.9670     -4.5261     -1.1062     -4.5331      108.81
         5       -33.4282     -5.1649     76.7276     12.7115       85.66
 1/2[<0|r|b>*<b|rxdel|0> + (<0|rxdel|b>*<b|r|0>)*]
 Rotatory Strengths (R) in cgs (10**-40 erg-esu-cm/Gauss)
       state          XX          YY          ZZ     R(length)
         1      -386.3002   -253.4705     -0.5012   -213.4239
         2       -24.2286     32.7222    -20.7390     -4.0818
         3       -45.8845   -188.5515     38.6897    -65.2487
         4        -5.6186     -6.6414     10.8286     -0.4771
         5      -101.3498   -172.8192    484.1890     70.0067
  1/2[<0|del|b>*<b|r|0> + (<0|r|b>*<b|del|0>)*] (Au)
       state          X           Y           Z        Dip. S.   Osc.(frdel)
         1         0.0725     -0.0083      0.2671     -0.3313     -0.2208
         2        -0.0006     -0.0053      0.0004      0.0056      0.0037
         3        -0.0006     -0.0084     -0.0003      0.0093      0.0062
         4        -0.0000     -0.0009      0.0001      0.0009      0.0006
         5        -0.0078     -0.3696     -0.0247      0.4021      0.2681

 Excitation energies and oscillator strengths:
 
 Excited State   1:      Singlet-A      1.2264 eV 1010.95 nm  f=0.5778  <S**2>=0.000
     175 ->178        -0.19561
     176 ->177         0.66065
 This state for optimization and/or second-order correction.
 Total Energy, E(CIS/TDA) =  -473.722856586    
 Copying the excited state density for this state as the 1-particle RhoCI density.
 
 Excited State   2:      Singlet-A      1.8681 eV  663.68 nm  f=0.0156  <S**2>=0.000
     175 ->177         0.52188
     176 ->178         0.45277
 
 Excited State   3:      Singlet-A      2.8657 eV  432.65 nm  f=0.0279  <S**2>=0.000
     170 ->177         0.30985
     170 ->178        -0.13173
     170 ->179         0.33284
     170 ->180        -0.33969
     170 ->185         0.19599
     170 ->187         0.14894
     170 ->200        -0.10282
     174 ->177         0.12282
 
 Excited State   4:      Singlet-A      2.9293 eV  423.26 nm  f=0.0010  <S**2>=0.000
     168 ->177         0.25035
     168 ->178        -0.12237
     168 ->179        -0.41438
     168 ->180        -0.31840
     168 ->184        -0.12264
     168 ->185        -0.20832
     168 ->187         0.11023
     168 ->193         0.11471
     176 ->179         0.16882
 
 Excited State   5:      Singlet-A      2.9474 eV  420.65 nm  f=1.0158  <S**2>=0.000
     172 ->177         0.12102
     174 ->177         0.13842
     175 ->177        -0.38602
     176 ->178         0.46718
     176 ->179        -0.14591
     176 ->180         0.13897
 SavETr:  write IOETrn=   770 NScale= 10 NData=  16 NLR=1 NState=    5 LETran=     100.
 Leave Link  914 at Wed May  4 00:29:12 2022, MaxMem=  6710886400 cpu:             117.5 elap:               4.9
 (Enter /sw/apps/gaussian-16.0/g16/l601.exe)
 Copying SCF densities to generalized density rwf, IOpCl= 0 IROHF=0.

 **********************************************************************

            Population analysis using the SCF density.

 **********************************************************************

 Orbital symmetries:
       Occupied  (A) (A) (A) (A) (A) (A) (A) (A) (A) (A) (A) (A)
                 (A) (A) (A) (A) (A) (A) (A) (A) (A) (A) (A) (A)
                 (A) (A) (A) (A) (A) (A) (A) (A) (A) (A) (A) (A)
                 (A) (A) (A) (A) (A) (A) (A) (A) (A) (A) (A) (A)
                 (A) (A) (A) (A) (A) (A) (A) (A) (A) (A) (A) (A)
                 (A) (A) (A) (A) (A) (A) (A) (A) (A) (A) (A) (A)
                 (A) (A) (A) (A) (A) (A) (A) (A) (A) (A) (A) (A)
                 (A) (A) (A) (A) (A) (A) (A) (A) (A) (A) (A) (A)
                 (A) (A) (A) (A) (A) (A) (A) (A) (A) (A) (A) (A)
                 (A) (A) (A) (A) (A) (A) (A) (A) (A) (A) (A) (A)
                 (A) (A) (A) (A) (A) (A) (A) (A) (A) (A) (A) (A)
                 (A) (A) (A) (A) (A) (A) (A) (A) (A) (A) (A) (A)
                 (A) (A) (A) (A) (A) (A) (A) (A) (A) (A) (A) (A)
                 (A) (A) (A) (A) (A) (A) (A) (A) (A) (A) (A) (A)
                 (A) (A) (A) (A) (A) (A) (A) (A)
       Virtual   (A) (A) (A) (A) (A) (A) (A) (A) (A) (A) (A) (A)
                 (A) (A) (A) (A) (A) (A) (A) (A) (A) (A) (A) (A)
                 (A) (A) (A) (A) (A) (A) (A) (A) (A) (A) (A) (A)
                 (A) (A) (A) (A) (A) (A) (A) (A) (A) (A) (A) (A)
                 (A) (A) (A) (A) (A) (A) (A) (A) (A) (A) (A) (A)
                 (A) (A) (A) (A) (A) (A) (A) (A) (A) (A) (A) (A)
                 (A) (A) (A) (A) (A) (A) (A) (A) (A) (A) (A) (A)
                 (A) (A) (A) (A) (A) (A) (A) (A) (A) (A) (A) (A)
                 (A) (A) (A) (A) (A) (A) (A) (A) (A) (A) (A) (A)
                 (A) (A) (A) (A) (A) (A) (A) (A) (A) (A) (A) (A)
                 (A) (A) (A) (A) (A) (A) (A) (A) (A) (A) (A) (A)
                 (A) (A) (A) (A) (A) (A) (A) (A) (A) (A) (A) (A)
                 (A) (A) (A) (A) (A) (A) (A) (A) (A) (A) (A) (A)
                 (A) (A) (A) (A) (A) (A)
 The electronic state is 1-A.
 Alpha  occ. eigenvalues --   -1.84931  -1.83350  -1.80053  -1.71059  -1.70878
 Alpha  occ. eigenvalues --   -1.67501  -1.64493  -1.60620  -1.57260  -1.55976
 Alpha  occ. eigenvalues --   -1.54497  -1.51124  -1.47659  -1.46790  -1.46367
 Alpha  occ. eigenvalues --   -1.44578  -1.43026  -1.42204  -1.38403  -1.37993
 Alpha  occ. eigenvalues --   -1.36000  -1.33309  -1.31772  -1.30947  -1.28487
 Alpha  occ. eigenvalues --   -1.27536  -1.26511  -1.21613  -1.20462  -1.17833
 Alpha  occ. eigenvalues --   -1.16730  -1.16319  -1.14819  -1.13348  -1.11961
 Alpha  occ. eigenvalues --   -1.11497  -1.10931  -1.09964  -1.05834  -1.04873
 Alpha  occ. eigenvalues --   -1.02462  -1.01757  -1.00387  -0.98092  -0.96711
 Alpha  occ. eigenvalues --   -0.96452  -0.94331  -0.93665  -0.93311  -0.92456
 Alpha  occ. eigenvalues --   -0.91850  -0.91246  -0.88679  -0.88464  -0.86488
 Alpha  occ. eigenvalues --   -0.85995  -0.84738  -0.83764  -0.82033  -0.80829
 Alpha  occ. eigenvalues --   -0.79258  -0.78758  -0.78204  -0.77229  -0.76898
 Alpha  occ. eigenvalues --   -0.76339  -0.76257  -0.76068  -0.74460  -0.72904
 Alpha  occ. eigenvalues --   -0.72316  -0.72008  -0.71702  -0.71248  -0.70931
 Alpha  occ. eigenvalues --   -0.69838  -0.68849  -0.68265  -0.67878  -0.67473
 Alpha  occ. eigenvalues --   -0.67360  -0.66702  -0.66070  -0.65709  -0.65067
 Alpha  occ. eigenvalues --   -0.64907  -0.64344  -0.64168  -0.63881  -0.63568
 Alpha  occ. eigenvalues --   -0.63235  -0.63173  -0.62851  -0.62499  -0.62074
 Alpha  occ. eigenvalues --   -0.61880  -0.61644  -0.61051  -0.60884  -0.60601
 Alpha  occ. eigenvalues --   -0.60234  -0.59463  -0.59079  -0.58582  -0.58492
 Alpha  occ. eigenvalues --   -0.58393  -0.57711  -0.57409  -0.57347  -0.56938
 Alpha  occ. eigenvalues --   -0.56456  -0.56238  -0.55722  -0.55348  -0.55004
 Alpha  occ. eigenvalues --   -0.54587  -0.54335  -0.53887  -0.53787  -0.53457
 Alpha  occ. eigenvalues --   -0.53112  -0.52749  -0.52311  -0.51979  -0.51539
 Alpha  occ. eigenvalues --   -0.51441  -0.51311  -0.51155  -0.50806  -0.50483
 Alpha  occ. eigenvalues --   -0.50367  -0.50102  -0.49664  -0.49505  -0.49423
 Alpha  occ. eigenvalues --   -0.49162  -0.48992  -0.48457  -0.48106  -0.48034
 Alpha  occ. eigenvalues --   -0.47679  -0.47605  -0.47557  -0.47276  -0.46993
 Alpha  occ. eigenvalues --   -0.46283  -0.45975  -0.45861  -0.45395  -0.45308
 Alpha  occ. eigenvalues --   -0.45031  -0.44972  -0.44585  -0.44551  -0.43529
 Alpha  occ. eigenvalues --   -0.43515  -0.43319  -0.43206  -0.42811  -0.42485
 Alpha  occ. eigenvalues --   -0.42227  -0.41996  -0.41296  -0.39418  -0.38882
 Alpha  occ. eigenvalues --   -0.38805  -0.37872  -0.36279  -0.35663  -0.35050
 Alpha  occ. eigenvalues --   -0.33883  -0.32925  -0.32412  -0.32280  -0.27327
 Alpha  occ. eigenvalues --   -0.22195
 Alpha virt. eigenvalues --   -0.09075  -0.03103  -0.01354   0.00260   0.01337
 Alpha virt. eigenvalues --    0.01799   0.02014   0.02486   0.03838   0.04640
 Alpha virt. eigenvalues --    0.04950   0.05896   0.06482   0.06979   0.07480
 Alpha virt. eigenvalues --    0.07843   0.08005   0.08174   0.08621   0.08914
 Alpha virt. eigenvalues --    0.09222   0.09512   0.10029   0.10101   0.10311
 Alpha virt. eigenvalues --    0.10469   0.10810   0.11024   0.11527   0.11654
 Alpha virt. eigenvalues --    0.11851   0.12394   0.12645   0.12792   0.13134
 Alpha virt. eigenvalues --    0.13420   0.13622   0.13844   0.13905   0.14293
 Alpha virt. eigenvalues --    0.14394   0.14833   0.15131   0.15427   0.15552
 Alpha virt. eigenvalues --    0.15794   0.15983   0.16116   0.16285   0.16650
 Alpha virt. eigenvalues --    0.17279   0.17315   0.17489   0.17701   0.17819
 Alpha virt. eigenvalues --    0.18010   0.18145   0.18324   0.18994   0.19097
 Alpha virt. eigenvalues --    0.19360   0.19590   0.19970   0.20262   0.20781
 Alpha virt. eigenvalues --    0.21194   0.22062   0.22588   0.23064   0.23158
 Alpha virt. eigenvalues --    0.23437   0.23563   0.23649   0.23893   0.24005
 Alpha virt. eigenvalues --    0.24070   0.24084   0.24185   0.24331   0.24457
 Alpha virt. eigenvalues --    0.24643   0.24745   0.24945   0.24984   0.25058
 Alpha virt. eigenvalues --    0.25119   0.25178   0.25291   0.25318   0.25348
 Alpha virt. eigenvalues --    0.25413   0.25427   0.25510   0.25577   0.25724
 Alpha virt. eigenvalues --    0.25792   0.25801   0.26018   0.26096   0.26133
 Alpha virt. eigenvalues --    0.26146   0.26202   0.26231   0.26324   0.26541
 Alpha virt. eigenvalues --    0.26541   0.26675   0.26738   0.26744   0.26830
 Alpha virt. eigenvalues --    0.26887   0.27103   0.27400   0.27476   0.27586
 Alpha virt. eigenvalues --    0.27799   0.27910   0.28082   0.28162   0.29232
 Alpha virt. eigenvalues --    0.29694   0.30113   0.30277   0.30644   0.31125
 Alpha virt. eigenvalues --    0.31371   0.31760   0.32161   0.32821   0.33578
 Alpha virt. eigenvalues --    0.34585   0.35290   0.35388   0.35535   0.35894
 Alpha virt. eigenvalues --    0.35967   0.36357   0.36612   0.37096   0.37115
 Alpha virt. eigenvalues --    0.38635   0.39268   0.39445   0.39997   0.40051
 Alpha virt. eigenvalues --    0.40166   0.40687   0.40957   0.41340   0.41500
 Alpha virt. eigenvalues --    0.42721   0.43128   0.44719   0.44927   0.46338
 Alpha virt. eigenvalues --    0.46520   0.47111   0.47807   0.50241   0.52406
 Alpha virt. eigenvalues --    0.53727   0.55538
          Condensed to atoms (all electrons):
 Mulliken charges:
               1
     1  Mg   0.431341
     2  C   -0.028133
     3  C   -0.055893
     4  C   -0.108280
     5  C   -0.086001
     6  N   -0.283615
     7  C    0.089707
     8  C    0.015357
     9  C   -0.006042
    10  C    0.118683
    11  C   -0.052671
    12  C   -0.013566
    13  C    0.012108
    14  C    0.462526
    15  O   -0.494161
    16  O   -0.301743
    17  N   -0.287236
    18  C    0.107190
    19  C    0.045081
    20  C   -0.075066
    21  C    0.156772
    22  C   -0.046049
    23  C    0.322210
    24  O   -0.523847
    25  C   -0.031866
    26  N   -0.272193
    27  C    0.137435
    28  C   -0.003832
    29  C    0.005603
    30  C    0.145576
    31  C   -0.060580
    32  C   -0.036927
    33  C   -0.063958
    34  N   -0.352845
    35  C    0.100610
    36  C    0.012070
    37  C   -0.029629
    38  C    0.103009
    39  C   -0.031448
    40  C    0.318519
    41  O   -0.535012
    42  C    0.061171
    43  C    0.492483
    44  O   -0.506056
    45  O   -0.265867
    46  C    0.071979
    47  C    0.092885
    48  C   -0.105672
    49  C    0.009907
    50  C   -0.038368
    51  C   -0.035454
    52  C   -0.035508
    53  C   -0.044926
    54  C   -0.013452
    55  C   -0.054202
    56  C   -0.038684
    57  C   -0.039114
    58  C   -0.032204
    59  C   -0.013072
    60  C   -0.059630
    61  C   -0.032856
    62  C   -0.047983
    63  C   -0.034183
    64  C   -0.009620
    65  C   -0.061730
    66  C   -0.057016
    67  H    0.040142
    68  H    0.027535
    69  H    0.029747
    70  H    0.032909
    71  H    0.025998
    72  H    0.037192
    73  H    0.025057
    74  H    0.015252
    75  H    0.033499
    76  H    0.018039
    77  H    0.035035
    78  H    0.050474
    79  H    0.041861
    80  H    0.022065
    81  H    0.051107
    82  H    0.031855
    83  H    0.042901
    84  H    0.032954
    85  H    0.034562
    86  H    0.035460
    87  H    0.022515
    88  H    0.030820
    89  H    0.028880
    90  H    0.023865
    91  H    0.019612
    92  H    0.022002
    93  H    0.016391
    94  H    0.023898
    95  H    0.025936
    96  H    0.034298
    97  H    0.038226
    98  H    0.056911
    99  H    0.026229
   100  H    0.055099
   101  H    0.043144
   102  H    0.058987
   103  H    0.037201
   104  H    0.035404
   105  H    0.027255
   106  H    0.033719
   107  H    0.031207
   108  H    0.007083
   109  H    0.028942
   110  H    0.043574
   111  H    0.015553
   112  H    0.022730
   113  H    0.027873
   114  H    0.021346
   115  H    0.010729
   116  H    0.022402
   117  H    0.007492
   118  H    0.021479
   119  H    0.021375
   120  H    0.015977
   121  H    0.021326
   122  H    0.025684
   123  H    0.017912
   124  H    0.021209
   125  H    0.010408
   126  H    0.015999
   127  H    0.018668
   128  H    0.011956
   129  H    0.021368
   130  H    0.014839
   131  H    0.022289
   132  H    0.018000
   133  H    0.018009
   134  H    0.023106
   135  H    0.024736
   136  H    0.017570
   137  H    0.015174
   138  H    0.014573
   139  H    0.019006
   140  H    0.020343
 Sum of Mulliken charges =  -0.00000
 Mulliken charges with hydrogens summed into heavy atoms:
               1
     1  Mg   0.431341
     2  C   -0.028133
     3  C   -0.015750
     4  C   -0.080746
     5  C   -0.056254
     6  N   -0.283615
     7  C    0.089707
     8  C    0.048266
     9  C    0.019956
    10  C    0.118683
    11  C    0.024830
    12  C    0.037971
    13  C    0.097617
    14  C    0.462526
    15  O   -0.494161
    16  O   -0.301743
    17  N   -0.287236
    18  C    0.107190
    19  C    0.045081
    20  C   -0.075066
    21  C    0.156772
    22  C    0.068984
    23  C    0.322210
    24  O   -0.523847
    25  C    0.075844
    26  N   -0.272193
    27  C    0.137435
    28  C    0.030730
    29  C    0.041063
    30  C    0.145576
    31  C    0.021636
    32  C    0.006550
    33  C   -0.001667
    34  N   -0.352845
    35  C    0.100610
    36  C    0.012070
    37  C   -0.029629
    38  C    0.103009
    39  C    0.067012
    40  C    0.318519
    41  O   -0.535012
    42  C    0.118082
    43  C    0.492483
    44  O   -0.506056
    45  O   -0.265867
    46  C    0.196451
    47  C    0.189073
    48  C   -0.070268
    49  C    0.009907
    50  C    0.053812
    51  C    0.000571
    52  C    0.023618
    53  C    0.005678
    54  C    0.007895
    55  C   -0.013579
    56  C    0.004170
    57  C   -0.001812
    58  C    0.011392
    59  C    0.008137
    60  C   -0.014555
    61  C    0.000469
    62  C   -0.010855
    63  C    0.001826
    64  C    0.013486
    65  C   -0.004251
    66  C   -0.003094
 Charge=              0.0000 electrons
 Dipole moment (field-independent basis, Debye):
    X=              1.1330    Y=              7.8163    Z=              1.0655  Tot=              7.9695
 N-N= 4.536991110744D+03 E-N= 0.000000000000D+00  KE=-9.747010351490D+03
 Leave Link  601 at Wed May  4 00:29:12 2022, MaxMem=  6710886400 cpu:               0.8 elap:               0.1
 (Enter /sw/apps/gaussian-16.0/g16/l9999.exe)
 1\1\GINC-BP1-COMPUTE057\SP\RZINDO CIS\STO-3G\C55H74Mg1N4O6\OF15641\04-
 May-2022\0\\#p ZINDO=(nstates=5)\\step_1101_chromophore_26 ZINDO\\0,1\
 Mg,0,-9.316,18.656,42.937\C,0,-5.902,17.798,43.083\C,0,-8.482,21.978,4
 2.602\C,0,-12.545,19.327,42.386\C,0,-10.047,15.145,42.766\N,0,-7.361,1
 9.7,42.636\C,0,-6.038,19.206,42.825\C,0,-5.018,20.386,42.813\C,0,-5.96
 3,21.675,42.978\C,0,-7.378,21.079,42.619\C,0,-5.885,22.552,44.319\C,0,
 -4.143,20.197,41.552\C,0,-4.71,19.527,40.278\C,0,-4.354,20.085,38.915\
 O,0,-3.267,19.947,38.424\O,0,-5.485,20.682,38.228\N,0,-10.404,20.415,4
 2.687\C,0,-9.829,21.635,42.578\C,0,-10.906,22.577,42.261\C,0,-12.157,2
 1.886,42.182\C,0,-11.683,20.476,42.422\C,0,-10.802,24.072,42.049\C,0,-
 13.569,22.499,42.087\O,0,-13.794,23.732,41.947\C,0,-14.926,21.662,42.1
 66\N,0,-10.966,17.399,42.465\C,0,-12.219,17.958,42.465\C,0,-13.315,16.
 901,42.342\C,0,-12.5,15.621,42.571\C,0,-11.099,16.072,42.561\C,0,-14.4
 81,17.005,43.346\C,0,-12.763,14.438,41.557\C,0,-13.481,13.155,42.164\N
 ,0,-8.284,16.798,43.032\C,0,-8.713,15.483,43.018\C,0,-7.582,14.583,43.
 32\C,0,-6.528,15.539,43.396\C,0,-6.908,16.796,43.139\C,0,-7.639,13.13,
 43.587\C,0,-5.076,15.618,43.619\O,0,-4.258,14.693,43.93\C,0,-4.658,17.
 079,43.425\C,0,-3.798,17.422,44.651\O,0,-2.577,17.432,44.705\O,0,-4.66
 1,17.631,45.698\C,0,-3.988,18.012,46.983\C,0,-5.228,21.315,36.87\C,0,-
 6.154,20.642,35.786\C,0,-6.034,19.349,35.387\C,0,-4.992,18.283,35.725\
 C,0,-7.046,18.89,34.352\C,0,-8.428,18.358,34.937\C,0,-9.395,18.325,33.
 672\C,0,-10.475,19.483,33.918\C,0,-11.777,18.847,34.139\C,0,-10.502,20
 .553,32.766\C,0,-11.01,21.959,33.158\C,0,-9.858,23.027,33.151\C,0,-10.
 254,24.264,32.288\C,0,-9.851,25.628,32.889\C,0,-9.685,24.185,30.835\C,
 0,-10.743,24.34,29.752\C,0,-10.88,23.247,28.636\C,0,-12.352,23.061,28.
 195\C,0,-12.471,21.618,27.682\C,0,-12.807,24.137,27.161\H,0,-8.227,23.
 04,42.587\H,0,-13.622,19.446,42.248\H,0,-10.182,14.061,42.773\H,0,-4.3
 41,20.327,43.665\H,0,-5.628,22.391,42.227\H,0,-5.016,22.434,44.967\H,0
 ,-6.846,22.479,44.829\H,0,-5.915,23.589,43.986\H,0,-3.189,19.79,41.887
 \H,0,-3.822,21.165,41.166\H,0,-5.788,19.692,40.287\H,0,-4.441,18.473,4
 0.214\H,0,-10.966,24.406,41.024\H,0,-9.79,24.31,42.377\H,0,-11.638,24.
 526,42.581\H,0,-14.938,20.995,43.028\H,0,-15.229,21.19,41.231\H,0,-15.
 736,22.375,42.319\H,0,-13.789,16.847,41.362\H,0,-12.69,15.255,43.58\H,
 0,-14.093,17.751,44.04\H,0,-14.552,16.054,43.873\H,0,-15.351,17.363,42
 .797\H,0,-11.814,14.126,41.12\H,0,-13.351,14.724,40.685\H,0,-13.877,13
 .251,43.175\H,0,-12.682,12.419,42.251\H,0,-14.275,12.766,41.525\H,0,-6
 .614,12.813,43.779\H,0,-7.926,12.574,42.695\H,0,-8.172,12.861,44.499\H
 ,0,-4.102,17.121,42.488\H,0,-4.656,18.708,47.49\H,0,-2.993,18.444,46.8
 72\H,0,-3.914,17.175,47.677\H,0,-4.182,21.159,36.606\H,0,-5.51,22.366,
 36.937\H,0,-7.021,21.234,35.493\H,0,-4.358,18.737,36.486\H,0,-4.364,18
 .,34.88\H,0,-5.442,17.382,36.144\H,0,-6.514,18.053,33.9\H,0,-7.076,19.
 57,33.5\H,0,-8.792,18.876,35.825\H,0,-8.201,17.311,35.137\H,0,-9.878,1
 7.349,33.631\H,0,-8.842,18.519,32.753\H,0,-10.206,20.012,34.832\H,0,-1
 2.098,18.872,35.18\H,0,-11.8,17.843,33.717\H,0,-12.649,19.399,33.787\H
 ,0,-11.173,20.178,31.993\H,0,-9.455,20.636,32.475\H,0,-11.445,21.911,3
 4.156\H,0,-11.843,22.264,32.525\H,0,-8.949,22.569,32.763\H,0,-9.66,23.
 375,34.165\H,0,-11.338,24.366,32.232\H,0,-8.899,25.493,33.403\H,0,-10.
 519,26.024,33.655\H,0,-9.699,26.383,32.117\H,0,-9.246,23.207,30.638\H,
 0,-8.892,24.918,30.685\H,0,-10.411,25.287,29.326\H,0,-11.757,24.425,30
 .143\H,0,-10.469,22.297,28.977\H,0,-10.252,23.548,27.798\H,0,-12.993,2
 3.141,29.073\H,0,-11.534,21.062,27.694\H,0,-12.895,21.56,26.68\H,0,-13
 .196,21.213,28.389\H,0,-13.585,24.765,27.597\H,0,-13.252,23.723,26.257
 \H,0,-11.98,24.777,26.854\\Version=ES64L-G16RevA.03\State=1-A\HF=-473.
 7679265\RMSD=7.412e-09\PG=C01 [X(C55H74Mg1N4O6)]\\@


 Spring appears, and we are once more children.
                                  -- Anonymous
 Job cpu time:       0 days  0 hours  2 minutes 46.8 seconds.
 Elapsed time:       0 days  0 hours  0 minutes  7.3 seconds.
 File lengths (MBytes):  RWF=   1272 Int=      0 D2E=      0 Chk=     38 Scr=      1
 Normal termination of Gaussian 16 at Wed May  4 00:29:12 2022.
