 Entering Gaussian System, Link 0=g16
 Initial command:
 /sw/apps/gaussian-16.0/g16/l1.exe "/tmp/Gau-262050.inp" -scrdir="/tmp/"
 Entering Link 1 = /sw/apps/gaussian-16.0/g16/l1.exe PID=    262051.
  
 Copyright (c) 1988,1990,1992,1993,1995,1998,2003,2009,2016,
            Gaussian, Inc.  All Rights Reserved.
  
 This is part of the Gaussian(R) 16 program.  It is based on
 the Gaussian(R) 09 system (copyright 2009, Gaussian, Inc.),
 the Gaussian(R) 03 system (copyright 2003, Gaussian, Inc.),
 the Gaussian(R) 98 system (copyright 1998, Gaussian, Inc.),
 the Gaussian(R) 94 system (copyright 1995, Gaussian, Inc.),
 the Gaussian 92(TM) system (copyright 1992, Gaussian, Inc.),
 the Gaussian 90(TM) system (copyright 1990, Gaussian, Inc.),
 the Gaussian 88(TM) system (copyright 1988, Gaussian, Inc.),
 the Gaussian 86(TM) system (copyright 1986, Carnegie Mellon
 University), and the Gaussian 82(TM) system (copyright 1983,
 Carnegie Mellon University). Gaussian is a federally registered
 trademark of Gaussian, Inc.
  
 This software contains proprietary and confidential information,
 including trade secrets, belonging to Gaussian, Inc.
  
 This software is provided under written license and may be
 used, copied, transmitted, or stored only in accord with that
 written license.
  
 The following legend is applicable only to US Government
 contracts under FAR:
  
                    RESTRICTED RIGHTS LEGEND
  
 Use, reproduction and disclosure by the US Government is
 subject to restrictions as set forth in subparagraphs (a)
 and (c) of the Commercial Computer Software - Restricted
 Rights clause in FAR 52.227-19.
  
 Gaussian, Inc.
 340 Quinnipiac St., Bldg. 40, Wallingford CT 06492
  
  
 ---------------------------------------------------------------
 Warning -- This program may not be used in any manner that
 competes with the business of Gaussian, Inc. or will provide
 assistance to any competitor of Gaussian, Inc.  The licensee
 of this program is prohibited from giving any competitor of
 Gaussian, Inc. access to this program.  By using this program,
 the user acknowledges that Gaussian, Inc. is engaged in the
 business of creating and licensing software in the field of
 computational chemistry and represents and warrants to the
 licensee that it is not a competitor of Gaussian, Inc. and that
 it will not use this program in any manner prohibited above.
 ---------------------------------------------------------------
  

 Cite this work as:
 Gaussian 16, Revision A.03,
 M. J. Frisch, G. W. Trucks, H. B. Schlegel, G. E. Scuseria, 
 M. A. Robb, J. R. Cheeseman, G. Scalmani, V. Barone, 
 G. A. Petersson, H. Nakatsuji, X. Li, M. Caricato, A. V. Marenich, 
 J. Bloino, B. G. Janesko, R. Gomperts, B. Mennucci, H. P. Hratchian, 
 J. V. Ortiz, A. F. Izmaylov, J. L. Sonnenberg, D. Williams-Young, 
 F. Ding, F. Lipparini, F. Egidi, J. Goings, B. Peng, A. Petrone, 
 T. Henderson, D. Ranasinghe, V. G. Zakrzewski, J. Gao, N. Rega, 
 G. Zheng, W. Liang, M. Hada, M. Ehara, K. Toyota, R. Fukuda, 
 J. Hasegawa, M. Ishida, T. Nakajima, Y. Honda, O. Kitao, H. Nakai, 
 T. Vreven, K. Throssell, J. A. Montgomery, Jr., J. E. Peralta, 
 F. Ogliaro, M. J. Bearpark, J. J. Heyd, E. N. Brothers, K. N. Kudin, 
 V. N. Staroverov, T. A. Keith, R. Kobayashi, J. Normand, 
 K. Raghavachari, A. P. Rendell, J. C. Burant, S. S. Iyengar, 
 J. Tomasi, M. Cossi, J. M. Millam, M. Klene, C. Adamo, R. Cammi, 
 J. W. Ochterski, R. L. Martin, K. Morokuma, O. Farkas, 
 J. B. Foresman, and D. J. Fox, Gaussian, Inc., Wallingford CT, 2016.
 
 ******************************************
 Gaussian 16:  ES64L-G16RevA.03 25-Dec-2016
                27-Apr-2022 
 ******************************************
 %nproc=24
 Will use up to   24 processors via shared memory.
 %mem=75GB
 ------------------------------
 #p blyp/Def2SVP td=(nstates=5)
 ------------------------------
 1/38=1,172=1/1;
 2/12=2,17=6,18=5,40=1/2;
 3/5=43,7=101,11=9,25=1,30=1,74=402/1,2,3,8;
 4//1;
 5/5=2,38=5/2;
 8/6=1,10=1,108=5/1;
 9/41=5,42=1,70=2/14;
 6/7=2,8=2,9=2,10=2/1;
 99/5=1,9=1/99;
 Leave Link    1 at Wed Apr 27 09:11:35 2022, MaxMem= 10066329600 cpu:               0.9 elap:               0.0
 (Enter /sw/apps/gaussian-16.0/g16/l101.exe)
 --------------------------------------------------
 step_1101_chromophore_5 TDDFT with blyp functional
 --------------------------------------------------
 Symbolic Z-matrix:
 Charge =  0 Multiplicity = 1
 Mg                    24.459   -7.578     46.115 
 C                     26.635   -5.127     44.665 
 C                     21.951   -6.274     44.245 
 C                     22.763   -10.366    46.68 
 C                     27.423   -9.024     47.454 
 N                     24.386   -5.886     44.612 
 C                     25.362   -5.017     44.224 
 C                     24.826   -4.062     43.124 
 C                     23.248   -4.341     43.276 
 C                     23.13    -5.515     44.189 
 C                     22.494   -3.088     43.845 
 C                     25.463   -4.248     41.729 
 C                     26.045   -3.018     40.959 
 C                     25.578   -2.988     39.439 
 O                     26.227   -2.577     38.496 
 O                     24.235   -3.371     39.221 
 N                     22.545   -8.193     45.678 
 C                     21.662   -7.482     44.831 
 C                     20.467   -8.26      44.77 
 C                     20.619   -9.445     45.505 
 C                     22.004   -9.358     45.965 
 C                     19.276   -7.858     43.915 
 C                     19.496   -10.474    45.779 
 O                     18.338   -10.353    45.334 
 C                     19.776   -11.649    46.678 
 N                     24.969   -9.402     47.085 
 C                     24.071   -10.437    47.083 
 C                     24.735   -11.706    47.591 
 C                     26.24    -11.308    47.908 
 C                     26.287   -9.765     47.563 
 C                     24.049   -12.349    48.842 
 C                     27.337   -12.121    47.07 
 C                     28.617   -12.446    47.817 
 N                     26.573   -7.03      46.364 
 C                     27.624   -7.777     46.829 
 C                     28.849   -7.014     46.722 
 C                     28.522   -5.915     45.933 
 C                     27.154   -6.043     45.621 
 C                     30.153   -7.45      47.277 
 C                     28.982   -4.742     45.245 
 O                     30.073   -4.142     45.192 
 C                     27.755   -4.197     44.349 
 C                     27.414   -2.713     44.547 
 O                     27.415   -1.863     43.691 
 O                     27.152   -2.461     45.882 
 C                     26.633   -1.142     46.161 
 C                     23.744   -3.329     37.858 
 C                     23.704   -4.74      37.444 
 C                     24.279   -5.239     36.312 
 C                     25.292   -4.603     35.386 
 C                     24.072   -6.691     36.099 
 C                     22.747   -7.229     35.381 
 C                     22.808   -7.208     33.846 
 C                     21.743   -6.298     33.204 
 C                     20.282   -6.974     33.131 
 C                     22.186   -5.852     31.812 
 C                     23.186   -4.671     31.815 
 C                     24.613   -5.065     31.251 
 C                     25.018   -4.162     30.065 
 C                     26.251   -3.252     30.199 
 C                     25.019   -4.952     28.755 
 C                     25.089   -4.179     27.392 
 C                     24.185   -4.831     26.201 
 C                     23.242   -3.749     25.681 
 C                     21.881   -4.245     26.047 
 C                     23.26    -3.676     24.141 
 H                     21.153   -5.785     43.683 
 H                     22.305   -11.356    46.739 
 H                     28.277   -9.546     47.89 
 H                     25.06    -3.05      43.453 
 H                     22.783   -4.585     42.321 
 H                     21.77    -3.504     44.546 
 H                     21.913   -2.676     43.02 
 H                     23.155   -2.357     44.309 
 H                     24.798   -4.878     41.138 
 H                     26.305   -4.914     41.919 
 H                     27.126   -3.031     41.096 
 H                     25.715   -2.095     41.435 
 H                     18.394   -8.069     44.52 
 H                     19.238   -8.557     43.08 
 H                     19.385   -6.847     43.524 
 H                     20.373   -11.377    47.548 
 H                     20.355   -12.425    46.178 
 H                     18.795   -11.996    47.001 
 H                     24.702   -12.396    46.748 
 H                     26.537   -11.463    48.945 
 H                     22.986   -12.112    48.888 
 H                     24.436   -11.881    49.748 
 H                     24.348   -13.394    48.768 
 H                     27.684   -11.543    46.213 
 H                     26.882   -13.005    46.622 
 H                     29.387   -11.796    47.401 
 H                     28.97    -13.465    47.662 
 H                     28.367   -12.235    48.857 
 H                     30.673   -8.186     46.663 
 H                     29.957   -7.86      48.268 
 H                     30.812   -6.59      47.402 
 H                     27.895   -4.2       43.268 
 H                     25.818   -0.874     45.488 
 H                     27.388   -0.363     46.055 
 H                     26.25    -1.22      47.178 
 H                     24.287   -2.808     37.069 
 H                     22.693   -3.059     37.963 
 H                     22.988   -5.342     38.004 
 H                     26.284   -4.789     35.798 
 H                     25.287   -3.521     35.251 
 H                     25.245   -5.005     34.374 
 H                     24.042   -7.308     36.997 
 H                     24.883   -7.163     35.544 
 H                     21.945   -6.563     35.699 
 H                     22.45    -8.232     35.69 
 H                     22.572   -8.203     33.47 
 H                     23.81    -6.904     33.541 
 H                     21.615   -5.372     33.765 
 H                     19.597   -6.315     33.665 
 H                     20.233   -7.96      33.593 
 H                     19.972   -7.042     32.088 
 H                     21.223   -5.621     31.356 
 H                     22.492   -6.775     31.318 
 H                     23.369   -4.212     32.786 
 H                     22.708   -3.9       31.21 
 H                     24.604   -6.13      31.019 
 H                     25.321   -4.791     32.034 
 H                     24.28    -3.386     29.862 
 H                     26.133   -2.384     29.55 
 H                     27.167   -3.801     29.985 
 H                     26.31    -2.865     31.216 
 H                     24.306   -5.776     28.768 
 H                     25.986   -5.443     28.867 
 H                     26.091   -4.354     26.998 
 H                     24.767   -3.138     27.408 
 H                     23.686   -5.714     26.6 
 H                     24.881   -5.294     25.501 
 H                     23.467   -2.776     26.119 
 H                     21.183   -3.409     25.996 
 H                     21.785   -4.515     27.099 
 H                     21.482   -5.033     25.408 
 H                     23.534   -2.626     24.036 
 H                     22.47    -4.031     23.479 
 H                     24.124   -4.228     23.771 
 
 ITRead=  0  0  0  0  0  0  0  0  0  0  0  0  0  0  0  0  0  0  0  0
 ITRead=  0  0  0  0  0  0  0  0  0  0  0  0  0  0  0  0  0  0  0  0
 ITRead=  0  0  0  0  0  0  0  0  0  0  0  0  0  0  0  0  0  0  0  0
 ITRead=  0  0  0  0  0  0  0  0  0  0  0  0  0  0  0  0  0  0  0  0
 ITRead=  0  0  0  0  0  0  0  0  0  0  0  0  0  0  0  0  0  0  0  0
 ITRead=  0  0  0  0  0  0  0  0  0  0  0  0  0  0  0  0  0  0  0  0
 ITRead=  0  0  0  0  0  0  0  0  0  0  0  0  0  0  0  0  0  0  0  0
 MicOpt= -1 -1 -1 -1 -1 -1 -1 -1 -1 -1 -1 -1 -1 -1 -1 -1 -1 -1 -1 -1
 MicOpt= -1 -1 -1 -1 -1 -1 -1 -1 -1 -1 -1 -1 -1 -1 -1 -1 -1 -1 -1 -1
 MicOpt= -1 -1 -1 -1 -1 -1 -1 -1 -1 -1 -1 -1 -1 -1 -1 -1 -1 -1 -1 -1
 MicOpt= -1 -1 -1 -1 -1 -1 -1 -1 -1 -1 -1 -1 -1 -1 -1 -1 -1 -1 -1 -1
 MicOpt= -1 -1 -1 -1 -1 -1 -1 -1 -1 -1 -1 -1 -1 -1 -1 -1 -1 -1 -1 -1
 MicOpt= -1 -1 -1 -1 -1 -1 -1 -1 -1 -1 -1 -1 -1 -1 -1 -1 -1 -1 -1 -1
 MicOpt= -1 -1 -1 -1 -1 -1 -1 -1 -1 -1 -1 -1 -1 -1 -1 -1 -1 -1 -1 -1
 NAtoms=    140 NQM=      140 NQMF=       0 NMMI=      0 NMMIF=      0
                NMic=       0 NMicF=      0.
                    Isotopes and Nuclear Properties:
 (Nuclear quadrupole moments (NQMom) in fm**2, nuclear magnetic moments (NMagM)
  in nuclear magnetons)

  Atom         1           2           3           4           5           6           7           8           9          10
 IAtWgt=          24          12          12          12          12          14          12          12          12          12
 AtmWgt=  23.9850450  12.0000000  12.0000000  12.0000000  12.0000000  14.0030740  12.0000000  12.0000000  12.0000000  12.0000000
 NucSpn=           0           0           0           0           0           2           0           0           0           0
 AtZEff=  -0.0000000  -0.0000000  -0.0000000  -0.0000000  -0.0000000  -0.0000000  -0.0000000  -0.0000000  -0.0000000  -0.0000000
 NQMom=    0.0000000   0.0000000   0.0000000   0.0000000   0.0000000   2.0440000   0.0000000   0.0000000   0.0000000   0.0000000
 NMagM=    0.0000000   0.0000000   0.0000000   0.0000000   0.0000000   0.4037610   0.0000000   0.0000000   0.0000000   0.0000000
 AtZNuc=  12.0000000   6.0000000   6.0000000   6.0000000   6.0000000   7.0000000   6.0000000   6.0000000   6.0000000   6.0000000

  Atom        11          12          13          14          15          16          17          18          19          20
 IAtWgt=          12          12          12          12          16          16          14          12          12          12
 AtmWgt=  12.0000000  12.0000000  12.0000000  12.0000000  15.9949146  15.9949146  14.0030740  12.0000000  12.0000000  12.0000000
 NucSpn=           0           0           0           0           0           0           2           0           0           0
 AtZEff=  -0.0000000  -0.0000000  -0.0000000  -0.0000000  -0.0000000  -0.0000000  -0.0000000  -0.0000000  -0.0000000  -0.0000000
 NQMom=    0.0000000   0.0000000   0.0000000   0.0000000   0.0000000   0.0000000   2.0440000   0.0000000   0.0000000   0.0000000
 NMagM=    0.0000000   0.0000000   0.0000000   0.0000000   0.0000000   0.0000000   0.4037610   0.0000000   0.0000000   0.0000000
 AtZNuc=   6.0000000   6.0000000   6.0000000   6.0000000   8.0000000   8.0000000   7.0000000   6.0000000   6.0000000   6.0000000

  Atom        21          22          23          24          25          26          27          28          29          30
 IAtWgt=          12          12          12          16          12          14          12          12          12          12
 AtmWgt=  12.0000000  12.0000000  12.0000000  15.9949146  12.0000000  14.0030740  12.0000000  12.0000000  12.0000000  12.0000000
 NucSpn=           0           0           0           0           0           2           0           0           0           0
 AtZEff=  -0.0000000  -0.0000000  -0.0000000  -0.0000000  -0.0000000  -0.0000000  -0.0000000  -0.0000000  -0.0000000  -0.0000000
 NQMom=    0.0000000   0.0000000   0.0000000   0.0000000   0.0000000   2.0440000   0.0000000   0.0000000   0.0000000   0.0000000
 NMagM=    0.0000000   0.0000000   0.0000000   0.0000000   0.0000000   0.4037610   0.0000000   0.0000000   0.0000000   0.0000000
 AtZNuc=   6.0000000   6.0000000   6.0000000   8.0000000   6.0000000   7.0000000   6.0000000   6.0000000   6.0000000   6.0000000

  Atom        31          32          33          34          35          36          37          38          39          40
 IAtWgt=          12          12          12          14          12          12          12          12          12          12
 AtmWgt=  12.0000000  12.0000000  12.0000000  14.0030740  12.0000000  12.0000000  12.0000000  12.0000000  12.0000000  12.0000000
 NucSpn=           0           0           0           2           0           0           0           0           0           0
 AtZEff=  -0.0000000  -0.0000000  -0.0000000  -0.0000000  -0.0000000  -0.0000000  -0.0000000  -0.0000000  -0.0000000  -0.0000000
 NQMom=    0.0000000   0.0000000   0.0000000   2.0440000   0.0000000   0.0000000   0.0000000   0.0000000   0.0000000   0.0000000
 NMagM=    0.0000000   0.0000000   0.0000000   0.4037610   0.0000000   0.0000000   0.0000000   0.0000000   0.0000000   0.0000000
 AtZNuc=   6.0000000   6.0000000   6.0000000   7.0000000   6.0000000   6.0000000   6.0000000   6.0000000   6.0000000   6.0000000

  Atom        41          42          43          44          45          46          47          48          49          50
 IAtWgt=          16          12          12          16          16          12          12          12          12          12
 AtmWgt=  15.9949146  12.0000000  12.0000000  15.9949146  15.9949146  12.0000000  12.0000000  12.0000000  12.0000000  12.0000000
 NucSpn=           0           0           0           0           0           0           0           0           0           0
 AtZEff=  -0.0000000  -0.0000000  -0.0000000  -0.0000000  -0.0000000  -0.0000000  -0.0000000  -0.0000000  -0.0000000  -0.0000000
 NQMom=    0.0000000   0.0000000   0.0000000   0.0000000   0.0000000   0.0000000   0.0000000   0.0000000   0.0000000   0.0000000
 NMagM=    0.0000000   0.0000000   0.0000000   0.0000000   0.0000000   0.0000000   0.0000000   0.0000000   0.0000000   0.0000000
 AtZNuc=   8.0000000   6.0000000   6.0000000   8.0000000   8.0000000   6.0000000   6.0000000   6.0000000   6.0000000   6.0000000

  Atom        51          52          53          54          55          56          57          58          59          60
 IAtWgt=          12          12          12          12          12          12          12          12          12          12
 AtmWgt=  12.0000000  12.0000000  12.0000000  12.0000000  12.0000000  12.0000000  12.0000000  12.0000000  12.0000000  12.0000000
 NucSpn=           0           0           0           0           0           0           0           0           0           0
 AtZEff=  -0.0000000  -0.0000000  -0.0000000  -0.0000000  -0.0000000  -0.0000000  -0.0000000  -0.0000000  -0.0000000  -0.0000000
 NQMom=    0.0000000   0.0000000   0.0000000   0.0000000   0.0000000   0.0000000   0.0000000   0.0000000   0.0000000   0.0000000
 NMagM=    0.0000000   0.0000000   0.0000000   0.0000000   0.0000000   0.0000000   0.0000000   0.0000000   0.0000000   0.0000000
 AtZNuc=   6.0000000   6.0000000   6.0000000   6.0000000   6.0000000   6.0000000   6.0000000   6.0000000   6.0000000   6.0000000

  Atom        61          62          63          64          65          66          67          68          69          70
 IAtWgt=          12          12          12          12          12          12           1           1           1           1
 AtmWgt=  12.0000000  12.0000000  12.0000000  12.0000000  12.0000000  12.0000000   1.0078250   1.0078250   1.0078250   1.0078250
 NucSpn=           0           0           0           0           0           0           1           1           1           1
 AtZEff=  -0.0000000  -0.0000000  -0.0000000  -0.0000000  -0.0000000  -0.0000000  -0.0000000  -0.0000000  -0.0000000  -0.0000000
 NQMom=    0.0000000   0.0000000   0.0000000   0.0000000   0.0000000   0.0000000   0.0000000   0.0000000   0.0000000   0.0000000
 NMagM=    0.0000000   0.0000000   0.0000000   0.0000000   0.0000000   0.0000000   2.7928460   2.7928460   2.7928460   2.7928460
 AtZNuc=   6.0000000   6.0000000   6.0000000   6.0000000   6.0000000   6.0000000   1.0000000   1.0000000   1.0000000   1.0000000

  Atom        71          72          73          74          75          76          77          78          79          80
 IAtWgt=           1           1           1           1           1           1           1           1           1           1
 AtmWgt=   1.0078250   1.0078250   1.0078250   1.0078250   1.0078250   1.0078250   1.0078250   1.0078250   1.0078250   1.0078250
 NucSpn=           1           1           1           1           1           1           1           1           1           1
 AtZEff=  -0.0000000  -0.0000000  -0.0000000  -0.0000000  -0.0000000  -0.0000000  -0.0000000  -0.0000000  -0.0000000  -0.0000000
 NQMom=    0.0000000   0.0000000   0.0000000   0.0000000   0.0000000   0.0000000   0.0000000   0.0000000   0.0000000   0.0000000
 NMagM=    2.7928460   2.7928460   2.7928460   2.7928460   2.7928460   2.7928460   2.7928460   2.7928460   2.7928460   2.7928460
 AtZNuc=   1.0000000   1.0000000   1.0000000   1.0000000   1.0000000   1.0000000   1.0000000   1.0000000   1.0000000   1.0000000

  Atom        81          82          83          84          85          86          87          88          89          90
 IAtWgt=           1           1           1           1           1           1           1           1           1           1
 AtmWgt=   1.0078250   1.0078250   1.0078250   1.0078250   1.0078250   1.0078250   1.0078250   1.0078250   1.0078250   1.0078250
 NucSpn=           1           1           1           1           1           1           1           1           1           1
 AtZEff=  -0.0000000  -0.0000000  -0.0000000  -0.0000000  -0.0000000  -0.0000000  -0.0000000  -0.0000000  -0.0000000  -0.0000000
 NQMom=    0.0000000   0.0000000   0.0000000   0.0000000   0.0000000   0.0000000   0.0000000   0.0000000   0.0000000   0.0000000
 NMagM=    2.7928460   2.7928460   2.7928460   2.7928460   2.7928460   2.7928460   2.7928460   2.7928460   2.7928460   2.7928460
 AtZNuc=   1.0000000   1.0000000   1.0000000   1.0000000   1.0000000   1.0000000   1.0000000   1.0000000   1.0000000   1.0000000

  Atom        91          92          93          94          95          96          97          98          99         100
 IAtWgt=           1           1           1           1           1           1           1           1           1           1
 AtmWgt=   1.0078250   1.0078250   1.0078250   1.0078250   1.0078250   1.0078250   1.0078250   1.0078250   1.0078250   1.0078250
 NucSpn=           1           1           1           1           1           1           1           1           1           1
 AtZEff=  -0.0000000  -0.0000000  -0.0000000  -0.0000000  -0.0000000  -0.0000000  -0.0000000  -0.0000000  -0.0000000  -0.0000000
 NQMom=    0.0000000   0.0000000   0.0000000   0.0000000   0.0000000   0.0000000   0.0000000   0.0000000   0.0000000   0.0000000
 NMagM=    2.7928460   2.7928460   2.7928460   2.7928460   2.7928460   2.7928460   2.7928460   2.7928460   2.7928460   2.7928460
 AtZNuc=   1.0000000   1.0000000   1.0000000   1.0000000   1.0000000   1.0000000   1.0000000   1.0000000   1.0000000   1.0000000

  Atom       101         102         103         104         105         106         107         108         109         110
 IAtWgt=           1           1           1           1           1           1           1           1           1           1
 AtmWgt=   1.0078250   1.0078250   1.0078250   1.0078250   1.0078250   1.0078250   1.0078250   1.0078250   1.0078250   1.0078250
 NucSpn=           1           1           1           1           1           1           1           1           1           1
 AtZEff=  -0.0000000  -0.0000000  -0.0000000  -0.0000000  -0.0000000  -0.0000000  -0.0000000  -0.0000000  -0.0000000  -0.0000000
 NQMom=    0.0000000   0.0000000   0.0000000   0.0000000   0.0000000   0.0000000   0.0000000   0.0000000   0.0000000   0.0000000
 NMagM=    2.7928460   2.7928460   2.7928460   2.7928460   2.7928460   2.7928460   2.7928460   2.7928460   2.7928460   2.7928460
 AtZNuc=   1.0000000   1.0000000   1.0000000   1.0000000   1.0000000   1.0000000   1.0000000   1.0000000   1.0000000   1.0000000

  Atom       111         112         113         114         115         116         117         118         119         120
 IAtWgt=           1           1           1           1           1           1           1           1           1           1
 AtmWgt=   1.0078250   1.0078250   1.0078250   1.0078250   1.0078250   1.0078250   1.0078250   1.0078250   1.0078250   1.0078250
 NucSpn=           1           1           1           1           1           1           1           1           1           1
 AtZEff=  -0.0000000  -0.0000000  -0.0000000  -0.0000000  -0.0000000  -0.0000000  -0.0000000  -0.0000000  -0.0000000  -0.0000000
 NQMom=    0.0000000   0.0000000   0.0000000   0.0000000   0.0000000   0.0000000   0.0000000   0.0000000   0.0000000   0.0000000
 NMagM=    2.7928460   2.7928460   2.7928460   2.7928460   2.7928460   2.7928460   2.7928460   2.7928460   2.7928460   2.7928460
 AtZNuc=   1.0000000   1.0000000   1.0000000   1.0000000   1.0000000   1.0000000   1.0000000   1.0000000   1.0000000   1.0000000

  Atom       121         122         123         124         125         126         127         128         129         130
 IAtWgt=           1           1           1           1           1           1           1           1           1           1
 AtmWgt=   1.0078250   1.0078250   1.0078250   1.0078250   1.0078250   1.0078250   1.0078250   1.0078250   1.0078250   1.0078250
 NucSpn=           1           1           1           1           1           1           1           1           1           1
 AtZEff=  -0.0000000  -0.0000000  -0.0000000  -0.0000000  -0.0000000  -0.0000000  -0.0000000  -0.0000000  -0.0000000  -0.0000000
 NQMom=    0.0000000   0.0000000   0.0000000   0.0000000   0.0000000   0.0000000   0.0000000   0.0000000   0.0000000   0.0000000
 NMagM=    2.7928460   2.7928460   2.7928460   2.7928460   2.7928460   2.7928460   2.7928460   2.7928460   2.7928460   2.7928460
 AtZNuc=   1.0000000   1.0000000   1.0000000   1.0000000   1.0000000   1.0000000   1.0000000   1.0000000   1.0000000   1.0000000

  Atom       131         132         133         134         135         136         137         138         139         140
 IAtWgt=           1           1           1           1           1           1           1           1           1           1
 AtmWgt=   1.0078250   1.0078250   1.0078250   1.0078250   1.0078250   1.0078250   1.0078250   1.0078250   1.0078250   1.0078250
 NucSpn=           1           1           1           1           1           1           1           1           1           1
 AtZEff=  -0.0000000  -0.0000000  -0.0000000  -0.0000000  -0.0000000  -0.0000000  -0.0000000  -0.0000000  -0.0000000  -0.0000000
 NQMom=    0.0000000   0.0000000   0.0000000   0.0000000   0.0000000   0.0000000   0.0000000   0.0000000   0.0000000   0.0000000
 NMagM=    2.7928460   2.7928460   2.7928460   2.7928460   2.7928460   2.7928460   2.7928460   2.7928460   2.7928460   2.7928460
 AtZNuc=   1.0000000   1.0000000   1.0000000   1.0000000   1.0000000   1.0000000   1.0000000   1.0000000   1.0000000   1.0000000
 Leave Link  101 at Wed Apr 27 09:11:35 2022, MaxMem= 10066329600 cpu:               3.8 elap:               0.2
 (Enter /sw/apps/gaussian-16.0/g16/l202.exe)
 Stoichiometry    C55H74MgN4O6
 Framework group  C1[X(C55H74MgN4O6)]
 Deg. of freedom   414
 Full point group                 C1      NOp   1
 Largest Abelian subgroup         C1      NOp   1
 Largest concise Abelian subgroup C1      NOp   1
                         Standard orientation:                         
 ---------------------------------------------------------------------
 Center     Atomic      Atomic             Coordinates (Angstroms)
 Number     Number       Type             X           Y           Z
 ---------------------------------------------------------------------
      1         12           0        5.520206    0.456890   -0.328150
      2          6           0        3.768728   -2.669468   -0.272572
      3          6           0        3.201027    1.572958   -2.533413
      4          6           0        6.525947    3.534088    0.370362
      5          6           0        7.393526   -0.852427    2.400492
      6          7           0        3.685823   -0.504481   -1.243578
      7          6           0        3.205254   -1.773481   -1.113295
      8          6           0        1.882092   -1.932168   -1.909149
      9          6           0        1.952950   -0.600343   -2.810398
     10          6           0        3.084787    0.201309   -2.260790
     11          6           0        2.169115   -0.942027   -4.326581
     12          6           0        0.621407   -2.155068   -1.044638
     13          6           0       -0.343117   -3.346674   -1.351710
     14          6           0       -1.868262   -2.895796   -1.357361
     15          8           0       -2.817736   -3.568885   -1.004059
     16          8           0       -2.114186   -1.634582   -1.946193
     17          7           0        5.061884    2.311737   -1.091087
     18          6           0        4.007381    2.550607   -2.004095
     19          6           0        4.012579    3.956733   -2.248665
     20          6           0        4.997226    4.583053   -1.470368
     21          6           0        5.546246    3.470379   -0.697110
     22          6           0        2.990426    4.630601   -3.149895
     23          6           0        5.388812    6.077465   -1.562230
     24          8           0        4.829078    6.882093   -2.332232
     25          6           0        6.541904    6.589327   -0.740280
     26          7           0        6.902965    1.232354    1.091219
     27          6           0        7.047069    2.589347    1.215471
     28          6           0        7.873766    2.916440    2.447909
     29          6           0        8.226808    1.517990    3.113954
     30          6           0        7.561146    0.471065    2.132666
     31          6           0        9.169767    3.747153    2.166232
     32          6           0        7.683615    1.334076    4.609861
     33          6           0        8.591820    0.552163    5.540350
     34          7           0        5.827652   -1.483337    0.657901
     35          6           0        6.533140   -1.788613    1.792770
     36          6           0        6.370447   -3.192346    2.104710
     37          6           0        5.336688   -3.627785    1.280704
     38          6           0        4.941940   -2.512440    0.515634
     39          6           0        7.118097   -3.900622    3.171435
     40          6           0        4.453625   -4.698461    0.913655
     41          8           0        4.367086   -5.898532    1.238358
     42          6           0        3.357490   -4.091280   -0.103787
     43          6           0        3.198821   -4.860100   -1.423439
     44          8           0        2.182416   -5.362104   -1.835933
     45          8           0        4.419514   -4.951470   -2.068366
     46          6           0        4.359856   -5.485324   -3.409412
     47          6           0       -3.491360   -1.187535   -2.010657
     48          6           0       -3.591707   -0.170485   -0.952613
     49          6           0       -4.534249   -0.158938    0.033557
     50          6           0       -5.484247   -1.252113    0.470148
     51          6           0       -4.444809    0.991122    0.964086
     52          6           0       -5.141765    2.386199    0.605471
     53          6           0       -6.633575    2.457509    0.965753
     54          6           0       -7.547704    2.678008   -0.255001
     55          6           0       -7.599431    4.211210   -0.748398
     56          6           0       -8.959285    2.170326    0.032276
     57          6           0       -9.125167    0.639933   -0.126312
     58          6           0       -9.463978   -0.091926    1.237231
     59          6           0      -10.777570   -0.897773    1.131794
     60          6           0      -10.737075   -2.427055    1.293047
     61          6           0      -11.880121   -0.254038    1.974520
     62          6           0      -13.366822   -0.711618    1.773180
     63          6           0      -14.462353    0.492035    1.881963
     64          6           0      -15.284495    0.496661    0.595715
     65          6           0      -14.939647    1.797825   -0.052625
     66          6           0      -16.796177    0.564798    0.891398
     67          1           0        2.479143    1.875250   -3.294512
     68          1           0        6.757924    4.533096    0.746549
     69          1           0        8.004918   -1.162789    3.250064
     70          1           0        2.003122   -2.814790   -2.536422
     71          1           0        1.036724   -0.013862   -2.744397
     72          1           0        2.877831   -0.190078   -4.674326
     73          1           0        1.227075   -0.724460   -4.829726
     74          1           0        2.519468   -1.959287   -4.496910
     75          1           0        0.125334   -1.192295   -0.920602
     76          1           0        1.023751   -2.338553   -0.048108
     77          1           0       -0.112972   -4.141669   -0.642827
     78          1           0       -0.108972   -3.768378   -2.328821
     79          1           0        3.547626    5.368070   -3.727941
     80          1           0        2.326635    5.201191   -2.500989
     81          1           0        2.400691    3.901320   -3.704191
     82          1           0        7.380905    5.894421   -0.718453
     83          1           0        6.274254    6.731355    0.306434
     84          1           0        6.845744    7.515079   -1.227889
     85          1           0        7.200682    3.477968    3.095583
     86          1           0        9.294584    1.317045    3.198096
     87          1           0        9.070602    4.362205    1.271731
     88          1           0        9.983027    3.070753    1.900296
     89          1           0        9.350243    4.239846    3.121000
     90          1           0        6.755291    0.762249    4.622887
     91          1           0        7.399902    2.302321    5.023619
     92          1           0        8.113536   -0.415650    5.692133
     93          1           0        8.692604    0.994602    6.530848
     94          1           0        9.535595    0.504701    4.996607
     95          1           0        6.725795   -3.732696    4.174925
     96          1           0        8.153467   -3.564236    3.112696
     97          1           0        7.110698   -4.974758    2.982538
     98          1           0        2.319208   -4.100163    0.227969
     99          1           0        3.576440   -5.011954   -4.001997
    100          1           0        4.153750   -6.555530   -3.426154
    101          1           0        5.332299   -5.238257   -3.834117
    102          1           0       -4.324150   -1.870274   -1.839958
    103          1           0       -3.539261   -0.608560   -2.933164
    104          1           0       -2.979100    0.713137   -1.133127
    105          1           0       -4.956971   -1.888414    1.181138
    106          1           0       -5.850365   -1.967503   -0.266838
    107          1           0       -6.385274   -0.860434    0.942053
    108          1           0       -3.440569    1.353506    1.183572
    109          1           0       -4.811601    0.762563    1.964963
    110          1           0       -5.046668    2.497287   -0.474575
    111          1           0       -4.649864    3.254800    1.045091
    112          1           0       -6.804164    3.334105    1.589913
    113          1           0       -6.908769    1.543873    1.493940
    114          1           0       -7.213971    2.099044   -1.116398
    115          1           0       -7.282601    4.222967   -1.791539
    116          1           0       -6.940851    4.873624   -0.186685
    117          1           0       -8.625860    4.572747   -0.682758
    118          1           0       -9.536569    2.758726   -0.681303
    119          1           0       -9.213022    2.611145    0.997106
    120          1           0       -8.264515    0.113588   -0.537712
    121          1           0       -9.922097    0.520987   -0.860957
    122          1           0       -9.459617    0.653372    2.032619
    123          1           0       -8.700341   -0.862143    1.351482
    124          1           0      -11.207331   -0.863662    0.130709
    125          1           0      -11.566461   -2.871564    0.742521
    126          1           0      -10.746469   -2.709493    2.344900
    127          1           0       -9.826892   -2.817825    0.838730
    128          1           0      -11.751038    0.823660    2.071569
    129          1           0      -11.580651   -0.640656    2.948973
    130          1           0      -13.624781   -1.294313    2.658499
    131          1           0      -13.604831   -1.179837    0.818328
    132          1           0      -13.926525    1.420010    2.081066
    133          1           0      -14.982100    0.353969    2.830428
    134          1           0      -15.049812   -0.362279   -0.033842
    135          1           0      -15.231126    1.749224   -1.102091
    136          1           0      -13.866588    1.961238   -0.155870
    137          1           0      -15.425004    2.676419    0.372780
    138          1           0      -17.101901   -0.335982    0.358735
    139          1           0      -17.431749    1.439529    0.752604
    140          1           0      -16.961137    0.335722    1.944209
 ---------------------------------------------------------------------
 Rotational constants (GHZ):           0.0420582           0.0102133           0.0092557
 Leave Link  202 at Wed Apr 27 09:11:35 2022, MaxMem= 10066329600 cpu:               0.5 elap:               0.0
 (Enter /sw/apps/gaussian-16.0/g16/l301.exe)
 Standard basis: def2SVP (5D, 7F)
 Ernie: Thresh=  0.10000D-02 Tol=  0.10000D-05 Strict=F.
 There are  1364 symmetry adapted cartesian basis functions of A   symmetry.
 There are  1298 symmetry adapted basis functions of A   symmetry.
  1298 basis functions,  2180 primitive gaussians,  1364 cartesian basis functions
   246 alpha electrons      246 beta electrons
       nuclear repulsion energy      9600.6905633019 Hartrees.
 IExCor=  402 DFT=T Ex=B Corr=LYP ExCW=0 ScaHFX=  0.000000
 ScaDFX=  1.000000  1.000000  1.000000  1.000000 ScalE2=  1.000000  1.000000
 IRadAn=      5 IRanWt=     -1 IRanGd=            0 ICorTp=0 IEmpDi=  4
 NAtoms=  140 NActive=  140 NUniq=  140 SFac= 1.00D+00 NAtFMM=   60 NAOKFM=T Big=T
 Integral buffers will be    131072 words long.
 Regular integral format.
 Two-electron integral symmetry is turned on.
 Leave Link  301 at Wed Apr 27 09:11:35 2022, MaxMem= 10066329600 cpu:               1.7 elap:               0.1
 (Enter /sw/apps/gaussian-16.0/g16/l302.exe)
 NPDir=0 NMtPBC=     1 NCelOv=     1 NCel=       1 NClECP=     1 NCelD=      1
         NCelK=      1 NCelE2=     1 NClLst=     1 CellRange=     0.0.
 One-electron integrals computed using PRISM.
 One-electron integral symmetry used in STVInt
   1 Symmetry operations used in ECPInt.
 ECPInt:  NShTT=  192510 NPrTT=  683786 LenC2=   96143 LenP2D=  210269.
 LDataN:  DoStor=T MaxTD1= 4 Len=   56
 NBasis=  1298 RedAO= T EigKep=  2.60D-04  NBF=  1298
 NBsUse=  1298 1.00D-06 EigRej= -1.00D+00 NBFU=  1298
 Precomputing XC quadrature grid using
 IXCGrd= 4 IRadAn=           5 IRanWt=          -1 IRanGd=           0 AccXCQ= 0.00D+00.
 Generated NRdTot=       0 NPtTot=           0 NUsed=           0 NTot=          32
 NSgBfM=   993   988   990   991   993 MxSgAt=   140 MxSgA2=   140.
 Leave Link  302 at Wed Apr 27 09:11:39 2022, MaxMem= 10066329600 cpu:              95.1 elap:               4.0
 (Enter /sw/apps/gaussian-16.0/g16/l303.exe)
 DipDrv:  MaxL=1.
 Leave Link  303 at Wed Apr 27 09:11:40 2022, MaxMem= 10066329600 cpu:               7.5 elap:               0.4
 (Enter /sw/apps/gaussian-16.0/g16/l308.exe)
 Leave Link  308 at Wed Apr 27 09:11:40 2022, MaxMem= 10066329600 cpu:              12.6 elap:               0.6
 (Enter /sw/apps/gaussian-16.0/g16/l401.exe)
 ExpMin= 3.36D-02 ExpMax= 4.95D+03 ExpMxC= 7.45D+02 IAcc=3 IRadAn=         5 AccDes= 0.00D+00
 Harris functional with IExCor=  402 and IRadAn=       5 diagonalized for initial guess.
 HarFok:  IExCor=  402 AccDes= 0.00D+00 IRadAn=         5 IDoV= 1 UseB2=F ITyADJ=14
 ICtDFT=  3500011 ScaDFX=  1.000000  1.000000  1.000000  1.000000
 FoFCou: FMM=F IPFlag=           0 FMFlag=      100000 FMFlg1=        2001
         NFxFlg=           0 DoJE=T BraDBF=F KetDBF=T FulRan=T
         wScrn=  0.000000 ICntrl=       500 IOpCl=  0 I1Cent=   200000004 NGrid=           0
         NMat0=    1 NMatS0=      1 NMatT0=    0 NMatD0=    1 NMtDS0=    0 NMtDT0=    0
 Petite list used in FoFCou.
 Harris En= -3008.75788053169    
 JPrj=0 DoOrth=F DoCkMO=F.
 Leave Link  401 at Wed Apr 27 09:11:46 2022, MaxMem= 10066329600 cpu:             136.5 elap:               5.7
 (Enter /sw/apps/gaussian-16.0/g16/l502.exe)
 Integral symmetry usage will be decided dynamically.
 Closed shell SCF:
 Using DIIS extrapolation, IDIIS=  1040.
 NGot= 10066329600 LenX= 10062561258 LenY= 10060699398
 Requested convergence on RMS density matrix=1.00D-08 within 128 cycles.
 Requested convergence on MAX density matrix=1.00D-06.
 Requested convergence on             energy=1.00D-06.
 No special actions if energy rises.
 Fock matrices will be formed incrementally for  20 cycles.

 Cycle   1  Pass 1  IDiag  1:
 FoFJK:  IHMeth= 1 ICntrl=     500 DoSepK=F KAlg= 0 I1Cent=           0 FoldK=F
 IRaf= 530000000 NMat=       1 IRICut=       1 DoRegI=T DoRafI=F ISym2E= 0 IDoP0=0 IntGTp=1.
 FoFCou: FMM=T IPFlag=           0 FMFlag=      100000 FMFlg1=        2001
         NFxFlg=           0 DoJE=T BraDBF=F KetDBF=F FulRan=T
         wScrn=  0.000000 ICntrl=       500 IOpCl=  0 I1Cent=           0 NGrid=           0
         NMat0=    1 NMatS0=      1 NMatT0=    0 NMatD0=    1 NMtDS0=    0 NMtDT0=    0
 Symmetry not used in FoFCou.
 FMM levels:  10  Number of levels for PrismC:   9
 E= -3005.66085704445    
 DIIS: error= 1.92D-02 at cycle   1 NSaved=   1.
 NSaved= 1 IEnMin= 1 EnMin= -3005.66085704445     IErMin= 1 ErrMin= 1.92D-02
 ErrMax= 1.92D-02  0.00D+00 EMaxC= 1.00D-01 BMatC= 1.55D+00 BMatP= 1.55D+00
 IDIUse=3 WtCom= 8.08D-01 WtEn= 1.92D-01
 Coeff-Com:  0.100D+01
 Coeff-En:   0.100D+01
 Coeff:      0.100D+01
 Gap=     0.046 Goal=   None    Shift=    0.000
 GapD=    0.046 DampG=0.250 DampE=0.500 DampFc=0.2500 IDamp=-1.
 Damping current iteration by 2.50D-01
 RMSDP=3.75D-03 MaxDP=4.87D-01              OVMax= 9.17D-01

 Cycle   2  Pass 1  IDiag  1:
 RMSU=  9.31D-04    CP:  9.89D-01
 E= -3006.15696894009     Delta-E=       -0.496111895638 Rises=F Damp=T
 DIIS: error= 7.83D-03 at cycle   2 NSaved=   2.
 NSaved= 2 IEnMin= 2 EnMin= -3006.15696894009     IErMin= 2 ErrMin= 7.83D-03
 ErrMax= 7.83D-03  0.00D+00 EMaxC= 1.00D-01 BMatC= 2.62D-01 BMatP= 1.55D+00
 IDIUse=3 WtCom= 9.22D-01 WtEn= 7.83D-02
 Coeff-Com: -0.282D+00 0.128D+01
 Coeff-En:   0.923D-01 0.908D+00
 Coeff:     -0.252D+00 0.125D+01
 Gap=     0.173 Goal=   None    Shift=    0.000
 RMSDP=1.63D-03 MaxDP=2.24D-01 DE=-4.96D-01 OVMax= 5.72D-01

 Cycle   3  Pass 1  IDiag  1:
 RMSU=  1.60D-03    CP:  9.64D-01  1.25D+00
 E= -3005.21101852173     Delta-E=        0.945950418358 Rises=F Damp=F
 DIIS: error= 4.02D-02 at cycle   3 NSaved=   3.
 NSaved= 3 IEnMin= 2 EnMin= -3006.15696894009     IErMin= 2 ErrMin= 7.83D-03
 ErrMax= 4.02D-02  0.00D+00 EMaxC= 1.00D-01 BMatC= 1.65D+00 BMatP= 2.62D-01
 IDIUse=2 WtCom= 0.00D+00 WtEn= 1.00D+00
 Coeff-En:   0.000D+00 0.676D+00 0.324D+00
 Coeff:      0.000D+00 0.676D+00 0.324D+00
 Gap=     0.051 Goal=   None    Shift=    0.000
 RMSDP=2.16D-03 MaxDP=4.64D-01 DE= 9.46D-01 OVMax= 7.46D-01

 Cycle   4  Pass 1  IDiag  1:
 RMSU=  1.10D-03    CP:  9.66D-01  1.94D+00 -9.13D-02
 E= -3004.15670322147     Delta-E=        1.054315300258 Rises=F Damp=F
 DIIS: error= 3.47D-02 at cycle   4 NSaved=   4.
 NSaved= 4 IEnMin= 2 EnMin= -3006.15696894009     IErMin= 2 ErrMin= 7.83D-03
 ErrMax= 3.47D-02  0.00D+00 EMaxC= 1.00D-01 BMatC= 2.13D+00 BMatP= 2.62D-01
 IDIUse=2 WtCom= 0.00D+00 WtEn= 1.00D+00
 EnCoef did     1 forward-backward iterations
 Coeff-En:   0.113D+00 0.000D+00 0.492D+00 0.395D+00
 Coeff:      0.113D+00 0.000D+00 0.492D+00 0.395D+00
 Gap=     0.104 Goal=   None    Shift=    0.000
 RMSDP=1.49D-03 MaxDP=3.14D-01 DE= 1.05D+00 OVMax= 8.24D-01

 Cycle   5  Pass 1  IDiag  1:
 RMSU=  7.10D-04    CP:  9.79D-01  1.16D+00  1.20D-01  6.14D-02
 E= -3007.09042552365     Delta-E=       -2.933722302178 Rises=F Damp=F
 DIIS: error= 1.56D-02 at cycle   5 NSaved=   5.
 NSaved= 5 IEnMin= 5 EnMin= -3007.09042552365     IErMin= 2 ErrMin= 7.83D-03
 ErrMax= 1.56D-02  0.00D+00 EMaxC= 1.00D-01 BMatC= 2.90D-01 BMatP= 2.62D-01
 IDIUse=2 WtCom= 0.00D+00 WtEn= 1.00D+00
 EnCoef did     6 forward-backward iterations
 Coeff-En:   0.000D+00 0.000D+00 0.118D+00 0.112D+00 0.770D+00
 Coeff:      0.000D+00 0.000D+00 0.118D+00 0.112D+00 0.770D+00
 Gap=     0.176 Goal=   None    Shift=    0.000
 RMSDP=1.48D-03 MaxDP=1.59D-01 DE=-2.93D+00 OVMax= 6.01D-01

 Cycle   6  Pass 1  IDiag  1:
 RMSU=  1.29D-03    CP:  9.73D-01  1.06D+00  3.39D-01  1.64D-01  1.41D-01
 E= -3006.23193534743     Delta-E=        0.858490176217 Rises=F Damp=F
 DIIS: error= 3.49D-02 at cycle   6 NSaved=   6.
 NSaved= 6 IEnMin= 5 EnMin= -3007.09042552365     IErMin= 2 ErrMin= 7.83D-03
 ErrMax= 3.49D-02  0.00D+00 EMaxC= 1.00D-01 BMatC= 1.18D+00 BMatP= 2.62D-01
 IDIUse=2 WtCom= 0.00D+00 WtEn= 1.00D+00
 Coeff-En:   0.000D+00 0.000D+00 0.000D+00 0.000D+00 0.730D+00 0.270D+00
 Coeff:      0.000D+00 0.000D+00 0.000D+00 0.000D+00 0.730D+00 0.270D+00
 Gap=     0.051 Goal=   None    Shift=    0.000
 RMSDP=8.74D-04 MaxDP=9.23D-02 DE= 8.58D-01 OVMax= 4.29D-01

 Cycle   7  Pass 1  IDiag  1:
 RMSU=  3.79D-04    CP:  9.75D-01  1.25D+00  2.21D-01  4.96D-02  7.20D-01
                    CP:  5.32D-01
 E= -3007.26365001196     Delta-E=       -1.031714664521 Rises=F Damp=F
 DIIS: error= 7.13D-03 at cycle   7 NSaved=   7.
 NSaved= 7 IEnMin= 7 EnMin= -3007.26365001196     IErMin= 7 ErrMin= 7.13D-03
 ErrMax= 7.13D-03  0.00D+00 EMaxC= 1.00D-01 BMatC= 1.07D-01 BMatP= 2.62D-01
 IDIUse=3 WtCom= 9.29D-01 WtEn= 7.13D-02
 Coeff-Com: -0.991D-02 0.643D-02 0.181D-01 0.461D-02 0.478D+00 0.145D+00
 Coeff-Com:  0.358D+00
 Coeff-En:   0.000D+00 0.000D+00 0.000D+00 0.000D+00 0.311D+00 0.000D+00
 Coeff-En:   0.689D+00
 Coeff:     -0.920D-02 0.597D-02 0.168D-01 0.428D-02 0.466D+00 0.135D+00
 Coeff:      0.381D+00
 Gap=     0.040 Goal=   None    Shift=    0.000
 RMSDP=4.51D-04 MaxDP=7.42D-02 DE=-1.03D+00 OVMax= 2.16D-01

 Cycle   8  Pass 1  IDiag  1:
 RMSU=  2.40D-04    CP:  9.76D-01  1.18D+00  1.90D-01  9.70D-02  7.16D-01
                    CP:  4.28D-01  9.55D-02
 E= -3007.32063634166     Delta-E=       -0.056986329702 Rises=F Damp=F
 DIIS: error= 9.35D-03 at cycle   8 NSaved=   8.
 NSaved= 8 IEnMin= 8 EnMin= -3007.32063634166     IErMin= 7 ErrMin= 7.13D-03
 ErrMax= 9.35D-03  0.00D+00 EMaxC= 1.00D-01 BMatC= 2.98D-02 BMatP= 1.07D-01
 IDIUse=3 WtCom= 9.29D-01 WtEn= 7.13D-02
 EnCoef did     5 forward-backward iterations
 Coeff-Com:  0.655D-02 0.401D-02 0.594D-02-0.530D-02 0.264D+00 0.361D-01
 Coeff-Com:  0.370D+00 0.319D+00
 Coeff-En:   0.000D+00 0.000D+00 0.000D+00 0.000D+00 0.101D+00 0.000D+00
 Coeff-En:   0.321D+00 0.577D+00
 Coeff:      0.608D-02 0.372D-02 0.551D-02-0.492D-02 0.252D+00 0.335D-01
 Coeff:      0.366D+00 0.337D+00
 Gap=     0.040 Goal=   None    Shift=    0.000
 RMSDP=3.28D-04 MaxDP=3.78D-02 DE=-5.70D-02 OVMax= 2.63D-01

 Cycle   9  Pass 1  IDiag  1:
 RMSU=  1.15D-04    CP:  9.77D-01  1.17D+00  1.95D-01  3.92D-02  8.38D-01
                    CP:  3.78D-01  5.58D-01  9.14D-02
 E= -3007.35563887359     Delta-E=       -0.035002531933 Rises=F Damp=F
 DIIS: error= 4.12D-03 at cycle   9 NSaved=   9.
 NSaved= 9 IEnMin= 9 EnMin= -3007.35563887359     IErMin= 9 ErrMin= 4.12D-03
 ErrMax= 4.12D-03  0.00D+00 EMaxC= 1.00D-01 BMatC= 7.87D-03 BMatP= 2.98D-02
 IDIUse=3 WtCom= 9.59D-01 WtEn= 4.12D-02
 Coeff-Com:  0.190D-01-0.208D-01-0.211D-03-0.324D-03 0.107D+00-0.106D-01
 Coeff-Com:  0.244D+00 0.326D+00 0.336D+00
 Coeff-En:   0.000D+00 0.000D+00 0.000D+00 0.000D+00 0.000D+00 0.000D+00
 Coeff-En:   0.000D+00 0.269D+00 0.731D+00
 Coeff:      0.182D-01-0.200D-01-0.202D-03-0.311D-03 0.103D+00-0.101D-01
 Coeff:      0.234D+00 0.323D+00 0.352D+00
 Gap=     0.042 Goal=   None    Shift=    0.000
 RMSDP=1.42D-04 MaxDP=1.38D-02 DE=-3.50D-02 OVMax= 1.23D-01

 Cycle  10  Pass 1  IDiag  1:
 RMSU=  5.14D-05    CP:  9.77D-01  1.18D+00  1.84D-01  5.97D-02  8.02D-01
                    CP:  3.92D-01  4.71D-01  4.10D-01  1.84D-01
 E= -3007.36445896699     Delta-E=       -0.008820093401 Rises=F Damp=F
 DIIS: error= 1.52D-03 at cycle  10 NSaved=  10.
 NSaved=10 IEnMin=10 EnMin= -3007.36445896699     IErMin=10 ErrMin= 1.52D-03
 ErrMax= 1.52D-03  0.00D+00 EMaxC= 1.00D-01 BMatC= 1.39D-03 BMatP= 7.87D-03
 IDIUse=3 WtCom= 9.85D-01 WtEn= 1.52D-02
 Coeff-Com:  0.181D-01-0.233D-01-0.410D-03 0.480D-03 0.551D-01-0.156D-01
 Coeff-Com:  0.160D+00 0.239D+00 0.297D+00 0.270D+00
 Coeff-En:   0.000D+00 0.000D+00 0.000D+00 0.000D+00 0.000D+00 0.000D+00
 Coeff-En:   0.000D+00 0.000D+00 0.198D+00 0.802D+00
 Coeff:      0.178D-01-0.230D-01-0.404D-03 0.472D-03 0.543D-01-0.154D-01
 Coeff:      0.158D+00 0.236D+00 0.295D+00 0.278D+00
 Gap=     0.043 Goal=   None    Shift=    0.000
 RMSDP=6.31D-05 MaxDP=4.92D-03 DE=-8.82D-03 OVMax= 4.77D-02

 Cycle  11  Pass 1  IDiag  1:
 RMSU=  2.34D-05    CP:  9.77D-01  1.18D+00  1.87D-01  5.54D-02  8.06D-01
                    CP:  3.86D-01  4.72D-01  3.77D-01  4.49D-01  6.38D-02
 E= -3007.36606170446     Delta-E=       -0.001602737464 Rises=F Damp=F
 DIIS: error= 8.41D-04 at cycle  11 NSaved=  11.
 NSaved=11 IEnMin=11 EnMin= -3007.36606170446     IErMin=11 ErrMin= 8.41D-04
 ErrMax= 8.41D-04  0.00D+00 EMaxC= 1.00D-01 BMatC= 2.55D-04 BMatP= 1.39D-03
 IDIUse=3 WtCom= 9.92D-01 WtEn= 8.41D-03
 Coeff-Com:  0.131D-01-0.195D-01-0.737D-04 0.649D-03 0.251D-01-0.108D-01
 Coeff-Com:  0.836D-01 0.131D+00 0.173D+00 0.259D+00 0.345D+00
 Coeff-En:   0.000D+00 0.000D+00 0.000D+00 0.000D+00 0.000D+00 0.000D+00
 Coeff-En:   0.000D+00 0.000D+00 0.000D+00 0.234D+00 0.766D+00
 Coeff:      0.130D-01-0.194D-01-0.731D-04 0.643D-03 0.249D-01-0.107D-01
 Coeff:      0.829D-01 0.130D+00 0.172D+00 0.259D+00 0.348D+00
 Gap=     0.043 Goal=   None    Shift=    0.000
 RMSDP=2.55D-05 MaxDP=2.06D-03 DE=-1.60D-03 OVMax= 1.78D-02

 Cycle  12  Pass 1  IDiag  1:
 RMSU=  1.15D-05    CP:  9.77D-01  1.18D+00  1.87D-01  5.74D-02  8.04D-01
                    CP:  3.87D-01  4.75D-01  3.78D-01  3.83D-01  3.37D-01
                    CP:  3.13D-01
 E= -3007.36637704005     Delta-E=       -0.000315335599 Rises=F Damp=F
 DIIS: error= 2.26D-04 at cycle  12 NSaved=  12.
 NSaved=12 IEnMin=12 EnMin= -3007.36637704005     IErMin=12 ErrMin= 2.26D-04
 ErrMax= 2.26D-04  0.00D+00 EMaxC= 1.00D-01 BMatC= 5.45D-05 BMatP= 2.55D-04
 IDIUse=3 WtCom= 9.98D-01 WtEn= 2.26D-03
 Coeff-Com:  0.666D-02-0.115D-01 0.506D-03 0.206D-03 0.660D-02-0.429D-02
 Coeff-Com:  0.242D-01 0.401D-01 0.541D-01 0.150D+00 0.315D+00 0.418D+00
 Coeff-En:   0.000D+00 0.000D+00 0.000D+00 0.000D+00 0.000D+00 0.000D+00
 Coeff-En:   0.000D+00 0.000D+00 0.000D+00 0.000D+00 0.182D+00 0.818D+00
 Coeff:      0.665D-02-0.115D-01 0.505D-03 0.205D-03 0.659D-02-0.428D-02
 Coeff:      0.241D-01 0.400D-01 0.540D-01 0.150D+00 0.315D+00 0.419D+00
 Gap=     0.043 Goal=   None    Shift=    0.000
 RMSDP=9.19D-06 MaxDP=8.61D-04 DE=-3.15D-04 OVMax= 5.60D-03

 Cycle  13  Pass 1  IDiag  1:
 RMSU=  5.06D-06    CP:  9.76D-01  1.17D+00  1.88D-01  5.73D-02  8.03D-01
                    CP:  3.86D-01  4.74D-01  3.83D-01  3.80D-01  2.99D-01
                    CP:  4.80D-01  4.76D-01
 E= -3007.36643202339     Delta-E=       -0.000054983338 Rises=F Damp=F
 DIIS: error= 8.58D-05 at cycle  13 NSaved=  13.
 NSaved=13 IEnMin=13 EnMin= -3007.36643202339     IErMin=13 ErrMin= 8.58D-05
 ErrMax= 8.58D-05  0.00D+00 EMaxC= 1.00D-01 BMatC= 1.07D-05 BMatP= 5.45D-05
 IDIUse=1 WtCom= 1.00D+00 WtEn= 0.00D+00
 Coeff-Com:  0.296D-02-0.568D-02 0.734D-03-0.843D-04 0.128D-02-0.127D-02
 Coeff-Com:  0.326D-02 0.695D-02 0.785D-02 0.668D-01 0.178D+00 0.324D+00
 Coeff-Com:  0.416D+00
 Coeff:      0.296D-02-0.568D-02 0.734D-03-0.843D-04 0.128D-02-0.127D-02
 Coeff:      0.326D-02 0.695D-02 0.785D-02 0.668D-01 0.178D+00 0.324D+00
 Coeff:      0.416D+00
 Gap=     0.043 Goal=   None    Shift=    0.000
 RMSDP=3.52D-06 MaxDP=4.55D-04 DE=-5.50D-05 OVMax= 1.48D-03

 Cycle  14  Pass 1  IDiag  1:
 RMSU=  2.12D-06    CP:  9.76D-01  1.17D+00  1.88D-01  5.70D-02  8.03D-01
                    CP:  3.85D-01  4.73D-01  3.80D-01  3.82D-01  3.11D-01
                    CP:  4.85D-01  5.88D-01  6.17D-01
 E= -3007.36644203227     Delta-E=       -0.000010008876 Rises=F Damp=F
 DIIS: error= 6.11D-05 at cycle  14 NSaved=  14.
 NSaved=14 IEnMin=14 EnMin= -3007.36644203227     IErMin=14 ErrMin= 6.11D-05
 ErrMax= 6.11D-05  0.00D+00 EMaxC= 1.00D-01 BMatC= 2.34D-06 BMatP= 1.07D-05
 IDIUse=1 WtCom= 1.00D+00 WtEn= 0.00D+00
 Coeff-Com:  0.112D-02-0.245D-02 0.564D-03-0.124D-03-0.469D-04-0.262D-03
 Coeff-Com: -0.211D-02-0.208D-02-0.609D-02 0.139D-01 0.535D-01 0.117D+00
 Coeff-Com:  0.240D+00 0.587D+00
 Coeff:      0.112D-02-0.245D-02 0.564D-03-0.124D-03-0.469D-04-0.262D-03
 Coeff:     -0.211D-02-0.208D-02-0.609D-02 0.139D-01 0.535D-01 0.117D+00
 Coeff:      0.240D+00 0.587D+00
 Gap=     0.043 Goal=   None    Shift=    0.000
 RMSDP=1.70D-06 MaxDP=2.85D-04 DE=-1.00D-05 OVMax= 3.77D-04

 Cycle  15  Pass 1  IDiag  1:
 RMSU=  1.37D-06    CP:  9.76D-01  1.17D+00  1.88D-01  5.69D-02  8.03D-01
                    CP:  3.85D-01  4.72D-01  3.80D-01  3.80D-01  3.11D-01
                    CP:  4.98D-01  5.88D-01  6.76D-01  8.74D-01
 E= -3007.36644361749     Delta-E=       -0.000001585220 Rises=F Damp=F
 DIIS: error= 2.61D-05 at cycle  15 NSaved=  15.
 NSaved=15 IEnMin=15 EnMin= -3007.36644361749     IErMin=15 ErrMin= 2.61D-05
 ErrMax= 2.61D-05  0.00D+00 EMaxC= 1.00D-01 BMatC= 8.53D-07 BMatP= 2.34D-06
 IDIUse=1 WtCom= 1.00D+00 WtEn= 0.00D+00
 Coeff-Com:  0.100D-03-0.432D-03 0.182D-03-0.375D-04-0.145D-03 0.460D-04
 Coeff-Com: -0.180D-02-0.240D-02-0.664D-02-0.161D-01-0.350D-01-0.604D-01
 Coeff-Com: -0.270D-01 0.486D+00 0.664D+00
 Coeff:      0.100D-03-0.432D-03 0.182D-03-0.375D-04-0.145D-03 0.460D-04
 Coeff:     -0.180D-02-0.240D-02-0.664D-02-0.161D-01-0.350D-01-0.604D-01
 Coeff:     -0.270D-01 0.486D+00 0.664D+00
 Gap=     0.043 Goal=   None    Shift=    0.000
 RMSDP=1.26D-06 MaxDP=2.09D-04 DE=-1.59D-06 OVMax= 4.75D-04

 Cycle  16  Pass 1  IDiag  1:
 RMSU=  6.84D-07    CP:  9.76D-01  1.17D+00  1.88D-01  5.69D-02  8.03D-01
                    CP:  3.84D-01  4.72D-01  3.80D-01  3.81D-01  3.09D-01
                    CP:  5.04D-01  6.08D-01  7.02D-01  1.14D+00  7.24D-01
 E= -3007.36644426235     Delta-E=       -0.000000644864 Rises=F Damp=F
 DIIS: error= 1.28D-05 at cycle  16 NSaved=  16.
 NSaved=16 IEnMin=16 EnMin= -3007.36644426235     IErMin=16 ErrMin= 1.28D-05
 ErrMax= 1.28D-05  0.00D+00 EMaxC= 1.00D-01 BMatC= 2.39D-07 BMatP= 8.53D-07
 IDIUse=1 WtCom= 1.00D+00 WtEn= 0.00D+00
 Coeff-Com:  0.206D-04-0.165D-03 0.391D-04-0.687D-05-0.117D-04 0.349D-04
 Coeff-Com: -0.675D-03-0.870D-03-0.350D-02-0.126D-01-0.334D-01-0.627D-01
 Coeff-Com: -0.635D-01 0.254D+00 0.518D+00 0.405D+00
 Coeff:      0.206D-04-0.165D-03 0.391D-04-0.687D-05-0.117D-04 0.349D-04
 Coeff:     -0.675D-03-0.870D-03-0.350D-02-0.126D-01-0.334D-01-0.627D-01
 Coeff:     -0.635D-01 0.254D+00 0.518D+00 0.405D+00
 Gap=     0.043 Goal=   None    Shift=    0.000
 RMSDP=5.23D-07 MaxDP=4.68D-05 DE=-6.45D-07 OVMax= 1.87D-04

 Cycle  17  Pass 1  IDiag  1:
 RMSU=  2.64D-07    CP:  9.76D-01  1.17D+00  1.88D-01  5.69D-02  8.03D-01
                    CP:  3.84D-01  4.71D-01  3.80D-01  3.80D-01  3.10D-01
                    CP:  5.04D-01  6.02D-01  7.19D-01  1.15D+00  7.95D-01
                    CP:  4.55D-01
 E= -3007.36644448541     Delta-E=       -0.000000223055 Rises=F Damp=F
 DIIS: error= 6.43D-06 at cycle  17 NSaved=  17.
 NSaved=17 IEnMin=17 EnMin= -3007.36644448541     IErMin=17 ErrMin= 6.43D-06
 ErrMax= 6.43D-06  0.00D+00 EMaxC= 1.00D-01 BMatC= 2.79D-08 BMatP= 2.39D-07
 IDIUse=1 WtCom= 1.00D+00 WtEn= 0.00D+00
 Coeff-Com:  0.342D-04-0.124D-03 0.795D-05 0.946D-06 0.643D-05 0.853D-05
 Coeff-Com: -0.215D-03-0.263D-03-0.165D-02-0.667D-02-0.199D-01-0.375D-01
 Coeff-Com: -0.429D-01 0.120D+00 0.293D+00 0.292D+00 0.405D+00
 Coeff:      0.342D-04-0.124D-03 0.795D-05 0.946D-06 0.643D-05 0.853D-05
 Coeff:     -0.215D-03-0.263D-03-0.165D-02-0.667D-02-0.199D-01-0.375D-01
 Coeff:     -0.429D-01 0.120D+00 0.293D+00 0.292D+00 0.405D+00
 Gap=     0.043 Goal=   None    Shift=    0.000
 RMSDP=1.83D-07 MaxDP=2.77D-05 DE=-2.23D-07 OVMax= 5.46D-05

 Cycle  18  Pass 1  IDiag  1:
 RMSU=  1.06D-07    CP:  9.76D-01  1.17D+00  1.88D-01  5.69D-02  8.03D-01
                    CP:  3.84D-01  4.71D-01  3.80D-01  3.80D-01  3.10D-01
                    CP:  5.03D-01  6.06D-01  7.20D-01  1.17D+00  8.11D-01
                    CP:  4.98D-01  5.60D-01
 E= -3007.36644450864     Delta-E=       -0.000000023227 Rises=F Damp=F
 DIIS: error= 1.72D-06 at cycle  18 NSaved=  18.
 NSaved=18 IEnMin=18 EnMin= -3007.36644450864     IErMin=18 ErrMin= 1.72D-06
 ErrMax= 1.72D-06  0.00D+00 EMaxC= 1.00D-01 BMatC= 4.64D-09 BMatP= 2.79D-08
 IDIUse=1 WtCom= 1.00D+00 WtEn= 0.00D+00
 Coeff-Com:  0.189D-04-0.542D-04 0.111D-05 0.141D-05-0.726D-05 0.218D-05
 Coeff-Com: -0.568D-04-0.650D-04-0.662D-03-0.286D-02-0.963D-02-0.179D-01
 Coeff-Com: -0.222D-01 0.413D-01 0.127D+00 0.149D+00 0.304D+00 0.432D+00
 Coeff:      0.189D-04-0.542D-04 0.111D-05 0.141D-05-0.726D-05 0.218D-05
 Coeff:     -0.568D-04-0.650D-04-0.662D-03-0.286D-02-0.963D-02-0.179D-01
 Coeff:     -0.222D-01 0.413D-01 0.127D+00 0.149D+00 0.304D+00 0.432D+00
 Gap=     0.043 Goal=   None    Shift=    0.000
 RMSDP=7.59D-08 MaxDP=1.02D-05 DE=-2.32D-08 OVMax= 2.03D-05

 Cycle  19  Pass 1  IDiag  1:
 RMSU=  3.51D-08    CP:  9.76D-01  1.17D+00  1.88D-01  5.69D-02  8.03D-01
                    CP:  3.84D-01  4.71D-01  3.80D-01  3.80D-01  3.11D-01
                    CP:  5.03D-01  6.05D-01  7.22D-01  1.18D+00  8.23D-01
                    CP:  5.03D-01  5.60D-01  5.09D-01
 E= -3007.36644451277     Delta-E=       -0.000000004129 Rises=F Damp=F
 DIIS: error= 4.93D-07 at cycle  19 NSaved=  19.
 NSaved=19 IEnMin=19 EnMin= -3007.36644451277     IErMin=19 ErrMin= 4.93D-07
 ErrMax= 4.93D-07  0.00D+00 EMaxC= 1.00D-01 BMatC= 5.50D-10 BMatP= 4.64D-09
 IDIUse=1 WtCom= 1.00D+00 WtEn= 0.00D+00
 Coeff-Com:  0.781D-05-0.189D-04 0.188D-06 0.423D-06-0.828D-05 0.838D-07
 Coeff-Com: -0.111D-04-0.805D-05-0.266D-03-0.128D-02-0.466D-02-0.876D-02
 Coeff-Com: -0.114D-01 0.137D-01 0.557D-01 0.723D-01 0.170D+00 0.302D+00
 Coeff-Com:  0.413D+00
 Coeff:      0.781D-05-0.189D-04 0.188D-06 0.423D-06-0.828D-05 0.838D-07
 Coeff:     -0.111D-04-0.805D-05-0.266D-03-0.128D-02-0.466D-02-0.876D-02
 Coeff:     -0.114D-01 0.137D-01 0.557D-01 0.723D-01 0.170D+00 0.302D+00
 Coeff:      0.413D+00
 Gap=     0.043 Goal=   None    Shift=    0.000
 RMSDP=2.63D-08 MaxDP=2.89D-06 DE=-4.13D-09 OVMax= 6.38D-06

 Cycle  20  Pass 1  IDiag  1:
 RMSU=  1.41D-08    CP:  9.76D-01  1.17D+00  1.88D-01  5.69D-02  8.03D-01
                    CP:  3.84D-01  4.71D-01  3.80D-01  3.80D-01  3.11D-01
                    CP:  5.03D-01  6.06D-01  7.23D-01  1.18D+00  8.25D-01
                    CP:  5.06D-01  5.76D-01  5.43D-01  5.72D-01
 E= -3007.36644451333     Delta-E=       -0.000000000566 Rises=F Damp=F
 DIIS: error= 1.75D-07 at cycle  20 NSaved=  20.
 NSaved=20 IEnMin=20 EnMin= -3007.36644451333     IErMin=20 ErrMin= 1.75D-07
 ErrMax= 1.75D-07  0.00D+00 EMaxC= 1.00D-01 BMatC= 6.54D-11 BMatP= 5.50D-10
 IDIUse=1 WtCom= 1.00D+00 WtEn= 0.00D+00
 Coeff-Com:  0.238D-05-0.493D-05 0.577D-07-0.138D-07-0.550D-05-0.837D-08
 Coeff-Com: -0.987D-06 0.103D-05-0.102D-03-0.550D-03-0.206D-02-0.394D-02
 Coeff-Com: -0.529D-02 0.388D-02 0.223D-01 0.315D-01 0.784D-01 0.151D+00
 Coeff-Com:  0.288D+00 0.437D+00
 Coeff:      0.238D-05-0.493D-05 0.577D-07-0.138D-07-0.550D-05-0.837D-08
 Coeff:     -0.987D-06 0.103D-05-0.102D-03-0.550D-03-0.206D-02-0.394D-02
 Coeff:     -0.529D-02 0.388D-02 0.223D-01 0.315D-01 0.784D-01 0.151D+00
 Coeff:      0.288D+00 0.437D+00
 Gap=     0.043 Goal=   None    Shift=    0.000
 RMSDP=1.07D-08 MaxDP=1.43D-06 DE=-5.66D-10 OVMax= 3.67D-06

 Cycle  21  Pass 1  IDiag  1:
 Restarting incremental Fock formation.
 E= -3007.36644451336     Delta-E=       -0.000000000033 Rises=F Damp=F
 DIIS: error= 9.78D-08 at cycle  21 NSaved=  20.
 NSaved=20 IEnMin=20 EnMin= -3007.36644451336     IErMin=20 ErrMin= 9.78D-08
 ErrMax= 9.78D-08  0.00D+00 EMaxC= 1.00D-01 BMatC= 1.17D-11 BMatP= 6.54D-11
 IDIUse=1 WtCom= 1.00D+00 WtEn= 0.00D+00
 Coeff-Com:  0.651D-06-0.111D-05 0.386D-08-0.299D-05 0.133D-06 0.591D-06
 Coeff-Com:  0.117D-05-0.319D-04-0.195D-03-0.758D-03-0.149D-02-0.211D-02
 Coeff-Com:  0.380D-03 0.722D-02 0.115D-01 0.307D-01 0.631D-01 0.147D+00
 Coeff-Com:  0.331D+00 0.413D+00
 Coeff:      0.651D-06-0.111D-05 0.386D-08-0.299D-05 0.133D-06 0.591D-06
 Coeff:      0.117D-05-0.319D-04-0.195D-03-0.758D-03-0.149D-02-0.211D-02
 Coeff:      0.380D-03 0.722D-02 0.115D-01 0.307D-01 0.631D-01 0.147D+00
 Coeff:      0.331D+00 0.413D+00
 Gap=     0.043 Goal=   None    Shift=    0.000
 RMSDP=3.99D-09 MaxDP=6.07D-07 DE=-3.27D-11 OVMax= 7.68D-07

 SCF Done:  E(RB-LYP) =  -3007.36644451     A.U. after   21 cycles
            NFock= 21  Conv=0.40D-08     -V/T= 2.0099
 KE= 2.977839706561D+03 PE=-2.619622304095D+04 EE= 1.061032632657D+04
 Leave Link  502 at Wed Apr 27 09:15:30 2022, MaxMem= 10066329600 cpu:            5343.7 elap:             223.5
 (Enter /sw/apps/gaussian-16.0/g16/l801.exe)
 DoSCS=F DFT=T ScalE2(SS,OS)=  1.000000  1.000000
 ExpMin= 3.36D-02 ExpMax= 4.95D+03 ExpMxC= 7.45D+02 IAcc=3 IRadAn=         5 AccDes= 0.00D+00
 HarFok:  IExCor=  205 AccDes= 0.00D+00 IRadAn=         5 IDoV=-2 UseB2=F ITyADJ=14
 ICtDFT= 12500011 ScaDFX=  1.000000  1.000000  1.000000  1.000000
 GSVD:  LWork=       -5460 too small for GESVD, short by       25550 words or       25550 for optimal perf.
 Largest valence mixing into a core orbital is  1.26D-04
 Largest core mixing into a valence orbital is  4.60D-05
 Range of M.O.s used for correlation:    71  1298
 NBasis=  1298 NAE=   246 NBE=   246 NFC=    70 NFV=     0
 NROrb=   1228 NOA=   176 NOB=   176 NVA=  1052 NVB=  1052

 **** Warning!!: The smallest alpha delta epsilon is  0.42666611D-01

 Leave Link  801 at Wed Apr 27 09:15:30 2022, MaxMem= 10066329600 cpu:               7.5 elap:               0.3
 (Enter /sw/apps/gaussian-16.0/g16/l914.exe)
 RHF ground state
 Two-electron integrals replicated using symmetry.
 MDV= 10066329600 DFT=T DoStab=F Mixed=F DoRPA=T DoScal=T NonHer=F
 Making orbital integer symmetry assigments:
 Orbital symmetries:
       Occupied  (A) (A) (A) (A) (A) (A) (A) (A) (A) (A) (A) (A)
                 (A) (A) (A) (A) (A) (A) (A) (A) (A) (A) (A) (A)
                 (A) (A) (A) (A) (A) (A) (A) (A) (A) (A) (A) (A)
                 (A) (A) (A) (A) (A) (A) (A) (A) (A) (A) (A) (A)
                 (A) (A) (A) (A) (A) (A) (A) (A) (A) (A) (A) (A)
                 (A) (A) (A) (A) (A) (A) (A) (A) (A) (A) (A) (A)
                 (A) (A) (A) (A) (A) (A) (A) (A) (A) (A) (A) (A)
                 (A) (A) (A) (A) (A) (A) (A) (A) (A) (A) (A) (A)
                 (A) (A) (A) (A) (A) (A) (A) (A) (A) (A) (A) (A)
                 (A) (A) (A) (A) (A) (A) (A) (A) (A) (A) (A) (A)
                 (A) (A) (A) (A) (A) (A) (A) (A) (A) (A) (A) (A)
                 (A) (A) (A) (A) (A) (A) (A) (A) (A) (A) (A) (A)
                 (A) (A) (A) (A) (A) (A) (A) (A) (A) (A) (A) (A)
                 (A) (A) (A) (A) (A) (A) (A) (A) (A) (A) (A) (A)
                 (A) (A) (A) (A) (A) (A) (A) (A) (A) (A) (A) (A)
                 (A) (A) (A) (A) (A) (A) (A) (A) (A) (A) (A) (A)
                 (A) (A) (A) (A) (A) (A) (A) (A) (A) (A) (A) (A)
                 (A) (A) (A) (A) (A) (A) (A) (A) (A) (A) (A) (A)
                 (A) (A) (A) (A) (A) (A) (A) (A) (A) (A) (A) (A)
                 (A) (A) (A) (A) (A) (A) (A) (A) (A) (A) (A) (A)
                 (A) (A) (A) (A) (A) (A)
       Virtual   (A) (A) (A) (A) (A) (A) (A) (A) (A) (A) (A) (A)
                 (A) (A) (A) (A) (A) (A) (A) (A) (A) (A) (A) (A)
                 (A) (A) (A) (A) (A) (A) (A) (A) (A) (A) (A) (A)
                 (A) (A) (A) (A) (A) (A) (A) (A) (A) (A) (A) (A)
                 (A) (A) (A) (A) (A) (A) (A) (A) (A) (A) (A) (A)
                 (A) (A) (A) (A) (A) (A) (A) (A) (A) (A) (A) (A)
                 (A) (A) (A) (A) (A) (A) (A) (A) (A) (A) (A) (A)
                 (A) (A) (A) (A) (A) (A) (A) (A) (A) (A) (A) (A)
                 (A) (A) (A) (A) (A) (A) (A) (A) (A) (A) (A) (A)
                 (A) (A) (A) (A) (A) (A) (A) (A) (A) (A) (A) (A)
                 (A) (A) (A) (A) (A) (A) (A) (A) (A) (A) (A) (A)
                 (A) (A) (A) (A) (A) (A) (A) (A) (A) (A) (A) (A)
                 (A) (A) (A) (A) (A) (A) (A) (A) (A) (A) (A) (A)
                 (A) (A) (A) (A) (A) (A) (A) (A) (A) (A) (A) (A)
                 (A) (A) (A) (A) (A) (A) (A) (A) (A) (A) (A) (A)
                 (A) (A) (A) (A) (A) (A) (A) (A) (A) (A) (A) (A)
                 (A) (A) (A) (A) (A) (A) (A) (A) (A) (A) (A) (A)
                 (A) (A) (A) (A) (A) (A) (A) (A) (A) (A) (A) (A)
                 (A) (A) (A) (A) (A) (A) (A) (A) (A) (A) (A) (A)
                 (A) (A) (A) (A) (A) (A) (A) (A) (A) (A) (A) (A)
                 (A) (A) (A) (A) (A) (A) (A) (A) (A) (A) (A) (A)
                 (A) (A) (A) (A) (A) (A) (A) (A) (A) (A) (A) (A)
                 (A) (A) (A) (A) (A) (A) (A) (A) (A) (A) (A) (A)
                 (A) (A) (A) (A) (A) (A) (A) (A) (A) (A) (A) (A)
                 (A) (A) (A) (A) (A) (A) (A) (A) (A) (A) (A) (A)
                 (A) (A) (A) (A) (A) (A) (A) (A) (A) (A) (A) (A)
                 (A) (A) (A) (A) (A) (A) (A) (A) (A) (A) (A) (A)
                 (A) (A) (A) (A) (A) (A) (A) (A) (A) (A) (A) (A)
                 (A) (A) (A) (A) (A) (A) (A) (A) (A) (A) (A) (A)
                 (A) (A) (A) (A) (A) (A) (A) (A) (A) (A) (A) (A)
                 (A) (A) (A) (A) (A) (A) (A) (A) (A) (A) (A) (A)
                 (A) (A) (A) (A) (A) (A) (A) (A) (A) (A) (A) (A)
                 (A) (A) (A) (A) (A) (A) (A) (A) (A) (A) (A) (A)
                 (A) (A) (A) (A) (A) (A) (A) (A) (A) (A) (A) (A)
                 (A) (A) (A) (A) (A) (A) (A) (A) (A) (A) (A) (A)
                 (A) (A) (A) (A) (A) (A) (A) (A) (A) (A) (A) (A)
                 (A) (A) (A) (A) (A) (A) (A) (A) (A) (A) (A) (A)
                 (A) (A) (A) (A) (A) (A) (A) (A) (A) (A) (A) (A)
                 (A) (A) (A) (A) (A) (A) (A) (A) (A) (A) (A) (A)
                 (A) (A) (A) (A) (A) (A) (A) (A) (A) (A) (A) (A)
                 (A) (A) (A) (A) (A) (A) (A) (A) (A) (A) (A) (A)
                 (A) (A) (A) (A) (A) (A) (A) (A) (A) (A) (A) (A)
                 (A) (A) (A) (A) (A) (A) (A) (A) (A) (A) (A) (A)
                 (A) (A) (A) (A) (A) (A) (A) (A) (A) (A) (A) (A)
                 (A) (A) (A) (A) (A) (A) (A) (A) (A) (A) (A) (A)
                 (A) (A) (A) (A) (A) (A) (A) (A) (A) (A) (A) (A)
                 (A) (A) (A) (A) (A) (A) (A) (A) (A) (A) (A) (A)
                 (A) (A) (A) (A) (A) (A) (A) (A) (A) (A) (A) (A)
                 (A) (A) (A) (A) (A) (A) (A) (A) (A) (A) (A) (A)
                 (A) (A) (A) (A) (A) (A) (A) (A) (A) (A) (A) (A)
                 (A) (A) (A) (A) (A) (A) (A) (A) (A) (A) (A) (A)
                 (A) (A) (A) (A) (A) (A) (A) (A) (A) (A) (A) (A)
                 (A) (A) (A) (A) (A) (A) (A) (A) (A) (A) (A) (A)
                 (A) (A) (A) (A) (A) (A) (A) (A) (A) (A) (A) (A)
                 (A) (A) (A) (A) (A) (A) (A) (A) (A) (A) (A) (A)
                 (A) (A) (A) (A) (A) (A) (A) (A) (A) (A) (A) (A)
                 (A) (A) (A) (A) (A) (A) (A) (A) (A) (A) (A) (A)
                 (A) (A) (A) (A) (A) (A) (A) (A) (A) (A) (A) (A)
                 (A) (A) (A) (A) (A) (A) (A) (A) (A) (A) (A) (A)
                 (A) (A) (A) (A) (A) (A) (A) (A) (A) (A) (A) (A)
                 (A) (A) (A) (A) (A) (A) (A) (A) (A) (A) (A) (A)
                 (A) (A) (A) (A) (A) (A) (A) (A) (A) (A) (A) (A)
                 (A) (A) (A) (A) (A) (A) (A) (A) (A) (A) (A) (A)
                 (A) (A) (A) (A) (A) (A) (A) (A) (A) (A) (A) (A)
                 (A) (A) (A) (A) (A) (A) (A) (A) (A) (A) (A) (A)
                 (A) (A) (A) (A) (A) (A) (A) (A) (A) (A) (A) (A)
                 (A) (A) (A) (A) (A) (A) (A) (A) (A) (A) (A) (A)
                 (A) (A) (A) (A) (A) (A) (A) (A) (A) (A) (A) (A)
                 (A) (A) (A) (A) (A) (A) (A) (A) (A) (A) (A) (A)
                 (A) (A) (A) (A) (A) (A) (A) (A) (A) (A) (A) (A)
                 (A) (A) (A) (A) (A) (A) (A) (A) (A) (A) (A) (A)
                 (A) (A) (A) (A) (A) (A) (A) (A) (A) (A) (A) (A)
                 (A) (A) (A) (A) (A) (A) (A) (A) (A) (A) (A) (A)
                 (A) (A) (A) (A) (A) (A) (A) (A) (A) (A) (A) (A)
                 (A) (A) (A) (A) (A) (A) (A) (A) (A) (A) (A) (A)
                 (A) (A) (A) (A) (A) (A) (A) (A) (A) (A) (A) (A)
                 (A) (A) (A) (A) (A) (A) (A) (A) (A) (A) (A) (A)
                 (A) (A) (A) (A) (A) (A) (A) (A) (A) (A) (A) (A)
                 (A) (A) (A) (A) (A) (A) (A) (A) (A) (A) (A) (A)
                 (A) (A) (A) (A) (A) (A) (A) (A) (A) (A) (A) (A)
                 (A) (A) (A) (A) (A) (A) (A) (A) (A) (A) (A) (A)
                 (A) (A) (A) (A) (A) (A) (A) (A) (A) (A) (A) (A)
                 (A) (A) (A) (A) (A) (A) (A) (A) (A) (A) (A) (A)
                 (A) (A) (A) (A) (A) (A) (A) (A) (A) (A) (A) (A)
                 (A) (A) (A) (A) (A) (A) (A) (A) (A) (A) (A) (A)
                 (A) (A) (A) (A) (A) (A) (A) (A) (A) (A) (A) (A)
                 (A) (A) (A) (A) (A) (A) (A) (A) (A) (A) (A) (A)
                 (A) (A) (A) (A) (A) (A) (A) (A)
    20 initial guesses have been made.
 Convergence on wavefunction:    0.001000000000000
 Davidson Disk Diagonalization:  ConvIn= 1.00D-03 SkipCon=T Conv= 1.00D-03.
 Max sub-space:  2000 roots to seek:    20 dimension of matrix:       370304
 Iteration     1 Dimension    20 NMult     0 NNew     20
 CISAX will form    20 AO SS matrices at one time.
 NMat=    20 NSing=    20 JSym2X= 0.
 FoFJK:  IHMeth= 1 ICntrl=     500 DoSepK=F KAlg= 0 I1Cent=           0 FoldK=F
 IRaf= 530000000 NMat=      20 IRICut=       1 DoRegI=T DoRafI=F ISym2E= 0 IDoP0=0 IntGTp=1.
 FoFCou: FMM=T IPFlag=           0 FMFlag=      100000 FMFlg1=        2001
         NFxFlg=           0 DoJE=F BraDBF=F KetDBF=F FulRan=T
         wScrn=  0.000000 ICntrl=       500 IOpCl=  0 I1Cent=           0 NGrid=           0
         NMat0=   20 NMatS0=     20 NMatT0=    0 NMatD0=   20 NMtDS0=    0 NMtDT0=    0
 Symmetry not used in FoFCou.
 FMM levels:  10  Number of levels for PrismC:   9
 New state      1 was old state      3
 New state      2 was old state      4
 New state      3 was old state      5
 New state      4 was old state      1
 New state      5 was old state      2
 Excitation Energies [eV] at current iteration:
 Root      1 :     1.790982111796402
 Root      2 :     1.988352960164457
 Root      3 :     2.035708587638155
 Root      4 :     2.148815082461938
 Root      5 :     2.327144661629811
 Root      6 :     2.511569023471604
 Root      7 :     2.794775698734589
 Root      8 :     2.897345783503975
 Root      9 :     2.901640468394378
 Root     10 :     3.022050288241299
 Root     11 :     3.089437925330353
 Root     12 :     3.098925548033892
 Root     13 :     3.103376304524425
 Root     14 :     3.132849174689331
 Root     15 :     3.236434722627326
 Root     16 :     3.376169822515673
 Root     17 :     3.667671782687681
 Root     18 :     3.888171714563988
 Root     19 :     4.084579093013007
 Root     20 :     4.396957323099080
 Iteration     2 Dimension    40 NMult    20 NNew     20
 CISAX will form    20 AO SS matrices at one time.
 NMat=    20 NSing=    20 JSym2X= 0.
 Root      1 not converged, maximum delta is    0.073410616026490
 New state      2 was old state      4
 Root      2 not converged, maximum delta is    0.101536810305870
 New state      3 was old state      2
 Root      3 not converged, maximum delta is    0.060633319891152
 New state      4 was old state      3
 Root      4 not converged, maximum delta is    0.106428553214916
 Root      5 not converged, maximum delta is    0.139011389310567
 Excitation Energies [eV] at current iteration:
 Root      1 :     1.782501873836051   Change is   -0.008480237960350
 Root      2 :     1.902261425404734   Change is   -0.246553657057204
 Root      3 :     1.980320002041912   Change is   -0.008032958122545
 Root      4 :     2.034045748050462   Change is   -0.001662839587692
 Root      5 :     2.092468687201953   Change is   -0.234675974427858
 Root      6 :     2.495286522147109   Change is   -0.016282501324495
 Root      7 :     2.547874136051157   Change is   -0.246901562683432
 Root      8 :     2.665681856742131   Change is   -0.235958611652247
 Root      9 :     2.870335067685752   Change is   -0.151715220555547
 Root     10 :     2.897351591690288   Change is    0.000005808186313
 Root     11 :     2.960913882273168   Change is   -0.138011665760725
 Root     12 :     3.081060827060382   Change is   -0.008377098269970
 Root     13 :     3.088771594167600   Change is   -0.147663128459726
 Root     14 :     3.103051288966844   Change is   -0.000325015557581
 Root     15 :     3.131342438636552   Change is   -0.001506736052779
 Root     16 :     3.187282867226077   Change is   -0.188886955289596
 Root     17 :     3.335774141444489   Change is   -0.331897641243192
 Root     18 :     3.469583421773728   Change is   -0.418588292790260
 Root     19 :     3.578262704891618   Change is   -0.506316388121389
 Root     20 :     3.763420702659639   Change is   -0.633536620439441
 Iteration     3 Dimension    45 NMult    40 NNew      5
 CISAX will form     5 AO SS matrices at one time.
 NMat=     5 NSing=     5 JSym2X= 0.
 Root      1 not converged, maximum delta is    0.072139853377394
 Root      2 not converged, maximum delta is    0.073805054071196
 Root      3 not converged, maximum delta is    0.037070162188458
 Root      4 not converged, maximum delta is    0.127674792459042
 Root      5 not converged, maximum delta is    0.157115858439191
 Excitation Energies [eV] at current iteration:
 Root      1 :     1.778109180405061   Change is   -0.004392693430990
 Root      2 :     1.853758084936476   Change is   -0.048503340468257
 Root      3 :     1.977754809370402   Change is   -0.002565192671510
 Root      4 :     2.030261945719469   Change is   -0.003783802330993
 Root      5 :     2.062854926516422   Change is   -0.029613760685531
 Iteration     4 Dimension    50 NMult    45 NNew      5
 CISAX will form     5 AO SS matrices at one time.
 NMat=     5 NSing=     5 JSym2X= 0.
 Root      1 not converged, maximum delta is    0.044975669701107
 Root      2 not converged, maximum delta is    0.044477534875069
 Root      3 not converged, maximum delta is    0.025573521844687
 Root      4 not converged, maximum delta is    0.097258924992012
 Root      5 not converged, maximum delta is    0.120285213713473
 Excitation Energies [eV] at current iteration:
 Root      1 :     1.775510764192360   Change is   -0.002598416212701
 Root      2 :     1.836967928744998   Change is   -0.016790156191478
 Root      3 :     1.976196394547764   Change is   -0.001558414822638
 Root      4 :     2.026341176962118   Change is   -0.003920768757352
 Root      5 :     2.053279027922323   Change is   -0.009575898594099
 Iteration     5 Dimension    55 NMult    50 NNew      5
 CISAX will form     5 AO SS matrices at one time.
 NMat=     5 NSing=     5 JSym2X= 0.
 Root      1 not converged, maximum delta is    0.017549683059702
 Root      2 not converged, maximum delta is    0.017323789463655
 Root      3 not converged, maximum delta is    0.009671720567640
 Root      4 not converged, maximum delta is    0.038411833665544
 Root      5 not converged, maximum delta is    0.040515312834700
 Excitation Energies [eV] at current iteration:
 Root      1 :     1.774459568117678   Change is   -0.001051196074682
 Root      2 :     1.831731338899246   Change is   -0.005236589845753
 Root      3 :     1.975483941621414   Change is   -0.000712452926351
 Root      4 :     2.024532129560214   Change is   -0.001809047401903
 Root      5 :     2.050851453458330   Change is   -0.002427574463994
 Iteration     6 Dimension    60 NMult    55 NNew      5
 CISAX will form     5 AO SS matrices at one time.
 NMat=     5 NSing=     5 JSym2X= 0.
 Root      1 not converged, maximum delta is    0.009127625316229
 Root      2 not converged, maximum delta is    0.009186906620266
 Root      3 not converged, maximum delta is    0.003818565388749
 Root      4 not converged, maximum delta is    0.015735281407193
 Root      5 not converged, maximum delta is    0.014871270436932
 Excitation Energies [eV] at current iteration:
 Root      1 :     1.773937837468493   Change is   -0.000521730649186
 Root      2 :     1.829266601202212   Change is   -0.002464737697034
 Root      3 :     1.975145048848946   Change is   -0.000338892772467
 Root      4 :     2.023754850705951   Change is   -0.000777278854264
 Root      5 :     2.050019659191752   Change is   -0.000831794266579
 Iteration     7 Dimension    65 NMult    60 NNew      5
 CISAX will form     5 AO SS matrices at one time.
 NMat=     5 NSing=     5 JSym2X= 0.
 Root      1 not converged, maximum delta is    0.004162357098792
 Root      2 not converged, maximum delta is    0.004187244267904
 Root      3 not converged, maximum delta is    0.001394676937806
 Root      4 not converged, maximum delta is    0.006022005890953
 Root      5 not converged, maximum delta is    0.005455234390419
 Excitation Energies [eV] at current iteration:
 Root      1 :     1.773709352071125   Change is   -0.000228485397368
 Root      2 :     1.828207999056244   Change is   -0.001058602145968
 Root      3 :     1.975006996891041   Change is   -0.000138051957905
 Root      4 :     2.023451194867389   Change is   -0.000303655838562
 Root      5 :     2.049718791528796   Change is   -0.000300867662955
 Iteration     8 Dimension    70 NMult    65 NNew      5
 CISAX will form     5 AO SS matrices at one time.
 NMat=     5 NSing=     5 JSym2X= 0.
 Root      1 not converged, maximum delta is    0.001794694890742
 Root      2 not converged, maximum delta is    0.001823272624441
 Root      3 has converged.
 Root      4 not converged, maximum delta is    0.002746883590848
 Root      5 not converged, maximum delta is    0.002444017736381
 Excitation Energies [eV] at current iteration:
 Root      1 :     1.773613687572823   Change is   -0.000095664498302
 Root      2 :     1.827771996532638   Change is   -0.000436002523605
 Root      3 :     1.974950105536735   Change is   -0.000056891354306
 Root      4 :     2.023311887769950   Change is   -0.000139307097439
 Root      5 :     2.049584523054995   Change is   -0.000134268473802
 Iteration     9 Dimension    74 NMult    70 NNew      4
 CISAX will form     4 AO SS matrices at one time.
 NMat=     4 NSing=     4 JSym2X= 0.
 Root      1 has converged.
 Root      2 has converged.
 Root      3 has converged.
 Root      4 not converged, maximum delta is    0.001168401838764
 Root      5 not converged, maximum delta is    0.001035154326665
 Excitation Energies [eV] at current iteration:
 Root      1 :     1.773572445446464   Change is   -0.000041242126360
[...]
 Alpha virt. eigenvalues --    1.11365   1.11397   1.11551   1.12117   1.12705
 Alpha virt. eigenvalues --    1.12935   1.13514   1.13823   1.14820   1.15033
 Alpha virt. eigenvalues --    1.15295   1.16159   1.16242   1.16663   1.17550
 Alpha virt. eigenvalues --    1.17784   1.18426   1.18663   1.18951   1.19654
 Alpha virt. eigenvalues --    1.19738   1.20094   1.20466   1.20801   1.22083
 Alpha virt. eigenvalues --    1.22478   1.22526   1.23127   1.23159   1.23622
 Alpha virt. eigenvalues --    1.23999   1.25240   1.25312   1.25537   1.25945
 Alpha virt. eigenvalues --    1.26330   1.26635   1.26808   1.27411   1.28082
 Alpha virt. eigenvalues --    1.28436   1.28726   1.29079   1.29422   1.30127
 Alpha virt. eigenvalues --    1.30637   1.31278   1.31566   1.31833   1.32095
 Alpha virt. eigenvalues --    1.32582   1.33094   1.33407   1.33729   1.33897
 Alpha virt. eigenvalues --    1.34304   1.34472   1.35133   1.35440   1.35651
 Alpha virt. eigenvalues --    1.35917   1.36117   1.36357   1.36665   1.37263
 Alpha virt. eigenvalues --    1.37621   1.37913   1.38156   1.38928   1.39492
 Alpha virt. eigenvalues --    1.40121   1.40262   1.40460   1.41002   1.41707
 Alpha virt. eigenvalues --    1.42490   1.42603   1.43502   1.43991   1.44219
 Alpha virt. eigenvalues --    1.44823   1.45074   1.45224   1.45616   1.45886
 Alpha virt. eigenvalues --    1.45956   1.46014   1.46481   1.46852   1.47176
 Alpha virt. eigenvalues --    1.47469   1.47751   1.47934   1.48043   1.48147
 Alpha virt. eigenvalues --    1.48445   1.48697   1.49051   1.49216   1.49326
 Alpha virt. eigenvalues --    1.49490   1.50061   1.50279   1.50379   1.50698
 Alpha virt. eigenvalues --    1.51187   1.51501   1.51742   1.52264   1.52432
 Alpha virt. eigenvalues --    1.52590   1.53164   1.53246   1.53595   1.54452
 Alpha virt. eigenvalues --    1.54646   1.54899   1.55828   1.56325   1.56625
 Alpha virt. eigenvalues --    1.56919   1.57099   1.57698   1.58114   1.58677
 Alpha virt. eigenvalues --    1.58991   1.59306   1.59579   1.60464   1.60843
 Alpha virt. eigenvalues --    1.61159   1.61312   1.62157   1.62503   1.62753
 Alpha virt. eigenvalues --    1.63126   1.63350   1.63774   1.63947   1.64233
 Alpha virt. eigenvalues --    1.64421   1.65208   1.65500   1.65588   1.65737
 Alpha virt. eigenvalues --    1.65963   1.66343   1.66726   1.66859   1.67011
 Alpha virt. eigenvalues --    1.67184   1.67399   1.67584   1.67717   1.67961
 Alpha virt. eigenvalues --    1.68470   1.68648   1.68786   1.69124   1.69415
 Alpha virt. eigenvalues --    1.69499   1.69833   1.69883   1.69968   1.70297
 Alpha virt. eigenvalues --    1.70605   1.71271   1.71320   1.71635   1.71723
 Alpha virt. eigenvalues --    1.71858   1.71936   1.72166   1.72446   1.72656
 Alpha virt. eigenvalues --    1.72748   1.72870   1.73024   1.73338   1.73464
 Alpha virt. eigenvalues --    1.73584   1.73924   1.73947   1.74086   1.74172
 Alpha virt. eigenvalues --    1.74232   1.74495   1.74625   1.74938   1.74985
 Alpha virt. eigenvalues --    1.75070   1.75761   1.75866   1.76416   1.76490
 Alpha virt. eigenvalues --    1.76703   1.76830   1.76924   1.77088   1.77388
 Alpha virt. eigenvalues --    1.77546   1.77821   1.77990   1.78110   1.78277
 Alpha virt. eigenvalues --    1.78576   1.78730   1.79046   1.79133   1.79253
 Alpha virt. eigenvalues --    1.79784   1.79869   1.80184   1.80354   1.80501
 Alpha virt. eigenvalues --    1.80803   1.81160   1.81302   1.81485   1.81965
 Alpha virt. eigenvalues --    1.82079   1.82343   1.82497   1.82721   1.82776
 Alpha virt. eigenvalues --    1.82916   1.83180   1.83581   1.83704   1.84133
 Alpha virt. eigenvalues --    1.84220   1.84391   1.84615   1.84794   1.84961
 Alpha virt. eigenvalues --    1.85124   1.85645   1.85862   1.85968   1.86556
 Alpha virt. eigenvalues --    1.86800   1.87061   1.87799   1.88298   1.88631
 Alpha virt. eigenvalues --    1.88917   1.89359   1.89591   1.89986   1.90021
 Alpha virt. eigenvalues --    1.90075   1.90613   1.90808   1.91179   1.91509
 Alpha virt. eigenvalues --    1.91677   1.91751   1.92015   1.92051   1.92290
 Alpha virt. eigenvalues --    1.92473   1.92884   1.92972   1.93399   1.93728
 Alpha virt. eigenvalues --    1.94380   1.94513   1.94899   1.95330   1.95670
 Alpha virt. eigenvalues --    1.95918   1.96164   1.96476   1.96513   1.97177
 Alpha virt. eigenvalues --    1.97363   1.97465   1.97706   1.98268   1.98409
 Alpha virt. eigenvalues --    1.98754   1.98790   1.98889   1.99087   1.99814
 Alpha virt. eigenvalues --    1.99911   2.00683   2.00999   2.01367   2.01662
 Alpha virt. eigenvalues --    2.01855   2.02113   2.02500   2.02624   2.02712
 Alpha virt. eigenvalues --    2.02951   2.03296   2.03648   2.03845   2.04014
 Alpha virt. eigenvalues --    2.04676   2.04692   2.04937   2.05236   2.05629
 Alpha virt. eigenvalues --    2.06027   2.06355   2.06508   2.06685   2.07340
 Alpha virt. eigenvalues --    2.07788   2.07954   2.08590   2.08809   2.09068
 Alpha virt. eigenvalues --    2.09617   2.09742   2.10314   2.10448   2.10722
 Alpha virt. eigenvalues --    2.11367   2.11524   2.11804   2.12648   2.13534
 Alpha virt. eigenvalues --    2.13756   2.14272   2.14829   2.14891   2.15345
 Alpha virt. eigenvalues --    2.15705   2.15961   2.16670   2.16831   2.17177
 Alpha virt. eigenvalues --    2.17415   2.17956   2.18584   2.18686   2.18933
 Alpha virt. eigenvalues --    2.19168   2.19755   2.20067   2.20579   2.21052
 Alpha virt. eigenvalues --    2.21628   2.21712   2.22013   2.22107   2.22409
 Alpha virt. eigenvalues --    2.23054   2.24199   2.24404   2.24672   2.24822
 Alpha virt. eigenvalues --    2.25129   2.25413   2.26068   2.26451   2.26991
 Alpha virt. eigenvalues --    2.27368   2.27722   2.28126   2.28527   2.28637
 Alpha virt. eigenvalues --    2.28766   2.29022   2.29203   2.29510   2.29698
 Alpha virt. eigenvalues --    2.30172   2.30499   2.31384   2.31732   2.31997
 Alpha virt. eigenvalues --    2.32075   2.32135   2.32232   2.32669   2.33230
 Alpha virt. eigenvalues --    2.33968   2.34289   2.34509   2.34852   2.35730
 Alpha virt. eigenvalues --    2.35857   2.36262   2.36793   2.36939   2.37354
 Alpha virt. eigenvalues --    2.38189   2.38704   2.38781   2.39066   2.39194
 Alpha virt. eigenvalues --    2.39607   2.40421   2.40538   2.40608   2.41419
 Alpha virt. eigenvalues --    2.41600   2.41727   2.41965   2.42175   2.42304
 Alpha virt. eigenvalues --    2.43050   2.43557   2.43810   2.44412   2.44633
 Alpha virt. eigenvalues --    2.44809   2.45678   2.45905   2.46162   2.46364
 Alpha virt. eigenvalues --    2.47050   2.47446   2.48058   2.48553   2.49154
 Alpha virt. eigenvalues --    2.49357   2.49890   2.50451   2.50857   2.51697
 Alpha virt. eigenvalues --    2.52459   2.52601   2.52930   2.53096   2.53886
 Alpha virt. eigenvalues --    2.54036   2.54120   2.54308   2.54645   2.54858
 Alpha virt. eigenvalues --    2.56101   2.56143   2.56293   2.57104   2.57683
 Alpha virt. eigenvalues --    2.58031   2.58187   2.58521   2.58581   2.58787
 Alpha virt. eigenvalues --    2.59060   2.59296   2.60569   2.61175   2.61865
 Alpha virt. eigenvalues --    2.62211   2.62252   2.62517   2.62953   2.63191
 Alpha virt. eigenvalues --    2.63696   2.63939   2.64509   2.64567   2.64946
 Alpha virt. eigenvalues --    2.65143   2.65744   2.66220   2.66464   2.67227
 Alpha virt. eigenvalues --    2.67379   2.67426   2.67499   2.67749   2.68207
 Alpha virt. eigenvalues --    2.68461   2.69348   2.69556   2.70415   2.71019
 Alpha virt. eigenvalues --    2.71618   2.71680   2.72494   2.72635   2.73608
 Alpha virt. eigenvalues --    2.74302   2.74759   2.74925   2.76143   2.76591
 Alpha virt. eigenvalues --    2.77916   2.78119   2.78314   2.78831   2.78971
 Alpha virt. eigenvalues --    2.79574   2.80078   2.80783   2.81110   2.81295
 Alpha virt. eigenvalues --    2.81661   2.82061   2.82602   2.82969   2.83041
 Alpha virt. eigenvalues --    2.83403   2.83446   2.83564   2.83971   2.84675
 Alpha virt. eigenvalues --    2.85029   2.85253   2.85466   2.85580   2.86259
 Alpha virt. eigenvalues --    2.86565   2.86992   2.87086   2.87470   2.87657
 Alpha virt. eigenvalues --    2.87850   2.88021   2.88290   2.88462   2.88636
 Alpha virt. eigenvalues --    2.88712   2.89089   2.89451   2.89665   2.89731
 Alpha virt. eigenvalues --    2.90015   2.90361   2.90437   2.90495   2.90841
 Alpha virt. eigenvalues --    2.91082   2.92145   2.92498   2.92655   2.92689
 Alpha virt. eigenvalues --    2.93082   2.93202   2.93296   2.93914   2.94350
 Alpha virt. eigenvalues --    2.94766   2.95713   2.95813   2.96311   2.96639
 Alpha virt. eigenvalues --    2.97071   2.97758   2.98284   2.98777   2.99202
 Alpha virt. eigenvalues --    2.99724   2.99754   3.01268   3.01405   3.02653
 Alpha virt. eigenvalues --    3.03210   3.03932   3.04021   3.05802   3.05940
 Alpha virt. eigenvalues --    3.06127   3.07098   3.07185   3.07744   3.08487
 Alpha virt. eigenvalues --    3.08841   3.09891   3.12053   3.12497   3.15605
 Alpha virt. eigenvalues --    3.16519   3.19725   3.28848   3.30746   3.31606
 Alpha virt. eigenvalues --    3.32786   3.32904   3.36053   3.39175   3.40634
 Alpha virt. eigenvalues --    3.43732   3.45436   3.50800   3.52105   3.53294
 Alpha virt. eigenvalues --    3.56122   3.57134
          Condensed to atoms (all electrons):
 Mulliken charges:
               1
     1  Mg   0.679185
     2  C    0.077511
     3  C   -0.089183
     4  C   -0.042931
     5  C   -0.059967
     6  N   -0.213368
     7  C   -0.160817
     8  C    0.042498
     9  C   -0.036886
    10  C    0.048173
    11  C    0.125387
    12  C    0.114003
    13  C    0.142428
    14  C    0.089087
    15  O   -0.179058
    16  O   -0.299382
    17  N   -0.295398
    18  C    0.194001
    19  C   -0.157101
    20  C    0.039613
    21  C    0.096029
    22  C    0.196879
    23  C   -0.059094
    24  O   -0.180063
    25  C    0.120901
    26  N   -0.290739
    27  C    0.005342
    28  C    0.037294
    29  C    0.015657
    30  C    0.036559
    31  C    0.126515
    32  C    0.044923
    33  C    0.075436
    34  N   -0.227772
    35  C    0.139963
    36  C   -0.202782
    37  C    0.148939
    38  C    0.023755
    39  C    0.170098
    40  C   -0.022294
    41  O   -0.147827
    42  C    0.090925
    43  C    0.064549
    44  O   -0.159479
    45  O   -0.273702
    46  C    0.223947
    47  C    0.389492
    48  C   -0.161710
    49  C   -0.074759
    50  C    0.132679
    51  C    0.104180
    52  C    0.074618
    53  C    0.110951
    54  C   -0.133608
    55  C    0.102088
    56  C    0.099785
    57  C    0.078335
    58  C    0.131506
    59  C   -0.081786
    60  C    0.105461
    61  C    0.071211
    62  C    0.064082
    63  C    0.086039
    64  C   -0.077269
    65  C    0.106434
    66  C    0.114910
    67  H   -0.057177
    68  H   -0.075454
    69  H   -0.072125
    70  H   -0.023016
    71  H   -0.014508
    72  H   -0.016874
    73  H   -0.004886
    74  H    0.004057
    75  H   -0.013558
    76  H   -0.027458
    77  H    0.014680
    78  H    0.020262
    79  H    0.016333
    80  H    0.003512
    81  H   -0.020390
    82  H    0.005497
    83  H    0.023624
    84  H   -0.000648
    85  H   -0.015325
    86  H   -0.018547
    87  H   -0.005383
    88  H   -0.011882
    89  H    0.003875
    90  H   -0.018465
    91  H   -0.024307
    92  H    0.002763
    93  H   -0.007226
    94  H   -0.009078
    95  H    0.010009
    96  H   -0.004812
    97  H    0.004427
    98  H   -0.022150
    99  H    0.002500
   100  H    0.017913
   101  H    0.013425
   102  H   -0.003436
   103  H   -0.025739
   104  H   -0.037080
   105  H    0.015622
   106  H   -0.004949
   107  H   -0.003222
   108  H   -0.033298
   109  H   -0.042260
   110  H   -0.038973
   111  H   -0.033318
   112  H   -0.037524
   113  H   -0.028326
   114  H   -0.037637
   115  H   -0.013732
   116  H   -0.017395
   117  H   -0.014636
   118  H   -0.048255
   119  H   -0.035583
   120  H   -0.023440
   121  H   -0.023863
   122  H   -0.015810
   123  H   -0.041153
   124  H   -0.044119
   125  H   -0.011002
   126  H   -0.020730
   127  H   -0.020848
   128  H   -0.029458
   129  H   -0.046506
   130  H   -0.025931
   131  H   -0.017020
   132  H   -0.036564
   133  H   -0.041071
   134  H   -0.020995
   135  H   -0.039419
   136  H   -0.027581
   137  H   -0.007920
   138  H   -0.021550
   139  H   -0.004172
   140  H   -0.035117
 Sum of Mulliken charges =  -0.00000
 Mulliken charges with hydrogens summed into heavy atoms:
               1
     1  Mg   0.679185
     2  C    0.077511
     3  C   -0.146360
     4  C   -0.118386
     5  C   -0.132092
     6  N   -0.213368
     7  C   -0.160817
     8  C    0.019482
     9  C   -0.051394
    10  C    0.048173
    11  C    0.107684
    12  C    0.072987
    13  C    0.177370
    14  C    0.089087
    15  O   -0.179058
    16  O   -0.299382
    17  N   -0.295398
    18  C    0.194001
    19  C   -0.157101
    20  C    0.039613
    21  C    0.096029
    22  C    0.196335
    23  C   -0.059094
    24  O   -0.180063
    25  C    0.149375
    26  N   -0.290739
    27  C    0.005342
    28  C    0.021969
    29  C   -0.002890
    30  C    0.036559
    31  C    0.113126
    32  C    0.002151
    33  C    0.061895
    34  N   -0.227772
    35  C    0.139963
    36  C   -0.202782
    37  C    0.148939
    38  C    0.023755
    39  C    0.179723
    40  C   -0.022294
    41  O   -0.147827
    42  C    0.068774
    43  C    0.064549
    44  O   -0.159479
    45  O   -0.273702
    46  C    0.257786
    47  C    0.360317
    48  C   -0.198790
    49  C   -0.074759
    50  C    0.140131
    51  C    0.028622
    52  C    0.002328
    53  C    0.045100
    54  C   -0.171245
    55  C    0.056325
    56  C    0.015947
    57  C    0.031031
    58  C    0.074544
    59  C   -0.125905
    60  C    0.052881
    61  C   -0.004753
    62  C    0.021131
    63  C    0.008404
    64  C   -0.098264
    65  C    0.031515
    66  C    0.054072
 Electronic spatial extent (au):  <R**2>=         116696.3634
 Charge=             -0.0000 electrons
 Dipole moment (field-independent basis, Debye):
    X=              2.9712    Y=              3.6328    Z=              0.8224  Tot=              4.7646
 Quadrupole moment (field-independent basis, Debye-Ang):
   XX=           -367.7914   YY=           -465.3948   ZZ=           -385.7176
   XY=              3.4840   XZ=             13.9499   YZ=             27.7414
 Traceless Quadrupole moment (field-independent basis, Debye-Ang):
   XX=             38.5098   YY=            -59.0935   ZZ=             20.5837
   XY=              3.4840   XZ=             13.9499   YZ=             27.7414
 Octapole moment (field-independent basis, Debye-Ang**2):
  XXX=            420.2872  YYY=              0.2209  ZZZ=            -23.8810  XYY=            -87.9715
  XXY=             61.5095  XXZ=            136.2958  XZZ=            118.8673  YZZ=            -82.5242
  YYZ=             42.8696  XYZ=            133.2610
 Hexadecapole moment (field-independent basis, Debye-Ang**3):
 XXXX=        -128370.3018 YYYY=         -25721.6667 ZZZZ=          -9744.4317 XXXY=            771.3941
 XXXZ=            906.3429 YYYX=           -226.5637 YYYZ=           1352.6569 ZZZX=            225.5658
 ZZZY=            343.1390 XXYY=         -25815.7554 XXZZ=         -22607.3237 YYZZ=          -5462.0849
 XXYZ=            930.9482 YYXZ=            165.7335 ZZXY=           -319.2630
 N-N= 9.600690563302D+03 E-N=-2.619622299624D+04  KE= 2.977839706561D+03
 Leave Link  601 at Wed Apr 27 09:25:00 2022, MaxMem= 10066329600 cpu:              11.1 elap:               0.6
 (Enter /sw/apps/gaussian-16.0/g16/l9999.exe)
 1\1\GINC-BP1-COMPUTE174\SP\RBLYP TD-FC\def2SVP\C55H74Mg1N4O6\OF15641\2
 7-Apr-2022\0\\#p blyp/Def2SVP td=(nstates=5)\\step_1101_chromophore_5 
 TDDFT with blyp functional\\0,1\Mg,0,24.459,-7.578,46.115\C,0,26.635,-
 5.127,44.665\C,0,21.951,-6.274,44.245\C,0,22.763,-10.366,46.68\C,0,27.
 423,-9.024,47.454\N,0,24.386,-5.886,44.612\C,0,25.362,-5.017,44.224\C,
 0,24.826,-4.062,43.124\C,0,23.248,-4.341,43.276\C,0,23.13,-5.515,44.18
 9\C,0,22.494,-3.088,43.845\C,0,25.463,-4.248,41.729\C,0,26.045,-3.018,
 40.959\C,0,25.578,-2.988,39.439\O,0,26.227,-2.577,38.496\O,0,24.235,-3
 .371,39.221\N,0,22.545,-8.193,45.678\C,0,21.662,-7.482,44.831\C,0,20.4
 67,-8.26,44.77\C,0,20.619,-9.445,45.505\C,0,22.004,-9.358,45.965\C,0,1
 9.276,-7.858,43.915\C,0,19.496,-10.474,45.779\O,0,18.338,-10.353,45.33
 4\C,0,19.776,-11.649,46.678\N,0,24.969,-9.402,47.085\C,0,24.071,-10.43
 7,47.083\C,0,24.735,-11.706,47.591\C,0,26.24,-11.308,47.908\C,0,26.287
 ,-9.765,47.563\C,0,24.049,-12.349,48.842\C,0,27.337,-12.121,47.07\C,0,
 28.617,-12.446,47.817\N,0,26.573,-7.03,46.364\C,0,27.624,-7.777,46.829
 \C,0,28.849,-7.014,46.722\C,0,28.522,-5.915,45.933\C,0,27.154,-6.043,4
 5.621\C,0,30.153,-7.45,47.277\C,0,28.982,-4.742,45.245\O,0,30.073,-4.1
 42,45.192\C,0,27.755,-4.197,44.349\C,0,27.414,-2.713,44.547\O,0,27.415
 ,-1.863,43.691\O,0,27.152,-2.461,45.882\C,0,26.633,-1.142,46.161\C,0,2
 3.744,-3.329,37.858\C,0,23.704,-4.74,37.444\C,0,24.279,-5.239,36.312\C
 ,0,25.292,-4.603,35.386\C,0,24.072,-6.691,36.099\C,0,22.747,-7.229,35.
 381\C,0,22.808,-7.208,33.846\C,0,21.743,-6.298,33.204\C,0,20.282,-6.97
 4,33.131\C,0,22.186,-5.852,31.812\C,0,23.186,-4.671,31.815\C,0,24.613,
 -5.065,31.251\C,0,25.018,-4.162,30.065\C,0,26.251,-3.252,30.199\C,0,25
 .019,-4.952,28.755\C,0,25.089,-4.179,27.392\C,0,24.185,-4.831,26.201\C
 ,0,23.242,-3.749,25.681\C,0,21.881,-4.245,26.047\C,0,23.26,-3.676,24.1
 41\H,0,21.153,-5.785,43.683\H,0,22.305,-11.356,46.739\H,0,28.277,-9.54
 6,47.89\H,0,25.06,-3.05,43.453\H,0,22.783,-4.585,42.321\H,0,21.77,-3.5
 04,44.546\H,0,21.913,-2.676,43.02\H,0,23.155,-2.357,44.309\H,0,24.798,
 -4.878,41.138\H,0,26.305,-4.914,41.919\H,0,27.126,-3.031,41.096\H,0,25
 .715,-2.095,41.435\H,0,18.394,-8.069,44.52\H,0,19.238,-8.557,43.08\H,0
 ,19.385,-6.847,43.524\H,0,20.373,-11.377,47.548\H,0,20.355,-12.425,46.
 178\H,0,18.795,-11.996,47.001\H,0,24.702,-12.396,46.748\H,0,26.537,-11
 .463,48.945\H,0,22.986,-12.112,48.888\H,0,24.436,-11.881,49.748\H,0,24
 .348,-13.394,48.768\H,0,27.684,-11.543,46.213\H,0,26.882,-13.005,46.62
 2\H,0,29.387,-11.796,47.401\H,0,28.97,-13.465,47.662\H,0,28.367,-12.23
 5,48.857\H,0,30.673,-8.186,46.663\H,0,29.957,-7.86,48.268\H,0,30.812,-
 6.59,47.402\H,0,27.895,-4.2,43.268\H,0,25.818,-0.874,45.488\H,0,27.388
 ,-0.363,46.055\H,0,26.25,-1.22,47.178\H,0,24.287,-2.808,37.069\H,0,22.
 693,-3.059,37.963\H,0,22.988,-5.342,38.004\H,0,26.284,-4.789,35.798\H,
 0,25.287,-3.521,35.251\H,0,25.245,-5.005,34.374\H,0,24.042,-7.308,36.9
 97\H,0,24.883,-7.163,35.544\H,0,21.945,-6.563,35.699\H,0,22.45,-8.232,
 35.69\H,0,22.572,-8.203,33.47\H,0,23.81,-6.904,33.541\H,0,21.615,-5.37
 2,33.765\H,0,19.597,-6.315,33.665\H,0,20.233,-7.96,33.593\H,0,19.972,-
 7.042,32.088\H,0,21.223,-5.621,31.356\H,0,22.492,-6.775,31.318\H,0,23.
 369,-4.212,32.786\H,0,22.708,-3.9,31.21\H,0,24.604,-6.13,31.019\H,0,25
 .321,-4.791,32.034\H,0,24.28,-3.386,29.862\H,0,26.133,-2.384,29.55\H,0
 ,27.167,-3.801,29.985\H,0,26.31,-2.865,31.216\H,0,24.306,-5.776,28.768
 \H,0,25.986,-5.443,28.867\H,0,26.091,-4.354,26.998\H,0,24.767,-3.138,2
 7.408\H,0,23.686,-5.714,26.6\H,0,24.881,-5.294,25.501\H,0,23.467,-2.77
 6,26.119\H,0,21.183,-3.409,25.996\H,0,21.785,-4.515,27.099\H,0,21.482,
 -5.033,25.408\H,0,23.534,-2.626,24.036\H,0,22.47,-4.031,23.479\H,0,24.
 124,-4.228,23.771\\Version=ES64L-G16RevA.03\State=1-A\HF=-3007.3664445
 \RMSD=3.991e-09\PG=C01 [X(C55H74Mg1N4O6)]\\@


 IF THERE IS ONE WAY BETTER THAN ANOTHER IT IS THE WAY OF NATURE.

                          -- ARISTOTLE
 Job cpu time:       0 days  5 hours 20 minutes 48.7 seconds.
 Elapsed time:       0 days  0 hours 13 minutes 25.2 seconds.
 File lengths (MBytes):  RWF=   8034 Int=      0 D2E=      0 Chk=    390 Scr=      1
 Normal termination of Gaussian 16 at Wed Apr 27 09:25:01 2022.
