 Entering Gaussian System, Link 0=g16
 Initial command:
 /sw/apps/gaussian-16.0/g16/l1.exe "/tmp/Gau-110846.inp" -scrdir="/tmp/"
 Entering Link 1 = /sw/apps/gaussian-16.0/g16/l1.exe PID=    110847.
  
 Copyright (c) 1988,1990,1992,1993,1995,1998,2003,2009,2016,
            Gaussian, Inc.  All Rights Reserved.
  
 This is part of the Gaussian(R) 16 program.  It is based on
 the Gaussian(R) 09 system (copyright 2009, Gaussian, Inc.),
 the Gaussian(R) 03 system (copyright 2003, Gaussian, Inc.),
 the Gaussian(R) 98 system (copyright 1998, Gaussian, Inc.),
 the Gaussian(R) 94 system (copyright 1995, Gaussian, Inc.),
 the Gaussian 92(TM) system (copyright 1992, Gaussian, Inc.),
 the Gaussian 90(TM) system (copyright 1990, Gaussian, Inc.),
 the Gaussian 88(TM) system (copyright 1988, Gaussian, Inc.),
 the Gaussian 86(TM) system (copyright 1986, Carnegie Mellon
 University), and the Gaussian 82(TM) system (copyright 1983,
 Carnegie Mellon University). Gaussian is a federally registered
 trademark of Gaussian, Inc.
  
 This software contains proprietary and confidential information,
 including trade secrets, belonging to Gaussian, Inc.
  
 This software is provided under written license and may be
 used, copied, transmitted, or stored only in accord with that
 written license.
  
 The following legend is applicable only to US Government
 contracts under FAR:
  
                    RESTRICTED RIGHTS LEGEND
  
 Use, reproduction and disclosure by the US Government is
 subject to restrictions as set forth in subparagraphs (a)
 and (c) of the Commercial Computer Software - Restricted
 Rights clause in FAR 52.227-19.
  
 Gaussian, Inc.
 340 Quinnipiac St., Bldg. 40, Wallingford CT 06492
  
  
 ---------------------------------------------------------------
 Warning -- This program may not be used in any manner that
 competes with the business of Gaussian, Inc. or will provide
 assistance to any competitor of Gaussian, Inc.  The licensee
 of this program is prohibited from giving any competitor of
 Gaussian, Inc. access to this program.  By using this program,
 the user acknowledges that Gaussian, Inc. is engaged in the
 business of creating and licensing software in the field of
 computational chemistry and represents and warrants to the
 licensee that it is not a competitor of Gaussian, Inc. and that
 it will not use this program in any manner prohibited above.
 ---------------------------------------------------------------
  

 Cite this work as:
 Gaussian 16, Revision A.03,
 M. J. Frisch, G. W. Trucks, H. B. Schlegel, G. E. Scuseria, 
 M. A. Robb, J. R. Cheeseman, G. Scalmani, V. Barone, 
 G. A. Petersson, H. Nakatsuji, X. Li, M. Caricato, A. V. Marenich, 
 J. Bloino, B. G. Janesko, R. Gomperts, B. Mennucci, H. P. Hratchian, 
 J. V. Ortiz, A. F. Izmaylov, J. L. Sonnenberg, D. Williams-Young, 
 F. Ding, F. Lipparini, F. Egidi, J. Goings, B. Peng, A. Petrone, 
 T. Henderson, D. Ranasinghe, V. G. Zakrzewski, J. Gao, N. Rega, 
 G. Zheng, W. Liang, M. Hada, M. Ehara, K. Toyota, R. Fukuda, 
 J. Hasegawa, M. Ishida, T. Nakajima, Y. Honda, O. Kitao, H. Nakai, 
 T. Vreven, K. Throssell, J. A. Montgomery, Jr., J. E. Peralta, 
 F. Ogliaro, M. J. Bearpark, J. J. Heyd, E. N. Brothers, K. N. Kudin, 
 V. N. Staroverov, T. A. Keith, R. Kobayashi, J. Normand, 
 K. Raghavachari, A. P. Rendell, J. C. Burant, S. S. Iyengar, 
 J. Tomasi, M. Cossi, J. M. Millam, M. Klene, C. Adamo, R. Cammi, 
 J. W. Ochterski, R. L. Martin, K. Morokuma, O. Farkas, 
 J. B. Foresman, and D. J. Fox, Gaussian, Inc., Wallingford CT, 2016.
 
 ******************************************
 Gaussian 16:  ES64L-G16RevA.03 25-Dec-2016
                 5-May-2022 
 ******************************************
 %nproc=24
 Will use up to   24 processors via shared memory.
 %mem=75GB
 ------------------------------
 #p blyp/Def2SVP td=(nstates=5)
 ------------------------------
 1/38=1,172=1/1;
 2/12=2,17=6,18=5,40=1/2;
 3/5=43,7=101,11=9,25=1,30=1,74=402/1,2,3,8;
 4//1;
 5/5=2,38=5/2;
 8/6=1,10=1,108=5/1;
 9/41=5,42=1,70=2/14;
 6/7=2,8=2,9=2,10=2/1;
 99/5=1,9=1/99;
 Leave Link    1 at Thu May  5 05:54:34 2022, MaxMem= 10066329600 cpu:               0.6 elap:               0.0
 (Enter /sw/apps/gaussian-16.0/g16/l101.exe)
 -------------------------------------------------
 step_651_chromophore_9 TDDFT with blyp functional
 -------------------------------------------------
 Symbolic Z-matrix:
 Charge =  0 Multiplicity = 1
 Mg                    35.461    1.787     29.884 
 C                     33.19     2.752     32.265 
 C                     37.932    1.833     32.421 
 C                     37.861    1.309     27.529 
 C                     32.988    2.026     27.42 
 N                     35.55     2.405     32.055 
 C                     34.437    2.593     32.822 
 C                     34.839    2.707     34.302 
 C                     36.393    2.68      34.333 
 C                     36.679    2.313     32.88 
 C                     37.177    3.844     35.059 
 C                     34.169    1.486     35.175 
 C                     33.692    1.951     36.617 
 C                     34.398    3.142     37.2 
 O                     33.948    4.221     37.223 
 O                     35.556    2.778     37.837 
 N                     37.529    1.48      30.026 
 C                     38.342    1.468     31.132 
 C                     39.706    1.09      30.734 
 C                     39.711    1.047     29.279 
 C                     38.316    1.287     28.897 
 C                     40.806    0.909     31.73 
 C                     40.897    0.809     28.293 
 O                     40.791    0.923     27.083 
 C                     42.19     0.516     28.877 
 N                     35.381    1.55      27.794 
 C                     36.524    1.35      27.044 
 C                     36.155    1.109     25.547 
 C                     34.658    1.331     25.501 
 C                     34.272    1.704     27.02 
 C                     37.05     1.909     24.497 
 C                     33.946    0.091     24.893 
 C                     34.029   -1.117     25.849 
 N                     33.436    2.27      29.846 
 C                     32.558    2.287     28.795 
 C                     31.317    2.738     29.304 
 C                     31.496    2.839     30.711 
 C                     32.818    2.594     30.968 
 C                     29.98     2.989     28.468 
 C                     30.847    3.115     31.928 
 O                     29.643    3.409     32.126 
 C                     31.839    2.945     33.065 
 C                     31.738    4.164     33.952 
 O                     32.063    5.269     33.591 
 O                     31.217    3.835     35.203 
 C                     31.054    4.964     36.171 
 C                     36.266    3.86      38.583 
 C                     37.377    3.414     39.479 
 C                     37.271    2.636     40.589 
 C                     35.96     2.357     41.296 
 C                     38.453    2.337     41.44 
 C                     38.663    0.819     41.509 
 C                     38.894    0.276     42.912 
 C                     40.334   -0.205     43.198 
 C                     40.388   -1.151     44.435 
 C                     41.216    1.134     43.5 
 C                     42.506    1.043     42.739 
 C                     43.619    1.841     43.353 
 C                     44.097    3.132     42.53 
 C                     45.435    2.883     41.752 
 C                     44.26     4.407     43.431 
 C                     44.418    5.789     42.565 
 C                     43.206    6.788     42.462 
 C                     43.285    8.094     43.221 
 C                     41.9      8.699     43.567 
 C                     44.327    9.163     42.644 
 H                     38.732    1.813     33.164 
 H                     38.599    1.061     26.763 
 H                     32.277    2.245     26.621 
 H                     34.502    3.704     34.585 
 H                     36.789    1.876     34.954 
 H                     37.798    3.459     35.867 
 H                     36.509    4.559     35.539 
 H                     37.866    4.342     34.377 
 H                     34.816    0.612     35.241 
 H                     33.296    1.089     34.656 
 H                     33.741    1.11      37.309 
 H                     32.64     2.237     36.596 
 H                     41.274    0.004     31.344 
 H                     40.504    0.738     32.763 
 H                     41.499    1.738     31.594 
 H                     42.372   -0.408     29.426 
 H                     42.398    1.318     29.585 
 H                     42.949    0.613     28.1 
 H                     36.417    0.097     25.239 
 H                     34.446    2.178     24.849 
 H                     37.438    1.141     23.828 
 H                     37.955    2.306     24.957 
 H                     36.579    2.765     24.014 
 H                     34.31    -0.205     23.909 
 H                     32.901    0.378     24.771 
 H                     33.039   -1.153     26.303 
 H                     34.81    -1.034     26.605 
 H                     34.274   -2.033     25.311 
 H                     29.314    2.135     28.593 
 H                     30.175    3.135     27.406 
 H                     29.427    3.79      28.959 
 H                     31.648    2.064     33.679 
 H                     30.099    5.477     36.056 
 H                     31.826    5.716     36.009 
 H                     30.995    4.657     37.215 
 H                     35.535    4.416     39.171 
 H                     36.776    4.629     38.004 
 H                     38.345    3.752     39.109 
 H                     35.115    2.887     40.854 
 H                     36.152    2.711     42.309 
 H                     35.667    1.308     41.269 
 H                     38.388    2.911     42.364 
 H                     39.308    2.713     40.877 
 H                     39.573    0.647     40.933 
 H                     37.886    0.291     40.956 
 H                     38.239   -0.594     42.976 
 H                     38.627    1.017     43.666 
 H                     40.693   -0.834     42.383 
 H                     40.75    -2.118     44.084 
 H                     39.445   -1.548     44.813 
 H                     41.001   -0.935     45.31 
 H                     41.428    1.089     44.569 
 H                     40.638    1.987     43.144 
 H                     42.392    1.532     41.772 
 H                     42.874    0.057     42.457 
 H                     44.474    1.193     43.542 
 H                     43.372    2.261     44.328 
 H                     43.27     3.408     41.876 
 H                     46.343    3.26      42.223 
 H                     45.118    3.474     40.893 
 H                     45.567    1.829     41.507 
 H                     44.997    4.103     44.174 
 H                     43.304    4.6       43.917 
 H                     44.617    5.586     41.513 
 H                     45.278    6.343     42.94 
 H                     42.345    6.241     42.844 
 H                     42.983    7.1       41.441 
 H                     43.582    7.927     44.257 
 H                     41.291    7.842     43.856 
 H                     41.403    9.302     42.807 
 H                     41.981    9.353     44.435 
 H                     43.882    10.062    42.217 
 H                     45.026    8.771     41.905 
 H                     44.907    9.573     43.471 
 
 ITRead=  0  0  0  0  0  0  0  0  0  0  0  0  0  0  0  0  0  0  0  0
 ITRead=  0  0  0  0  0  0  0  0  0  0  0  0  0  0  0  0  0  0  0  0
 ITRead=  0  0  0  0  0  0  0  0  0  0  0  0  0  0  0  0  0  0  0  0
 ITRead=  0  0  0  0  0  0  0  0  0  0  0  0  0  0  0  0  0  0  0  0
 ITRead=  0  0  0  0  0  0  0  0  0  0  0  0  0  0  0  0  0  0  0  0
 ITRead=  0  0  0  0  0  0  0  0  0  0  0  0  0  0  0  0  0  0  0  0
 ITRead=  0  0  0  0  0  0  0  0  0  0  0  0  0  0  0  0  0  0  0  0
 MicOpt= -1 -1 -1 -1 -1 -1 -1 -1 -1 -1 -1 -1 -1 -1 -1 -1 -1 -1 -1 -1
 MicOpt= -1 -1 -1 -1 -1 -1 -1 -1 -1 -1 -1 -1 -1 -1 -1 -1 -1 -1 -1 -1
 MicOpt= -1 -1 -1 -1 -1 -1 -1 -1 -1 -1 -1 -1 -1 -1 -1 -1 -1 -1 -1 -1
 MicOpt= -1 -1 -1 -1 -1 -1 -1 -1 -1 -1 -1 -1 -1 -1 -1 -1 -1 -1 -1 -1
 MicOpt= -1 -1 -1 -1 -1 -1 -1 -1 -1 -1 -1 -1 -1 -1 -1 -1 -1 -1 -1 -1
 MicOpt= -1 -1 -1 -1 -1 -1 -1 -1 -1 -1 -1 -1 -1 -1 -1 -1 -1 -1 -1 -1
 MicOpt= -1 -1 -1 -1 -1 -1 -1 -1 -1 -1 -1 -1 -1 -1 -1 -1 -1 -1 -1 -1
 NAtoms=    140 NQM=      140 NQMF=       0 NMMI=      0 NMMIF=      0
                NMic=       0 NMicF=      0.
                    Isotopes and Nuclear Properties:
 (Nuclear quadrupole moments (NQMom) in fm**2, nuclear magnetic moments (NMagM)
  in nuclear magnetons)

  Atom         1           2           3           4           5           6           7           8           9          10
 IAtWgt=          24          12          12          12          12          14          12          12          12          12
 AtmWgt=  23.9850450  12.0000000  12.0000000  12.0000000  12.0000000  14.0030740  12.0000000  12.0000000  12.0000000  12.0000000
 NucSpn=           0           0           0           0           0           2           0           0           0           0
 AtZEff=  -0.0000000  -0.0000000  -0.0000000  -0.0000000  -0.0000000  -0.0000000  -0.0000000  -0.0000000  -0.0000000  -0.0000000
 NQMom=    0.0000000   0.0000000   0.0000000   0.0000000   0.0000000   2.0440000   0.0000000   0.0000000   0.0000000   0.0000000
 NMagM=    0.0000000   0.0000000   0.0000000   0.0000000   0.0000000   0.4037610   0.0000000   0.0000000   0.0000000   0.0000000
 AtZNuc=  12.0000000   6.0000000   6.0000000   6.0000000   6.0000000   7.0000000   6.0000000   6.0000000   6.0000000   6.0000000

  Atom        11          12          13          14          15          16          17          18          19          20
 IAtWgt=          12          12          12          12          16          16          14          12          12          12
 AtmWgt=  12.0000000  12.0000000  12.0000000  12.0000000  15.9949146  15.9949146  14.0030740  12.0000000  12.0000000  12.0000000
 NucSpn=           0           0           0           0           0           0           2           0           0           0
 AtZEff=  -0.0000000  -0.0000000  -0.0000000  -0.0000000  -0.0000000  -0.0000000  -0.0000000  -0.0000000  -0.0000000  -0.0000000
 NQMom=    0.0000000   0.0000000   0.0000000   0.0000000   0.0000000   0.0000000   2.0440000   0.0000000   0.0000000   0.0000000
 NMagM=    0.0000000   0.0000000   0.0000000   0.0000000   0.0000000   0.0000000   0.4037610   0.0000000   0.0000000   0.0000000
 AtZNuc=   6.0000000   6.0000000   6.0000000   6.0000000   8.0000000   8.0000000   7.0000000   6.0000000   6.0000000   6.0000000

  Atom        21          22          23          24          25          26          27          28          29          30
 IAtWgt=          12          12          12          16          12          14          12          12          12          12
 AtmWgt=  12.0000000  12.0000000  12.0000000  15.9949146  12.0000000  14.0030740  12.0000000  12.0000000  12.0000000  12.0000000
 NucSpn=           0           0           0           0           0           2           0           0           0           0
 AtZEff=  -0.0000000  -0.0000000  -0.0000000  -0.0000000  -0.0000000  -0.0000000  -0.0000000  -0.0000000  -0.0000000  -0.0000000
 NQMom=    0.0000000   0.0000000   0.0000000   0.0000000   0.0000000   2.0440000   0.0000000   0.0000000   0.0000000   0.0000000
 NMagM=    0.0000000   0.0000000   0.0000000   0.0000000   0.0000000   0.4037610   0.0000000   0.0000000   0.0000000   0.0000000
 AtZNuc=   6.0000000   6.0000000   6.0000000   8.0000000   6.0000000   7.0000000   6.0000000   6.0000000   6.0000000   6.0000000

  Atom        31          32          33          34          35          36          37          38          39          40
 IAtWgt=          12          12          12          14          12          12          12          12          12          12
 AtmWgt=  12.0000000  12.0000000  12.0000000  14.0030740  12.0000000  12.0000000  12.0000000  12.0000000  12.0000000  12.0000000
 NucSpn=           0           0           0           2           0           0           0           0           0           0
 AtZEff=  -0.0000000  -0.0000000  -0.0000000  -0.0000000  -0.0000000  -0.0000000  -0.0000000  -0.0000000  -0.0000000  -0.0000000
 NQMom=    0.0000000   0.0000000   0.0000000   2.0440000   0.0000000   0.0000000   0.0000000   0.0000000   0.0000000   0.0000000
 NMagM=    0.0000000   0.0000000   0.0000000   0.4037610   0.0000000   0.0000000   0.0000000   0.0000000   0.0000000   0.0000000
 AtZNuc=   6.0000000   6.0000000   6.0000000   7.0000000   6.0000000   6.0000000   6.0000000   6.0000000   6.0000000   6.0000000

  Atom        41          42          43          44          45          46          47          48          49          50
 IAtWgt=          16          12          12          16          16          12          12          12          12          12
 AtmWgt=  15.9949146  12.0000000  12.0000000  15.9949146  15.9949146  12.0000000  12.0000000  12.0000000  12.0000000  12.0000000
 NucSpn=           0           0           0           0           0           0           0           0           0           0
 AtZEff=  -0.0000000  -0.0000000  -0.0000000  -0.0000000  -0.0000000  -0.0000000  -0.0000000  -0.0000000  -0.0000000  -0.0000000
 NQMom=    0.0000000   0.0000000   0.0000000   0.0000000   0.0000000   0.0000000   0.0000000   0.0000000   0.0000000   0.0000000
 NMagM=    0.0000000   0.0000000   0.0000000   0.0000000   0.0000000   0.0000000   0.0000000   0.0000000   0.0000000   0.0000000
 AtZNuc=   8.0000000   6.0000000   6.0000000   8.0000000   8.0000000   6.0000000   6.0000000   6.0000000   6.0000000   6.0000000

  Atom        51          52          53          54          55          56          57          58          59          60
 IAtWgt=          12          12          12          12          12          12          12          12          12          12
 AtmWgt=  12.0000000  12.0000000  12.0000000  12.0000000  12.0000000  12.0000000  12.0000000  12.0000000  12.0000000  12.0000000
 NucSpn=           0           0           0           0           0           0           0           0           0           0
 AtZEff=  -0.0000000  -0.0000000  -0.0000000  -0.0000000  -0.0000000  -0.0000000  -0.0000000  -0.0000000  -0.0000000  -0.0000000
 NQMom=    0.0000000   0.0000000   0.0000000   0.0000000   0.0000000   0.0000000   0.0000000   0.0000000   0.0000000   0.0000000
 NMagM=    0.0000000   0.0000000   0.0000000   0.0000000   0.0000000   0.0000000   0.0000000   0.0000000   0.0000000   0.0000000
 AtZNuc=   6.0000000   6.0000000   6.0000000   6.0000000   6.0000000   6.0000000   6.0000000   6.0000000   6.0000000   6.0000000

  Atom        61          62          63          64          65          66          67          68          69          70
 IAtWgt=          12          12          12          12          12          12           1           1           1           1
 AtmWgt=  12.0000000  12.0000000  12.0000000  12.0000000  12.0000000  12.0000000   1.0078250   1.0078250   1.0078250   1.0078250
 NucSpn=           0           0           0           0           0           0           1           1           1           1
 AtZEff=  -0.0000000  -0.0000000  -0.0000000  -0.0000000  -0.0000000  -0.0000000  -0.0000000  -0.0000000  -0.0000000  -0.0000000
 NQMom=    0.0000000   0.0000000   0.0000000   0.0000000   0.0000000   0.0000000   0.0000000   0.0000000   0.0000000   0.0000000
 NMagM=    0.0000000   0.0000000   0.0000000   0.0000000   0.0000000   0.0000000   2.7928460   2.7928460   2.7928460   2.7928460
 AtZNuc=   6.0000000   6.0000000   6.0000000   6.0000000   6.0000000   6.0000000   1.0000000   1.0000000   1.0000000   1.0000000

  Atom        71          72          73          74          75          76          77          78          79          80
 IAtWgt=           1           1           1           1           1           1           1           1           1           1
 AtmWgt=   1.0078250   1.0078250   1.0078250   1.0078250   1.0078250   1.0078250   1.0078250   1.0078250   1.0078250   1.0078250
 NucSpn=           1           1           1           1           1           1           1           1           1           1
 AtZEff=  -0.0000000  -0.0000000  -0.0000000  -0.0000000  -0.0000000  -0.0000000  -0.0000000  -0.0000000  -0.0000000  -0.0000000
 NQMom=    0.0000000   0.0000000   0.0000000   0.0000000   0.0000000   0.0000000   0.0000000   0.0000000   0.0000000   0.0000000
 NMagM=    2.7928460   2.7928460   2.7928460   2.7928460   2.7928460   2.7928460   2.7928460   2.7928460   2.7928460   2.7928460
 AtZNuc=   1.0000000   1.0000000   1.0000000   1.0000000   1.0000000   1.0000000   1.0000000   1.0000000   1.0000000   1.0000000

  Atom        81          82          83          84          85          86          87          88          89          90
 IAtWgt=           1           1           1           1           1           1           1           1           1           1
 AtmWgt=   1.0078250   1.0078250   1.0078250   1.0078250   1.0078250   1.0078250   1.0078250   1.0078250   1.0078250   1.0078250
 NucSpn=           1           1           1           1           1           1           1           1           1           1
 AtZEff=  -0.0000000  -0.0000000  -0.0000000  -0.0000000  -0.0000000  -0.0000000  -0.0000000  -0.0000000  -0.0000000  -0.0000000
 NQMom=    0.0000000   0.0000000   0.0000000   0.0000000   0.0000000   0.0000000   0.0000000   0.0000000   0.0000000   0.0000000
 NMagM=    2.7928460   2.7928460   2.7928460   2.7928460   2.7928460   2.7928460   2.7928460   2.7928460   2.7928460   2.7928460
 AtZNuc=   1.0000000   1.0000000   1.0000000   1.0000000   1.0000000   1.0000000   1.0000000   1.0000000   1.0000000   1.0000000

  Atom        91          92          93          94          95          96          97          98          99         100
 IAtWgt=           1           1           1           1           1           1           1           1           1           1
 AtmWgt=   1.0078250   1.0078250   1.0078250   1.0078250   1.0078250   1.0078250   1.0078250   1.0078250   1.0078250   1.0078250
 NucSpn=           1           1           1           1           1           1           1           1           1           1
 AtZEff=  -0.0000000  -0.0000000  -0.0000000  -0.0000000  -0.0000000  -0.0000000  -0.0000000  -0.0000000  -0.0000000  -0.0000000
 NQMom=    0.0000000   0.0000000   0.0000000   0.0000000   0.0000000   0.0000000   0.0000000   0.0000000   0.0000000   0.0000000
 NMagM=    2.7928460   2.7928460   2.7928460   2.7928460   2.7928460   2.7928460   2.7928460   2.7928460   2.7928460   2.7928460
 AtZNuc=   1.0000000   1.0000000   1.0000000   1.0000000   1.0000000   1.0000000   1.0000000   1.0000000   1.0000000   1.0000000

  Atom       101         102         103         104         105         106         107         108         109         110
 IAtWgt=           1           1           1           1           1           1           1           1           1           1
 AtmWgt=   1.0078250   1.0078250   1.0078250   1.0078250   1.0078250   1.0078250   1.0078250   1.0078250   1.0078250   1.0078250
 NucSpn=           1           1           1           1           1           1           1           1           1           1
 AtZEff=  -0.0000000  -0.0000000  -0.0000000  -0.0000000  -0.0000000  -0.0000000  -0.0000000  -0.0000000  -0.0000000  -0.0000000
 NQMom=    0.0000000   0.0000000   0.0000000   0.0000000   0.0000000   0.0000000   0.0000000   0.0000000   0.0000000   0.0000000
 NMagM=    2.7928460   2.7928460   2.7928460   2.7928460   2.7928460   2.7928460   2.7928460   2.7928460   2.7928460   2.7928460
 AtZNuc=   1.0000000   1.0000000   1.0000000   1.0000000   1.0000000   1.0000000   1.0000000   1.0000000   1.0000000   1.0000000

  Atom       111         112         113         114         115         116         117         118         119         120
 IAtWgt=           1           1           1           1           1           1           1           1           1           1
 AtmWgt=   1.0078250   1.0078250   1.0078250   1.0078250   1.0078250   1.0078250   1.0078250   1.0078250   1.0078250   1.0078250
 NucSpn=           1           1           1           1           1           1           1           1           1           1
 AtZEff=  -0.0000000  -0.0000000  -0.0000000  -0.0000000  -0.0000000  -0.0000000  -0.0000000  -0.0000000  -0.0000000  -0.0000000
 NQMom=    0.0000000   0.0000000   0.0000000   0.0000000   0.0000000   0.0000000   0.0000000   0.0000000   0.0000000   0.0000000
 NMagM=    2.7928460   2.7928460   2.7928460   2.7928460   2.7928460   2.7928460   2.7928460   2.7928460   2.7928460   2.7928460
 AtZNuc=   1.0000000   1.0000000   1.0000000   1.0000000   1.0000000   1.0000000   1.0000000   1.0000000   1.0000000   1.0000000

  Atom       121         122         123         124         125         126         127         128         129         130
 IAtWgt=           1           1           1           1           1           1           1           1           1           1
 AtmWgt=   1.0078250   1.0078250   1.0078250   1.0078250   1.0078250   1.0078250   1.0078250   1.0078250   1.0078250   1.0078250
 NucSpn=           1           1           1           1           1           1           1           1           1           1
 AtZEff=  -0.0000000  -0.0000000  -0.0000000  -0.0000000  -0.0000000  -0.0000000  -0.0000000  -0.0000000  -0.0000000  -0.0000000
 NQMom=    0.0000000   0.0000000   0.0000000   0.0000000   0.0000000   0.0000000   0.0000000   0.0000000   0.0000000   0.0000000
 NMagM=    2.7928460   2.7928460   2.7928460   2.7928460   2.7928460   2.7928460   2.7928460   2.7928460   2.7928460   2.7928460
 AtZNuc=   1.0000000   1.0000000   1.0000000   1.0000000   1.0000000   1.0000000   1.0000000   1.0000000   1.0000000   1.0000000

  Atom       131         132         133         134         135         136         137         138         139         140
 IAtWgt=           1           1           1           1           1           1           1           1           1           1
 AtmWgt=   1.0078250   1.0078250   1.0078250   1.0078250   1.0078250   1.0078250   1.0078250   1.0078250   1.0078250   1.0078250
 NucSpn=           1           1           1           1           1           1           1           1           1           1
 AtZEff=  -0.0000000  -0.0000000  -0.0000000  -0.0000000  -0.0000000  -0.0000000  -0.0000000  -0.0000000  -0.0000000  -0.0000000
 NQMom=    0.0000000   0.0000000   0.0000000   0.0000000   0.0000000   0.0000000   0.0000000   0.0000000   0.0000000   0.0000000
 NMagM=    2.7928460   2.7928460   2.7928460   2.7928460   2.7928460   2.7928460   2.7928460   2.7928460   2.7928460   2.7928460
 AtZNuc=   1.0000000   1.0000000   1.0000000   1.0000000   1.0000000   1.0000000   1.0000000   1.0000000   1.0000000   1.0000000
 Leave Link  101 at Thu May  5 05:54:34 2022, MaxMem= 10066329600 cpu:               3.4 elap:               0.2
 (Enter /sw/apps/gaussian-16.0/g16/l202.exe)
 Stoichiometry    C55H74MgN4O6
 Framework group  C1[X(C55H74MgN4O6)]
 Deg. of freedom   414
 Full point group                 C1      NOp   1
 Largest Abelian subgroup         C1      NOp   1
 Largest concise Abelian subgroup C1      NOp   1
                         Standard orientation:                         
 ---------------------------------------------------------------------
 Center     Atomic      Atomic             Coordinates (Angstroms)
 Number     Number       Type             X           Y           Z
 ---------------------------------------------------------------------
      1         12           0       -5.020064    0.723411   -0.045614
      2          6           0       -3.806073   -2.474051    0.199923
      3          6           0       -1.662261    1.837145   -0.216156
      4          6           0       -6.093470    3.936717    0.193072
      5          6           0       -8.279011   -0.474306    0.388998
      6          7           0       -2.980452   -0.226730    0.155137
      7          6           0       -2.774916   -1.573376    0.073279
      8          6           0       -1.269791   -1.862591   -0.053027
      9          6           0       -0.551346   -0.490654    0.082000
     10          6           0       -1.756286    0.443769    0.030327
     11          6           0        0.585466   -0.310982    1.164592
     12          6           0       -0.945735   -2.606767   -1.482383
     13          6           0        0.176177   -3.723830   -1.353540
     14          6           0        1.154744   -3.557841   -0.225860
     15          8           0        1.106813   -4.161615    0.774354
     16          8           0        2.191810   -2.733101   -0.577326
     17          7           0       -4.008059    2.555369   -0.149582
     18          6           0       -2.666226    2.812001   -0.283650
     19          6           0       -2.456006    4.259796   -0.430217
     20          6           0       -3.748404    4.887126   -0.195559
     21          6           0       -4.680645    3.766426   -0.039002
     22          6           0       -1.104215    4.848278   -0.677453
     23          6           0       -4.121542    6.400203   -0.113084
     24          8           0       -5.227113    6.797083    0.216357
     25          6           0       -3.062392    7.354458   -0.370673
     26          7           0       -6.937007    1.578662    0.111058
     27          6           0       -7.115551    2.946927    0.181209
     28          6           0       -8.636621    3.295517    0.190351
     29          6           0       -9.318902    1.945416    0.254608
     30          6           0       -8.099417    0.893194    0.288851
     31          6           0       -9.068790    4.390202    1.266650
     32          6           0      -10.328330    1.793494   -0.916793
     33          6           0       -9.592700    1.680659   -2.268165
     34          7           0       -5.899047   -1.146034    0.215010
     35          6           0       -7.220567   -1.484549    0.336526
     36          6           0       -7.268490   -2.883181    0.546511
     37          6           0       -5.929285   -3.337247    0.397369
     38          6           0       -5.141043   -2.227634    0.251793
     39          6           0       -8.575774   -3.762408    0.806192
     40          6           0       -5.106852   -4.477897    0.365944
     41          8           0       -5.433149   -5.683900    0.485705
     42          6           0       -3.677012   -4.046929    0.091065
     43          6           0       -2.786164   -4.731242    1.101529
     44          8           0       -2.824922   -4.489041    2.283395
     45          8           0       -1.950842   -5.663592    0.487001
     46          6           0       -1.026988   -6.421001    1.387589
     47          6           0        3.303196   -2.612836    0.413480
     48          6           0        4.538687   -1.924566   -0.072214
     49          6           0        5.379240   -2.347834   -1.053506
     50          6           0        5.385695   -3.760835   -1.601043
     51          6           0        6.624661   -1.603964   -1.379560
     52          6           0        6.592884   -1.173153   -2.851490
     53          6           0        7.872552   -1.463326   -3.622766
     54          6           0        8.710180   -0.218656   -3.991460
     55          6           0        9.714091   -0.523248   -5.143583
     56          6           0        9.536579    0.195785   -2.647082
     57          6           0        9.427373    1.679621   -2.452647
     58          6           0       10.566902    2.264780   -1.670579
     59          6           0       10.209984    2.804683   -0.203061
     60          6           0       10.087721    4.366802   -0.154429
     61          6           0       11.238077    2.338833    0.887812
     62          6           0       10.711280    2.596314    2.417855
     63          6           0       10.201407    1.383455    3.281889
     64          6           0       11.069951    0.897450    4.420919
     65          6           0       10.832195   -0.587906    4.796625
     66          6           0       11.155698    1.874258    5.685809
     67          1           0       -0.648892    2.237141   -0.290552
     68          1           0       -6.473043    4.960695    0.175824
     69          1           0       -9.277760   -0.807432    0.677806
     70          1           0       -1.046925   -2.461155    0.829990
     71          1           0        0.076967   -0.256650   -0.777847
     72          1           0        1.531559   -0.031689    0.702387
     73          1           0        0.800327   -1.236006    1.699394
     74          1           0        0.350210    0.499569    1.854164
     75          1           0       -0.705703   -1.902586   -2.278219
     76          1           0       -1.844522   -3.091176   -1.865305
     77          1           0        0.707822   -3.821365   -2.300317
     78          1           0       -0.277260   -4.700805   -1.183672
     79          1           0       -1.348507    5.590161   -1.437042
     80          1           0       -0.344790    4.174134   -1.072849
     81          1           0       -0.813129    5.371914    0.231976
     82          1           0       -2.608255    7.450457   -1.357002
     83          1           0       -2.243409    7.095383    0.300057
     84          1           0       -3.399889    8.339585   -0.046882
     85          1           0       -8.916994    3.840741   -0.710633
     86          1           0       -9.887188    1.880190    1.182107
     87          1           0       -9.582750    5.155999    0.685849
     88          1           0       -8.207988    4.927976    1.664210
     89          1           0       -9.601926    4.021876    2.142987
     90          1           0      -11.074084    2.586118   -0.979774
     91          1           0      -10.868018    0.865257   -0.726031
     92          1           0       -9.637131    0.615939   -2.495999
     93          1           0       -8.563629    2.039728   -2.246554
     94          1           0      -10.072672    2.290730   -3.033649
     95          1           0       -8.867620   -4.252910   -0.122641
     96          1           0       -9.411778   -3.166532    1.171177
     97          1           0       -8.289207   -4.605440    1.435214
     98          1           0       -3.326635   -4.317436   -0.905779
     99          1           0       -1.492460   -7.312980    1.807267
    100          1           0       -0.733119   -5.802337    2.235308
    101          1           0       -0.165979   -6.859475    0.883535
    102          1           0        3.566053   -3.610829    0.765839
    103          1           0        3.112577   -2.053630    1.328716
    104          1           0        4.684876   -0.969304    0.432040
    105          1           0        4.681691   -4.419932   -1.090888
    106          1           0        6.412691   -4.082360   -1.427119
    107          1           0        5.101815   -3.820667   -2.651191
    108          1           0        7.485032   -2.155748   -1.001708
    109          1           0        6.554013   -0.674313   -0.813763
    110          1           0        6.467874   -0.090433   -2.812107
    111          1           0        5.690743   -1.534325   -3.345472
    112          1           0        7.529598   -1.915386   -4.554455
    113          1           0        8.512574   -2.152729   -3.071421
    114          1           0        8.070985    0.558068   -4.412026
    115          1           0        9.445828    0.120864   -5.981729
    116          1           0        9.578902   -1.449060   -5.704243
    117          1           0       10.789917   -0.387659   -5.032837
    118          1           0       10.573050   -0.059771   -2.871022
    119          1           0        9.067809   -0.320725   -1.809287
    120          1           0        8.579694    1.899104   -1.804208
    121          1           0        9.220597    2.303313   -3.321783
    122          1           0       11.036663    3.060979   -2.246809
    123          1           0       11.372208    1.557535   -1.472284
    124          1           0        9.294911    2.296961    0.101376
    125          1           0       10.957150    4.906193    0.221849
    126          1           0        9.257598    4.341956    0.551212
    127          1           0        9.799927    4.777499   -1.122348
    128          1           0       12.188361    2.734039    0.529475
    129          1           0       11.265365    1.249525    0.881050
    130          1           0        9.842990    3.254389    2.440778
    131          1           0       11.495968    3.101774    2.979919
    132          1           0       10.087945    0.555803    2.582909
    133          1           0        9.235403    1.560847    3.756106
    134          1           0       12.100147    0.753317    4.093328
    135          1           0       10.710775   -1.096579    3.839880
    136          1           0       10.010857   -0.816636    5.475818
    137          1           0       11.718014   -1.000758    5.278890
    138          1           0       10.689092    1.497602    6.596284
    139          1           0       10.764911    2.878125    5.518709
    140          1           0       12.198111    1.965882    5.991439
 ---------------------------------------------------------------------
 Rotational constants (GHZ):           0.0393059           0.0117140           0.0101043
 Leave Link  202 at Thu May  5 05:54:34 2022, MaxMem= 10066329600 cpu:               3.4 elap:               0.2
 (Enter /sw/apps/gaussian-16.0/g16/l301.exe)
 Standard basis: def2SVP (5D, 7F)
 Ernie: Thresh=  0.10000D-02 Tol=  0.10000D-05 Strict=F.
 There are  1364 symmetry adapted cartesian basis functions of A   symmetry.
 There are  1298 symmetry adapted basis functions of A   symmetry.
  1298 basis functions,  2180 primitive gaussians,  1364 cartesian basis functions
   246 alpha electrons      246 beta electrons
       nuclear repulsion energy      9681.9185119083 Hartrees.
 IExCor=  402 DFT=T Ex=B Corr=LYP ExCW=0 ScaHFX=  0.000000
 ScaDFX=  1.000000  1.000000  1.000000  1.000000 ScalE2=  1.000000  1.000000
 IRadAn=      5 IRanWt=     -1 IRanGd=            0 ICorTp=0 IEmpDi=  4
 NAtoms=  140 NActive=  140 NUniq=  140 SFac= 1.00D+00 NAtFMM=   60 NAOKFM=T Big=T
 Integral buffers will be    131072 words long.
 Regular integral format.
 Two-electron integral symmetry is turned on.
 Leave Link  301 at Thu May  5 05:54:34 2022, MaxMem= 10066329600 cpu:               1.5 elap:               0.1
 (Enter /sw/apps/gaussian-16.0/g16/l302.exe)
 NPDir=0 NMtPBC=     1 NCelOv=     1 NCel=       1 NClECP=     1 NCelD=      1
         NCelK=      1 NCelE2=     1 NClLst=     1 CellRange=     0.0.
 One-electron integrals computed using PRISM.
 One-electron integral symmetry used in STVInt
   1 Symmetry operations used in ECPInt.
 ECPInt:  NShTT=  192510 NPrTT=  683786 LenC2=   96988 LenP2D=  211192.
 LDataN:  DoStor=T MaxTD1= 4 Len=   56
 NBasis=  1298 RedAO= T EigKep=  2.33D-04  NBF=  1298
 NBsUse=  1298 1.00D-06 EigRej= -1.00D+00 NBFU=  1298
 Precomputing XC quadrature grid using
 IXCGrd= 4 IRadAn=           5 IRanWt=          -1 IRanGd=           0 AccXCQ= 0.00D+00.
 Generated NRdTot=       0 NPtTot=           0 NUsed=           0 NTot=          32
 NSgBfM=  1141  1125  1135  1140  1141 MxSgAt=   140 MxSgA2=   140.
 Leave Link  302 at Thu May  5 05:54:38 2022, MaxMem= 10066329600 cpu:              95.0 elap:               4.0
 (Enter /sw/apps/gaussian-16.0/g16/l303.exe)
 DipDrv:  MaxL=1.
 Leave Link  303 at Thu May  5 05:54:39 2022, MaxMem= 10066329600 cpu:               8.9 elap:               0.5
 (Enter /sw/apps/gaussian-16.0/g16/l308.exe)
 Leave Link  308 at Thu May  5 05:54:39 2022, MaxMem= 10066329600 cpu:               9.4 elap:               0.5
 (Enter /sw/apps/gaussian-16.0/g16/l401.exe)
 ExpMin= 3.36D-02 ExpMax= 4.95D+03 ExpMxC= 7.45D+02 IAcc=3 IRadAn=         5 AccDes= 0.00D+00
 Harris functional with IExCor=  402 and IRadAn=       5 diagonalized for initial guess.
 HarFok:  IExCor=  402 AccDes= 0.00D+00 IRadAn=         5 IDoV= 1 UseB2=F ITyADJ=14
 ICtDFT=  3500011 ScaDFX=  1.000000  1.000000  1.000000  1.000000
 FoFCou: FMM=F IPFlag=           0 FMFlag=      100000 FMFlg1=        2001
         NFxFlg=           0 DoJE=T BraDBF=F KetDBF=T FulRan=T
         wScrn=  0.000000 ICntrl=       500 IOpCl=  0 I1Cent=   200000004 NGrid=           0
         NMat0=    1 NMatS0=      1 NMatT0=    0 NMatD0=    1 NMtDS0=    0 NMtDT0=    0
 Petite list used in FoFCou.
 Harris En= -3008.74936311661    
 JPrj=0 DoOrth=F DoCkMO=F.
 Leave Link  401 at Thu May  5 05:54:46 2022, MaxMem= 10066329600 cpu:             148.0 elap:               6.2
 (Enter /sw/apps/gaussian-16.0/g16/l502.exe)
 Integral symmetry usage will be decided dynamically.
 Closed shell SCF:
 Using DIIS extrapolation, IDIIS=  1040.
 NGot= 10066329600 LenX= 10062561258 LenY= 10060699398
 Requested convergence on RMS density matrix=1.00D-08 within 128 cycles.
 Requested convergence on MAX density matrix=1.00D-06.
 Requested convergence on             energy=1.00D-06.
 No special actions if energy rises.
 Fock matrices will be formed incrementally for  20 cycles.

 Cycle   1  Pass 1  IDiag  1:
 FoFJK:  IHMeth= 1 ICntrl=     500 DoSepK=F KAlg= 0 I1Cent=           0 FoldK=F
 IRaf= 520000000 NMat=       1 IRICut=       1 DoRegI=T DoRafI=F ISym2E= 0 IDoP0=0 IntGTp=1.
 FoFCou: FMM=T IPFlag=           0 FMFlag=      100000 FMFlg1=        2001
         NFxFlg=           0 DoJE=T BraDBF=F KetDBF=F FulRan=T
         wScrn=  0.000000 ICntrl=       500 IOpCl=  0 I1Cent=           0 NGrid=           0
         NMat0=    1 NMatS0=      1 NMatT0=    0 NMatD0=    1 NMtDS0=    0 NMtDT0=    0
 Symmetry not used in FoFCou.
 FMM levels:  10  Number of levels for PrismC:   9
 E= -3005.69862648407    
 DIIS: error= 2.14D-02 at cycle   1 NSaved=   1.
 NSaved= 1 IEnMin= 1 EnMin= -3005.69862648407     IErMin= 1 ErrMin= 2.14D-02
 ErrMax= 2.14D-02  0.00D+00 EMaxC= 1.00D-01 BMatC= 1.51D+00 BMatP= 1.51D+00
 IDIUse=3 WtCom= 7.86D-01 WtEn= 2.14D-01
 Coeff-Com:  0.100D+01
 Coeff-En:   0.100D+01
 Coeff:      0.100D+01
 Gap=     0.037 Goal=   None    Shift=    0.000
 GapD=    0.037 DampG=0.250 DampE=0.500 DampFc=0.2500 IDamp=-1.
 Damping current iteration by 2.50D-01
 RMSDP=3.78D-03 MaxDP=4.61D-01              OVMax= 8.14D-01

 Cycle   2  Pass 1  IDiag  1:
 RMSU=  9.39D-04    CP:  9.90D-01
 E= -3006.18587038155     Delta-E=       -0.487243897474 Rises=F Damp=T
 DIIS: error= 7.78D-03 at cycle   2 NSaved=   2.
 NSaved= 2 IEnMin= 2 EnMin= -3006.18587038155     IErMin= 2 ErrMin= 7.78D-03
 ErrMax= 7.78D-03  0.00D+00 EMaxC= 1.00D-01 BMatC= 2.60D-01 BMatP= 1.51D+00
 IDIUse=3 WtCom= 9.22D-01 WtEn= 7.78D-02
 Coeff-Com: -0.287D+00 0.129D+01
 Coeff-En:   0.101D+00 0.899D+00
 Coeff:     -0.257D+00 0.126D+01
 Gap=     0.108 Goal=   None    Shift=    0.000
 RMSDP=1.65D-03 MaxDP=2.52D-01 DE=-4.87D-01 OVMax= 5.65D-01

 Cycle   3  Pass 1  IDiag  1:
 RMSU=  1.63D-03    CP:  9.67D-01  1.21D+00
 E= -3005.22257686979     Delta-E=        0.963293511755 Rises=F Damp=F
 DIIS: error= 5.05D-02 at cycle   3 NSaved=   3.
 NSaved= 3 IEnMin= 2 EnMin= -3006.18587038155     IErMin= 2 ErrMin= 7.78D-03
 ErrMax= 5.05D-02  0.00D+00 EMaxC= 1.00D-01 BMatC= 1.60D+00 BMatP= 2.60D-01
 IDIUse=2 WtCom= 0.00D+00 WtEn= 1.00D+00
 Coeff-En:   0.000D+00 0.681D+00 0.319D+00
 Coeff:      0.000D+00 0.681D+00 0.319D+00
 Gap=     0.088 Goal=   None    Shift=    0.000
 RMSDP=2.28D-03 MaxDP=4.77D-01 DE= 9.63D-01 OVMax= 8.30D-01

 Cycle   4  Pass 1  IDiag  1:
 RMSU=  1.18D-03    CP:  9.67D-01  2.02D+00 -1.04D-01
 E= -3003.13098075783     Delta-E=        2.091596111959 Rises=F Damp=F
 DIIS: error= 6.10D-02 at cycle   4 NSaved=   4.
 NSaved= 4 IEnMin= 2 EnMin= -3006.18587038155     IErMin= 2 ErrMin= 7.78D-03
 ErrMax= 6.10D-02  0.00D+00 EMaxC= 1.00D-01 BMatC= 2.66D+00 BMatP= 2.60D-01
 IDIUse=2 WtCom= 0.00D+00 WtEn= 1.00D+00
 EnCoef did     1 forward-backward iterations
 Coeff-En:   0.129D+00 0.000D+00 0.519D+00 0.352D+00
 Coeff:      0.129D+00 0.000D+00 0.519D+00 0.352D+00
 Gap=    -0.012 Goal=   None    Shift=    0.000
 RMSDP=1.62D-03 MaxDP=3.47D-01 DE= 2.09D+00 OVMax= 8.83D-01

 Cycle   5  Pass 1  IDiag  1:
 RMSU=  8.07D-04    CP:  9.81D-01  1.26D+00  9.21D-02  1.27D-02
 E= -3007.05123586193     Delta-E=       -3.920255104094 Rises=F Damp=F
 DIIS: error= 2.41D-02 at cycle   5 NSaved=   5.
 NSaved= 5 IEnMin= 5 EnMin= -3007.05123586193     IErMin= 2 ErrMin= 7.78D-03
 ErrMax= 2.41D-02  0.00D+00 EMaxC= 1.00D-01 BMatC= 3.48D-01 BMatP= 2.60D-01
 IDIUse=2 WtCom= 0.00D+00 WtEn= 1.00D+00
 EnCoef did     5 forward-backward iterations
 Coeff-En:   0.000D+00 0.000D+00 0.157D+00 0.102D+00 0.741D+00
 Coeff:      0.000D+00 0.000D+00 0.157D+00 0.102D+00 0.741D+00
 Gap=     0.180 Goal=   None    Shift=    0.000
 RMSDP=1.58D-03 MaxDP=1.93D-01 DE=-3.92D+00 OVMax= 5.51D-01

 Cycle   6  Pass 1  IDiag  1:
 RMSU=  1.35D-03    CP:  9.74D-01  9.48D-01  2.99D-01  1.52D-01  1.68D-01
 E= -3006.23897113891     Delta-E=        0.812264723014 Rises=F Damp=F
 DIIS: error= 4.47D-02 at cycle   6 NSaved=   6.
 NSaved= 6 IEnMin= 5 EnMin= -3007.05123586193     IErMin= 2 ErrMin= 7.78D-03
 ErrMax= 4.47D-02  0.00D+00 EMaxC= 1.00D-01 BMatC= 1.20D+00 BMatP= 2.60D-01
 IDIUse=2 WtCom= 0.00D+00 WtEn= 1.00D+00
 Coeff-En:   0.000D+00 0.000D+00 0.000D+00 0.000D+00 0.708D+00 0.292D+00
 Coeff:      0.000D+00 0.000D+00 0.000D+00 0.000D+00 0.708D+00 0.292D+00
 Gap=     0.082 Goal=   None    Shift=    0.000
 RMSDP=9.63D-04 MaxDP=9.40D-02 DE= 8.12D-01 OVMax= 5.70D-01

 Cycle   7  Pass 1  IDiag  1:
 RMSU=  4.10D-04    CP:  9.77D-01  1.15D+00  2.76D-01 -1.31D-02  6.23D-01
                    CP:  4.50D-01
 E= -3007.25316385355     Delta-E=       -1.014192714638 Rises=F Damp=F
 DIIS: error= 9.71D-03 at cycle   7 NSaved=   7.
 NSaved= 7 IEnMin= 7 EnMin= -3007.25316385355     IErMin= 2 ErrMin= 7.78D-03
 ErrMax= 9.71D-03  0.00D+00 EMaxC= 1.00D-01 BMatC= 1.17D-01 BMatP= 2.60D-01
 IDIUse=3 WtCom= 9.03D-01 WtEn= 9.71D-02
 Coeff-Com: -0.391D-01 0.947D-01 0.152D-01 0.493D-02 0.421D+00 0.145D+00
 Coeff-Com:  0.358D+00
 Coeff-En:   0.000D+00 0.000D+00 0.000D+00 0.000D+00 0.302D+00 0.000D+00
 Coeff-En:   0.698D+00
 Coeff:     -0.353D-01 0.855D-01 0.137D-01 0.445D-02 0.410D+00 0.131D+00
 Coeff:      0.391D+00
 Gap=     0.037 Goal=   None    Shift=    0.000
 RMSDP=5.72D-04 MaxDP=5.33D-02 DE=-1.01D+00 OVMax= 4.15D-01

 Cycle   8  Pass 1  IDiag  1:
 RMSU=  3.01D-04    CP:  9.77D-01  1.19D+00  1.81D-01  7.57D-02  6.62D-01
                    CP:  4.57D-01 -8.92D-02
 E= -3007.28423452384     Delta-E=       -0.031070670288 Rises=F Damp=F
 DIIS: error= 8.95D-03 at cycle   8 NSaved=   8.
 NSaved= 8 IEnMin= 8 EnMin= -3007.28423452384     IErMin= 2 ErrMin= 7.78D-03
 ErrMax= 8.95D-03  0.00D+00 EMaxC= 1.00D-01 BMatC= 5.31D-02 BMatP= 1.17D-01
 IDIUse=3 WtCom= 9.10D-01 WtEn= 8.95D-02
 EnCoef did     4 forward-backward iterations
 Coeff-Com: -0.254D-01 0.853D-01-0.301D-02-0.253D-02 0.246D+00 0.415D-01
 Coeff-Com:  0.391D+00 0.267D+00
 Coeff-En:   0.000D+00 0.000D+00 0.000D+00 0.000D+00 0.125D+00 0.000D+00
 Coeff-En:   0.411D+00 0.464D+00
 Coeff:     -0.232D-01 0.776D-01-0.274D-02-0.230D-02 0.235D+00 0.378D-01
 Coeff:      0.393D+00 0.285D+00
 Gap=     0.036 Goal=   None    Shift=    0.000
 RMSDP=4.16D-04 MaxDP=3.73D-02 DE=-3.11D-02 OVMax= 3.67D-01

 Cycle   9  Pass 1  IDiag  1:
 RMSU=  1.26D-04    CP:  9.79D-01  1.16D+00  1.90D-01  5.16D-03  8.07D-01
                    CP:  3.76D-01  5.03D-01  1.55D-01
 E= -3007.36304902711     Delta-E=       -0.078814503271 Rises=F Damp=F
 DIIS: error= 2.64D-03 at cycle   9 NSaved=   9.
 NSaved= 9 IEnMin= 9 EnMin= -3007.36304902711     IErMin= 9 ErrMin= 2.64D-03
 ErrMax= 2.64D-03  0.00D+00 EMaxC= 1.00D-01 BMatC= 6.92D-03 BMatP= 5.31D-02
 IDIUse=3 WtCom= 9.74D-01 WtEn= 2.64D-02
 Coeff-Com: -0.436D-02 0.324D-01-0.674D-02 0.152D-02 0.831D-01-0.121D-01
 Coeff-Com:  0.242D+00 0.261D+00 0.403D+00
 Coeff-En:   0.000D+00 0.000D+00 0.000D+00 0.000D+00 0.000D+00 0.000D+00
 Coeff-En:   0.000D+00 0.169D+00 0.831D+00
 Coeff:     -0.424D-02 0.315D-01-0.656D-02 0.148D-02 0.810D-01-0.118D-01
 Coeff:      0.236D+00 0.259D+00 0.415D+00
 Gap=     0.042 Goal=   None    Shift=    0.000
 RMSDP=1.31D-04 MaxDP=2.32D-02 DE=-7.88D-02 OVMax= 9.82D-02

 Cycle  10  Pass 1  IDiag  1:
 RMSU=  5.32D-05    CP:  9.79D-01  1.17D+00  1.86D-01  1.94D-02  7.58D-01
                    CP:  3.83D-01  4.31D-01  4.01D-01  3.83D-01
 E= -3007.37095664633     Delta-E=       -0.007907619216 Rises=F Damp=F
 DIIS: error= 8.64D-04 at cycle  10 NSaved=  10.
 NSaved=10 IEnMin=10 EnMin= -3007.37095664633     IErMin=10 ErrMin= 8.64D-04
 ErrMax= 8.64D-04  0.00D+00 EMaxC= 1.00D-01 BMatC= 1.07D-03 BMatP= 6.92D-03
 IDIUse=3 WtCom= 9.91D-01 WtEn= 8.64D-03
 Coeff-Com: -0.302D-02 0.192D-01-0.469D-02 0.102D-02 0.282D-01-0.126D-01
 Coeff-Com:  0.122D+00 0.154D+00 0.323D+00 0.373D+00
 Coeff-En:   0.000D+00 0.000D+00 0.000D+00 0.000D+00 0.000D+00 0.000D+00
 Coeff-En:   0.000D+00 0.000D+00 0.159D+00 0.841D+00
 Coeff:     -0.299D-02 0.190D-01-0.465D-02 0.101D-02 0.280D-01-0.125D-01
 Coeff:      0.121D+00 0.152D+00 0.321D+00 0.377D+00
 Gap=     0.043 Goal=   None    Shift=    0.000
 RMSDP=5.40D-05 MaxDP=6.92D-03 DE=-7.91D-03 OVMax= 2.86D-02

 Cycle  11  Pass 1  IDiag  1:
 RMSU=  3.10D-05    CP:  9.79D-01  1.17D+00  1.87D-01  1.62D-02  7.67D-01
                    CP:  3.82D-01  4.33D-01  3.73D-01  5.53D-01  3.12D-01
 E= -3007.37174532967     Delta-E=       -0.000788683346 Rises=F Damp=F
 DIIS: error= 6.92D-04 at cycle  11 NSaved=  11.
 NSaved=11 IEnMin=11 EnMin= -3007.37174532967     IErMin=11 ErrMin= 6.92D-04
 ErrMax= 6.92D-04  0.00D+00 EMaxC= 1.00D-01 BMatC= 3.62D-04 BMatP= 1.07D-03
 IDIUse=3 WtCom= 9.93D-01 WtEn= 6.92D-03
 Coeff-Com: -0.465D-02 0.120D-01-0.149D-02 0.329D-03-0.131D-02-0.291D-02
 Coeff-Com:  0.182D-01 0.393D-01 0.149D+00 0.354D+00 0.438D+00
 Coeff-En:   0.000D+00 0.000D+00 0.000D+00 0.000D+00 0.000D+00 0.000D+00
 Coeff-En:   0.000D+00 0.000D+00 0.000D+00 0.322D+00 0.678D+00
 Coeff:     -0.462D-02 0.119D-01-0.148D-02 0.327D-03-0.130D-02-0.289D-02
 Coeff:      0.181D-01 0.391D-01 0.148D+00 0.354D+00 0.440D+00
 Gap=     0.043 Goal=   None    Shift=    0.000
 RMSDP=3.47D-05 MaxDP=3.92D-03 DE=-7.89D-04 OVMax= 2.64D-02

 Cycle  12  Pass 1  IDiag  1:
 RMSU=  1.79D-05    CP:  9.79D-01  1.17D+00  1.85D-01  1.71D-02  7.66D-01
                    CP:  3.85D-01  4.34D-01  3.78D-01  5.16D-01  6.05D-01
                    CP:  2.35D-01
 E= -3007.37199276607     Delta-E=       -0.000247436403 Rises=F Damp=F
 DIIS: error= 5.82D-04 at cycle  12 NSaved=  12.
 NSaved=12 IEnMin=12 EnMin= -3007.37199276607     IErMin=12 ErrMin= 5.82D-04
 ErrMax= 5.82D-04  0.00D+00 EMaxC= 1.00D-01 BMatC= 1.65D-04 BMatP= 3.62D-04
 IDIUse=3 WtCom= 9.94D-01 WtEn= 5.82D-03
 EnCoef did     5 forward-backward iterations
 Coeff-Com: -0.469D-02 0.908D-02-0.397D-03-0.819D-04-0.618D-02 0.736D-03
 Coeff-Com: -0.840D-02 0.426D-02 0.750D-01 0.248D+00 0.407D+00 0.276D+00
 Coeff-En:   0.000D+00 0.000D+00 0.000D+00 0.000D+00 0.000D+00 0.000D+00
 Coeff-En:   0.000D+00 0.000D+00 0.000D+00 0.146D-01 0.365D+00 0.621D+00
 Coeff:     -0.466D-02 0.903D-02-0.395D-03-0.814D-04-0.614D-02 0.731D-03
 Coeff:     -0.835D-02 0.424D-02 0.746D-01 0.247D+00 0.406D+00 0.278D+00
 Gap=     0.043 Goal=   None    Shift=    0.000
 RMSDP=1.77D-05 MaxDP=1.93D-03 DE=-2.47D-04 OVMax= 1.45D-02

 Cycle  13  Pass 1  IDiag  1:
 RMSU=  6.89D-06    CP:  9.79D-01  1.17D+00  1.85D-01  1.73D-02  7.66D-01
                    CP:  3.87D-01  4.31D-01  3.82D-01  5.36D-01  5.68D-01
                    CP:  5.11D-01  2.66D-01
 E= -3007.37220726298     Delta-E=       -0.000214496906 Rises=F Damp=F
 DIIS: error= 1.05D-04 at cycle  13 NSaved=  13.
 NSaved=13 IEnMin=13 EnMin= -3007.37220726298     IErMin=13 ErrMin= 1.05D-04
 ErrMax= 1.05D-04  0.00D+00 EMaxC= 1.00D-01 BMatC= 1.58D-05 BMatP= 1.65D-04
 IDIUse=3 WtCom= 9.99D-01 WtEn= 1.05D-03
 Coeff-Com: -0.366D-02 0.661D-02-0.129D-03-0.145D-03-0.435D-02 0.146D-02
 Coeff-Com: -0.990D-02-0.403D-02 0.385D-01 0.135D+00 0.258D+00 0.220D+00
 Coeff-Com:  0.362D+00
 Coeff-En:   0.000D+00 0.000D+00 0.000D+00 0.000D+00 0.000D+00 0.000D+00
 Coeff-En:   0.000D+00 0.000D+00 0.000D+00 0.000D+00 0.000D+00 0.687D-01
 Coeff-En:   0.931D+00
 Coeff:     -0.365D-02 0.660D-02-0.129D-03-0.145D-03-0.435D-02 0.146D-02
 Coeff:     -0.989D-02-0.402D-02 0.385D-01 0.135D+00 0.258D+00 0.220D+00
 Coeff:      0.363D+00
 Gap=     0.043 Goal=   None    Shift=    0.000
 RMSDP=4.83D-06 MaxDP=5.83D-04 DE=-2.14D-04 OVMax= 2.88D-03

 Cycle  14  Pass 1  IDiag  1:
 RMSU=  2.24D-06    CP:  9.79D-01  1.17D+00  1.85D-01  1.70D-02  7.67D-01
                    CP:  3.87D-01  4.32D-01  3.78D-01  5.42D-01  5.68D-01
                    CP:  4.85D-01  3.68D-01  5.03D-01
 E= -3007.37222351023     Delta-E=       -0.000016247248 Rises=F Damp=F
 DIIS: error= 4.81D-05 at cycle  14 NSaved=  14.
 NSaved=14 IEnMin=14 EnMin= -3007.37222351023     IErMin=14 ErrMin= 4.81D-05
 ErrMax= 4.81D-05  0.00D+00 EMaxC= 1.00D-01 BMatC= 2.68D-06 BMatP= 1.58D-05
 IDIUse=1 WtCom= 1.00D+00 WtEn= 0.00D+00
 Coeff-Com: -0.231D-02 0.405D-02-0.121D-03-0.865D-04-0.253D-02 0.113D-02
 Coeff-Com: -0.690D-02-0.490D-02 0.176D-01 0.574D-01 0.132D+00 0.119D+00
 Coeff-Com:  0.273D+00 0.413D+00
 Coeff:     -0.231D-02 0.405D-02-0.121D-03-0.865D-04-0.253D-02 0.113D-02
 Coeff:     -0.690D-02-0.490D-02 0.176D-01 0.574D-01 0.132D+00 0.119D+00
 Coeff:      0.273D+00 0.413D+00
 Gap=     0.043 Goal=   None    Shift=    0.000
 RMSDP=1.84D-06 MaxDP=2.68D-04 DE=-1.62D-05 OVMax= 6.27D-04

 Cycle  15  Pass 1  IDiag  1:
 RMSU=  1.29D-06    CP:  9.79D-01  1.17D+00  1.85D-01  1.69D-02  7.67D-01
                    CP:  3.87D-01  4.32D-01  3.77D-01  5.46D-01  5.66D-01
                    CP:  4.94D-01  3.53D-01  5.51D-01  6.30D-01
 E= -3007.37222583212     Delta-E=       -0.000002321891 Rises=F Damp=F
 DIIS: error= 2.85D-05 at cycle  15 NSaved=  15.
 NSaved=15 IEnMin=15 EnMin= -3007.37222583212     IErMin=15 ErrMin= 2.85D-05
 ErrMax= 2.85D-05  0.00D+00 EMaxC= 1.00D-01 BMatC= 6.56D-07 BMatP= 2.68D-06
 IDIUse=1 WtCom= 1.00D+00 WtEn= 0.00D+00
 Coeff-Com: -0.804D-03 0.129D-02-0.122D-03-0.618D-05-0.812D-03 0.493D-03
 Coeff-Com: -0.280D-02-0.317D-02 0.137D-02-0.287D-02 0.168D-01 0.167D-01
 Coeff-Com:  0.865D-01 0.291D+00 0.596D+00
 Coeff:     -0.804D-03 0.129D-02-0.122D-03-0.618D-05-0.812D-03 0.493D-03
 Coeff:     -0.280D-02-0.317D-02 0.137D-02-0.287D-02 0.168D-01 0.167D-01
 Coeff:      0.865D-01 0.291D+00 0.596D+00
 Gap=     0.043 Goal=   None    Shift=    0.000
 RMSDP=1.11D-06 MaxDP=2.87D-04 DE=-2.32D-06 OVMax= 3.09D-04

 Cycle  16  Pass 1  IDiag  1:
 RMSU=  6.23D-07    CP:  9.79D-01  1.17D+00  1.85D-01  1.70D-02  7.68D-01
                    CP:  3.87D-01  4.33D-01  3.76D-01  5.50D-01  5.66D-01
                    CP:  4.99D-01  3.58D-01  5.70D-01  8.15D-01  8.09D-01
 E= -3007.37222636755     Delta-E=       -0.000000535430 Rises=F Damp=F
 DIIS: error= 1.40D-05 at cycle  16 NSaved=  16.
 NSaved=16 IEnMin=16 EnMin= -3007.37222636755     IErMin=16 ErrMin= 1.40D-05
 ErrMax= 1.40D-05  0.00D+00 EMaxC= 1.00D-01 BMatC= 1.85D-07 BMatP= 6.56D-07
 IDIUse=1 WtCom= 1.00D+00 WtEn= 0.00D+00
 Coeff-Com: -0.657D-04 0.262D-04-0.618D-04 0.693D-05-0.652D-05 0.120D-03
 Coeff-Com: -0.477D-03-0.112D-02-0.426D-02-0.207D-01-0.279D-01-0.243D-01
 Coeff-Com: -0.154D-01 0.983D-01 0.481D+00 0.515D+00
 Coeff:     -0.657D-04 0.262D-04-0.618D-04 0.693D-05-0.652D-05 0.120D-03
 Coeff:     -0.477D-03-0.112D-02-0.426D-02-0.207D-01-0.279D-01-0.243D-01
 Coeff:     -0.154D-01 0.983D-01 0.481D+00 0.515D+00
 Gap=     0.043 Goal=   None    Shift=    0.000
 RMSDP=6.81D-07 MaxDP=1.62D-04 DE=-5.35D-07 OVMax= 2.42D-04

 Cycle  17  Pass 1  IDiag  1:
 RMSU=  3.19D-07    CP:  9.79D-01  1.17D+00  1.85D-01  1.70D-02  7.68D-01
                    CP:  3.88D-01  4.32D-01  3.76D-01  5.52D-01  5.65D-01
                    CP:  4.99D-01  3.61D-01  5.99D-01  8.35D-01  9.78D-01
                    CP:  6.46D-01
 E= -3007.37222654705     Delta-E=       -0.000000179496 Rises=F Damp=F
 DIIS: error= 3.40D-06 at cycle  17 NSaved=  17.
 NSaved=17 IEnMin=17 EnMin= -3007.37222654705     IErMin=17 ErrMin= 3.40D-06
 ErrMax= 3.40D-06  0.00D+00 EMaxC= 1.00D-01 BMatC= 3.03D-08 BMatP= 1.85D-07
 IDIUse=1 WtCom= 1.00D+00 WtEn= 0.00D+00
 Coeff-Com:  0.248D-04-0.848D-04-0.199D-04 0.576D-05 0.294D-04 0.249D-04
 Coeff-Com: -0.535D-04-0.223D-03-0.246D-02-0.115D-01-0.186D-01-0.164D-01
 Coeff-Com: -0.209D-01 0.201D-01 0.227D+00 0.378D+00 0.445D+00
 Coeff:      0.248D-04-0.848D-04-0.199D-04 0.576D-05 0.294D-04 0.249D-04
 Coeff:     -0.535D-04-0.223D-03-0.246D-02-0.115D-01-0.186D-01-0.164D-01
 Coeff:     -0.209D-01 0.201D-01 0.227D+00 0.378D+00 0.445D+00
 Gap=     0.043 Goal=   None    Shift=    0.000
 RMSDP=2.10D-07 MaxDP=2.61D-05 DE=-1.79D-07 OVMax= 6.43D-05

 Cycle  18  Pass 1  IDiag  1:
 RMSU=  1.01D-07    CP:  9.79D-01  1.17D+00  1.85D-01  1.70D-02  7.68D-01
                    CP:  3.88D-01  4.32D-01  3.77D-01  5.52D-01  5.66D-01
                    CP:  4.99D-01  3.61D-01  5.98D-01  8.45D-01  9.61D-01
                    CP:  7.06D-01  5.13D-01
 E= -3007.37222657621     Delta-E=       -0.000000029166 Rises=F Damp=F
 DIIS: error= 1.02D-06 at cycle  18 NSaved=  18.
 NSaved=18 IEnMin=18 EnMin= -3007.37222657621     IErMin=18 ErrMin= 1.02D-06
 ErrMax= 1.02D-06  0.00D+00 EMaxC= 1.00D-01 BMatC= 3.65D-09 BMatP= 3.03D-08
 IDIUse=1 WtCom= 1.00D+00 WtEn= 0.00D+00
 Coeff-Com: -0.262D-05-0.379D-05-0.220D-05-0.344D-06-0.332D-05 0.102D-04
 Coeff-Com: -0.280D-04-0.199D-04-0.974D-03-0.477D-02-0.832D-02-0.740D-02
 Coeff-Com: -0.104D-01 0.511D-02 0.972D-01 0.194D+00 0.302D+00 0.434D+00
 Coeff:     -0.262D-05-0.379D-05-0.220D-05-0.344D-06-0.332D-05 0.102D-04
 Coeff:     -0.280D-04-0.199D-04-0.974D-03-0.477D-02-0.832D-02-0.740D-02
 Coeff:     -0.104D-01 0.511D-02 0.972D-01 0.194D+00 0.302D+00 0.434D+00
 Gap=     0.043 Goal=   None    Shift=    0.000
 RMSDP=6.93D-08 MaxDP=7.92D-06 DE=-2.92D-08 OVMax= 2.34D-05

 Cycle  19  Pass 1  IDiag  1:
 RMSU=  3.33D-08    CP:  9.79D-01  1.17D+00  1.85D-01  1.70D-02  7.68D-01
                    CP:  3.88D-01  4.32D-01  3.77D-01  5.52D-01  5.66D-01
                    CP:  4.98D-01  3.61D-01  5.97D-01  8.44D-01  9.66D-01
                    CP:  6.91D-01  5.45D-01  4.81D-01
 E= -3007.37222657950     Delta-E=       -0.000000003287 Rises=F Damp=F
 DIIS: error= 3.35D-07 at cycle  19 NSaved=  19.
 NSaved=19 IEnMin=19 EnMin= -3007.37222657950     IErMin=19 ErrMin= 3.35D-07
 ErrMax= 3.35D-07  0.00D+00 EMaxC= 1.00D-01 BMatC= 2.77D-10 BMatP= 3.65D-09
 IDIUse=1 WtCom= 1.00D+00 WtEn= 0.00D+00
 Coeff-Com: -0.395D-05 0.513D-05-0.270D-06-0.470D-06-0.621D-05 0.441D-05
 Coeff-Com: -0.126D-04 0.251D-05-0.420D-03-0.215D-02-0.384D-02-0.348D-02
 Coeff-Com: -0.496D-02 0.182D-02 0.449D-01 0.954D-01 0.158D+00 0.281D+00
 Coeff-Com:  0.434D+00
 Coeff:     -0.395D-05 0.513D-05-0.270D-06-0.470D-06-0.621D-05 0.441D-05
 Coeff:     -0.126D-04 0.251D-05-0.420D-03-0.215D-02-0.384D-02-0.348D-02
 Coeff:     -0.496D-02 0.182D-02 0.449D-01 0.954D-01 0.158D+00 0.281D+00
 Coeff:      0.434D+00
 Gap=     0.043 Goal=   None    Shift=    0.000
 RMSDP=2.11D-08 MaxDP=2.50D-06 DE=-3.29D-09 OVMax= 6.15D-06

 Cycle  20  Pass 1  IDiag  1:
 RMSU=  1.20D-08    CP:  9.79D-01  1.17D+00  1.85D-01  1.70D-02  7.68D-01
                    CP:  3.88D-01  4.32D-01  3.77D-01  5.52D-01  5.66D-01
                    CP:  4.99D-01  3.61D-01  5.96D-01  8.43D-01  9.66D-01
                    CP:  6.98D-01  5.44D-01  5.07D-01  5.52D-01
 E= -3007.37222657990     Delta-E=       -0.000000000404 Rises=F Damp=F
 DIIS: error= 1.79D-07 at cycle  20 NSaved=  20.
 NSaved=20 IEnMin=20 EnMin= -3007.37222657990     IErMin=20 ErrMin= 1.79D-07
 ErrMax= 1.79D-07  0.00D+00 EMaxC= 1.00D-01 BMatC= 3.79D-11 BMatP= 2.77D-10
 IDIUse=1 WtCom= 1.00D+00 WtEn= 0.00D+00
 Coeff-Com: -0.145D-05 0.220D-05-0.659D-07-0.997D-07-0.452D-05 0.133D-05
 Coeff-Com: -0.382D-05 0.379D-05-0.127D-03-0.677D-03-0.124D-02-0.117D-02
 Coeff-Com: -0.175D-02 0.789D-04 0.142D-01 0.335D-01 0.589D-01 0.122D+00
 Coeff-Com:  0.293D+00 0.483D+00
 Coeff:     -0.145D-05 0.220D-05-0.659D-07-0.997D-07-0.452D-05 0.133D-05
 Coeff:     -0.382D-05 0.379D-05-0.127D-03-0.677D-03-0.124D-02-0.117D-02
 Coeff:     -0.175D-02 0.789D-04 0.142D-01 0.335D-01 0.589D-01 0.122D+00
 Coeff:      0.293D+00 0.483D+00
 Gap=     0.043 Goal=   None    Shift=    0.000
 RMSDP=7.52D-09 MaxDP=1.16D-06 DE=-4.04D-10 OVMax= 1.85D-06

 Cycle  21  Pass 1  IDiag  1:
 Restarting incremental Fock formation.
 E= -3007.37222657976     Delta-E=        0.000000000147 Rises=F Damp=F
 DIIS: error= 6.55D-08 at cycle  21 NSaved=  20.
 NSaved=20 IEnMin=19 EnMin= -3007.37222657990     IErMin=20 ErrMin= 6.55D-08
 ErrMax= 6.55D-08  0.00D+00 EMaxC= 1.00D-01 BMatC= 7.40D-12 BMatP= 3.79D-11
 IDIUse=1 WtCom= 1.00D+00 WtEn= 0.00D+00
 Coeff-Com: -0.270D-06 0.394D-06-0.367D-08-0.227D-05 0.433D-06-0.897D-06
 Coeff-Com:  0.233D-05-0.490D-04-0.256D-03-0.484D-03-0.468D-03-0.746D-03
 Coeff-Com: -0.217D-03 0.506D-02 0.131D-01 0.243D-01 0.552D-01 0.162D+00
 Coeff-Com:  0.353D+00 0.389D+00
 Coeff:     -0.270D-06 0.394D-06-0.367D-08-0.227D-05 0.433D-06-0.897D-06
 Coeff:      0.233D-05-0.490D-04-0.256D-03-0.484D-03-0.468D-03-0.746D-03
 Coeff:     -0.217D-03 0.506D-02 0.131D-01 0.243D-01 0.552D-01 0.162D+00
 Coeff:      0.353D+00 0.389D+00
 Gap=     0.043 Goal=   None    Shift=    0.000
 RMSDP=3.09D-09 MaxDP=6.48D-07 DE= 1.47D-10 OVMax= 6.63D-07

 SCF Done:  E(RB-LYP) =  -3007.37222658     A.U. after   21 cycles
            NFock= 21  Conv=0.31D-08     -V/T= 2.0100
 KE= 2.977463949565D+03 PE=-2.635918102208D+04 EE= 1.069242633403D+04
 Leave Link  502 at Thu May  5 05:59:16 2022, MaxMem= 10066329600 cpu:            6458.7 elap:             270.0
 (Enter /sw/apps/gaussian-16.0/g16/l801.exe)
 DoSCS=F DFT=T ScalE2(SS,OS)=  1.000000  1.000000
 ExpMin= 3.36D-02 ExpMax= 4.95D+03 ExpMxC= 7.45D+02 IAcc=3 IRadAn=         5 AccDes= 0.00D+00
 HarFok:  IExCor=  205 AccDes= 0.00D+00 IRadAn=         5 IDoV=-2 UseB2=F ITyADJ=14
 ICtDFT= 12500011 ScaDFX=  1.000000  1.000000  1.000000  1.000000
 GSVD:  LWork=       -5460 too small for GESVD, short by       25550 words or       25550 for optimal perf.
 Largest valence mixing into a core orbital is  1.44D-04
 Largest core mixing into a valence orbital is  4.90D-05
 Range of M.O.s used for correlation:    71  1298
 NBasis=  1298 NAE=   246 NBE=   246 NFC=    70 NFV=     0
 NROrb=   1228 NOA=   176 NOB=   176 NVA=  1052 NVB=  1052

 **** Warning!!: The smallest alpha delta epsilon is  0.42947793D-01

 Leave Link  801 at Thu May  5 05:59:16 2022, MaxMem= 10066329600 cpu:               8.4 elap:               0.4
 (Enter /sw/apps/gaussian-16.0/g16/l914.exe)
 RHF ground state
 Two-electron integrals replicated using symmetry.
 MDV= 10066329600 DFT=T DoStab=F Mixed=F DoRPA=T DoScal=T NonHer=F
 Making orbital integer symmetry assigments:
 Orbital symmetries:
       Occupied  (A) (A) (A) (A) (A) (A) (A) (A) (A) (A) (A) (A)
                 (A) (A) (A) (A) (A) (A) (A) (A) (A) (A) (A) (A)
                 (A) (A) (A) (A) (A) (A) (A) (A) (A) (A) (A) (A)
                 (A) (A) (A) (A) (A) (A) (A) (A) (A) (A) (A) (A)
                 (A) (A) (A) (A) (A) (A) (A) (A) (A) (A) (A) (A)
                 (A) (A) (A) (A) (A) (A) (A) (A) (A) (A) (A) (A)
                 (A) (A) (A) (A) (A) (A) (A) (A) (A) (A) (A) (A)
                 (A) (A) (A) (A) (A) (A) (A) (A) (A) (A) (A) (A)
                 (A) (A) (A) (A) (A) (A) (A) (A) (A) (A) (A) (A)
                 (A) (A) (A) (A) (A) (A) (A) (A) (A) (A) (A) (A)
                 (A) (A) (A) (A) (A) (A) (A) (A) (A) (A) (A) (A)
                 (A) (A) (A) (A) (A) (A) (A) (A) (A) (A) (A) (A)
                 (A) (A) (A) (A) (A) (A) (A) (A) (A) (A) (A) (A)
                 (A) (A) (A) (A) (A) (A) (A) (A) (A) (A) (A) (A)
                 (A) (A) (A) (A) (A) (A) (A) (A) (A) (A) (A) (A)
                 (A) (A) (A) (A) (A) (A) (A) (A) (A) (A) (A) (A)
                 (A) (A) (A) (A) (A) (A) (A) (A) (A) (A) (A) (A)
                 (A) (A) (A) (A) (A) (A) (A) (A) (A) (A) (A) (A)
                 (A) (A) (A) (A) (A) (A) (A) (A) (A) (A) (A) (A)
                 (A) (A) (A) (A) (A) (A) (A) (A) (A) (A) (A) (A)
                 (A) (A) (A) (A) (A) (A)
       Virtual   (A) (A) (A) (A) (A) (A) (A) (A) (A) (A) (A) (A)
                 (A) (A) (A) (A) (A) (A) (A) (A) (A) (A) (A) (A)
                 (A) (A) (A) (A) (A) (A) (A) (A) (A) (A) (A) (A)
                 (A) (A) (A) (A) (A) (A) (A) (A) (A) (A) (A) (A)
                 (A) (A) (A) (A) (A) (A) (A) (A) (A) (A) (A) (A)
                 (A) (A) (A) (A) (A) (A) (A) (A) (A) (A) (A) (A)
                 (A) (A) (A) (A) (A) (A) (A) (A) (A) (A) (A) (A)
                 (A) (A) (A) (A) (A) (A) (A) (A) (A) (A) (A) (A)
                 (A) (A) (A) (A) (A) (A) (A) (A) (A) (A) (A) (A)
                 (A) (A) (A) (A) (A) (A) (A) (A) (A) (A) (A) (A)
                 (A) (A) (A) (A) (A) (A) (A) (A) (A) (A) (A) (A)
                 (A) (A) (A) (A) (A) (A) (A) (A) (A) (A) (A) (A)
                 (A) (A) (A) (A) (A) (A) (A) (A) (A) (A) (A) (A)
                 (A) (A) (A) (A) (A) (A) (A) (A) (A) (A) (A) (A)
                 (A) (A) (A) (A) (A) (A) (A) (A) (A) (A) (A) (A)
                 (A) (A) (A) (A) (A) (A) (A) (A) (A) (A) (A) (A)
                 (A) (A) (A) (A) (A) (A) (A) (A) (A) (A) (A) (A)
                 (A) (A) (A) (A) (A) (A) (A) (A) (A) (A) (A) (A)
                 (A) (A) (A) (A) (A) (A) (A) (A) (A) (A) (A) (A)
                 (A) (A) (A) (A) (A) (A) (A) (A) (A) (A) (A) (A)
                 (A) (A) (A) (A) (A) (A) (A) (A) (A) (A) (A) (A)
                 (A) (A) (A) (A) (A) (A) (A) (A) (A) (A) (A) (A)
                 (A) (A) (A) (A) (A) (A) (A) (A) (A) (A) (A) (A)
                 (A) (A) (A) (A) (A) (A) (A) (A) (A) (A) (A) (A)
                 (A) (A) (A) (A) (A) (A) (A) (A) (A) (A) (A) (A)
                 (A) (A) (A) (A) (A) (A) (A) (A) (A) (A) (A) (A)
                 (A) (A) (A) (A) (A) (A) (A) (A) (A) (A) (A) (A)
                 (A) (A) (A) (A) (A) (A) (A) (A) (A) (A) (A) (A)
                 (A) (A) (A) (A) (A) (A) (A) (A) (A) (A) (A) (A)
                 (A) (A) (A) (A) (A) (A) (A) (A) (A) (A) (A) (A)
                 (A) (A) (A) (A) (A) (A) (A) (A) (A) (A) (A) (A)
                 (A) (A) (A) (A) (A) (A) (A) (A) (A) (A) (A) (A)
                 (A) (A) (A) (A) (A) (A) (A) (A) (A) (A) (A) (A)
                 (A) (A) (A) (A) (A) (A) (A) (A) (A) (A) (A) (A)
                 (A) (A) (A) (A) (A) (A) (A) (A) (A) (A) (A) (A)
                 (A) (A) (A) (A) (A) (A) (A) (A) (A) (A) (A) (A)
                 (A) (A) (A) (A) (A) (A) (A) (A) (A) (A) (A) (A)
                 (A) (A) (A) (A) (A) (A) (A) (A) (A) (A) (A) (A)
                 (A) (A) (A) (A) (A) (A) (A) (A) (A) (A) (A) (A)
                 (A) (A) (A) (A) (A) (A) (A) (A) (A) (A) (A) (A)
                 (A) (A) (A) (A) (A) (A) (A) (A) (A) (A) (A) (A)
                 (A) (A) (A) (A) (A) (A) (A) (A) (A) (A) (A) (A)
                 (A) (A) (A) (A) (A) (A) (A) (A) (A) (A) (A) (A)
                 (A) (A) (A) (A) (A) (A) (A) (A) (A) (A) (A) (A)
                 (A) (A) (A) (A) (A) (A) (A) (A) (A) (A) (A) (A)
                 (A) (A) (A) (A) (A) (A) (A) (A) (A) (A) (A) (A)
                 (A) (A) (A) (A) (A) (A) (A) (A) (A) (A) (A) (A)
                 (A) (A) (A) (A) (A) (A) (A) (A) (A) (A) (A) (A)
                 (A) (A) (A) (A) (A) (A) (A) (A) (A) (A) (A) (A)
                 (A) (A) (A) (A) (A) (A) (A) (A) (A) (A) (A) (A)
                 (A) (A) (A) (A) (A) (A) (A) (A) (A) (A) (A) (A)
                 (A) (A) (A) (A) (A) (A) (A) (A) (A) (A) (A) (A)
                 (A) (A) (A) (A) (A) (A) (A) (A) (A) (A) (A) (A)
                 (A) (A) (A) (A) (A) (A) (A) (A) (A) (A) (A) (A)
                 (A) (A) (A) (A) (A) (A) (A) (A) (A) (A) (A) (A)
                 (A) (A) (A) (A) (A) (A) (A) (A) (A) (A) (A) (A)
                 (A) (A) (A) (A) (A) (A) (A) (A) (A) (A) (A) (A)
                 (A) (A) (A) (A) (A) (A) (A) (A) (A) (A) (A) (A)
                 (A) (A) (A) (A) (A) (A) (A) (A) (A) (A) (A) (A)
                 (A) (A) (A) (A) (A) (A) (A) (A) (A) (A) (A) (A)
                 (A) (A) (A) (A) (A) (A) (A) (A) (A) (A) (A) (A)
                 (A) (A) (A) (A) (A) (A) (A) (A) (A) (A) (A) (A)
                 (A) (A) (A) (A) (A) (A) (A) (A) (A) (A) (A) (A)
                 (A) (A) (A) (A) (A) (A) (A) (A) (A) (A) (A) (A)
                 (A) (A) (A) (A) (A) (A) (A) (A) (A) (A) (A) (A)
                 (A) (A) (A) (A) (A) (A) (A) (A) (A) (A) (A) (A)
                 (A) (A) (A) (A) (A) (A) (A) (A) (A) (A) (A) (A)
                 (A) (A) (A) (A) (A) (A) (A) (A) (A) (A) (A) (A)
                 (A) (A) (A) (A) (A) (A) (A) (A) (A) (A) (A) (A)
                 (A) (A) (A) (A) (A) (A) (A) (A) (A) (A) (A) (A)
                 (A) (A) (A) (A) (A) (A) (A) (A) (A) (A) (A) (A)
                 (A) (A) (A) (A) (A) (A) (A) (A) (A) (A) (A) (A)
                 (A) (A) (A) (A) (A) (A) (A) (A) (A) (A) (A) (A)
                 (A) (A) (A) (A) (A) (A) (A) (A) (A) (A) (A) (A)
                 (A) (A) (A) (A) (A) (A) (A) (A) (A) (A) (A) (A)
                 (A) (A) (A) (A) (A) (A) (A) (A) (A) (A) (A) (A)
                 (A) (A) (A) (A) (A) (A) (A) (A) (A) (A) (A) (A)
                 (A) (A) (A) (A) (A) (A) (A) (A) (A) (A) (A) (A)
                 (A) (A) (A) (A) (A) (A) (A) (A) (A) (A) (A) (A)
                 (A) (A) (A) (A) (A) (A) (A) (A) (A) (A) (A) (A)
                 (A) (A) (A) (A) (A) (A) (A) (A) (A) (A) (A) (A)
                 (A) (A) (A) (A) (A) (A) (A) (A) (A) (A) (A) (A)
                 (A) (A) (A) (A) (A) (A) (A) (A) (A) (A) (A) (A)
                 (A) (A) (A) (A) (A) (A) (A) (A) (A) (A) (A) (A)
                 (A) (A) (A) (A) (A) (A) (A) (A) (A) (A) (A) (A)
                 (A) (A) (A) (A) (A) (A) (A) (A) (A) (A) (A) (A)
                 (A) (A) (A) (A) (A) (A) (A) (A) (A) (A) (A) (A)
                 (A) (A) (A) (A) (A) (A) (A) (A)
    20 initial guesses have been made.
 Convergence on wavefunction:    0.001000000000000
 Davidson Disk Diagonalization:  ConvIn= 1.00D-03 SkipCon=T Conv= 1.00D-03.
 Max sub-space:  2000 roots to seek:    20 dimension of matrix:       370304
 Iteration     1 Dimension    20 NMult     0 NNew     20
 CISAX will form    20 AO SS matrices at one time.
 NMat=    20 NSing=    20 JSym2X= 0.
 FoFJK:  IHMeth= 1 ICntrl=     500 DoSepK=F KAlg= 0 I1Cent=           0 FoldK=F
 IRaf= 520000000 NMat=      20 IRICut=       1 DoRegI=T DoRafI=F ISym2E= 0 IDoP0=0 IntGTp=1.
 FoFCou: FMM=T IPFlag=           0 FMFlag=      100000 FMFlg1=        2001
         NFxFlg=           0 DoJE=F BraDBF=F KetDBF=F FulRan=T
         wScrn=  0.000000 ICntrl=       500 IOpCl=  0 I1Cent=           0 NGrid=           0
         NMat0=   20 NMatS0=     20 NMatT0=    0 NMatD0=   20 NMtDS0=    0 NMtDT0=    0
 Symmetry not used in FoFCou.
 FMM levels:  10  Number of levels for PrismC:   9
 New state      1 was old state      3
 New state      2 was old state      1
 New state      3 was old state      4
 New state      4 was old state      2
 New state      5 was old state      8
 Excitation Energies [eV] at current iteration:
 Root      1 :     1.609318896167247
 Root      2 :     2.141066811061403
 Root      3 :     2.176448950378737
 Root      4 :     2.359012281005288
 Root      5 :     2.551933515696337
 Root      6 :     2.626657230607417
 Root      7 :     2.782216843348265
 Root      8 :     2.939375949109450
 Root      9 :     2.980293648214638
 Root     10 :     3.051165393102734
 Root     11 :     3.080440906057774
 Root     12 :     3.152741723615554
 Root     13 :     3.174530071166917
 Root     14 :     3.188912733559714
 Root     15 :     3.279632583843683
 Root     16 :     3.292177561661822
 Root     17 :     3.711293169815102
 Root     18 :     3.913176802096442
 Root     19 :     4.085726730063930
 Root     20 :     4.359223439423901
 Iteration     2 Dimension    40 NMult    20 NNew     20
 CISAX will form    20 AO SS matrices at one time.
 NMat=    20 NSing=    20 JSym2X= 0.
 Root      1 not converged, maximum delta is    0.005356269569919
 Root      2 not converged, maximum delta is    0.097750243600397
 New state      3 was old state      4
 Root      3 not converged, maximum delta is    0.192232047644351
 New state      4 was old state      3
 Root      4 not converged, maximum delta is    0.166951999034392
 New state      5 was old state      7
 Root      5 not converged, maximum delta is    0.345646475277899
 Excitation Energies [eV] at current iteration:
 Root      1 :     1.605651694348742   Change is   -0.003667201818505
 Root      2 :     1.898282497282169   Change is   -0.242784313779234
 Root      3 :     2.109733162609263   Change is   -0.249279118396025
 Root      4 :     2.174548875324441   Change is   -0.001900075054297
 Root      5 :     2.457097969770304   Change is   -0.325118873577961
 Root      6 :     2.552164040306400   Change is    0.000230524610063
 Root      7 :     2.617054122636609   Change is   -0.009603107970808
 Root      8 :     2.654286265177969   Change is   -0.326007383036668
 Root      9 :     2.891926514455167   Change is   -0.387706069388515
 Root     10 :     2.939332110754757   Change is   -0.000043838354693
 Root     11 :     3.001938081335738   Change is   -0.049227311766997
 Root     12 :     3.072018897031098   Change is   -0.008422009026676
 Root     13 :     3.150181218169028   Change is   -0.024348852997889
 Root     14 :     3.152737675395887   Change is   -0.000004048219667
 Root     15 :     3.171829666464374   Change is   -0.017083067095340
 Root     16 :     3.286675087767664   Change is   -0.005502473894159
 Root     17 :     3.409980146346655   Change is   -0.301313023468447
 Root     18 :     3.478356371192535   Change is   -0.434820430903907
 Root     19 :     3.742525699468454   Change is   -0.343201030595475
 Root     20 :     3.846706835462268   Change is   -0.512516603961632
 Iteration     3 Dimension    45 NMult    40 NNew      5
 CISAX will form     5 AO SS matrices at one time.
 NMat=     5 NSing=     5 JSym2X= 0.
 Root      1 not converged, maximum delta is    0.006773554018554
 Root      2 not converged, maximum delta is    0.022077030784918
 Root      3 not converged, maximum delta is    0.057478893406243
 Root      4 not converged, maximum delta is    0.047034239748141
 Root      5 not converged, maximum delta is    0.026702001028674
 Excitation Energies [eV] at current iteration:
 Root      1 :     1.604284958984199   Change is   -0.001366735364543
 Root      2 :     1.850221508045802   Change is   -0.048060989236368
 Root      3 :     2.064651093669701   Change is   -0.045082068939562
 Root      4 :     2.172079015136588   Change is   -0.002469860187852
 Root      5 :     2.425515110794533   Change is   -0.031582858975771
 Iteration     4 Dimension    50 NMult    45 NNew      5
 CISAX will form     5 AO SS matrices at one time.
 NMat=     5 NSing=     5 JSym2X= 0.
 Root      1 not converged, maximum delta is    0.002581347685436
 Root      2 not converged, maximum delta is    0.010789327969409
 Root      3 not converged, maximum delta is    0.017540466029292
 Root      4 not converged, maximum delta is    0.010120661781533
 Root      5 not converged, maximum delta is    0.013538111209956
 Excitation Energies [eV] at current iteration:
 Root      1 :     1.603921194500165   Change is   -0.000363764484034
 Root      2 :     1.832842065770986   Change is   -0.017379442274816
 Root      3 :     2.044927725698050   Change is   -0.019723367971651
 Root      4 :     2.171090957251190   Change is   -0.000988057885398
 Root      5 :     2.412569808791770   Change is   -0.012945302002763
 Iteration     5 Dimension    55 NMult    50 NNew      5
 CISAX will form     5 AO SS matrices at one time.
 NMat=     5 NSing=     5 JSym2X= 0.
 Root      1 has converged.
 Root      2 not converged, maximum delta is    0.003287035361019
 Root      3 not converged, maximum delta is    0.008440838354210
 Root      4 not converged, maximum delta is    0.002924481187108
 Root      5 not converged, maximum delta is    0.005942913298698
 Excitation Energies [eV] at current iteration:
 Root      1 :     1.603838944731611   Change is   -0.000082249768553
 Root      2 :     1.827400998102681   Change is   -0.005441067668305
 Root      3 :     2.038349694623617   Change is   -0.006578031074434
 Root      4 :     2.170680275016819   Change is   -0.000410682234371
 Root      5 :     2.408460069296463   Change is   -0.004109739495307
 Iteration     6 Dimension    59 NMult    55 NNew      4
 CISAX will form     4 AO SS matrices at one time.
 NMat=     4 NSing=     4 JSym2X= 0.
 Root      1 has converged.
 Root      2 not converged, maximum delta is    0.002559582148376
 Root      3 not converged, maximum delta is    0.006853445233262
 Root      4 not converged, maximum delta is    0.002112106560148
 Root      5 not converged, maximum delta is    0.004048526329376
 Excitation Energies [eV] at current iteration:
 Root      1 :     1.603835002757641   Change is   -0.000003941973970
 Root      2 :     1.824831945698662   Change is   -0.002569052404019
 Root      3 :     2.035327815741257   Change is   -0.003021878882360
 Root      4 :     2.170454161548065   Change is   -0.000226113468754
 Root      5 :     2.406697832458103   Change is   -0.001762236838360
 Iteration     7 Dimension    63 NMult    59 NNew      4
 CISAX will form     4 AO SS matrices at one time.
 NMat=     4 NSing=     4 JSym2X= 0.
 Root      1 has converged.
 Root      2 not converged, maximum delta is    0.001833755408387
 Root      3 not converged, maximum delta is    0.004961570348958
 Root      4 not converged, maximum delta is    0.001250506531584
 Root      5 not converged, maximum delta is    0.002053291975017
 Excitation Energies [eV] at current iteration:
 Root      1 :     1.603834046678211   Change is   -0.000000956079431
 Root      2 :     1.823693726879639   Change is   -0.001138218819022
 Root      3 :     2.034006526379752   Change is   -0.001321289361505
 Root      4 :     2.170350167794857   Change is   -0.000103993753208
 Root      5 :     2.406111920950861   Change is   -0.000585911507243
 Iteration     8 Dimension    67 NMult    63 NNew      4
 CISAX will form     4 AO SS matrices at one time.
 NMat=     4 NSing=     4 JSym2X= 0.
 Root      1 has converged.
 Root      2 not converged, maximum delta is    0.001117080621836
 Root      3 not converged, maximum delta is    0.003377110323424
 Root      4 has converged.
 Root      5 not converged, maximum delta is    0.001196743532418
 Excitation Energies [eV] at current iteration:
 Root      1 :     1.603833455636909   Change is   -0.000000591041302
 Root      2 :     1.823205271763315   Change is   -0.000488455116324
 Root      3 :     2.033399753784562   Change is   -0.000606772595191
 Root      4 :     2.170316705954853   Change is   -0.000033461840003
 Root      5 :     2.405893464272290   Change is   -0.000218456678570
 Iteration     9 Dimension    70 NMult    67 NNew      3
 CISAX will form     3 AO SS matrices at one time.
 NMat=     3 NSing=     3 JSym2X= 0.
 Root      1 has converged.
 Root      2 has converged.
 Root      3 not converged, maximum delta is    0.002121552015704
 Root      4 has converged.
 Root      5 has converged.
 Excitation Energies [eV] at current iteration:
[...]
 Alpha virt. eigenvalues --    1.06328   1.06971   1.07597   1.07947   1.08243
 Alpha virt. eigenvalues --    1.08416   1.08654   1.08991   1.09933   1.10480
 Alpha virt. eigenvalues --    1.11129   1.11427   1.11620   1.12065   1.12553
 Alpha virt. eigenvalues --    1.13160   1.14598   1.14960   1.15160   1.15378
 Alpha virt. eigenvalues --    1.15536   1.15790   1.16228   1.16622   1.16881
 Alpha virt. eigenvalues --    1.17511   1.18492   1.18578   1.19092   1.19615
 Alpha virt. eigenvalues --    1.20469   1.20635   1.20771   1.21205   1.21443
 Alpha virt. eigenvalues --    1.21934   1.22213   1.22687   1.23128   1.23362
 Alpha virt. eigenvalues --    1.23425   1.24182   1.24644   1.25096   1.25365
 Alpha virt. eigenvalues --    1.25942   1.26475   1.26847   1.27207   1.27677
 Alpha virt. eigenvalues --    1.28180   1.28206   1.29013   1.29040   1.29788
 Alpha virt. eigenvalues --    1.30306   1.30470   1.30770   1.32023   1.32143
 Alpha virt. eigenvalues --    1.32206   1.32688   1.32926   1.33247   1.34239
 Alpha virt. eigenvalues --    1.34474   1.35125   1.35634   1.35775   1.36528
 Alpha virt. eigenvalues --    1.36665   1.36954   1.37073   1.37514   1.37968
 Alpha virt. eigenvalues --    1.38556   1.39314   1.39795   1.39893   1.40448
 Alpha virt. eigenvalues --    1.40599   1.40700   1.41712   1.41813   1.42371
 Alpha virt. eigenvalues --    1.42632   1.44035   1.44391   1.44760   1.44929
 Alpha virt. eigenvalues --    1.45685   1.46042   1.46175   1.46266   1.46377
 Alpha virt. eigenvalues --    1.46614   1.46710   1.46852   1.48068   1.48277
 Alpha virt. eigenvalues --    1.48523   1.48538   1.48599   1.48984   1.49242
 Alpha virt. eigenvalues --    1.49268   1.49426   1.49714   1.49892   1.50129
 Alpha virt. eigenvalues --    1.50418   1.50494   1.50821   1.50946   1.51118
 Alpha virt. eigenvalues --    1.51599   1.52267   1.52430   1.52736   1.52804
 Alpha virt. eigenvalues --    1.53313   1.53617   1.53848   1.53956   1.54469
 Alpha virt. eigenvalues --    1.54642   1.54754   1.55552   1.55941   1.56721
 Alpha virt. eigenvalues --    1.56755   1.57736   1.57961   1.58406   1.59153
 Alpha virt. eigenvalues --    1.59273   1.59449   1.60170   1.60241   1.60796
 Alpha virt. eigenvalues --    1.61453   1.61538   1.61777   1.62086   1.62448
 Alpha virt. eigenvalues --    1.62960   1.63142   1.63565   1.63693   1.64067
 Alpha virt. eigenvalues --    1.64517   1.64692   1.64832   1.64975   1.65513
 Alpha virt. eigenvalues --    1.65589   1.65971   1.66172   1.66243   1.66311
 Alpha virt. eigenvalues --    1.66966   1.67068   1.67491   1.67746   1.67857
 Alpha virt. eigenvalues --    1.68123   1.68490   1.68882   1.69412   1.69495
 Alpha virt. eigenvalues --    1.69736   1.70023   1.70311   1.70335   1.70605
 Alpha virt. eigenvalues --    1.70644   1.71215   1.71446   1.71546   1.71852
 Alpha virt. eigenvalues --    1.72086   1.72277   1.72394   1.72654   1.72971
 Alpha virt. eigenvalues --    1.73086   1.73313   1.73518   1.73732   1.73888
 Alpha virt. eigenvalues --    1.74106   1.74250   1.74416   1.74554   1.74692
 Alpha virt. eigenvalues --    1.74731   1.74836   1.75036   1.75151   1.75259
 Alpha virt. eigenvalues --    1.75487   1.75697   1.75886   1.76045   1.76210
 Alpha virt. eigenvalues --    1.76401   1.76550   1.76638   1.76801   1.77014
 Alpha virt. eigenvalues --    1.77812   1.77903   1.78220   1.78408   1.78723
 Alpha virt. eigenvalues --    1.78874   1.78990   1.79099   1.79272   1.79395
 Alpha virt. eigenvalues --    1.79585   1.79957   1.80150   1.80183   1.80329
 Alpha virt. eigenvalues --    1.80665   1.80933   1.81111   1.81140   1.81201
 Alpha virt. eigenvalues --    1.81453   1.81634   1.82181   1.82302   1.82611
 Alpha virt. eigenvalues --    1.82923   1.83146   1.83341   1.83579   1.83784
 Alpha virt. eigenvalues --    1.83983   1.84864   1.85023   1.85238   1.85723
 Alpha virt. eigenvalues --    1.86019   1.86418   1.86685   1.86953   1.86962
 Alpha virt. eigenvalues --    1.87165   1.87473   1.87669   1.87736   1.88037
 Alpha virt. eigenvalues --    1.88211   1.88587   1.88970   1.89246   1.89394
 Alpha virt. eigenvalues --    1.89489   1.89906   1.90713   1.90784   1.90954
 Alpha virt. eigenvalues --    1.91341   1.91688   1.91956   1.92385   1.92713
 Alpha virt. eigenvalues --    1.93177   1.93588   1.93919   1.93927   1.94410
 Alpha virt. eigenvalues --    1.94668   1.94833   1.95323   1.95840   1.96228
 Alpha virt. eigenvalues --    1.96317   1.96671   1.96996   1.97189   1.97359
 Alpha virt. eigenvalues --    1.97610   1.98221   1.98322   1.98555   1.98833
 Alpha virt. eigenvalues --    1.99102   1.99376   1.99558   1.99777   1.99839
 Alpha virt. eigenvalues --    2.00106   2.00418   2.00555   2.00712   2.01341
 Alpha virt. eigenvalues --    2.01354   2.01850   2.02178   2.02375   2.02487
 Alpha virt. eigenvalues --    2.02856   2.02964   2.03283   2.03711   2.04301
 Alpha virt. eigenvalues --    2.04380   2.04595   2.05477   2.05737   2.05856
 Alpha virt. eigenvalues --    2.06063   2.06382   2.06593   2.06860   2.07419
 Alpha virt. eigenvalues --    2.08030   2.08731   2.08990   2.09070   2.09329
 Alpha virt. eigenvalues --    2.09457   2.09883   2.10292   2.10500   2.10877
 Alpha virt. eigenvalues --    2.11101   2.11956   2.12200   2.12836   2.13283
 Alpha virt. eigenvalues --    2.13743   2.13936   2.14471   2.14805   2.15275
 Alpha virt. eigenvalues --    2.15657   2.16194   2.16280   2.17858   2.18197
 Alpha virt. eigenvalues --    2.18729   2.18803   2.19267   2.19736   2.19786
 Alpha virt. eigenvalues --    2.20067   2.20350   2.20848   2.21100   2.21276
 Alpha virt. eigenvalues --    2.21949   2.22227   2.22449   2.23224   2.23319
 Alpha virt. eigenvalues --    2.23699   2.24030   2.24470   2.24897   2.25310
 Alpha virt. eigenvalues --    2.25462   2.25828   2.26352   2.26647   2.26768
 Alpha virt. eigenvalues --    2.27135   2.27993   2.28227   2.28478   2.28807
 Alpha virt. eigenvalues --    2.29007   2.29097   2.29184   2.29677   2.29987
 Alpha virt. eigenvalues --    2.30047   2.30405   2.31055   2.31732   2.32216
 Alpha virt. eigenvalues --    2.32308   2.32467   2.32699   2.33006   2.33285
 Alpha virt. eigenvalues --    2.33661   2.34246   2.34772   2.35089   2.35251
 Alpha virt. eigenvalues --    2.35345   2.35897   2.36136   2.36271   2.36508
 Alpha virt. eigenvalues --    2.36699   2.37429   2.38390   2.38599   2.38859
 Alpha virt. eigenvalues --    2.39039   2.39477   2.39865   2.40164   2.40675
 Alpha virt. eigenvalues --    2.40963   2.41351   2.41691   2.42007   2.42824
 Alpha virt. eigenvalues --    2.43378   2.43912   2.44374   2.44751   2.45462
 Alpha virt. eigenvalues --    2.45664   2.46610   2.46884   2.47020   2.47308
 Alpha virt. eigenvalues --    2.47685   2.48047   2.48446   2.49063   2.49508
 Alpha virt. eigenvalues --    2.49787   2.50142   2.50472   2.50956   2.51617
 Alpha virt. eigenvalues --    2.51828   2.52020   2.52172   2.52534   2.53141
 Alpha virt. eigenvalues --    2.53851   2.53921   2.54128   2.55266   2.55485
 Alpha virt. eigenvalues --    2.55557   2.55655   2.56237   2.56662   2.57093
 Alpha virt. eigenvalues --    2.57185   2.57539   2.57881   2.58521   2.58866
 Alpha virt. eigenvalues --    2.59313   2.59556   2.60104   2.60601   2.60827
 Alpha virt. eigenvalues --    2.61399   2.61834   2.61983   2.62135   2.63273
 Alpha virt. eigenvalues --    2.63459   2.63666   2.63749   2.64018   2.64248
 Alpha virt. eigenvalues --    2.64709   2.64931   2.65906   2.66744   2.66976
 Alpha virt. eigenvalues --    2.67170   2.67542   2.68263   2.68469   2.68924
 Alpha virt. eigenvalues --    2.69251   2.69738   2.70161   2.70533   2.70757
 Alpha virt. eigenvalues --    2.71623   2.72051   2.72650   2.72939   2.73234
 Alpha virt. eigenvalues --    2.73848   2.74370   2.74543   2.76283   2.77118
 Alpha virt. eigenvalues --    2.77327   2.77514   2.78439   2.78460   2.78783
 Alpha virt. eigenvalues --    2.79318   2.79862   2.80315   2.80788   2.80972
 Alpha virt. eigenvalues --    2.81370   2.81736   2.81900   2.82198   2.82259
 Alpha virt. eigenvalues --    2.82843   2.83503   2.83668   2.84254   2.84486
 Alpha virt. eigenvalues --    2.84740   2.84923   2.85102   2.86335   2.86342
 Alpha virt. eigenvalues --    2.86484   2.86872   2.86887   2.87162   2.87216
 Alpha virt. eigenvalues --    2.87297   2.88162   2.88677   2.88784   2.89007
 Alpha virt. eigenvalues --    2.89279   2.89477   2.89721   2.90073   2.90207
 Alpha virt. eigenvalues --    2.90422   2.90512   2.90786   2.91583   2.91969
 Alpha virt. eigenvalues --    2.92169   2.92257   2.92482   2.92728   2.93263
 Alpha virt. eigenvalues --    2.93698   2.93841   2.94449   2.94671   2.94918
 Alpha virt. eigenvalues --    2.95601   2.95966   2.96357   2.96815   2.97103
 Alpha virt. eigenvalues --    2.97276   2.97793   2.97826   2.98583   2.98975
 Alpha virt. eigenvalues --    2.99537   2.99841   3.00680   3.01128   3.01164
 Alpha virt. eigenvalues --    3.01501   3.02289   3.03021   3.03937   3.03946
 Alpha virt. eigenvalues --    3.05104   3.06413   3.07269   3.07363   3.10017
 Alpha virt. eigenvalues --    3.10897   3.11523   3.11892   3.13420   3.16433
 Alpha virt. eigenvalues --    3.18283   3.20921   3.26244   3.29065   3.31241
 Alpha virt. eigenvalues --    3.31929   3.32712   3.34462   3.39116   3.40416
 Alpha virt. eigenvalues --    3.48492   3.52566   3.54252   3.55827   3.55975
 Alpha virt. eigenvalues --    3.59410   3.61322
          Condensed to atoms (all electrons):
 Mulliken charges:
               1
     1  Mg   0.689401
     2  C   -0.000754
     3  C   -0.070630
     4  C   -0.044922
     5  C   -0.059436
     6  N   -0.215633
     7  C   -0.101948
     8  C    0.010478
     9  C    0.012158
    10  C    0.031164
    11  C    0.104015
    12  C    0.108821
    13  C    0.158554
    14  C    0.043940
    15  O   -0.148100
    16  O   -0.285863
    17  N   -0.285661
    18  C    0.139455
    19  C   -0.166805
    20  C   -0.005514
    21  C    0.097240
    22  C    0.175084
    23  C   -0.036916
    24  O   -0.152190
    25  C    0.124080
    26  N   -0.247680
    27  C    0.051037
    28  C   -0.014603
    29  C    0.055580
    30  C    0.044605
    31  C    0.107997
    32  C    0.064041
    33  C    0.061109
    34  N   -0.246427
    35  C    0.093846
    36  C   -0.187922
    37  C    0.152539
    38  C    0.106337
    39  C    0.162922
    40  C   -0.094657
    41  O   -0.178203
    42  C    0.094555
    43  C    0.106123
    44  O   -0.162764
    45  O   -0.293445
    46  C    0.227541
    47  C    0.319588
    48  C   -0.145683
    49  C   -0.132773
    50  C    0.155676
    51  C    0.125806
    52  C    0.069461
    53  C    0.112182
    54  C   -0.075708
    55  C    0.096629
    56  C    0.119759
    57  C    0.087316
    58  C    0.108128
    59  C   -0.131634
    60  C    0.118604
    61  C    0.082017
    62  C    0.083396
    63  C    0.091788
    64  C   -0.065567
    65  C    0.073099
    66  C    0.086609
    67  H   -0.075014
    68  H   -0.029829
    69  H   -0.054008
    70  H    0.021191
    71  H   -0.022381
    72  H   -0.013963
    73  H    0.013068
    74  H   -0.009523
    75  H   -0.016388
    76  H   -0.015788
    77  H   -0.014139
    78  H    0.000343
    79  H   -0.001640
    80  H    0.001556
    81  H    0.018153
    82  H    0.025639
    83  H   -0.005518
    84  H   -0.011380
    85  H   -0.012190
    86  H   -0.034051
    87  H   -0.014838
    88  H   -0.003774
    89  H   -0.004722
    90  H   -0.015755
    91  H   -0.027601
    92  H   -0.001695
    93  H    0.004734
    94  H   -0.014904
    95  H    0.001142
    96  H   -0.006112
    97  H    0.010404
    98  H    0.003116
    99  H    0.003601
   100  H    0.025605
   101  H    0.009480
   102  H   -0.005811
   103  H   -0.014275
   104  H   -0.035158
   105  H   -0.013933
   106  H   -0.002148
   107  H    0.000641
   108  H    0.002840
   109  H   -0.042541
   110  H   -0.032501
   111  H   -0.016516
   112  H   -0.046081
   113  H   -0.027798
   114  H   -0.029925
   115  H   -0.036491
   116  H   -0.031392
   117  H   -0.010310
   118  H   -0.016224
   119  H   -0.017510
   120  H   -0.044404
   121  H   -0.032657
   122  H   -0.044144
   123  H   -0.050140
   124  H   -0.038113
   125  H   -0.003626
   126  H   -0.007026
   127  H   -0.015753
   128  H   -0.017827
   129  H   -0.033294
   130  H   -0.032345
   131  H   -0.026539
   132  H   -0.044219
   133  H   -0.028974
   134  H   -0.036482
   135  H   -0.020815
   136  H   -0.013019
   137  H   -0.019087
   138  H   -0.019348
   139  H   -0.011741
   140  H   -0.019374
 Sum of Mulliken charges =  -0.00000
 Mulliken charges with hydrogens summed into heavy atoms:
               1
     1  Mg   0.689401
     2  C   -0.000754
     3  C   -0.145644
     4  C   -0.074751
     5  C   -0.113444
     6  N   -0.215633
     7  C   -0.101948
     8  C    0.031670
     9  C   -0.010222
    10  C    0.031164
    11  C    0.093597
    12  C    0.076645
    13  C    0.144758
    14  C    0.043940
    15  O   -0.148100
    16  O   -0.285863
    17  N   -0.285661
    18  C    0.139455
    19  C   -0.166805
    20  C   -0.005514
    21  C    0.097240
    22  C    0.193152
    23  C   -0.036916
    24  O   -0.152190
    25  C    0.132819
    26  N   -0.247680
    27  C    0.051037
    28  C   -0.026792
    29  C    0.021529
    30  C    0.044605
    31  C    0.084663
    32  C    0.020685
    33  C    0.049244
    34  N   -0.246427
    35  C    0.093846
    36  C   -0.187922
    37  C    0.152539
    38  C    0.106337
    39  C    0.168356
    40  C   -0.094657
    41  O   -0.178203
    42  C    0.097671
    43  C    0.106123
    44  O   -0.162764
    45  O   -0.293445
    46  C    0.266227
    47  C    0.299503
    48  C   -0.180841
    49  C   -0.132773
    50  C    0.140236
    51  C    0.086105
    52  C    0.020443
    53  C    0.038303
    54  C   -0.105633
    55  C    0.018436
    56  C    0.086026
    57  C    0.010255
    58  C    0.013844
    59  C   -0.169748
    60  C    0.092199
    61  C    0.030895
    62  C    0.024511
    63  C    0.018595
    64  C   -0.102050
    65  C    0.020177
    66  C    0.036146
 Electronic spatial extent (au):  <R**2>=         106450.6757
 Charge=             -0.0000 electrons
 Dipole moment (field-independent basis, Debye):
    X=              5.4412    Y=              4.0938    Z=             -4.0648  Tot=              7.9302
 Quadrupole moment (field-independent basis, Debye-Ang):
   XX=           -383.2453   YY=           -434.3798   ZZ=           -405.7604
   XY=            -21.1287   XZ=              8.2773   YZ=              6.3017
 Traceless Quadrupole moment (field-independent basis, Debye-Ang):
   XX=             24.5498   YY=            -26.5846   ZZ=              2.0348
   XY=            -21.1287   XZ=              8.2773   YZ=              6.3017
 Octapole moment (field-independent basis, Debye-Ang**2):
  XXX=           -218.8204  YYY=              0.0751  ZZZ=            -12.6209  XYY=            275.4829
  XXY=             45.9209  XXZ=            -36.8898  XZZ=             20.6366  YZZ=             -2.7671
  YYZ=            -70.4769  XYZ=            -13.7579
 Hexadecapole moment (field-independent basis, Debye-Ang**3):
 XXXX=        -107782.3775 YYYY=         -27104.8126 ZZZZ=          -9141.0391 XXXY=           -745.1720
 XXXZ=             32.8685 YYYX=           -421.8196 YYYZ=           -253.9525 ZZZX=            -23.1099
 ZZZY=              2.6869 XXYY=         -24783.9345 XXZZ=         -20203.9660 YYZZ=          -5900.7185
 XXYZ=            -93.6730 YYXZ=            228.4299 ZZXY=            -63.6831
 N-N= 9.681918511908D+03 E-N=-2.635918100784D+04  KE= 2.977463949565D+03
 Leave Link  601 at Thu May  5 06:13:27 2022, MaxMem= 10066329600 cpu:              12.2 elap:               0.6
 (Enter /sw/apps/gaussian-16.0/g16/l9999.exe)
 1\1\GINC-BP1-COMPUTE212\SP\RBLYP TD-FC\def2SVP\C55H74Mg1N4O6\OF15641\0
 5-May-2022\0\\#p blyp/Def2SVP td=(nstates=5)\\step_651_chromophore_9 T
 DDFT with blyp functional\\0,1\Mg,0,35.461,1.787,29.884\C,0,33.19,2.75
 2,32.265\C,0,37.932,1.833,32.421\C,0,37.861,1.309,27.529\C,0,32.988,2.
 026,27.42\N,0,35.55,2.405,32.055\C,0,34.437,2.593,32.822\C,0,34.839,2.
 707,34.302\C,0,36.393,2.68,34.333\C,0,36.679,2.313,32.88\C,0,37.177,3.
 844,35.059\C,0,34.169,1.486,35.175\C,0,33.692,1.951,36.617\C,0,34.398,
 3.142,37.2\O,0,33.948,4.221,37.223\O,0,35.556,2.778,37.837\N,0,37.529,
 1.48,30.026\C,0,38.342,1.468,31.132\C,0,39.706,1.09,30.734\C,0,39.711,
 1.047,29.279\C,0,38.316,1.287,28.897\C,0,40.806,0.909,31.73\C,0,40.897
 ,0.809,28.293\O,0,40.791,0.923,27.083\C,0,42.19,0.516,28.877\N,0,35.38
 1,1.55,27.794\C,0,36.524,1.35,27.044\C,0,36.155,1.109,25.547\C,0,34.65
 8,1.331,25.501\C,0,34.272,1.704,27.02\C,0,37.05,1.909,24.497\C,0,33.94
 6,0.091,24.893\C,0,34.029,-1.117,25.849\N,0,33.436,2.27,29.846\C,0,32.
 558,2.287,28.795\C,0,31.317,2.738,29.304\C,0,31.496,2.839,30.711\C,0,3
 2.818,2.594,30.968\C,0,29.98,2.989,28.468\C,0,30.847,3.115,31.928\O,0,
 29.643,3.409,32.126\C,0,31.839,2.945,33.065\C,0,31.738,4.164,33.952\O,
 0,32.063,5.269,33.591\O,0,31.217,3.835,35.203\C,0,31.054,4.964,36.171\
 C,0,36.266,3.86,38.583\C,0,37.377,3.414,39.479\C,0,37.271,2.636,40.589
 \C,0,35.96,2.357,41.296\C,0,38.453,2.337,41.44\C,0,38.663,0.819,41.509
 \C,0,38.894,0.276,42.912\C,0,40.334,-0.205,43.198\C,0,40.388,-1.151,44
 .435\C,0,41.216,1.134,43.5\C,0,42.506,1.043,42.739\C,0,43.619,1.841,43
 .353\C,0,44.097,3.132,42.53\C,0,45.435,2.883,41.752\C,0,44.26,4.407,43
 .431\C,0,44.418,5.789,42.565\C,0,43.206,6.788,42.462\C,0,43.285,8.094,
 43.221\C,0,41.9,8.699,43.567\C,0,44.327,9.163,42.644\H,0,38.732,1.813,
 33.164\H,0,38.599,1.061,26.763\H,0,32.277,2.245,26.621\H,0,34.502,3.70
 4,34.585\H,0,36.789,1.876,34.954\H,0,37.798,3.459,35.867\H,0,36.509,4.
 559,35.539\H,0,37.866,4.342,34.377\H,0,34.816,0.612,35.241\H,0,33.296,
 1.089,34.656\H,0,33.741,1.11,37.309\H,0,32.64,2.237,36.596\H,0,41.274,
 0.004,31.344\H,0,40.504,0.738,32.763\H,0,41.499,1.738,31.594\H,0,42.37
 2,-0.408,29.426\H,0,42.398,1.318,29.585\H,0,42.949,0.613,28.1\H,0,36.4
 17,0.097,25.239\H,0,34.446,2.178,24.849\H,0,37.438,1.141,23.828\H,0,37
 .955,2.306,24.957\H,0,36.579,2.765,24.014\H,0,34.31,-0.205,23.909\H,0,
 32.901,0.378,24.771\H,0,33.039,-1.153,26.303\H,0,34.81,-1.034,26.605\H
 ,0,34.274,-2.033,25.311\H,0,29.314,2.135,28.593\H,0,30.175,3.135,27.40
 6\H,0,29.427,3.79,28.959\H,0,31.648,2.064,33.679\H,0,30.099,5.477,36.0
 56\H,0,31.826,5.716,36.009\H,0,30.995,4.657,37.215\H,0,35.535,4.416,39
 .171\H,0,36.776,4.629,38.004\H,0,38.345,3.752,39.109\H,0,35.115,2.887,
 40.854\H,0,36.152,2.711,42.309\H,0,35.667,1.308,41.269\H,0,38.388,2.91
 1,42.364\H,0,39.308,2.713,40.877\H,0,39.573,0.647,40.933\H,0,37.886,0.
 291,40.956\H,0,38.239,-0.594,42.976\H,0,38.627,1.017,43.666\H,0,40.693
 ,-0.834,42.383\H,0,40.75,-2.118,44.084\H,0,39.445,-1.548,44.813\H,0,41
 .001,-0.935,45.31\H,0,41.428,1.089,44.569\H,0,40.638,1.987,43.144\H,0,
 42.392,1.532,41.772\H,0,42.874,0.057,42.457\H,0,44.474,1.193,43.542\H,
 0,43.372,2.261,44.328\H,0,43.27,3.408,41.876\H,0,46.343,3.26,42.223\H,
 0,45.118,3.474,40.893\H,0,45.567,1.829,41.507\H,0,44.997,4.103,44.174\
 H,0,43.304,4.6,43.917\H,0,44.617,5.586,41.513\H,0,45.278,6.343,42.94\H
 ,0,42.345,6.241,42.844\H,0,42.983,7.1,41.441\H,0,43.582,7.927,44.257\H
 ,0,41.291,7.842,43.856\H,0,41.403,9.302,42.807\H,0,41.981,9.353,44.435
 \H,0,43.882,10.062,42.217\H,0,45.026,8.771,41.905\H,0,44.907,9.573,43.
 471\\Version=ES64L-G16RevA.03\State=1-A\HF=-3007.3722266\RMSD=3.093e-0
 9\PG=C01 [X(C55H74Mg1N4O6)]\\@


 IN-LAWS ARE LIKE SEEDS. YOU DON'T NEED THEM
 BUT THEY COME WITH THE TOMATO.
 Job cpu time:       0 days  7 hours 31 minutes 24.8 seconds.
 Elapsed time:       0 days  0 hours 18 minutes 52.9 seconds.
 File lengths (MBytes):  RWF=   8028 Int=      0 D2E=      0 Chk=    390 Scr=      1
 Normal termination of Gaussian 16 at Thu May  5 06:13:28 2022.
