 Entering Gaussian System, Link 0=g16
 Initial command:
 /sw/apps/gaussian-16.0/g16/l1.exe "/tmp/Gau-95754.inp" -scrdir="/tmp/"
 Entering Link 1 = /sw/apps/gaussian-16.0/g16/l1.exe PID=     95755.
  
 Copyright (c) 1988,1990,1992,1993,1995,1998,2003,2009,2016,
            Gaussian, Inc.  All Rights Reserved.
  
 This is part of the Gaussian(R) 16 program.  It is based on
 the Gaussian(R) 09 system (copyright 2009, Gaussian, Inc.),
 the Gaussian(R) 03 system (copyright 2003, Gaussian, Inc.),
 the Gaussian(R) 98 system (copyright 1998, Gaussian, Inc.),
 the Gaussian(R) 94 system (copyright 1995, Gaussian, Inc.),
 the Gaussian 92(TM) system (copyright 1992, Gaussian, Inc.),
 the Gaussian 90(TM) system (copyright 1990, Gaussian, Inc.),
 the Gaussian 88(TM) system (copyright 1988, Gaussian, Inc.),
 the Gaussian 86(TM) system (copyright 1986, Carnegie Mellon
 University), and the Gaussian 82(TM) system (copyright 1983,
 Carnegie Mellon University). Gaussian is a federally registered
 trademark of Gaussian, Inc.
  
 This software contains proprietary and confidential information,
 including trade secrets, belonging to Gaussian, Inc.
  
 This software is provided under written license and may be
 used, copied, transmitted, or stored only in accord with that
 written license.
  
 The following legend is applicable only to US Government
 contracts under FAR:
  
                    RESTRICTED RIGHTS LEGEND
  
 Use, reproduction and disclosure by the US Government is
 subject to restrictions as set forth in subparagraphs (a)
 and (c) of the Commercial Computer Software - Restricted
 Rights clause in FAR 52.227-19.
  
 Gaussian, Inc.
 340 Quinnipiac St., Bldg. 40, Wallingford CT 06492
  
  
 ---------------------------------------------------------------
 Warning -- This program may not be used in any manner that
 competes with the business of Gaussian, Inc. or will provide
 assistance to any competitor of Gaussian, Inc.  The licensee
 of this program is prohibited from giving any competitor of
 Gaussian, Inc. access to this program.  By using this program,
 the user acknowledges that Gaussian, Inc. is engaged in the
 business of creating and licensing software in the field of
 computational chemistry and represents and warrants to the
 licensee that it is not a competitor of Gaussian, Inc. and that
 it will not use this program in any manner prohibited above.
 ---------------------------------------------------------------
  

 Cite this work as:
 Gaussian 16, Revision A.03,
 M. J. Frisch, G. W. Trucks, H. B. Schlegel, G. E. Scuseria, 
 M. A. Robb, J. R. Cheeseman, G. Scalmani, V. Barone, 
 G. A. Petersson, H. Nakatsuji, X. Li, M. Caricato, A. V. Marenich, 
 J. Bloino, B. G. Janesko, R. Gomperts, B. Mennucci, H. P. Hratchian, 
 J. V. Ortiz, A. F. Izmaylov, J. L. Sonnenberg, D. Williams-Young, 
 F. Ding, F. Lipparini, F. Egidi, J. Goings, B. Peng, A. Petrone, 
 T. Henderson, D. Ranasinghe, V. G. Zakrzewski, J. Gao, N. Rega, 
 G. Zheng, W. Liang, M. Hada, M. Ehara, K. Toyota, R. Fukuda, 
 J. Hasegawa, M. Ishida, T. Nakajima, Y. Honda, O. Kitao, H. Nakai, 
 T. Vreven, K. Throssell, J. A. Montgomery, Jr., J. E. Peralta, 
 F. Ogliaro, M. J. Bearpark, J. J. Heyd, E. N. Brothers, K. N. Kudin, 
 V. N. Staroverov, T. A. Keith, R. Kobayashi, J. Normand, 
 K. Raghavachari, A. P. Rendell, J. C. Burant, S. S. Iyengar, 
 J. Tomasi, M. Cossi, J. M. Millam, M. Klene, C. Adamo, R. Cammi, 
 J. W. Ochterski, R. L. Martin, K. Morokuma, O. Farkas, 
 J. B. Foresman, and D. J. Fox, Gaussian, Inc., Wallingford CT, 2016.
 
 ******************************************
 Gaussian 16:  ES64L-G16RevA.03 25-Dec-2016
                 4-May-2022 
 ******************************************
 %nproc=24
 Will use up to   24 processors via shared memory.
 %mem=75GB
 --------------------------------
 #p wB97XD/Def2SVP td=(nstates=5)
 --------------------------------
 1/38=1,172=1/1;
 2/12=2,17=6,18=5,40=1/2;
 3/5=43,7=101,11=9,25=1,30=1,74=-58/1,2,3,8;
 4//1;
 5/5=2,38=5/2;
 8/6=1,10=1,108=5/1;
 9/41=5,42=1,70=2/14;
 6/7=2,8=2,9=2,10=2/1;
 99/5=1,9=1/99;
 Leave Link    1 at Wed May  4 17:16:04 2022, MaxMem= 10066329600 cpu:               0.6 elap:               0.0
 (Enter /sw/apps/gaussian-16.0/g16/l101.exe)
 ---------------------------------------------------
 step_201_chromophore_5 TDDFT with wB97XD functional
 ---------------------------------------------------
 Symbolic Z-matrix:
 Charge =  0 Multiplicity = 1
 Mg                    24.702   -6.57      46.238 
 C                     26.591   -3.888     44.949 
 C                     22.168   -5.729     44.08 
 C                     23.253   -9.518     46.984 
 C                     27.857   -7.785     47.561 
 N                     24.49    -5.048     44.676 
 C                     25.321   -4.025     44.388 
 C                     24.799   -3.164     43.274 
 C                     23.307   -3.634     43.146 
 C                     23.318   -4.89      44.017 
 C                     22.15    -2.554     43.333 
 C                     25.596   -3.181     41.92 
 C                     25.827   -1.771     41.243 
 C                     25.571   -1.675     39.782 
 O                     24.929   -0.771     39.257 
 O                     26.082   -2.744     39.031 
 N                     22.936   -7.474     45.666 
 C                     21.996   -6.88      44.83 
 C                     20.892   -7.773     44.72 
 C                     21.101   -8.836     45.564 
 C                     22.46    -8.729     46.13 
 C                     19.789   -7.542     43.726 
 C                     20.159   -10.045    45.666 
 O                     19.034   -10.035    45.281 
 C                     20.471   -11.203    46.401 
 N                     25.449   -8.336     47.146 
 C                     24.571   -9.387     47.454 
 C                     25.285   -10.533    48.197 
 C                     26.795   -10.102    47.965 
 C                     26.707   -8.635     47.675 
 C                     24.824   -10.835    49.679 
 C                     27.445   -10.927    46.864 
 C                     28.587   -11.886    47.18 
 N                     26.768   -5.917     46.42 
 C                     27.888   -6.457     47.003 
 C                     28.96    -5.519     46.963 
 C                     28.587   -4.495     46.125 
 C                     27.205   -4.781     45.84 
 C                     30.333   -5.734     47.515 
 C                     28.93    -3.248     45.435 
 O                     29.975   -2.623     45.322 
 C                     27.67    -2.852     44.612 
 C                     27.248   -1.487     44.951 
 O                     27.025   -0.631     44.1 
 O                     27.237   -1.313     46.338 
 C                     27.411    0.188     46.686 
 C                     25.511   -3.        37.74 
 C                     25.446   -4.458     37.464 
 C                     25.555   -5.229     36.32 
 C                     25.637   -4.674     34.932 
 C                     25.253   -6.756     36.364 
 C                     24.03    -7.177     35.601 
 C                     24.333   -8.296     34.565 
 C                     24.138   -7.995     33.08 
 C                     23.248   -9.036     32.364 
 C                     25.528   -7.953     32.342 
 C                     25.421   -7.239     30.97 
 C                     26.35    -5.952     31.01 
 C                     25.705   -4.729     30.291 
 C                     25.636   -3.445     31.245 
 C                     26.43    -4.519     28.928 
 C                     25.629   -5.081     27.733 
 C                     24.731   -3.92      27.225 
 C                     23.338   -4.304     26.672 
 C                     23.505   -4.634     25.135 
 C                     22.364   -3.095     26.721 
 H                     21.367   -5.463     43.387 
 H                     22.748   -10.327    47.516 
 H                     28.794   -8.273     47.836 
 H                     24.788   -2.114     43.566 
 H                     23.179   -4.026     42.137 
 H                     21.267   -3.082     43.692 
 H                     21.895   -2.271     42.312 
 H                     22.519   -1.739     43.956 
 H                     24.946   -3.715     41.227 
 H                     26.569   -3.664     42.013 
 H                     26.893   -1.58      41.366 
 H                     25.272   -1.012     41.795 
 H                     18.807   -7.399     44.178 
 H                     19.55    -8.452     43.176 
 H                     19.86    -6.747     42.984 
 H                     20.594   -10.983    47.461 
 H                     21.346   -11.646    45.926 
 H                     19.591   -11.844    46.354 
 H                     25.11    -11.44     47.618 
 H                     27.367   -10.229    48.885 
 H                     24.251   -11.76     49.752 
 H                     24.191   -10.053    50.099 
 H                     25.748   -10.988    50.236 
 H                     27.745   -10.275    46.045 
 H                     26.747   -11.61     46.38 
 H                     29.121   -11.434    48.016 
 H                     29.308   -11.904    46.362 
 H                     28.195   -12.834    47.547 
 H                     31.064   -5.741     46.707 
 H                     30.336   -6.657     48.094 
 H                     30.473   -4.844     48.128 
 H                     27.987   -2.847     43.57 
 H                     28.233    0.632     46.124 
 H                     27.645    0.3       47.745 
 H                     26.486    0.736     46.509 
 H                     26.329   -2.504     37.218 
 H                     24.551   -2.573     37.449 
 H                     25.51    -5.088     38.351 
 H                     25.435   -3.603     34.927 
 H                     24.94    -5.016     34.167 
 H                     26.636   -4.783     34.511 
 H                     25.16    -7.1       37.394 
 H                     26.028   -7.431     36. 
 H                     23.57    -6.325     35.101 
 H                     23.243   -7.514     36.275 
 H                     23.588   -9.032     34.869 
 H                     25.318   -8.746     34.686 
 H                     23.485   -7.135     32.936 
 H                     22.953   -9.873     32.997 
 H                     23.669   -9.522     31.483 
 H                     22.248   -8.671     32.128 
 H                     25.857   -8.989     32.259 
 H                     26.265   -7.573     33.049 
 H                     24.403   -6.909     30.762 
 H                     25.683   -7.979     30.214 
 H                     27.332   -6.304     30.695 
 H                     26.631   -5.631     32.013 
 H                     24.646   -4.903     30.1 
 H                     26.577   -2.958     31.501 
 H                     25.231   -3.777     32.201 
 H                     24.915   -2.689     30.933 
 H                     27.46    -4.874     28.92 
 H                     26.527   -3.437     28.834 
 H                     24.884   -5.795     28.082 
 H                     26.139   -5.615     26.932 
 H                     25.353   -3.527     26.422 
 H                     24.629   -3.091     27.925 
 H                     23.065   -5.28      27.074 
 H                     24.362   -4.135     24.682 
 H                     22.573   -4.316     24.669 
 H                     23.583   -5.715     25.025 
 H                     22.012   -3.188     27.748 
 H                     21.484   -3.131     26.078 
 H                     22.896   -2.144     26.679 
 
 ITRead=  0  0  0  0  0  0  0  0  0  0  0  0  0  0  0  0  0  0  0  0
 ITRead=  0  0  0  0  0  0  0  0  0  0  0  0  0  0  0  0  0  0  0  0
 ITRead=  0  0  0  0  0  0  0  0  0  0  0  0  0  0  0  0  0  0  0  0
 ITRead=  0  0  0  0  0  0  0  0  0  0  0  0  0  0  0  0  0  0  0  0
 ITRead=  0  0  0  0  0  0  0  0  0  0  0  0  0  0  0  0  0  0  0  0
 ITRead=  0  0  0  0  0  0  0  0  0  0  0  0  0  0  0  0  0  0  0  0
 ITRead=  0  0  0  0  0  0  0  0  0  0  0  0  0  0  0  0  0  0  0  0
 MicOpt= -1 -1 -1 -1 -1 -1 -1 -1 -1 -1 -1 -1 -1 -1 -1 -1 -1 -1 -1 -1
 MicOpt= -1 -1 -1 -1 -1 -1 -1 -1 -1 -1 -1 -1 -1 -1 -1 -1 -1 -1 -1 -1
 MicOpt= -1 -1 -1 -1 -1 -1 -1 -1 -1 -1 -1 -1 -1 -1 -1 -1 -1 -1 -1 -1
 MicOpt= -1 -1 -1 -1 -1 -1 -1 -1 -1 -1 -1 -1 -1 -1 -1 -1 -1 -1 -1 -1
 MicOpt= -1 -1 -1 -1 -1 -1 -1 -1 -1 -1 -1 -1 -1 -1 -1 -1 -1 -1 -1 -1
 MicOpt= -1 -1 -1 -1 -1 -1 -1 -1 -1 -1 -1 -1 -1 -1 -1 -1 -1 -1 -1 -1
 MicOpt= -1 -1 -1 -1 -1 -1 -1 -1 -1 -1 -1 -1 -1 -1 -1 -1 -1 -1 -1 -1
 NAtoms=    140 NQM=      140 NQMF=       0 NMMI=      0 NMMIF=      0
                NMic=       0 NMicF=      0.
                    Isotopes and Nuclear Properties:
 (Nuclear quadrupole moments (NQMom) in fm**2, nuclear magnetic moments (NMagM)
  in nuclear magnetons)

  Atom         1           2           3           4           5           6           7           8           9          10
 IAtWgt=          24          12          12          12          12          14          12          12          12          12
 AtmWgt=  23.9850450  12.0000000  12.0000000  12.0000000  12.0000000  14.0030740  12.0000000  12.0000000  12.0000000  12.0000000
 NucSpn=           0           0           0           0           0           2           0           0           0           0
 AtZEff=  -0.0000000  -0.0000000  -0.0000000  -0.0000000  -0.0000000  -0.0000000  -0.0000000  -0.0000000  -0.0000000  -0.0000000
 NQMom=    0.0000000   0.0000000   0.0000000   0.0000000   0.0000000   2.0440000   0.0000000   0.0000000   0.0000000   0.0000000
 NMagM=    0.0000000   0.0000000   0.0000000   0.0000000   0.0000000   0.4037610   0.0000000   0.0000000   0.0000000   0.0000000
 AtZNuc=  12.0000000   6.0000000   6.0000000   6.0000000   6.0000000   7.0000000   6.0000000   6.0000000   6.0000000   6.0000000

  Atom        11          12          13          14          15          16          17          18          19          20
 IAtWgt=          12          12          12          12          16          16          14          12          12          12
 AtmWgt=  12.0000000  12.0000000  12.0000000  12.0000000  15.9949146  15.9949146  14.0030740  12.0000000  12.0000000  12.0000000
 NucSpn=           0           0           0           0           0           0           2           0           0           0
 AtZEff=  -0.0000000  -0.0000000  -0.0000000  -0.0000000  -0.0000000  -0.0000000  -0.0000000  -0.0000000  -0.0000000  -0.0000000
 NQMom=    0.0000000   0.0000000   0.0000000   0.0000000   0.0000000   0.0000000   2.0440000   0.0000000   0.0000000   0.0000000
 NMagM=    0.0000000   0.0000000   0.0000000   0.0000000   0.0000000   0.0000000   0.4037610   0.0000000   0.0000000   0.0000000
 AtZNuc=   6.0000000   6.0000000   6.0000000   6.0000000   8.0000000   8.0000000   7.0000000   6.0000000   6.0000000   6.0000000

  Atom        21          22          23          24          25          26          27          28          29          30
 IAtWgt=          12          12          12          16          12          14          12          12          12          12
 AtmWgt=  12.0000000  12.0000000  12.0000000  15.9949146  12.0000000  14.0030740  12.0000000  12.0000000  12.0000000  12.0000000
 NucSpn=           0           0           0           0           0           2           0           0           0           0
 AtZEff=  -0.0000000  -0.0000000  -0.0000000  -0.0000000  -0.0000000  -0.0000000  -0.0000000  -0.0000000  -0.0000000  -0.0000000
 NQMom=    0.0000000   0.0000000   0.0000000   0.0000000   0.0000000   2.0440000   0.0000000   0.0000000   0.0000000   0.0000000
 NMagM=    0.0000000   0.0000000   0.0000000   0.0000000   0.0000000   0.4037610   0.0000000   0.0000000   0.0000000   0.0000000
 AtZNuc=   6.0000000   6.0000000   6.0000000   8.0000000   6.0000000   7.0000000   6.0000000   6.0000000   6.0000000   6.0000000

  Atom        31          32          33          34          35          36          37          38          39          40
 IAtWgt=          12          12          12          14          12          12          12          12          12          12
 AtmWgt=  12.0000000  12.0000000  12.0000000  14.0030740  12.0000000  12.0000000  12.0000000  12.0000000  12.0000000  12.0000000
 NucSpn=           0           0           0           2           0           0           0           0           0           0
 AtZEff=  -0.0000000  -0.0000000  -0.0000000  -0.0000000  -0.0000000  -0.0000000  -0.0000000  -0.0000000  -0.0000000  -0.0000000
 NQMom=    0.0000000   0.0000000   0.0000000   2.0440000   0.0000000   0.0000000   0.0000000   0.0000000   0.0000000   0.0000000
 NMagM=    0.0000000   0.0000000   0.0000000   0.4037610   0.0000000   0.0000000   0.0000000   0.0000000   0.0000000   0.0000000
 AtZNuc=   6.0000000   6.0000000   6.0000000   7.0000000   6.0000000   6.0000000   6.0000000   6.0000000   6.0000000   6.0000000

  Atom        41          42          43          44          45          46          47          48          49          50
 IAtWgt=          16          12          12          16          16          12          12          12          12          12
 AtmWgt=  15.9949146  12.0000000  12.0000000  15.9949146  15.9949146  12.0000000  12.0000000  12.0000000  12.0000000  12.0000000
 NucSpn=           0           0           0           0           0           0           0           0           0           0
 AtZEff=  -0.0000000  -0.0000000  -0.0000000  -0.0000000  -0.0000000  -0.0000000  -0.0000000  -0.0000000  -0.0000000  -0.0000000
 NQMom=    0.0000000   0.0000000   0.0000000   0.0000000   0.0000000   0.0000000   0.0000000   0.0000000   0.0000000   0.0000000
 NMagM=    0.0000000   0.0000000   0.0000000   0.0000000   0.0000000   0.0000000   0.0000000   0.0000000   0.0000000   0.0000000
 AtZNuc=   8.0000000   6.0000000   6.0000000   8.0000000   8.0000000   6.0000000   6.0000000   6.0000000   6.0000000   6.0000000

  Atom        51          52          53          54          55          56          57          58          59          60
 IAtWgt=          12          12          12          12          12          12          12          12          12          12
 AtmWgt=  12.0000000  12.0000000  12.0000000  12.0000000  12.0000000  12.0000000  12.0000000  12.0000000  12.0000000  12.0000000
 NucSpn=           0           0           0           0           0           0           0           0           0           0
 AtZEff=  -0.0000000  -0.0000000  -0.0000000  -0.0000000  -0.0000000  -0.0000000  -0.0000000  -0.0000000  -0.0000000  -0.0000000
 NQMom=    0.0000000   0.0000000   0.0000000   0.0000000   0.0000000   0.0000000   0.0000000   0.0000000   0.0000000   0.0000000
 NMagM=    0.0000000   0.0000000   0.0000000   0.0000000   0.0000000   0.0000000   0.0000000   0.0000000   0.0000000   0.0000000
 AtZNuc=   6.0000000   6.0000000   6.0000000   6.0000000   6.0000000   6.0000000   6.0000000   6.0000000   6.0000000   6.0000000

  Atom        61          62          63          64          65          66          67          68          69          70
 IAtWgt=          12          12          12          12          12          12           1           1           1           1
 AtmWgt=  12.0000000  12.0000000  12.0000000  12.0000000  12.0000000  12.0000000   1.0078250   1.0078250   1.0078250   1.0078250
 NucSpn=           0           0           0           0           0           0           1           1           1           1
 AtZEff=  -0.0000000  -0.0000000  -0.0000000  -0.0000000  -0.0000000  -0.0000000  -0.0000000  -0.0000000  -0.0000000  -0.0000000
 NQMom=    0.0000000   0.0000000   0.0000000   0.0000000   0.0000000   0.0000000   0.0000000   0.0000000   0.0000000   0.0000000
 NMagM=    0.0000000   0.0000000   0.0000000   0.0000000   0.0000000   0.0000000   2.7928460   2.7928460   2.7928460   2.7928460
 AtZNuc=   6.0000000   6.0000000   6.0000000   6.0000000   6.0000000   6.0000000   1.0000000   1.0000000   1.0000000   1.0000000

  Atom        71          72          73          74          75          76          77          78          79          80
 IAtWgt=           1           1           1           1           1           1           1           1           1           1
 AtmWgt=   1.0078250   1.0078250   1.0078250   1.0078250   1.0078250   1.0078250   1.0078250   1.0078250   1.0078250   1.0078250
 NucSpn=           1           1           1           1           1           1           1           1           1           1
 AtZEff=  -0.0000000  -0.0000000  -0.0000000  -0.0000000  -0.0000000  -0.0000000  -0.0000000  -0.0000000  -0.0000000  -0.0000000
 NQMom=    0.0000000   0.0000000   0.0000000   0.0000000   0.0000000   0.0000000   0.0000000   0.0000000   0.0000000   0.0000000
 NMagM=    2.7928460   2.7928460   2.7928460   2.7928460   2.7928460   2.7928460   2.7928460   2.7928460   2.7928460   2.7928460
 AtZNuc=   1.0000000   1.0000000   1.0000000   1.0000000   1.0000000   1.0000000   1.0000000   1.0000000   1.0000000   1.0000000

  Atom        81          82          83          84          85          86          87          88          89          90
 IAtWgt=           1           1           1           1           1           1           1           1           1           1
 AtmWgt=   1.0078250   1.0078250   1.0078250   1.0078250   1.0078250   1.0078250   1.0078250   1.0078250   1.0078250   1.0078250
 NucSpn=           1           1           1           1           1           1           1           1           1           1
 AtZEff=  -0.0000000  -0.0000000  -0.0000000  -0.0000000  -0.0000000  -0.0000000  -0.0000000  -0.0000000  -0.0000000  -0.0000000
 NQMom=    0.0000000   0.0000000   0.0000000   0.0000000   0.0000000   0.0000000   0.0000000   0.0000000   0.0000000   0.0000000
 NMagM=    2.7928460   2.7928460   2.7928460   2.7928460   2.7928460   2.7928460   2.7928460   2.7928460   2.7928460   2.7928460
 AtZNuc=   1.0000000   1.0000000   1.0000000   1.0000000   1.0000000   1.0000000   1.0000000   1.0000000   1.0000000   1.0000000

  Atom        91          92          93          94          95          96          97          98          99         100
 IAtWgt=           1           1           1           1           1           1           1           1           1           1
 AtmWgt=   1.0078250   1.0078250   1.0078250   1.0078250   1.0078250   1.0078250   1.0078250   1.0078250   1.0078250   1.0078250
 NucSpn=           1           1           1           1           1           1           1           1           1           1
 AtZEff=  -0.0000000  -0.0000000  -0.0000000  -0.0000000  -0.0000000  -0.0000000  -0.0000000  -0.0000000  -0.0000000  -0.0000000
 NQMom=    0.0000000   0.0000000   0.0000000   0.0000000   0.0000000   0.0000000   0.0000000   0.0000000   0.0000000   0.0000000
 NMagM=    2.7928460   2.7928460   2.7928460   2.7928460   2.7928460   2.7928460   2.7928460   2.7928460   2.7928460   2.7928460
 AtZNuc=   1.0000000   1.0000000   1.0000000   1.0000000   1.0000000   1.0000000   1.0000000   1.0000000   1.0000000   1.0000000

  Atom       101         102         103         104         105         106         107         108         109         110
 IAtWgt=           1           1           1           1           1           1           1           1           1           1
 AtmWgt=   1.0078250   1.0078250   1.0078250   1.0078250   1.0078250   1.0078250   1.0078250   1.0078250   1.0078250   1.0078250
 NucSpn=           1           1           1           1           1           1           1           1           1           1
 AtZEff=  -0.0000000  -0.0000000  -0.0000000  -0.0000000  -0.0000000  -0.0000000  -0.0000000  -0.0000000  -0.0000000  -0.0000000
 NQMom=    0.0000000   0.0000000   0.0000000   0.0000000   0.0000000   0.0000000   0.0000000   0.0000000   0.0000000   0.0000000
 NMagM=    2.7928460   2.7928460   2.7928460   2.7928460   2.7928460   2.7928460   2.7928460   2.7928460   2.7928460   2.7928460
 AtZNuc=   1.0000000   1.0000000   1.0000000   1.0000000   1.0000000   1.0000000   1.0000000   1.0000000   1.0000000   1.0000000

  Atom       111         112         113         114         115         116         117         118         119         120
 IAtWgt=           1           1           1           1           1           1           1           1           1           1
 AtmWgt=   1.0078250   1.0078250   1.0078250   1.0078250   1.0078250   1.0078250   1.0078250   1.0078250   1.0078250   1.0078250
 NucSpn=           1           1           1           1           1           1           1           1           1           1
 AtZEff=  -0.0000000  -0.0000000  -0.0000000  -0.0000000  -0.0000000  -0.0000000  -0.0000000  -0.0000000  -0.0000000  -0.0000000
 NQMom=    0.0000000   0.0000000   0.0000000   0.0000000   0.0000000   0.0000000   0.0000000   0.0000000   0.0000000   0.0000000
 NMagM=    2.7928460   2.7928460   2.7928460   2.7928460   2.7928460   2.7928460   2.7928460   2.7928460   2.7928460   2.7928460
 AtZNuc=   1.0000000   1.0000000   1.0000000   1.0000000   1.0000000   1.0000000   1.0000000   1.0000000   1.0000000   1.0000000

  Atom       121         122         123         124         125         126         127         128         129         130
 IAtWgt=           1           1           1           1           1           1           1           1           1           1
 AtmWgt=   1.0078250   1.0078250   1.0078250   1.0078250   1.0078250   1.0078250   1.0078250   1.0078250   1.0078250   1.0078250
 NucSpn=           1           1           1           1           1           1           1           1           1           1
 AtZEff=  -0.0000000  -0.0000000  -0.0000000  -0.0000000  -0.0000000  -0.0000000  -0.0000000  -0.0000000  -0.0000000  -0.0000000
 NQMom=    0.0000000   0.0000000   0.0000000   0.0000000   0.0000000   0.0000000   0.0000000   0.0000000   0.0000000   0.0000000
 NMagM=    2.7928460   2.7928460   2.7928460   2.7928460   2.7928460   2.7928460   2.7928460   2.7928460   2.7928460   2.7928460
 AtZNuc=   1.0000000   1.0000000   1.0000000   1.0000000   1.0000000   1.0000000   1.0000000   1.0000000   1.0000000   1.0000000

  Atom       131         132         133         134         135         136         137         138         139         140
 IAtWgt=           1           1           1           1           1           1           1           1           1           1
 AtmWgt=   1.0078250   1.0078250   1.0078250   1.0078250   1.0078250   1.0078250   1.0078250   1.0078250   1.0078250   1.0078250
 NucSpn=           1           1           1           1           1           1           1           1           1           1
 AtZEff=  -0.0000000  -0.0000000  -0.0000000  -0.0000000  -0.0000000  -0.0000000  -0.0000000  -0.0000000  -0.0000000  -0.0000000
 NQMom=    0.0000000   0.0000000   0.0000000   0.0000000   0.0000000   0.0000000   0.0000000   0.0000000   0.0000000   0.0000000
 NMagM=    2.7928460   2.7928460   2.7928460   2.7928460   2.7928460   2.7928460   2.7928460   2.7928460   2.7928460   2.7928460
 AtZNuc=   1.0000000   1.0000000   1.0000000   1.0000000   1.0000000   1.0000000   1.0000000   1.0000000   1.0000000   1.0000000
 Leave Link  101 at Wed May  4 17:16:04 2022, MaxMem= 10066329600 cpu:               2.8 elap:               0.1
 (Enter /sw/apps/gaussian-16.0/g16/l202.exe)
 Stoichiometry    C55H74MgN4O6
 Framework group  C1[X(C55H74MgN4O6)]
 Deg. of freedom   414
 Full point group                 C1      NOp   1
 Largest Abelian subgroup         C1      NOp   1
 Largest concise Abelian subgroup C1      NOp   1
                         Standard orientation:                         
 ---------------------------------------------------------------------
 Center     Atomic      Atomic             Coordinates (Angstroms)
 Number     Number       Type             X           Y           Z
 ---------------------------------------------------------------------
      1         12           0       -5.392925   -0.446499   -0.495698
      2          6           0       -3.882512    2.715979   -0.121058
      3          6           0       -3.028392   -1.216215   -2.862536
      4          6           0       -6.418533   -3.649245   -0.302405
      5          6           0       -7.005006    0.262221    2.679123
      6          7           0       -3.649908    0.616141   -1.291914
      7          6           0       -3.281090    1.895744   -1.075990
      8          6           0       -2.047097    2.269978   -1.845412
      9          6           0       -1.904447    1.084969   -2.864604
     10          6           0       -2.920419    0.090155   -2.303850
     11          6           0       -1.902991    1.417519   -4.423266
     12          6           0       -0.745466    2.563549   -1.015720
     13          6           0        0.085010    3.830301   -1.468972
     14          6           0        1.557608    3.664627   -1.584210
     15          8           0        2.218661    4.059219   -2.539359
     16          8           0        2.148093    2.961697   -0.523502
     17          7           0       -4.849211   -2.177889   -1.480492
     18          6           0       -3.902799   -2.226224   -2.498971
     19          6           0       -3.848014   -3.568188   -2.972780
     20          6           0       -4.823511   -4.298036   -2.338971
     21          6           0       -5.437846   -3.456702   -1.293297
     22          6           0       -2.780912   -4.022439   -3.928267
     23          6           0       -5.025005   -5.808128   -2.535116
     24          8           0       -4.587361   -6.414179   -3.459842
     25          6           0       -5.908928   -6.573836   -1.753512
     26          7           0       -6.543045   -1.490026    0.949814
     27          6           0       -6.932791   -2.816304    0.706025
     28          6           0       -7.842748   -3.362342    1.823604
     29          6           0       -7.634059   -2.229348    2.915602
     30          6           0       -7.164874   -1.049516    2.120747
     31          6           0       -9.326201   -3.742778    1.430302
     32          6           0       -6.673818   -2.679852    4.006615
     33          6           0       -7.158623   -2.877861    5.438207
     34          7           0       -5.594906    1.196635    0.913985
     35          6           0       -6.292702    1.364620    2.084775
     36          6           0       -6.191769    2.716508    2.523909
     37          6           0       -5.218960    3.328446    1.769507
     38          6           0       -4.903752    2.344852    0.766445
     39          6           0       -6.831839    3.290034    3.747607
     40          6           0       -4.400751    4.513669    1.496489
     41          8           0       -4.263973    5.579489    2.080217
     42          6           0       -3.475603    4.131640    0.304893
     43          6           0       -3.626141    5.100414   -0.788289
     44          8           0       -2.668052    5.646308   -1.327484
     45          8           0       -4.979738    5.351332   -1.031154
     46          6           0       -5.151744    6.746144   -1.686359
     47          6           0        3.424902    2.346181   -0.745219
     48          6           0        3.525419    1.050217   -0.026512
     49          6           0        4.561137    0.361253    0.579850
     50          6           0        6.000416    0.767436    0.510689
     51          6           0        4.347568   -1.091490    1.098306
     52          6           0        5.112642   -2.144773    0.349711
     53          6           0        5.989768   -3.020611    1.288234
     54          6           0        7.507981   -2.982044    1.122731
     55          6           0        8.135294   -4.386209    0.970292
     56          6           0        8.177156   -2.281994    2.363957
     57          6           0        9.628990   -1.837450    2.050606
     58          6           0        9.699759   -0.256627    2.180986
     59          6           0       10.591875    0.392652    1.080404
     60          6           0        9.804619    1.524027    0.265693
     61          6           0       11.933378    0.841266    1.733558
     62          6           0       13.089193   -0.146587    1.462068
     63          6           0       13.776917    0.335025    0.155365
     64          6           0       14.346525   -0.758649   -0.779054
     65          6           0       15.822392   -1.073008   -0.307722
     66          6           0       14.491500   -0.232072   -2.233171
     67          1           0       -2.270180   -1.460237   -3.609646
     68          1           0       -7.019251   -4.558306   -0.375052
     69          1           0       -7.382241    0.355275    3.699306
     70          1           0       -2.209113    3.180552   -2.422032
     71          1           0       -0.945225    0.605940   -2.668254
     72          1           0       -2.279823    0.537649   -4.944016
     73          1           0       -0.844079    1.445924   -4.679101
     74          1           0       -2.440082    2.351451   -4.590056
     75          1           0       -0.091328    1.717260   -1.225015
     76          1           0       -0.943400    2.665311    0.051582
     77          1           0       -0.065696    4.556221   -0.670039
     78          1           0       -0.343515    4.231021   -2.387993
     79          1           0       -3.164003   -4.375514   -4.886211
     80          1           0       -2.334008   -4.963958   -3.609612
     81          1           0       -1.952569   -3.367188   -4.196824
     82          1           0       -6.939269   -6.239765   -1.871506
     83          1           0       -5.534103   -6.533412   -0.731078
     84          1           0       -5.897031   -7.580080   -2.171627
     85          1           0       -7.369842   -4.270331    2.198345
     86          1           0       -8.589390   -1.968245    3.372637
     87          1           0       -9.482551   -4.821798    1.406777
     88          1           0       -9.617276   -3.373341    0.446735
     89          1           0       -9.941892   -3.349355    2.238743
     90          1           0       -5.797560   -2.033343    4.014548
     91          1           0       -6.242579   -3.661497    3.810769
     92          1           0       -7.958814   -2.150411    5.575565
     93          1           0       -6.384846   -2.582663    6.147724
     94          1           0       -7.618051   -3.859410    5.550216
     95          1           0       -6.067132    3.600569    4.458990
     96          1           0       -7.517648    2.551550    4.161717
     97          1           0       -7.338808    4.168037    3.348157
     98          1           0       -2.457305    4.219001    0.681342
     99          1           0       -4.580833    7.506960   -1.153550
    100          1           0       -6.199551    7.045904   -1.654341
    101          1           0       -4.865002    6.718049   -2.737191
    102          1           0        3.962635    3.152296   -0.246575
    103          1           0        3.811743    2.188022   -1.752169
    104          1           0        2.566697    0.616843    0.257748
    105          1           0        6.144696    1.573407   -0.208661
    106          1           0        6.751441    0.054465    0.170642
    107          1           0        6.356055    1.160699    1.462523
    108          1           0        3.289283   -1.351875    1.087513
    109          1           0        4.589153   -1.291731    2.142474
    110          1           0        5.733769   -1.697924   -0.426195
    111          1           0        4.441923   -2.787595   -0.219613
    112          1           0        5.635606   -4.010082    0.997281
    113          1           0        5.767480   -2.882344    2.345985
    114          1           0        7.786499   -2.600779    0.140992
    115          1           0        7.420838   -5.202095    1.080586
    116          1           0        8.929539   -4.650002    1.669710
    117          1           0        8.462053   -4.613596   -0.044816
    118          1           0        8.118181   -2.999098    3.182926
    119          1           0        7.486286   -1.520450    2.724744
    120          1           0        9.924632   -2.101778    1.035118
    121          1           0       10.276324   -2.390182    2.731214
    122          1           0        9.921748   -0.070663    3.231506
    123          1           0        8.730459    0.241000    2.152084
    124          1           0       10.811716   -0.320489    0.285837
    125          1           0        9.563917    2.447285    0.792802
    126          1           0        8.836329    1.105979   -0.009689
    127          1           0       10.240436    1.768323   -0.703380
    128          1           0       11.848287    1.073646    2.794570
    129          1           0       12.152685    1.804956    1.272933
    130          1           0       12.693074   -1.113816    1.155179
    131          1           0       13.793988   -0.398727    2.253615
    132          1           0       14.590333    0.929682    0.568740
    133          1           0       13.188085    1.042219   -0.428414
    134          1           0       13.843222   -1.699463   -0.554859
    135          1           0       16.290179   -0.238678    0.215468
    136          1           0       16.368199   -1.323067   -1.216826
    137          1           0       15.796954   -1.960906    0.322939
    138          1           0       13.479136   -0.413667   -2.592926
    139          1           0       15.167466   -0.770187   -2.898489
    140          1           0       14.622253    0.850199   -2.261145
 ---------------------------------------------------------------------
 Rotational constants (GHZ):           0.0389065           0.0107543           0.0096652
 Leave Link  202 at Wed May  4 17:16:04 2022, MaxMem= 10066329600 cpu:               0.2 elap:               0.0
 (Enter /sw/apps/gaussian-16.0/g16/l301.exe)
 Standard basis: def2SVP (5D, 7F)
 Ernie: Thresh=  0.10000D-02 Tol=  0.10000D-05 Strict=F.
 There are  1364 symmetry adapted cartesian basis functions of A   symmetry.
 There are  1298 symmetry adapted basis functions of A   symmetry.
  1298 basis functions,  2180 primitive gaussians,  1364 cartesian basis functions
   246 alpha electrons      246 beta electrons
       nuclear repulsion energy      9602.0357225956 Hartrees.
 IExCor= 4639 DFT=T Ex+Corr=wB97XD ExCW=0 ScaHFX=  1.000000
 ScaDFX=  1.000000  1.000000  1.000000  1.000000 ScalE2=  1.000000  1.000000
 IRadAn=      5 IRanWt=     -1 IRanGd=            0 ICorTp=0 IEmpDi=121
 HFx  wShort=  0.000000 wLong=  0.200000 cFull=  0.222036 cShort=  0.000000 cLong=  0.777964
 DFx  wShort=  0.000000 wLong=  0.200000 cFull=  0.000000 cShort=  0.000000 cLong=  1.000000
 NAtoms=  140 NActive=  140 NUniq=  140 SFac= 1.00D+00 NAtFMM=   60 NAOKFM=T Big=T
 Integral buffers will be    131072 words long.
 Raffenetti 1 integral format.
 Two-electron integral symmetry is turned on.
 R6Disp:  Grimme-D2 Dispersion energy=       -0.1347634996 Hartrees.
 Nuclear repulsion after empirical dispersion term =     9601.9009590960 Hartrees.
 Leave Link  301 at Wed May  4 17:16:04 2022, MaxMem= 10066329600 cpu:               1.3 elap:               0.1
 (Enter /sw/apps/gaussian-16.0/g16/l302.exe)
 NPDir=0 NMtPBC=     1 NCelOv=     1 NCel=       1 NClECP=     1 NCelD=      1
         NCelK=      1 NCelE2=     1 NClLst=     1 CellRange=     0.0.
 One-electron integrals computed using PRISM.
 One-electron integral symmetry used in STVInt
   1 Symmetry operations used in ECPInt.
 ECPInt:  NShTT=  192510 NPrTT=  683786 LenC2=   96045 LenP2D=  209370.
 LDataN:  DoStor=T MaxTD1= 4 Len=   56
 NBasis=  1298 RedAO= T EigKep=  2.62D-04  NBF=  1298
 NBsUse=  1298 1.00D-06 EigRej= -1.00D+00 NBFU=  1298
 Precomputing XC quadrature grid using
 IXCGrd= 4 IRadAn=           5 IRanWt=          -1 IRanGd=           0 AccXCQ= 0.00D+00.
 Generated NRdTot=       0 NPtTot=           0 NUsed=           0 NTot=          32
 NSgBfM=  1108  1108  1108  1108  1108 MxSgAt=   140 MxSgA2=   140.
 Leave Link  302 at Wed May  4 17:16:07 2022, MaxMem= 10066329600 cpu:              79.9 elap:               3.4
 (Enter /sw/apps/gaussian-16.0/g16/l303.exe)
 DipDrv:  MaxL=1.
 Leave Link  303 at Wed May  4 17:16:08 2022, MaxMem= 10066329600 cpu:               6.2 elap:               0.3
 (Enter /sw/apps/gaussian-16.0/g16/l308.exe)
 Leave Link  308 at Wed May  4 17:16:08 2022, MaxMem= 10066329600 cpu:               8.6 elap:               0.4
 (Enter /sw/apps/gaussian-16.0/g16/l401.exe)
 ExpMin= 3.36D-02 ExpMax= 4.95D+03 ExpMxC= 7.45D+02 IAcc=3 IRadAn=         5 AccDes= 0.00D+00
 Harris functional with IExCor= 4639 and IRadAn=       5 diagonalized for initial guess.
 HarFok:  IExCor= 4639 AccDes= 0.00D+00 IRadAn=         5 IDoV= 1 UseB2=F ITyADJ=14
 ICtDFT=  3500011 ScaDFX=  1.000000  1.000000  1.000000  1.000000
 FoFCou: FMM=F IPFlag=           0 FMFlag=      100000 FMFlg1=        2001
         NFxFlg=           0 DoJE=T BraDBF=F KetDBF=T FulRan=T
         wScrn=  0.000000 ICntrl=       500 IOpCl=  0 I1Cent=   200000004 NGrid=           0
         NMat0=    1 NMatS0=      1 NMatT0=    0 NMatD0=    1 NMtDS0=    0 NMtDT0=    0
 Petite list used in FoFCou.
 Harris En= -2877.97514689418    
 JPrj=0 DoOrth=F DoCkMO=F.
 Leave Link  401 at Wed May  4 17:16:14 2022, MaxMem= 10066329600 cpu:             134.8 elap:               5.7
 (Enter /sw/apps/gaussian-16.0/g16/l502.exe)
 Integral symmetry usage will be decided dynamically.
 Closed shell SCF:
 Using DIIS extrapolation, IDIIS=  1040.
 NGot= 10066329600 LenX= 10062561258 LenY= 10060699398
 Requested convergence on RMS density matrix=1.00D-08 within 128 cycles.
 Requested convergence on MAX density matrix=1.00D-06.
 Requested convergence on             energy=1.00D-06.
 No special actions if energy rises.
 Fock matrices will be formed incrementally for  20 cycles.

 Cycle   1  Pass 1  IDiag  1:
 FoFJK:  IHMeth= 1 ICntrl=       0 DoSepK=T KAlg= 0 I1Cent=           0 FoldK=F
 IRaf=         1 NMat=       1 IRICut=       1 DoRegI=T DoRafI=F ISym2E= 0 IDoP0=0 IntGTp=1.
 FoFCou: FMM=T IPFlag=           0 FMFlag=      100000 FMFlg1=        2001
         NFxFlg=           0 DoJE=T BraDBF=F KetDBF=F FulRan=T
         wScrn=  0.000000 ICntrl=       500 IOpCl=  0 I1Cent=           0 NGrid=           0
         NMat0=    1 NMatS0=      1 NMatT0=    0 NMatD0=    1 NMtDS0=    0 NMtDT0=    0
 Symmetry not used in FoFCou.
 FMM levels:  10  Number of levels for PrismC:   9
 E= -3007.16034203353    
 DIIS: error= 2.52D-02 at cycle   1 NSaved=   1.
 NSaved= 1 IEnMin= 1 EnMin= -3007.16034203353     IErMin= 1 ErrMin= 2.52D-02
 ErrMax= 2.52D-02  0.00D+00 EMaxC= 1.00D-01 BMatC= 1.49D+00 BMatP= 1.49D+00
 IDIUse=3 WtCom= 7.48D-01 WtEn= 2.52D-01
 Coeff-Com:  0.100D+01
 Coeff-En:   0.100D+01
 Coeff:      0.100D+01
 Gap=     0.159 Goal=   None    Shift=    0.000
 GapD=    0.159 DampG=1.000 DampE=0.500 DampFc=0.5000 IDamp=-1.
 Damping current iteration by 5.00D-01
 RMSDP=1.53D-03 MaxDP=1.74D-01              OVMax= 1.73D-01

 Cycle   2  Pass 1  IDiag  1:
 RMSU=  7.56D-04    CP:  9.88D-01
 E= -3007.47833728804     Delta-E=       -0.317995254502 Rises=F Damp=T
 DIIS: error= 1.40D-02 at cycle   2 NSaved=   2.
 NSaved= 2 IEnMin= 2 EnMin= -3007.47833728804     IErMin= 2 ErrMin= 1.40D-02
 ErrMax= 1.40D-02  0.00D+00 EMaxC= 1.00D-01 BMatC= 2.89D-01 BMatP= 1.49D+00
 IDIUse=3 WtCom= 8.60D-01 WtEn= 1.40D-01
 Coeff-Com: -0.340D+00 0.134D+01
 Coeff-En:   0.000D+00 0.100D+01
 Coeff:     -0.292D+00 0.129D+01
 Gap=     0.179 Goal=   None    Shift=    0.000
 RMSDP=7.14D-04 MaxDP=1.15D-01 DE=-3.18D-01 OVMax= 1.32D-01

 Cycle   3  Pass 1  IDiag  1:
 RMSU=  6.83D-04    CP:  9.79D-01  1.26D+00
 E= -3007.71293798233     Delta-E=       -0.234600694293 Rises=F Damp=F
 DIIS: error= 1.53D-02 at cycle   3 NSaved=   3.
 NSaved= 3 IEnMin= 3 EnMin= -3007.71293798233     IErMin= 2 ErrMin= 1.40D-02
 ErrMax= 1.53D-02  0.00D+00 EMaxC= 1.00D-01 BMatC= 1.40D-01 BMatP= 2.89D-01
 IDIUse=3 WtCom= 8.47D-01 WtEn= 1.53D-01
 Coeff-Com: -0.308D+00 0.682D+00 0.627D+00
 Coeff-En:   0.000D+00 0.000D+00 0.100D+01
 Coeff:     -0.261D+00 0.577D+00 0.684D+00
 Gap=     0.162 Goal=   None    Shift=    0.000
 RMSDP=4.39D-04 MaxDP=4.84D-02 DE=-2.35D-01 OVMax= 7.81D-02

 Cycle   4  Pass 1  IDiag  1:
 RMSU=  2.12D-04    CP:  9.76D-01  1.59D+00  5.74D-01
 E= -3007.81539442387     Delta-E=       -0.102456441542 Rises=F Damp=F
 DIIS: error= 5.54D-03 at cycle   4 NSaved=   4.
 NSaved= 4 IEnMin= 4 EnMin= -3007.81539442387     IErMin= 4 ErrMin= 5.54D-03
 ErrMax= 5.54D-03  0.00D+00 EMaxC= 1.00D-01 BMatC= 2.17D-02 BMatP= 1.40D-01
 IDIUse=3 WtCom= 9.45D-01 WtEn= 5.54D-02
 Coeff-Com: -0.110D+00 0.220D+00 0.373D+00 0.517D+00
 Coeff-En:   0.000D+00 0.000D+00 0.105D+00 0.895D+00
 Coeff:     -0.104D+00 0.208D+00 0.358D+00 0.538D+00
 Gap=     0.160 Goal=   None    Shift=    0.000
 RMSDP=1.29D-04 MaxDP=1.49D-02 DE=-1.02D-01 OVMax= 1.95D-02

 Cycle   5  Pass 1  IDiag  1:
 RMSU=  5.81D-05    CP:  9.76D-01  1.54D+00  7.03D-01  6.99D-01
 E= -3007.83297639039     Delta-E=       -0.017581966524 Rises=F Damp=F
 DIIS: error= 7.00D-04 at cycle   5 NSaved=   5.
 NSaved= 5 IEnMin= 5 EnMin= -3007.83297639039     IErMin= 5 ErrMin= 7.00D-04
 ErrMax= 7.00D-04  0.00D+00 EMaxC= 1.00D-01 BMatC= 4.18D-04 BMatP= 2.17D-02
 IDIUse=3 WtCom= 9.93D-01 WtEn= 7.00D-03
 Coeff-Com: -0.263D-01 0.498D-01 0.117D+00 0.228D+00 0.631D+00
 Coeff-En:   0.000D+00 0.000D+00 0.000D+00 0.000D+00 0.100D+01
 Coeff:     -0.261D-01 0.494D-01 0.117D+00 0.226D+00 0.634D+00
 Gap=     0.160 Goal=   None    Shift=    0.000
 RMSDP=2.33D-05 MaxDP=3.61D-03 DE=-1.76D-02 OVMax= 7.17D-03

 Cycle   6  Pass 1  IDiag  1:
 RMSU=  2.05D-05    CP:  9.76D-01  1.55D+00  7.06D-01  7.38D-01  8.94D-01
 E= -3007.83330463582     Delta-E=       -0.000328245427 Rises=F Damp=F
 DIIS: error= 3.43D-04 at cycle   6 NSaved=   6.
 NSaved= 6 IEnMin= 6 EnMin= -3007.83330463582     IErMin= 6 ErrMin= 3.43D-04
 ErrMax= 3.43D-04  0.00D+00 EMaxC= 1.00D-01 BMatC= 7.96D-05 BMatP= 4.18D-04
 IDIUse=3 WtCom= 9.97D-01 WtEn= 3.43D-03
 Coeff-Com:  0.896D-02-0.195D-01-0.143D-01 0.511D-02 0.318D+00 0.701D+00
 Coeff-En:   0.000D+00 0.000D+00 0.000D+00 0.000D+00 0.209D-01 0.979D+00
 Coeff:      0.893D-02-0.194D-01-0.143D-01 0.509D-02 0.317D+00 0.702D+00
 Gap=     0.160 Goal=   None    Shift=    0.000
 RMSDP=1.37D-05 MaxDP=3.75D-03 DE=-3.28D-04 OVMax= 3.29D-03

 Cycle   7  Pass 1  IDiag  1:
 RMSU=  9.44D-06    CP:  9.76D-01  1.55D+00  7.12D-01  7.59D-01  1.02D+00
                    CP:  8.71D-01
 E= -3007.83339155512     Delta-E=       -0.000086919297 Rises=F Damp=F
 DIIS: error= 7.74D-05 at cycle   7 NSaved=   7.
 NSaved= 7 IEnMin= 7 EnMin= -3007.83339155512     IErMin= 7 ErrMin= 7.74D-05
 ErrMax= 7.74D-05  0.00D+00 EMaxC= 1.00D-01 BMatC= 8.11D-06 BMatP= 7.96D-05
 IDIUse=1 WtCom= 1.00D+00 WtEn= 0.00D+00
 Coeff-Com:  0.654D-02-0.133D-01-0.174D-01-0.216D-01 0.754D-01 0.300D+00
 Coeff-Com:  0.670D+00
 Coeff:      0.654D-02-0.133D-01-0.174D-01-0.216D-01 0.754D-01 0.300D+00
 Coeff:      0.670D+00
 Gap=     0.160 Goal=   None    Shift=    0.000
 RMSDP=4.97D-06 MaxDP=4.32D-04 DE=-8.69D-05 OVMax= 2.37D-03

 Cycle   8  Pass 1  IDiag  1:
 RMSU=  3.76D-06    CP:  9.76D-01  1.55D+00  7.13D-01  7.62D-01  1.04D+00
                    CP:  1.00D+00  9.32D-01
 E= -3007.83340513812     Delta-E=       -0.000013583001 Rises=F Damp=F
 DIIS: error= 3.79D-05 at cycle   8 NSaved=   8.
 NSaved= 8 IEnMin= 8 EnMin= -3007.83340513812     IErMin= 8 ErrMin= 3.79D-05
 ErrMax= 3.79D-05  0.00D+00 EMaxC= 1.00D-01 BMatC= 2.40D-06 BMatP= 8.11D-06
 IDIUse=1 WtCom= 1.00D+00 WtEn= 0.00D+00
 Coeff-Com:  0.166D-02-0.310D-02-0.642D-02-0.136D-01-0.262D-01 0.375D-02
 Coeff-Com:  0.362D+00 0.682D+00
 Coeff:      0.166D-02-0.310D-02-0.642D-02-0.136D-01-0.262D-01 0.375D-02
 Coeff:      0.362D+00 0.682D+00
 Gap=     0.160 Goal=   None    Shift=    0.000
 RMSDP=3.13D-06 MaxDP=5.65D-04 DE=-1.36D-05 OVMax= 1.45D-03

 Cycle   9  Pass 1  IDiag  1:
 RMSU=  1.84D-06    CP:  9.76D-01  1.55D+00  7.14D-01  7.64D-01  1.06D+00
                    CP:  1.03D+00  1.15D+00  1.12D+00
 E= -3007.83341080880     Delta-E=       -0.000005670678 Rises=F Damp=F
 DIIS: error= 1.65D-05 at cycle   9 NSaved=   9.
 NSaved= 9 IEnMin= 9 EnMin= -3007.83341080880     IErMin= 9 ErrMin= 1.65D-05
 ErrMax= 1.65D-05  0.00D+00 EMaxC= 1.00D-01 BMatC= 3.48D-07 BMatP= 2.40D-06
 IDIUse=1 WtCom= 1.00D+00 WtEn= 0.00D+00
 Coeff-Com: -0.789D-03 0.167D-02 0.150D-02-0.741D-04-0.204D-01-0.646D-01
 Coeff-Com:  0.350D-02 0.176D+00 0.904D+00
 Coeff:     -0.789D-03 0.167D-02 0.150D-02-0.741D-04-0.204D-01-0.646D-01
 Coeff:      0.350D-02 0.176D+00 0.904D+00
 Gap=     0.160 Goal=   None    Shift=    0.000
 RMSDP=2.14D-06 MaxDP=1.03D-04 DE=-5.67D-06 OVMax= 1.46D-03

 Cycle  10  Pass 1  IDiag  1:
 RMSU=  1.01D-06    CP:  9.76D-01  1.55D+00  7.14D-01  7.65D-01  1.06D+00
                    CP:  1.06D+00  1.24D+00  1.46D+00  1.48D+00
 E= -3007.83341339389     Delta-E=       -0.000002585093 Rises=F Damp=F
 DIIS: error= 1.24D-05 at cycle  10 NSaved=  10.
 NSaved=10 IEnMin=10 EnMin= -3007.83341339389     IErMin=10 ErrMin= 1.24D-05
 ErrMax= 1.24D-05  0.00D+00 EMaxC= 1.00D-01 BMatC= 1.78D-07 BMatP= 3.48D-07
 IDIUse=1 WtCom= 1.00D+00 WtEn= 0.00D+00
 Coeff-Com: -0.893D-03 0.174D-02 0.279D-02 0.469D-02 0.309D-02-0.319D-01
 Coeff-Com: -0.115D+00-0.203D+00 0.386D+00 0.952D+00
 Coeff:     -0.893D-03 0.174D-02 0.279D-02 0.469D-02 0.309D-02-0.319D-01
 Coeff:     -0.115D+00-0.203D+00 0.386D+00 0.952D+00
 Gap=     0.160 Goal=   None    Shift=    0.000
 RMSDP=2.01D-06 MaxDP=9.52D-05 DE=-2.59D-06 OVMax= 1.37D-03

 Cycle  11  Pass 1  IDiag  1:
 RMSU=  5.68D-07    CP:  9.76D-01  1.55D+00  7.14D-01  7.65D-01  1.07D+00
                    CP:  1.08D+00  1.33D+00  1.73D+00  2.14D+00  1.66D+00
 E= -3007.83341499963     Delta-E=       -0.000001605738 Rises=F Damp=F
 DIIS: error= 6.94D-06 at cycle  11 NSaved=  11.
 NSaved=11 IEnMin=11 EnMin= -3007.83341499963     IErMin=11 ErrMin= 6.94D-06
 ErrMax= 6.94D-06  0.00D+00 EMaxC= 1.00D-01 BMatC= 6.12D-08 BMatP= 1.78D-07
 IDIUse=1 WtCom= 1.00D+00 WtEn= 0.00D+00
 Coeff-Com: -0.112D-03 0.183D-03 0.660D-03 0.216D-02 0.948D-02 0.676D-02
 Coeff-Com: -0.450D-01-0.160D+00-0.124D+00 0.360D+00 0.950D+00
 Coeff:     -0.112D-03 0.183D-03 0.660D-03 0.216D-02 0.948D-02 0.676D-02
 Coeff:     -0.450D-01-0.160D+00-0.124D+00 0.360D+00 0.950D+00
 Gap=     0.160 Goal=   None    Shift=    0.000
 RMSDP=1.47D-06 MaxDP=1.03D-04 DE=-1.61D-06 OVMax= 1.04D-03

 Cycle  12  Pass 1  IDiag  1:
 RMSU=  3.36D-07    CP:  9.76D-01  1.55D+00  7.14D-01  7.65D-01  1.07D+00
                    CP:  1.08D+00  1.36D+00  1.92D+00  2.58D+00  2.40D+00
                    CP:  1.56D+00
 E= -3007.83341571403     Delta-E=       -0.000000714401 Rises=F Damp=F
 DIIS: error= 3.95D-06 at cycle  12 NSaved=  12.
 NSaved=12 IEnMin=12 EnMin= -3007.83341571403     IErMin=12 ErrMin= 3.95D-06
 ErrMax= 3.95D-06  0.00D+00 EMaxC= 1.00D-01 BMatC= 2.21D-08 BMatP= 6.12D-08
 IDIUse=1 WtCom= 1.00D+00 WtEn= 0.00D+00
 Coeff-Com:  0.382D-03-0.761D-03-0.113D-02-0.141D-02 0.181D-02 0.160D-01
 Coeff-Com:  0.425D-01 0.465D-01-0.206D+00-0.411D+00 0.308D+00 0.120D+01
 Coeff:      0.382D-03-0.761D-03-0.113D-02-0.141D-02 0.181D-02 0.160D-01
 Coeff:      0.425D-01 0.465D-01-0.206D+00-0.411D+00 0.308D+00 0.120D+01
 Gap=     0.160 Goal=   None    Shift=    0.000
 RMSDP=1.36D-06 MaxDP=9.09D-05 DE=-7.14D-07 OVMax= 9.63D-04

 Cycle  13  Pass 1  IDiag  1:
 RMSU=  2.33D-07    CP:  9.76D-01  1.55D+00  7.14D-01  7.65D-01  1.07D+00
                    CP:  1.09D+00  1.39D+00  2.08D+00  2.98D+00  3.00D+00
                    CP:  2.42D+00  1.73D+00
 E= -3007.83341604352     Delta-E=       -0.000000329484 Rises=F Damp=F
 DIIS: error= 2.01D-06 at cycle  13 NSaved=  13.
 NSaved=13 IEnMin=13 EnMin= -3007.83341604352     IErMin=13 ErrMin= 2.01D-06
 ErrMax= 2.01D-06  0.00D+00 EMaxC= 1.00D-01 BMatC= 6.11D-09 BMatP= 2.21D-08
 IDIUse=1 WtCom= 1.00D+00 WtEn= 0.00D+00
 Coeff-Com:  0.207D-03-0.404D-03-0.709D-03-0.121D-02-0.172D-02 0.495D-02
 Coeff-Com:  0.313D-01 0.670D-01-0.504D-01-0.294D+00-0.137D+00 0.566D+00
 Coeff-Com:  0.816D+00
 Coeff:      0.207D-03-0.404D-03-0.709D-03-0.121D-02-0.172D-02 0.495D-02
 Coeff:      0.313D-01 0.670D-01-0.504D-01-0.294D+00-0.137D+00 0.566D+00
 Coeff:      0.816D+00
 Gap=     0.160 Goal=   None    Shift=    0.000
 RMSDP=5.20D-07 MaxDP=4.74D-05 DE=-3.29D-07 OVMax= 3.66D-04

 Cycle  14  Pass 1  IDiag  1:
 RMSU=  3.17D-07    CP:  9.76D-01  1.55D+00  7.14D-01  7.65D-01  1.07D+00
                    CP:  1.09D+00  1.40D+00  2.13D+00  3.00D+00  3.00D+00
                    CP:  2.80D+00  2.19D+00  1.79D+00
 E= -3007.83341608851     Delta-E=       -0.000000044993 Rises=F Damp=F
 DIIS: error= 6.71D-07 at cycle  14 NSaved=  14.
 NSaved=14 IEnMin=14 EnMin= -3007.83341608851     IErMin=14 ErrMin= 6.71D-07
 ErrMax= 6.71D-07  0.00D+00 EMaxC= 1.00D-01 BMatC= 8.45D-10 BMatP= 6.11D-09
 IDIUse=1 WtCom= 1.00D+00 WtEn= 0.00D+00
 Coeff-Com:  0.244D-05-0.838D-06-0.418D-04-0.154D-03-0.897D-03-0.143D-02
 Coeff-Com:  0.259D-02 0.152D-01 0.217D-01-0.292D-01-0.108D+00-0.160D-01
 Coeff-Com:  0.266D+00 0.850D+00
 Coeff:      0.244D-05-0.838D-06-0.418D-04-0.154D-03-0.897D-03-0.143D-02
 Coeff:      0.259D-02 0.152D-01 0.217D-01-0.292D-01-0.108D+00-0.160D-01
 Coeff:      0.266D+00 0.850D+00
 Gap=     0.160 Goal=   None    Shift=    0.000
 RMSDP=1.55D-07 MaxDP=2.02D-05 DE=-4.50D-08 OVMax= 1.03D-04

 Cycle  15  Pass 1  IDiag  1:
 RMSU=  4.19D-08    CP:  9.76D-01  1.55D+00  7.14D-01  7.65D-01  1.07D+00
                    CP:  1.09D+00  1.40D+00  2.15D+00  3.00D+00  3.00D+00
                    CP:  2.90D+00  2.37D+00  2.14D+00  1.23D+00
 E= -3007.83341609334     Delta-E=       -0.000000004837 Rises=F Damp=F
 DIIS: error= 3.98D-07 at cycle  15 NSaved=  15.
 NSaved=15 IEnMin=15 EnMin= -3007.83341609334     IErMin=15 ErrMin= 3.98D-07
 ErrMax= 3.98D-07  0.00D+00 EMaxC= 1.00D-01 BMatC= 2.72D-10 BMatP= 8.45D-10
 IDIUse=1 WtCom= 1.00D+00 WtEn= 0.00D+00
 Coeff-Com: -0.476D-04 0.948D-04 0.146D-03 0.206D-03-0.173D-04-0.188D-02
 Coeff-Com: -0.613D-02-0.853D-02 0.213D-01 0.526D-01-0.147D-01-0.127D+00
 Coeff-Com: -0.768D-01 0.399D+00 0.762D+00
 Coeff:     -0.476D-04 0.948D-04 0.146D-03 0.206D-03-0.173D-04-0.188D-02
 Coeff:     -0.613D-02-0.853D-02 0.213D-01 0.526D-01-0.147D-01-0.127D+00
 Coeff:     -0.768D-01 0.399D+00 0.762D+00
 Gap=     0.160 Goal=   None    Shift=    0.000
 RMSDP=5.15D-08 MaxDP=4.77D-06 DE=-4.84D-09 OVMax= 3.26D-05

 Cycle  16  Pass 1  IDiag  1:
 RMSU=  2.99D-08    CP:  9.76D-01  1.55D+00  7.14D-01  7.65D-01  1.07D+00
                    CP:  1.09D+00  1.40D+00  2.15D+00  3.00D+00  3.00D+00
                    CP:  2.93D+00  2.43D+00  2.25D+00  1.28D+00  1.19D+00
 E= -3007.83341609423     Delta-E=       -0.000000000884 Rises=F Damp=F
 DIIS: error= 1.49D-07 at cycle  16 NSaved=  16.
 NSaved=16 IEnMin=16 EnMin= -3007.83341609423     IErMin=16 ErrMin= 1.49D-07
 ErrMax= 1.49D-07  0.00D+00 EMaxC= 1.00D-01 BMatC= 5.41D-11 BMatP= 2.72D-10
 IDIUse=1 WtCom= 1.00D+00 WtEn= 0.00D+00
 Coeff-Com: -0.168D-04 0.326D-04 0.580D-04 0.939D-04 0.172D-03-0.389D-03
 Coeff-Com: -0.258D-02-0.571D-02 0.428D-02 0.234D-01 0.127D-01-0.416D-01
 Coeff-Com: -0.832D-01-0.196D-01 0.273D+00 0.839D+00
 Coeff:     -0.168D-04 0.326D-04 0.580D-04 0.939D-04 0.172D-03-0.389D-03
 Coeff:     -0.258D-02-0.571D-02 0.428D-02 0.234D-01 0.127D-01-0.416D-01
 Coeff:     -0.832D-01-0.196D-01 0.273D+00 0.839D+00
 Gap=     0.160 Goal=   None    Shift=    0.000
 RMSDP=2.97D-08 MaxDP=3.48D-06 DE=-8.84D-10 OVMax= 1.74D-05

 Cycle  17  Pass 1  IDiag  1:
 RMSU=  1.13D-08    CP:  9.76D-01  1.55D+00  7.14D-01  7.65D-01  1.07D+00
                    CP:  1.09D+00  1.40D+00  2.15D+00  3.00D+00  3.00D+00
                    CP:  2.94D+00  2.46D+00  2.30D+00  1.31D+00  1.49D+00
                    CP:  1.47D+00
 E= -3007.83341609448     Delta-E=       -0.000000000249 Rises=F Damp=F
 DIIS: error= 1.11D-07 at cycle  17 NSaved=  17.
 NSaved=17 IEnMin=17 EnMin= -3007.83341609448     IErMin=17 ErrMin= 1.11D-07
 ErrMax= 1.11D-07  0.00D+00 EMaxC= 1.00D-01 BMatC= 1.62D-11 BMatP= 5.41D-11
 IDIUse=1 WtCom= 1.00D+00 WtEn= 0.00D+00
 Coeff-Com:  0.877D-05-0.177D-04-0.260D-04-0.356D-04 0.734D-04 0.441D-03
 Coeff-Com:  0.103D-02 0.778D-03-0.507D-02-0.926D-02 0.849D-02 0.291D-01
 Coeff-Com: -0.459D-02-0.125D+00-0.131D+00 0.231D+00 0.100D+01
 Coeff:      0.877D-05-0.177D-04-0.260D-04-0.356D-04 0.734D-04 0.441D-03
 Coeff:      0.103D-02 0.778D-03-0.507D-02-0.926D-02 0.849D-02 0.291D-01
 Coeff:     -0.459D-02-0.125D+00-0.131D+00 0.231D+00 0.100D+01
 Gap=     0.160 Goal=   None    Shift=    0.000
 RMSDP=2.00D-08 MaxDP=1.10D-06 DE=-2.49D-10 OVMax= 1.27D-05

 Cycle  18  Pass 1  IDiag  1:
 RMSU=  6.86D-09    CP:  9.76D-01  1.55D+00  7.14D-01  7.65D-01  1.07D+00
                    CP:  1.09D+00  1.40D+00  2.15D+00  3.00D+00  3.00D+00
                    CP:  2.95D+00  2.46D+00  2.31D+00  1.32D+00  1.73D+00
                    CP:  1.92D+00  1.53D+00
 E= -3007.83341609467     Delta-E=       -0.000000000195 Rises=F Damp=F
 DIIS: error= 6.58D-08 at cycle  18 NSaved=  18.
 NSaved=18 IEnMin=18 EnMin= -3007.83341609467     IErMin=18 ErrMin= 6.58D-08
 ErrMax= 6.58D-08  0.00D+00 EMaxC= 1.00D-01 BMatC= 6.85D-12 BMatP= 1.62D-11
 IDIUse=1 WtCom= 1.00D+00 WtEn= 0.00D+00
 Coeff-Com:  0.995D-05-0.195D-04-0.336D-04-0.519D-04-0.258D-04 0.333D-03
 Coeff-Com:  0.141D-02 0.255D-02-0.369D-02-0.132D-01-0.133D-02 0.293D-01
 Coeff-Com:  0.288D-01-0.488D-01-0.155D+00-0.239D+00 0.450D+00 0.949D+00
 Coeff:      0.995D-05-0.195D-04-0.336D-04-0.519D-04-0.258D-04 0.333D-03
 Coeff:      0.141D-02 0.255D-02-0.369D-02-0.132D-01-0.133D-02 0.293D-01
 Coeff:      0.288D-01-0.488D-01-0.155D+00-0.239D+00 0.450D+00 0.949D+00
 Gap=     0.160 Goal=   None    Shift=    0.000
 RMSDP=1.55D-08 MaxDP=7.40D-07 DE=-1.95D-10 OVMax= 9.53D-06

 Cycle  19  Pass 1  IDiag  1:
 RMSU=  3.86D-09    CP:  9.76D-01  1.55D+00  7.14D-01  7.65D-01  1.07D+00
                    CP:  1.09D+00  1.40D+00  2.15D+00  3.00D+00  3.00D+00
                    CP:  2.95D+00  2.47D+00  2.33D+00  1.33D+00  1.90D+00
                    CP:  2.26D+00  2.13D+00  1.62D+00
 E= -3007.83341609470     Delta-E=       -0.000000000024 Rises=F Damp=F
 DIIS: error= 3.23D-08 at cycle  19 NSaved=  19.
 NSaved=19 IEnMin=19 EnMin= -3007.83341609470     IErMin=19 ErrMin= 3.23D-08
 ErrMax= 3.23D-08  0.00D+00 EMaxC= 1.00D-01 BMatC= 1.75D-12 BMatP= 6.85D-12
 IDIUse=1 WtCom= 1.00D+00 WtEn= 0.00D+00
 Coeff-Com: -0.227D-06 0.624D-06-0.115D-05-0.279D-05-0.343D-04-0.649D-04
 Coeff-Com:  0.290D-04 0.513D-03 0.770D-03-0.968D-03-0.335D-02-0.157D-02
 Coeff-Com:  0.100D-01 0.293D-01 0.628D-02-0.165D+00-0.218D+00 0.305D+00
 Coeff-Com:  0.104D+01
 Coeff:     -0.227D-06 0.624D-06-0.115D-05-0.279D-05-0.343D-04-0.649D-04
 Coeff:      0.290D-04 0.513D-03 0.770D-03-0.968D-03-0.335D-02-0.157D-02
 Coeff:      0.100D-01 0.293D-01 0.628D-02-0.165D+00-0.218D+00 0.305D+00
 Coeff:      0.104D+01
 Gap=     0.160 Goal=   None    Shift=    0.000
 RMSDP=9.28D-09 MaxDP=4.07D-07 DE=-2.36D-11 OVMax= 5.87D-06

 SCF Done:  E(RwB97XD) =  -3007.83341609     A.U. after   19 cycles
            NFock= 19  Conv=0.93D-08     -V/T= 2.0108
 KE= 2.975746681834D+03 PE=-2.619629055200D+04 EE= 1.061080949497D+04
 Leave Link  502 at Wed May  4 17:23:15 2022, MaxMem= 10066329600 cpu:            9641.5 elap:             421.7
 (Enter /sw/apps/gaussian-16.0/g16/l801.exe)
 DoSCS=F DFT=T ScalE2(SS,OS)=  1.000000  1.000000
 ExpMin= 3.36D-02 ExpMax= 4.95D+03 ExpMxC= 7.45D+02 IAcc=3 IRadAn=         5 AccDes= 0.00D+00
 HarFok:  IExCor=  205 AccDes= 0.00D+00 IRadAn=         5 IDoV=-2 UseB2=F ITyADJ=14
 ICtDFT= 12500011 ScaDFX=  1.000000  1.000000  1.000000  1.000000
 GSVD:  LWork=       -5460 too small for GESVD, short by       25550 words or       25550 for optimal perf.
 Largest valence mixing into a core orbital is  1.29D-04
 Largest core mixing into a valence orbital is  5.66D-05
 Range of M.O.s used for correlation:    71  1298
 NBasis=  1298 NAE=   246 NBE=   246 NFC=    70 NFV=     0
 NROrb=   1228 NOA=   176 NOB=   176 NVA=  1052 NVB=  1052
 Leave Link  801 at Wed May  4 17:23:16 2022, MaxMem= 10066329600 cpu:               6.8 elap:               0.3
 (Enter /sw/apps/gaussian-16.0/g16/l914.exe)
 RHF ground state
 Two-electron integrals replicated using symmetry.
 MDV= 10066329600 DFT=T DoStab=F Mixed=T DoRPA=T DoScal=F NonHer=T
 Making orbital integer symmetry assigments:
 Orbital symmetries:
       Occupied  (A) (A) (A) (A) (A) (A) (A) (A) (A) (A) (A) (A)
                 (A) (A) (A) (A) (A) (A) (A) (A) (A) (A) (A) (A)
                 (A) (A) (A) (A) (A) (A) (A) (A) (A) (A) (A) (A)
                 (A) (A) (A) (A) (A) (A) (A) (A) (A) (A) (A) (A)
                 (A) (A) (A) (A) (A) (A) (A) (A) (A) (A) (A) (A)
                 (A) (A) (A) (A) (A) (A) (A) (A) (A) (A) (A) (A)
                 (A) (A) (A) (A) (A) (A) (A) (A) (A) (A) (A) (A)
                 (A) (A) (A) (A) (A) (A) (A) (A) (A) (A) (A) (A)
                 (A) (A) (A) (A) (A) (A) (A) (A) (A) (A) (A) (A)
                 (A) (A) (A) (A) (A) (A) (A) (A) (A) (A) (A) (A)
                 (A) (A) (A) (A) (A) (A) (A) (A) (A) (A) (A) (A)
                 (A) (A) (A) (A) (A) (A) (A) (A) (A) (A) (A) (A)
                 (A) (A) (A) (A) (A) (A) (A) (A) (A) (A) (A) (A)
                 (A) (A) (A) (A) (A) (A) (A) (A) (A) (A) (A) (A)
                 (A) (A) (A) (A) (A) (A) (A) (A) (A) (A) (A) (A)
                 (A) (A) (A) (A) (A) (A) (A) (A) (A) (A) (A) (A)
                 (A) (A) (A) (A) (A) (A) (A) (A) (A) (A) (A) (A)
                 (A) (A) (A) (A) (A) (A) (A) (A) (A) (A) (A) (A)
                 (A) (A) (A) (A) (A) (A) (A) (A) (A) (A) (A) (A)
                 (A) (A) (A) (A) (A) (A) (A) (A) (A) (A) (A) (A)
                 (A) (A) (A) (A) (A) (A)
       Virtual   (A) (A) (A) (A) (A) (A) (A) (A) (A) (A) (A) (A)
                 (A) (A) (A) (A) (A) (A) (A) (A) (A) (A) (A) (A)
                 (A) (A) (A) (A) (A) (A) (A) (A) (A) (A) (A) (A)
                 (A) (A) (A) (A) (A) (A) (A) (A) (A) (A) (A) (A)
                 (A) (A) (A) (A) (A) (A) (A) (A) (A) (A) (A) (A)
                 (A) (A) (A) (A) (A) (A) (A) (A) (A) (A) (A) (A)
                 (A) (A) (A) (A) (A) (A) (A) (A) (A) (A) (A) (A)
                 (A) (A) (A) (A) (A) (A) (A) (A) (A) (A) (A) (A)
                 (A) (A) (A) (A) (A) (A) (A) (A) (A) (A) (A) (A)
                 (A) (A) (A) (A) (A) (A) (A) (A) (A) (A) (A) (A)
                 (A) (A) (A) (A) (A) (A) (A) (A) (A) (A) (A) (A)
                 (A) (A) (A) (A) (A) (A) (A) (A) (A) (A) (A) (A)
                 (A) (A) (A) (A) (A) (A) (A) (A) (A) (A) (A) (A)
                 (A) (A) (A) (A) (A) (A) (A) (A) (A) (A) (A) (A)
                 (A) (A) (A) (A) (A) (A) (A) (A) (A) (A) (A) (A)
                 (A) (A) (A) (A) (A) (A) (A) (A) (A) (A) (A) (A)
                 (A) (A) (A) (A) (A) (A) (A) (A) (A) (A) (A) (A)
                 (A) (A) (A) (A) (A) (A) (A) (A) (A) (A) (A) (A)
                 (A) (A) (A) (A) (A) (A) (A) (A) (A) (A) (A) (A)
                 (A) (A) (A) (A) (A) (A) (A) (A) (A) (A) (A) (A)
                 (A) (A) (A) (A) (A) (A) (A) (A) (A) (A) (A) (A)
                 (A) (A) (A) (A) (A) (A) (A) (A) (A) (A) (A) (A)
                 (A) (A) (A) (A) (A) (A) (A) (A) (A) (A) (A) (A)
                 (A) (A) (A) (A) (A) (A) (A) (A) (A) (A) (A) (A)
                 (A) (A) (A) (A) (A) (A) (A) (A) (A) (A) (A) (A)
                 (A) (A) (A) (A) (A) (A) (A) (A) (A) (A) (A) (A)
                 (A) (A) (A) (A) (A) (A) (A) (A) (A) (A) (A) (A)
                 (A) (A) (A) (A) (A) (A) (A) (A) (A) (A) (A) (A)
                 (A) (A) (A) (A) (A) (A) (A) (A) (A) (A) (A) (A)
                 (A) (A) (A) (A) (A) (A) (A) (A) (A) (A) (A) (A)
                 (A) (A) (A) (A) (A) (A) (A) (A) (A) (A) (A) (A)
                 (A) (A) (A) (A) (A) (A) (A) (A) (A) (A) (A) (A)
                 (A) (A) (A) (A) (A) (A) (A) (A) (A) (A) (A) (A)
                 (A) (A) (A) (A) (A) (A) (A) (A) (A) (A) (A) (A)
                 (A) (A) (A) (A) (A) (A) (A) (A) (A) (A) (A) (A)
                 (A) (A) (A) (A) (A) (A) (A) (A) (A) (A) (A) (A)
                 (A) (A) (A) (A) (A) (A) (A) (A) (A) (A) (A) (A)
                 (A) (A) (A) (A) (A) (A) (A) (A) (A) (A) (A) (A)
                 (A) (A) (A) (A) (A) (A) (A) (A) (A) (A) (A) (A)
                 (A) (A) (A) (A) (A) (A) (A) (A) (A) (A) (A) (A)
                 (A) (A) (A) (A) (A) (A) (A) (A) (A) (A) (A) (A)
                 (A) (A) (A) (A) (A) (A) (A) (A) (A) (A) (A) (A)
                 (A) (A) (A) (A) (A) (A) (A) (A) (A) (A) (A) (A)
                 (A) (A) (A) (A) (A) (A) (A) (A) (A) (A) (A) (A)
                 (A) (A) (A) (A) (A) (A) (A) (A) (A) (A) (A) (A)
                 (A) (A) (A) (A) (A) (A) (A) (A) (A) (A) (A) (A)
                 (A) (A) (A) (A) (A) (A) (A) (A) (A) (A) (A) (A)
                 (A) (A) (A) (A) (A) (A) (A) (A) (A) (A) (A) (A)
                 (A) (A) (A) (A) (A) (A) (A) (A) (A) (A) (A) (A)
                 (A) (A) (A) (A) (A) (A) (A) (A) (A) (A) (A) (A)
                 (A) (A) (A) (A) (A) (A) (A) (A) (A) (A) (A) (A)
                 (A) (A) (A) (A) (A) (A) (A) (A) (A) (A) (A) (A)
                 (A) (A) (A) (A) (A) (A) (A) (A) (A) (A) (A) (A)
                 (A) (A) (A) (A) (A) (A) (A) (A) (A) (A) (A) (A)
                 (A) (A) (A) (A) (A) (A) (A) (A) (A) (A) (A) (A)
                 (A) (A) (A) (A) (A) (A) (A) (A) (A) (A) (A) (A)
                 (A) (A) (A) (A) (A) (A) (A) (A) (A) (A) (A) (A)
                 (A) (A) (A) (A) (A) (A) (A) (A) (A) (A) (A) (A)
                 (A) (A) (A) (A) (A) (A) (A) (A) (A) (A) (A) (A)
                 (A) (A) (A) (A) (A) (A) (A) (A) (A) (A) (A) (A)
                 (A) (A) (A) (A) (A) (A) (A) (A) (A) (A) (A) (A)
                 (A) (A) (A) (A) (A) (A) (A) (A) (A) (A) (A) (A)
                 (A) (A) (A) (A) (A) (A) (A) (A) (A) (A) (A) (A)
                 (A) (A) (A) (A) (A) (A) (A) (A) (A) (A) (A) (A)
                 (A) (A) (A) (A) (A) (A) (A) (A) (A) (A) (A) (A)
                 (A) (A) (A) (A) (A) (A) (A) (A) (A) (A) (A) (A)
                 (A) (A) (A) (A) (A) (A) (A) (A) (A) (A) (A) (A)
                 (A) (A) (A) (A) (A) (A) (A) (A) (A) (A) (A) (A)
                 (A) (A) (A) (A) (A) (A) (A) (A) (A) (A) (A) (A)
                 (A) (A) (A) (A) (A) (A) (A) (A) (A) (A) (A) (A)
                 (A) (A) (A) (A) (A) (A) (A) (A) (A) (A) (A) (A)
                 (A) (A) (A) (A) (A) (A) (A) (A) (A) (A) (A) (A)
                 (A) (A) (A) (A) (A) (A) (A) (A) (A) (A) (A) (A)
                 (A) (A) (A) (A) (A) (A) (A) (A) (A) (A) (A) (A)
                 (A) (A) (A) (A) (A) (A) (A) (A) (A) (A) (A) (A)
                 (A) (A) (A) (A) (A) (A) (A) (A) (A) (A) (A) (A)
                 (A) (A) (A) (A) (A) (A) (A) (A) (A) (A) (A) (A)
                 (A) (A) (A) (A) (A) (A) (A) (A) (A) (A) (A) (A)
                 (A) (A) (A) (A) (A) (A) (A) (A) (A) (A) (A) (A)
                 (A) (A) (A) (A) (A) (A) (A) (A) (A) (A) (A) (A)
                 (A) (A) (A) (A) (A) (A) (A) (A) (A) (A) (A) (A)
                 (A) (A) (A) (A) (A) (A) (A) (A) (A) (A) (A) (A)
                 (A) (A) (A) (A) (A) (A) (A) (A) (A) (A) (A) (A)
                 (A) (A) (A) (A) (A) (A) (A) (A) (A) (A) (A) (A)
                 (A) (A) (A) (A) (A) (A) (A) (A) (A) (A) (A) (A)
                 (A) (A) (A) (A) (A) (A) (A) (A) (A) (A) (A) (A)
                 (A) (A) (A) (A) (A) (A) (A) (A) (A) (A) (A) (A)
                 (A) (A) (A) (A) (A) (A) (A) (A)
    20 initial guesses have been made.
 Convergence on wavefunction:    0.001000000000000
 Davidson Disk Diagonalization:  ConvIn= 1.00D-03 SkipCon=T Conv= 1.00D-03.
 Max sub-space:  2000 roots to seek:    20 dimension of matrix:       370304
 Iteration     1 Dimension    20 NMult     0 NNew     20
 CISAX will form    20 AO SS matrices at one time.
 NMat=    20 NSing=    20 JSym2X= 0.
 FoFJK:  IHMeth= 1 ICntrl=       0 DoSepK=T KAlg= 0 I1Cent=           0 FoldK=F
 IRaf=         1 NMat=      40 IRICut=       1 DoRegI=T DoRafI=F ISym2E= 0 IDoP0=3 IntGTp=3.
 FoFCou: FMM=T IPFlag=           0 FMFlag=      100000 FMFlg1=        2001
         NFxFlg=           0 DoJE=F BraDBF=F KetDBF=F FulRan=T
         wScrn=  0.000000 ICntrl=       500 IOpCl=  0 I1Cent=           0 NGrid=           0
         NMat0=   20 NMatS0=     20 NMatT0=    0 NMatD0=   20 NMtDS0=    0 NMtDT0=    0
 Symmetry not used in FoFCou.
 FMM levels:  10  Number of levels for PrismC:   9
 New state      3 was old state      5
 New state      4 was old state      7
 New state      5 was old state     14
 Excitation Energies [eV] at current iteration:
 Root      1 :     2.204131875434876
 Root      2 :     2.609692873327484
 Root      3 :     3.803509375834591
 Root      4 :     3.987900498436669
 Root      5 :     4.289490562839003
 Root      6 :     4.315123224875659
 Root      7 :     4.352188774952450
 Root      8 :     4.382825227420420
 Root      9 :     4.561339582764809
 Root     10 :     4.722958812919718
 Root     11 :     4.879831368410393
 Root     12 :     5.047729066026482
 Root     13 :     5.096035015801197
 Root     14 :     5.210868761264122
 Root     15 :     5.213316412984119
 Root     16 :     5.369707501335187
 Root     17 :     5.494127533354614
 Root     18 :     5.960864182923840
 Root     19 :     6.479550112982817
 Root     20 :     7.170334392041600
 Iteration     2 Dimension    30 NMult    20 NNew     10
 CISAX will form    10 AO SS matrices at one time.
 NMat=    10 NSing=    10 JSym2X= 0.
 Root      1 not converged, maximum delta is    0.076692510772641
 Root      2 not converged, maximum delta is    0.052196429646562
 Root      3 not converged, maximum delta is    0.085043631120839
 Root      4 not converged, maximum delta is    0.114000023810727
 Root      5 not converged, maximum delta is    0.192705722935651
 Excitation Energies [eV] at current iteration:
 Root      1 :     1.703574441383881   Change is   -0.500557434050995
 Root      2 :     2.217801933099147   Change is   -0.391890940228337
 Root      3 :     3.431892837814944   Change is   -0.371616538019647
 Root      4 :     3.556179813451200   Change is   -0.431720684985469
 Root      5 :     4.152814847057403   Change is   -0.136675715781600
 Iteration     3 Dimension    40 NMult    30 NNew     10
 CISAX will form    10 AO SS matrices at one time.
 NMat=    10 NSing=    10 JSym2X= 0.
 Root      1 not converged, maximum delta is    0.016317900636796
 Root      2 not converged, maximum delta is    0.013657820250314
 Root      3 not converged, maximum delta is    0.118509293275812
 Root      4 not converged, maximum delta is    0.232242925815954
 Root      5 not converged, maximum delta is    0.368585264402005
 Excitation Energies [eV] at current iteration:
 Root      1 :     1.666081993732668   Change is   -0.037492447651213
 Root      2 :     2.199097008479761   Change is   -0.018704924619386
 Root      3 :     3.410070528999840   Change is   -0.021822308815104
 Root      4 :     3.484961989663734   Change is   -0.071217823787467
 Root      5 :     3.776708199278790   Change is   -0.376106647778614
 Iteration     4 Dimension    50 NMult    40 NNew     10
 CISAX will form    10 AO SS matrices at one time.
 NMat=    10 NSing=    10 JSym2X= 0.
 Root      1 not converged, maximum delta is    0.003696853148378
 Root      2 not converged, maximum delta is    0.002884062132661
 Root      3 not converged, maximum delta is    0.026210988853913
 Root      4 not converged, maximum delta is    0.046333490742783
 Root      5 not converged, maximum delta is    0.049448666008507
 Excitation Energies [eV] at current iteration:
 Root      1 :     1.661866822483430   Change is   -0.004215171249238
 Root      2 :     2.196790057887553   Change is   -0.002306950592209
 Root      3 :     3.405719164083055   Change is   -0.004351364916785
 Root      4 :     3.473148248109833   Change is   -0.011813741553901
 Root      5 :     3.746137176785720   Change is   -0.030571022493069
 Iteration     5 Dimension    60 NMult    50 NNew     10
 CISAX will form    10 AO SS matrices at one time.
 NMat=    10 NSing=    10 JSym2X= 0.
 Root      1 not converged, maximum delta is    0.001118892385473
 Root      2 has converged.
 Root      3 not converged, maximum delta is    0.004374820774912
 Root      4 not converged, maximum delta is    0.008464059280521
 Root      5 not converged, maximum delta is    0.017455854502244
 Excitation Energies [eV] at current iteration:
 Root      1 :     1.661492761147195   Change is   -0.000374061336236
 Root      2 :     2.196572032895369   Change is   -0.000218024992184
 Root      3 :     3.405142377540466   Change is   -0.000576786542589
 Root      4 :     3.471368069340686   Change is   -0.001780178769147
 Root      5 :     3.740070573380784   Change is   -0.006066603404936
 Iteration     6 Dimension    68 NMult    60 NNew      8
 CISAX will form     8 AO SS matrices at one time.
 NMat=     8 NSing=     8 JSym2X= 0.
 Root      1 has converged.
 Root      2 has converged.
 Root      3 not converged, maximum delta is    0.001853961731750
 Root      4 not converged, maximum delta is    0.007599939835451
 Root      5 not converged, maximum delta is    0.078452563674160
 Excitation Energies [eV] at current iteration:
 Root      1 :     1.661456675639960   Change is   -0.000036085507235
 Root      2 :     2.196569588827083   Change is   -0.000002444068286
 Root      3 :     3.405047560182249   Change is   -0.000094817358217
 Root      4 :     3.470973761285053   Change is   -0.000394308055632
 Root      5 :     3.735863759630533   Change is   -0.004206813750251
 Iteration     7 Dimension    74 NMult    68 NNew      6
 CISAX will form     6 AO SS matrices at one time.
 NMat=     6 NSing=     6 JSym2X= 0.
 Root      1 has converged.
 Root      2 has converged.
 Root      3 not converged, maximum delta is    0.001705871099282
 Root      4 not converged, maximum delta is    0.006320559540535
 Root      5 not converged, maximum delta is    0.431800368775604
 Excitation Energies [eV] at current iteration:
 Root      1 :     1.661456483782197   Change is   -0.000000191857763
 Root      2 :     2.196569067046981   Change is   -0.000000521780103
 Root      3 :     3.405025221531930   Change is   -0.000022338650318
 Root      4 :     3.470812304731978   Change is   -0.000161456553075
 Root      5 :     3.693774923369882   Change is   -0.042088836260651
 Iteration     8 Dimension    80 NMult    74 NNew      6
 CISAX will form     6 AO SS matrices at one time.
 NMat=     6 NSing=     6 JSym2X= 0.
 Root      1 has converged.
 Root      2 has converged.
 Root      3 not converged, maximum delta is    0.001094959493623
 Root      4 not converged, maximum delta is    0.002755586722843
 Root      5 not converged, maximum delta is    0.052264983280855
 Excitation Energies [eV] at current iteration:
 Root      1 :     1.661456335667828   Change is   -0.000000148114369
 Root      2 :     2.196568944484571   Change is   -0.000000122562409
 Root      3 :     3.405015780452349   Change is   -0.000009441079582
 Root      4 :     3.470758628543434   Change is   -0.000053676188544
 Root      5 :     3.675827723640517   Change is   -0.017947199729365
 Iteration     9 Dimension    86 NMult    80 NNew      6
 CISAX will form     6 AO SS matrices at one time.
 NMat=     6 NSing=     6 JSym2X= 0.
 Root      1 has converged.
 Root      2 has converged.
 Root      3 has converged.
 Root      4 has converged.
 Root      5 not converged, maximum delta is    0.015927618208796
 Excitation Energies [eV] at current iteration:
 Root      1 :     1.661456277729624   Change is   -0.000000057938204
 Root      2 :     2.196568620113452   Change is   -0.000000324371119
 Root      3 :     3.405012368298359   Change is   -0.000003412153990
 Root      4 :     3.470743236949458   Change is   -0.000015391593976
 Root      5 :     3.672791208326434   Change is   -0.003036515314083
 Iteration    10 Dimension    88 NMult    86 NNew      2
 CISAX will form     2 AO SS matrices at one time.
 NMat=     2 NSing=     2 JSym2X= 0.
 Root      1 has converged.
 Root      2 has converged.
 Root      3 has converged.
 Root      4 has converged.
 Root      5 not converged, maximum delta is    0.020594080942228
 Excitation Energies [eV] at current iteration:
 Root      1 :     1.661456269952138   Change is   -0.000000007777486
 Root      2 :     2.196568424870948   Change is   -0.000000195242504
 Root      3 :     3.405011993095545   Change is   -0.000000375202813
 Root      4 :     3.470743077757756   Change is   -0.000000159191702
 Root      5 :     3.672095335795048   Change is   -0.000695872531385
 Iteration    11 Dimension    90 NMult    88 NNew      2
 CISAX will form     2 AO SS matrices at one time.
 NMat=     2 NSing=     2 JSym2X= 0.
 Root      1 has converged.
 Root      2 has converged.
 Root      3 has converged.
 Root      4 has converged.
 Root      5 not converged, maximum delta is    0.018817331352147
 Excitation Energies [eV] at current iteration:
 Root      1 :     1.661456201432459   Change is   -0.000000068519679
 Root      2 :     2.196568393846951   Change is   -0.000000031023997
 Root      3 :     3.405011613757871   Change is   -0.000000379337674
 Root      4 :     3.470741643807912   Change is   -0.000001433949844
 Root      5 :     3.671880471429050   Change is   -0.000214864365999
 Iteration    12 Dimension    92 NMult    90 NNew      2
 CISAX will form     2 AO SS matrices at one time.
 NMat=     2 NSing=     2 JSym2X= 0.
 Root      1 has converged.
 Root      2 has converged.
 Root      3 has converged.
 Root      4 has converged.
 Root      5 not converged, maximum delta is    0.025444483947542
 Excitation Energies [eV] at current iteration:
 Root      1 :     1.661456197601285   Change is   -0.000000003831174
 Root      2 :     2.196568220738239   Change is   -0.000000173108712
 Root      3 :     3.405011224064988   Change is   -0.000000389692883
 Root      4 :     3.470739437381403   Change is   -0.000002206426510
 Root      5 :     3.671742891803778   Change is   -0.000137579625272
 Iteration    13 Dimension    94 NMult    92 NNew      2
 CISAX will form     2 AO SS matrices at one time.
 NMat=     2 NSing=     2 JSym2X= 0.
 Root      1 has converged.
 Root      2 has converged.
 Root      3 has converged.
 Root      4 has converged.
 Root      5 not converged, maximum delta is    0.027111360016013
 Excitation Energies [eV] at current iteration:
 Root      1 :     1.661456190409187   Change is   -0.000000007192098
 Root      2 :     2.196568207534360   Change is   -0.000000013203880
 Root      3 :     3.405011009514236   Change is   -0.000000214550752
 Root      4 :     3.470738036699870   Change is   -0.000001400681533
 Root      5 :     3.671639836452322   Change is   -0.000103055351456
 Iteration    14 Dimension    96 NMult    94 NNew      2
 CISAX will form     2 AO SS matrices at one time.
 NMat=     2 NSing=     2 JSym2X= 0.
 Root      1 has converged.
 Root      2 has converged.
 Root      3 has converged.
 Root      4 has converged.
 Root      5 not converged, maximum delta is    0.013075350325957
 Excitation Energies [eV] at current iteration:
 Root      1 :     1.661456181210757   Change is   -0.000000009198430
 Root      2 :     2.196568024317846   Change is   -0.000000183216513
 Root      3 :     3.405010953383294   Change is   -0.000000056130942
 Root      4 :     3.470737599794530   Change is   -0.000000436905340
 Root      5 :     3.671599486068843   Change is   -0.000040350383479
 Iteration    15 Dimension    98 NMult    96 NNew      2
 CISAX will form     2 AO SS matrices at one time.
 NMat=     2 NSing=     2 JSym2X= 0.
 Root      1 has converged.
 Root      2 has converged.
 Root      3 has converged.
[...]
 Alpha virt. eigenvalues --    1.22430   1.22584   1.23089   1.23163   1.23512
 Alpha virt. eigenvalues --    1.24303   1.24957   1.25218   1.25646   1.26139
 Alpha virt. eigenvalues --    1.26388   1.27149   1.27818   1.28071   1.28218
 Alpha virt. eigenvalues --    1.29220   1.29616   1.29832   1.30274   1.30569
 Alpha virt. eigenvalues --    1.31345   1.31844   1.32386   1.32903   1.33255
 Alpha virt. eigenvalues --    1.33439   1.34114   1.34645   1.35658   1.35738
 Alpha virt. eigenvalues --    1.35957   1.36426   1.36704   1.36921   1.37316
 Alpha virt. eigenvalues --    1.37509   1.38289   1.39036   1.39544   1.39668
 Alpha virt. eigenvalues --    1.40450   1.40687   1.40886   1.41258   1.41586
 Alpha virt. eigenvalues --    1.41676   1.42169   1.42615   1.43152   1.43659
 Alpha virt. eigenvalues --    1.43801   1.44485   1.44666   1.44720   1.45215
 Alpha virt. eigenvalues --    1.45569   1.46354   1.46877   1.47445   1.47704
 Alpha virt. eigenvalues --    1.47965   1.48379   1.48514   1.48859   1.49066
 Alpha virt. eigenvalues --    1.50111   1.50287   1.50443   1.51141   1.51237
 Alpha virt. eigenvalues --    1.51428   1.51968   1.52066   1.53217   1.53510
 Alpha virt. eigenvalues --    1.53806   1.54130   1.54609   1.55892   1.56001
 Alpha virt. eigenvalues --    1.56024   1.56671   1.57011   1.57100   1.57518
 Alpha virt. eigenvalues --    1.57661   1.58240   1.59329   1.59715   1.59762
 Alpha virt. eigenvalues --    1.59867   1.60038   1.60244   1.60520   1.60653
 Alpha virt. eigenvalues --    1.61163   1.61467   1.61648   1.62008   1.62153
 Alpha virt. eigenvalues --    1.62638   1.62808   1.63145   1.63233   1.63513
 Alpha virt. eigenvalues --    1.63649   1.64043   1.64463   1.65097   1.65152
 Alpha virt. eigenvalues --    1.65471   1.65970   1.66151   1.66342   1.66395
 Alpha virt. eigenvalues --    1.66592   1.67351   1.67575   1.67636   1.68019
 Alpha virt. eigenvalues --    1.68459   1.68768   1.69538   1.69650   1.69849
 Alpha virt. eigenvalues --    1.69982   1.70584   1.71773   1.71886   1.72294
 Alpha virt. eigenvalues --    1.72566   1.72867   1.73491   1.74713   1.75082
 Alpha virt. eigenvalues --    1.75705   1.76336   1.76359   1.76402   1.76963
 Alpha virt. eigenvalues --    1.77209   1.77444   1.78203   1.78497   1.78734
 Alpha virt. eigenvalues --    1.78950   1.79325   1.80133   1.80227   1.80459
 Alpha virt. eigenvalues --    1.80726   1.81037   1.81190   1.81493   1.81839
 Alpha virt. eigenvalues --    1.82166   1.82363   1.82399   1.82614   1.82943
 Alpha virt. eigenvalues --    1.83182   1.83525   1.83722   1.83799   1.84042
 Alpha virt. eigenvalues --    1.84217   1.84483   1.84749   1.84885   1.85097
 Alpha virt. eigenvalues --    1.85146   1.85185   1.85374   1.85551   1.85840
 Alpha virt. eigenvalues --    1.86291   1.86510   1.86568   1.86728   1.87061
 Alpha virt. eigenvalues --    1.87279   1.87418   1.87733   1.87898   1.88031
 Alpha virt. eigenvalues --    1.88237   1.88757   1.88804   1.89017   1.89096
 Alpha virt. eigenvalues --    1.89225   1.89521   1.89601   1.89999   1.90294
 Alpha virt. eigenvalues --    1.90329   1.90767   1.90997   1.91497   1.91654
 Alpha virt. eigenvalues --    1.91796   1.91926   1.92078   1.92224   1.92732
 Alpha virt. eigenvalues --    1.92846   1.92935   1.93110   1.93473   1.93572
 Alpha virt. eigenvalues --    1.93832   1.94088   1.94190   1.94500   1.94781
 Alpha virt. eigenvalues --    1.94878   1.95581   1.95807   1.95865   1.95955
 Alpha virt. eigenvalues --    1.96367   1.96671   1.96705   1.96918   1.97372
 Alpha virt. eigenvalues --    1.97436   1.97768   1.97993   1.98206   1.98373
 Alpha virt. eigenvalues --    1.98487   1.98836   1.99067   1.99310   1.99550
 Alpha virt. eigenvalues --    1.99955   2.00177   2.00361   2.00762   2.00814
 Alpha virt. eigenvalues --    2.01006   2.01471   2.01543   2.01621   2.01789
 Alpha virt. eigenvalues --    2.02174   2.02203   2.02474   2.02954   2.03075
 Alpha virt. eigenvalues --    2.03106   2.03337   2.03475   2.03515   2.03836
 Alpha virt. eigenvalues --    2.04650   2.05311   2.05588   2.05824   2.06040
 Alpha virt. eigenvalues --    2.06799   2.06973   2.07251   2.07700   2.07942
 Alpha virt. eigenvalues --    2.08033   2.08572   2.08743   2.09066   2.09343
 Alpha virt. eigenvalues --    2.09480   2.09966   2.10116   2.10303   2.10720
 Alpha virt. eigenvalues --    2.11089   2.11373   2.11522   2.11966   2.12161
 Alpha virt. eigenvalues --    2.12370   2.12741   2.12919   2.13121   2.13256
 Alpha virt. eigenvalues --    2.13622   2.13716   2.14002   2.14529   2.14699
 Alpha virt. eigenvalues --    2.15121   2.15298   2.15558   2.15963   2.16149
 Alpha virt. eigenvalues --    2.16256   2.16543   2.17405   2.17612   2.17836
 Alpha virt. eigenvalues --    2.18059   2.18346   2.18624   2.18888   2.19649
 Alpha virt. eigenvalues --    2.19903   2.20246   2.20518   2.20684   2.20901
 Alpha virt. eigenvalues --    2.21084   2.21292   2.21734   2.22053   2.22735
 Alpha virt. eigenvalues --    2.22951   2.23437   2.23953   2.24253   2.24502
 Alpha virt. eigenvalues --    2.24985   2.25212   2.26323   2.26712   2.26913
 Alpha virt. eigenvalues --    2.27119   2.27360   2.28368   2.28539   2.28781
 Alpha virt. eigenvalues --    2.29505   2.29696   2.30031   2.30336   2.30921
 Alpha virt. eigenvalues --    2.31106   2.31425   2.31790   2.31958   2.32536
 Alpha virt. eigenvalues --    2.32920   2.33214   2.33377   2.33589   2.34245
 Alpha virt. eigenvalues --    2.34549   2.35010   2.35302   2.36338   2.36659
 Alpha virt. eigenvalues --    2.36994   2.37148   2.37414   2.37792   2.38964
 Alpha virt. eigenvalues --    2.39276   2.39914   2.39973   2.40168   2.40927
 Alpha virt. eigenvalues --    2.41338   2.41854   2.41878   2.42106   2.43068
 Alpha virt. eigenvalues --    2.43120   2.43229   2.43609   2.43849   2.44211
 Alpha virt. eigenvalues --    2.44475   2.44704   2.45103   2.45382   2.45942
 Alpha virt. eigenvalues --    2.46207   2.46932   2.47162   2.47410   2.48021
 Alpha virt. eigenvalues --    2.48148   2.48622   2.48984   2.49109   2.49638
 Alpha virt. eigenvalues --    2.49891   2.50121   2.50971   2.51061   2.51730
 Alpha virt. eigenvalues --    2.51977   2.52235   2.52420   2.53335   2.53551
 Alpha virt. eigenvalues --    2.53607   2.54071   2.54461   2.54741   2.55137
 Alpha virt. eigenvalues --    2.55409   2.55498   2.56379   2.56618   2.56865
 Alpha virt. eigenvalues --    2.57174   2.57598   2.58666   2.58919   2.59508
 Alpha virt. eigenvalues --    2.59566   2.59782   2.59950   2.60319   2.60453
 Alpha virt. eigenvalues --    2.61203   2.61526   2.61755   2.62354   2.62880
 Alpha virt. eigenvalues --    2.62949   2.63135   2.63536   2.63995   2.64940
 Alpha virt. eigenvalues --    2.65213   2.65244   2.65741   2.66076   2.66552
 Alpha virt. eigenvalues --    2.66592   2.66908   2.67416   2.67961   2.68617
 Alpha virt. eigenvalues --    2.69010   2.69368   2.69754   2.70185   2.71042
 Alpha virt. eigenvalues --    2.71566   2.71603   2.72051   2.72263   2.72640
 Alpha virt. eigenvalues --    2.72692   2.73655   2.73764   2.74356   2.74782
 Alpha virt. eigenvalues --    2.75209   2.75850   2.76270   2.76449   2.76929
 Alpha virt. eigenvalues --    2.77278   2.77564   2.78030   2.78306   2.78618
 Alpha virt. eigenvalues --    2.78870   2.78942   2.79372   2.79429   2.79668
 Alpha virt. eigenvalues --    2.80505   2.80814   2.81612   2.82132   2.82470
 Alpha virt. eigenvalues --    2.82647   2.83137   2.83754   2.84462   2.84977
 Alpha virt. eigenvalues --    2.85075   2.86071   2.87128   2.87420   2.87625
 Alpha virt. eigenvalues --    2.87923   2.88344   2.88841   2.89420   2.90394
 Alpha virt. eigenvalues --    2.90880   2.91041   2.91369   2.91925   2.92153
 Alpha virt. eigenvalues --    2.93942   2.94727   2.95077   2.95238   2.95722
 Alpha virt. eigenvalues --    2.96042   2.96211   2.97068   2.97447   2.97760
 Alpha virt. eigenvalues --    2.98021   2.98620   2.98890   2.99090   2.99239
 Alpha virt. eigenvalues --    2.99460   3.00029   3.00095   3.00675   3.01234
 Alpha virt. eigenvalues --    3.01438   3.01504   3.01804   3.02118   3.02689
 Alpha virt. eigenvalues --    3.03006   3.03075   3.03261   3.03492   3.03681
 Alpha virt. eigenvalues --    3.04385   3.04422   3.05129   3.05193   3.05481
 Alpha virt. eigenvalues --    3.06269   3.06512   3.06763   3.07096   3.07506
 Alpha virt. eigenvalues --    3.07798   3.07866   3.08185   3.08261   3.08415
 Alpha virt. eigenvalues --    3.08804   3.08911   3.09258   3.09524   3.09977
 Alpha virt. eigenvalues --    3.10074   3.11057   3.11380   3.12681   3.13072
 Alpha virt. eigenvalues --    3.13455   3.13695   3.14090   3.14327   3.14608
 Alpha virt. eigenvalues --    3.15128   3.15505   3.15760   3.16070   3.16574
 Alpha virt. eigenvalues --    3.16860   3.17341   3.18137   3.18842   3.19635
 Alpha virt. eigenvalues --    3.19974   3.20514   3.21339   3.22389   3.22815
 Alpha virt. eigenvalues --    3.22924   3.23281   3.24416   3.25408   3.25998
 Alpha virt. eigenvalues --    3.27427   3.27639   3.28167   3.29013   3.29522
 Alpha virt. eigenvalues --    3.31493   3.34407   3.37777   3.44693   3.47606
 Alpha virt. eigenvalues --    3.52282   3.52656   3.52811   3.56636   3.60771
 Alpha virt. eigenvalues --    3.61986   3.66377   3.67768   3.71206   3.72609
 Alpha virt. eigenvalues --    3.76041   3.76287
          Condensed to atoms (all electrons):
 Mulliken charges:
               1
     1  Mg   0.961108
     2  C   -0.043877
     3  C   -0.109162
     4  C   -0.102407
     5  C   -0.091253
     6  N   -0.336050
     7  C    0.008879
     8  C   -0.072790
     9  C   -0.120018
    10  C    0.070096
    11  C    0.043461
    12  C    0.017209
    13  C    0.019846
    14  C    0.200750
    15  O   -0.258398
    16  O   -0.390807
    17  N   -0.520351
    18  C    0.209639
    19  C   -0.142990
    20  C   -0.054128
    21  C    0.192439
    22  C    0.082226
    23  C    0.012815
    24  O   -0.214627
    25  C    0.003587
    26  N   -0.398338
    27  C    0.084739
    28  C   -0.112355
    29  C   -0.087029
    30  C    0.077678
    31  C    0.027583
    32  C   -0.017470
    33  C   -0.038377
    34  N   -0.376095
    35  C    0.124240
    36  C   -0.234896
    37  C   -0.030557
    38  C    0.114034
    39  C    0.090002
    40  C    0.159343
    41  O   -0.204398
    42  C   -0.070394
    43  C    0.275967
    44  O   -0.249152
    45  O   -0.398025
    46  C    0.136638
    47  C    0.266833
    48  C   -0.139098
    49  C   -0.180524
    50  C   -0.019776
    51  C    0.060457
    52  C   -0.043274
    53  C    0.022289
    54  C   -0.191608
    55  C   -0.013447
    56  C   -0.000062
    57  C   -0.005771
    58  C    0.020372
    59  C   -0.180787
    60  C   -0.015841
    61  C    0.044321
    62  C   -0.009497
    63  C   -0.030315
    64  C   -0.226477
    65  C   -0.010179
    66  C   -0.005432
    67  H   -0.000734
    68  H   -0.007692
    69  H    0.006602
    70  H    0.038828
    71  H    0.035404
    72  H    0.034168
    73  H    0.044286
    74  H    0.058011
    75  H    0.033344
    76  H    0.046862
    77  H    0.072092
    78  H    0.063472
    79  H    0.047976
    80  H    0.043862
    81  H    0.030997
    82  H    0.065614
    83  H    0.049376
    84  H    0.052130
    85  H    0.041505
    86  H    0.019567
    87  H    0.038591
    88  H    0.046914
    89  H    0.038590
    90  H    0.036770
    91  H    0.025222
    92  H    0.015247
    93  H    0.048947
    94  H    0.041758
    95  H    0.063591
    96  H    0.027228
    97  H    0.056863
    98  H    0.066885
    99  H    0.072478
   100  H    0.060132
   101  H    0.061717
   102  H    0.050747
   103  H    0.070889
   104  H    0.028011
   105  H    0.024998
   106  H    0.053653
   107  H    0.054113
   108  H    0.011091
   109  H    0.016210
   110  H    0.019832
   111  H    0.022501
   112  H    0.010459
   113  H    0.017491
   114  H    0.014534
   115  H    0.010141
   116  H    0.028135
   117  H    0.019260
   118  H    0.014139
   119  H    0.013287
   120  H    0.025471
   121  H    0.030843
   122  H    0.019688
   123  H    0.000803
   124  H    0.021977
   125  H    0.033906
   126  H    0.007512
   127  H    0.030064
   128  H    0.013316
   129  H    0.009364
   130  H    0.004450
   131  H    0.027716
   132  H    0.018351
   133  H    0.016855
   134  H    0.026822
   135  H    0.029486
   136  H    0.017058
   137  H    0.023363
   138  H    0.024602
   139  H    0.040964
   140  H    0.040783
 Sum of Mulliken charges =  -0.00000
 Mulliken charges with hydrogens summed into heavy atoms:
               1
     1  Mg   0.961108
     2  C   -0.043877
     3  C   -0.109896
     4  C   -0.110100
     5  C   -0.084650
     6  N   -0.336050
     7  C    0.008879
     8  C   -0.033962
     9  C   -0.084615
    10  C    0.070096
    11  C    0.179925
    12  C    0.097415
    13  C    0.155410
    14  C    0.200750
    15  O   -0.258398
    16  O   -0.390807
    17  N   -0.520351
    18  C    0.209639
    19  C   -0.142990
    20  C   -0.054128
    21  C    0.192439
    22  C    0.205060
    23  C    0.012815
    24  O   -0.214627
    25  C    0.170707
    26  N   -0.398338
    27  C    0.084739
    28  C   -0.070850
    29  C   -0.067462
    30  C    0.077678
    31  C    0.151677
    32  C    0.044523
    33  C    0.067575
    34  N   -0.376095
    35  C    0.124240
    36  C   -0.234896
    37  C   -0.030557
    38  C    0.114034
    39  C    0.237684
    40  C    0.159343
    41  O   -0.204398
    42  C   -0.003509
    43  C    0.275967
    44  O   -0.249152
    45  O   -0.398025
    46  C    0.330964
    47  C    0.388469
    48  C   -0.111087
    49  C   -0.180524
    50  C    0.112987
    51  C    0.087759
    52  C   -0.000941
    53  C    0.050239
    54  C   -0.177074
    55  C    0.044088
    56  C    0.027364
    57  C    0.050542
    58  C    0.040863
    59  C   -0.158810
    60  C    0.055641
    61  C    0.067001
    62  C    0.022669
    63  C    0.004891
    64  C   -0.199654
    65  C    0.059728
    66  C    0.100916
 Electronic spatial extent (au):  <R**2>=         112744.8372
 Charge=              0.0000 electrons
 Dipole moment (field-independent basis, Debye):
    X=             -3.6183    Y=             -3.9930    Z=              1.2550  Tot=              5.5327
 Quadrupole moment (field-independent basis, Debye-Ang):
   XX=           -359.3830   YY=           -429.6206   ZZ=           -401.0907
   XY=              1.3399   XZ=             -3.9216   YZ=            -23.7522
 Traceless Quadrupole moment (field-independent basis, Debye-Ang):
   XX=             37.3151   YY=            -32.9225   ZZ=             -4.3926
   XY=              1.3399   XZ=             -3.9216   YZ=            -23.7522
 Octapole moment (field-independent basis, Debye-Ang**2):
  XXX=           -539.0139  YYY=             69.9570  ZZZ=             31.3704  XYY=            -94.7637
  XXY=            -94.1546  XXZ=             84.1493  XZZ=            -46.7561  YZZ=             33.3576
  YYZ=             49.5305  XYZ=            195.1840
 Hexadecapole moment (field-independent basis, Debye-Ang**3):
 XXXX=        -120192.3462 YYYY=         -24519.6545 ZZZZ=         -10939.0676 XXXY=           1049.8081
 XXXZ=           -716.3228 YYYX=           -638.6622 YYYZ=          -1309.2385 ZZZX=           -191.0680
 ZZZY=           -253.2578 XXYY=         -23093.3454 XXZZ=         -21417.7725 YYZZ=          -6420.3948
 XXYZ=           -805.7259 YYXZ=            130.1488 ZZXY=           -423.1226
 N-N= 9.601900959096D+03 E-N=-2.619629054816D+04  KE= 2.975746681834D+03
 Leave Link  601 at Wed May  4 17:51:36 2022, MaxMem= 10066329600 cpu:              12.3 elap:               0.6
 (Enter /sw/apps/gaussian-16.0/g16/l9999.exe)
 1\1\GINC-BP1-COMPUTE122\SP\RwB97XD TD-FC\def2SVP\C55H74Mg1N4O6\OF15641
 \04-May-2022\0\\#p wB97XD/Def2SVP td=(nstates=5)\\step_201_chromophore
 _5 TDDFT with wB97XD functional\\0,1\Mg,0,24.702,-6.57,46.238\C,0,26.5
 91,-3.888,44.949\C,0,22.168,-5.729,44.08\C,0,23.253,-9.518,46.984\C,0,
 27.857,-7.785,47.561\N,0,24.49,-5.048,44.676\C,0,25.321,-4.025,44.388\
 C,0,24.799,-3.164,43.274\C,0,23.307,-3.634,43.146\C,0,23.318,-4.89,44.
 017\C,0,22.15,-2.554,43.333\C,0,25.596,-3.181,41.92\C,0,25.827,-1.771,
 41.243\C,0,25.571,-1.675,39.782\O,0,24.929,-0.771,39.257\O,0,26.082,-2
 .744,39.031\N,0,22.936,-7.474,45.666\C,0,21.996,-6.88,44.83\C,0,20.892
 ,-7.773,44.72\C,0,21.101,-8.836,45.564\C,0,22.46,-8.729,46.13\C,0,19.7
 89,-7.542,43.726\C,0,20.159,-10.045,45.666\O,0,19.034,-10.035,45.281\C
 ,0,20.471,-11.203,46.401\N,0,25.449,-8.336,47.146\C,0,24.571,-9.387,47
 .454\C,0,25.285,-10.533,48.197\C,0,26.795,-10.102,47.965\C,0,26.707,-8
 .635,47.675\C,0,24.824,-10.835,49.679\C,0,27.445,-10.927,46.864\C,0,28
 .587,-11.886,47.18\N,0,26.768,-5.917,46.42\C,0,27.888,-6.457,47.003\C,
 0,28.96,-5.519,46.963\C,0,28.587,-4.495,46.125\C,0,27.205,-4.781,45.84
 \C,0,30.333,-5.734,47.515\C,0,28.93,-3.248,45.435\O,0,29.975,-2.623,45
 .322\C,0,27.67,-2.852,44.612\C,0,27.248,-1.487,44.951\O,0,27.025,-0.63
 1,44.1\O,0,27.237,-1.313,46.338\C,0,27.411,0.188,46.686\C,0,25.511,-3.
 ,37.74\C,0,25.446,-4.458,37.464\C,0,25.555,-5.229,36.32\C,0,25.637,-4.
 674,34.932\C,0,25.253,-6.756,36.364\C,0,24.03,-7.177,35.601\C,0,24.333
 ,-8.296,34.565\C,0,24.138,-7.995,33.08\C,0,23.248,-9.036,32.364\C,0,25
 .528,-7.953,32.342\C,0,25.421,-7.239,30.97\C,0,26.35,-5.952,31.01\C,0,
 25.705,-4.729,30.291\C,0,25.636,-3.445,31.245\C,0,26.43,-4.519,28.928\
 C,0,25.629,-5.081,27.733\C,0,24.731,-3.92,27.225\C,0,23.338,-4.304,26.
 672\C,0,23.505,-4.634,25.135\C,0,22.364,-3.095,26.721\H,0,21.367,-5.46
 3,43.387\H,0,22.748,-10.327,47.516\H,0,28.794,-8.273,47.836\H,0,24.788
 ,-2.114,43.566\H,0,23.179,-4.026,42.137\H,0,21.267,-3.082,43.692\H,0,2
 1.895,-2.271,42.312\H,0,22.519,-1.739,43.956\H,0,24.946,-3.715,41.227\
 H,0,26.569,-3.664,42.013\H,0,26.893,-1.58,41.366\H,0,25.272,-1.012,41.
 795\H,0,18.807,-7.399,44.178\H,0,19.55,-8.452,43.176\H,0,19.86,-6.747,
 42.984\H,0,20.594,-10.983,47.461\H,0,21.346,-11.646,45.926\H,0,19.591,
 -11.844,46.354\H,0,25.11,-11.44,47.618\H,0,27.367,-10.229,48.885\H,0,2
 4.251,-11.76,49.752\H,0,24.191,-10.053,50.099\H,0,25.748,-10.988,50.23
 6\H,0,27.745,-10.275,46.045\H,0,26.747,-11.61,46.38\H,0,29.121,-11.434
 ,48.016\H,0,29.308,-11.904,46.362\H,0,28.195,-12.834,47.547\H,0,31.064
 ,-5.741,46.707\H,0,30.336,-6.657,48.094\H,0,30.473,-4.844,48.128\H,0,2
 7.987,-2.847,43.57\H,0,28.233,0.632,46.124\H,0,27.645,0.3,47.745\H,0,2
 6.486,0.736,46.509\H,0,26.329,-2.504,37.218\H,0,24.551,-2.573,37.449\H
 ,0,25.51,-5.088,38.351\H,0,25.435,-3.603,34.927\H,0,24.94,-5.016,34.16
 7\H,0,26.636,-4.783,34.511\H,0,25.16,-7.1,37.394\H,0,26.028,-7.431,36.
 \H,0,23.57,-6.325,35.101\H,0,23.243,-7.514,36.275\H,0,23.588,-9.032,34
 .869\H,0,25.318,-8.746,34.686\H,0,23.485,-7.135,32.936\H,0,22.953,-9.8
 73,32.997\H,0,23.669,-9.522,31.483\H,0,22.248,-8.671,32.128\H,0,25.857
 ,-8.989,32.259\H,0,26.265,-7.573,33.049\H,0,24.403,-6.909,30.762\H,0,2
 5.683,-7.979,30.214\H,0,27.332,-6.304,30.695\H,0,26.631,-5.631,32.013\
 H,0,24.646,-4.903,30.1\H,0,26.577,-2.958,31.501\H,0,25.231,-3.777,32.2
 01\H,0,24.915,-2.689,30.933\H,0,27.46,-4.874,28.92\H,0,26.527,-3.437,2
 8.834\H,0,24.884,-5.795,28.082\H,0,26.139,-5.615,26.932\H,0,25.353,-3.
 527,26.422\H,0,24.629,-3.091,27.925\H,0,23.065,-5.28,27.074\H,0,24.362
 ,-4.135,24.682\H,0,22.573,-4.316,24.669\H,0,23.583,-5.715,25.025\H,0,2
 2.012,-3.188,27.748\H,0,21.484,-3.131,26.078\H,0,22.896,-2.144,26.679\
 \Version=ES64L-G16RevA.03\State=1-A\HF=-3007.8334161\RMSD=9.278e-09\PG
 =C01 [X(C55H74Mg1N4O6)]\\@


 CURIOUSER AND CURIOUSER

                  -- ALICE, IN WONDERLAND
 Job cpu time:       0 days 13 hours 56 minutes 18.6 seconds.
 Elapsed time:       0 days  0 hours 35 minutes 32.4 seconds.
 File lengths (MBytes):  RWF=   8929 Int=      0 D2E=      0 Chk=    390 Scr=      1
 Normal termination of Gaussian 16 at Wed May  4 17:51:36 2022.
