 Entering Gaussian System, Link 0=g16
 Initial command:
 /sw/apps/gaussian-16.0/g16/l1.exe "/tmp/Gau-9093.inp" -scrdir="/tmp/"
 Entering Link 1 = /sw/apps/gaussian-16.0/g16/l1.exe PID=      9094.
  
 Copyright (c) 1988,1990,1992,1993,1995,1998,2003,2009,2016,
            Gaussian, Inc.  All Rights Reserved.
  
 This is part of the Gaussian(R) 16 program.  It is based on
 the Gaussian(R) 09 system (copyright 2009, Gaussian, Inc.),
 the Gaussian(R) 03 system (copyright 2003, Gaussian, Inc.),
 the Gaussian(R) 98 system (copyright 1998, Gaussian, Inc.),
 the Gaussian(R) 94 system (copyright 1995, Gaussian, Inc.),
 the Gaussian 92(TM) system (copyright 1992, Gaussian, Inc.),
 the Gaussian 90(TM) system (copyright 1990, Gaussian, Inc.),
 the Gaussian 88(TM) system (copyright 1988, Gaussian, Inc.),
 the Gaussian 86(TM) system (copyright 1986, Carnegie Mellon
 University), and the Gaussian 82(TM) system (copyright 1983,
 Carnegie Mellon University). Gaussian is a federally registered
 trademark of Gaussian, Inc.
  
 This software contains proprietary and confidential information,
 including trade secrets, belonging to Gaussian, Inc.
  
 This software is provided under written license and may be
 used, copied, transmitted, or stored only in accord with that
 written license.
  
 The following legend is applicable only to US Government
 contracts under FAR:
  
                    RESTRICTED RIGHTS LEGEND
  
 Use, reproduction and disclosure by the US Government is
 subject to restrictions as set forth in subparagraphs (a)
 and (c) of the Commercial Computer Software - Restricted
 Rights clause in FAR 52.227-19.
  
 Gaussian, Inc.
 340 Quinnipiac St., Bldg. 40, Wallingford CT 06492
  
  
 ---------------------------------------------------------------
 Warning -- This program may not be used in any manner that
 competes with the business of Gaussian, Inc. or will provide
 assistance to any competitor of Gaussian, Inc.  The licensee
 of this program is prohibited from giving any competitor of
 Gaussian, Inc. access to this program.  By using this program,
 the user acknowledges that Gaussian, Inc. is engaged in the
 business of creating and licensing software in the field of
 computational chemistry and represents and warrants to the
 licensee that it is not a competitor of Gaussian, Inc. and that
 it will not use this program in any manner prohibited above.
 ---------------------------------------------------------------
  

 Cite this work as:
 Gaussian 16, Revision A.03,
 M. J. Frisch, G. W. Trucks, H. B. Schlegel, G. E. Scuseria, 
 M. A. Robb, J. R. Cheeseman, G. Scalmani, V. Barone, 
 G. A. Petersson, H. Nakatsuji, X. Li, M. Caricato, A. V. Marenich, 
 J. Bloino, B. G. Janesko, R. Gomperts, B. Mennucci, H. P. Hratchian, 
 J. V. Ortiz, A. F. Izmaylov, J. L. Sonnenberg, D. Williams-Young, 
 F. Ding, F. Lipparini, F. Egidi, J. Goings, B. Peng, A. Petrone, 
 T. Henderson, D. Ranasinghe, V. G. Zakrzewski, J. Gao, N. Rega, 
 G. Zheng, W. Liang, M. Hada, M. Ehara, K. Toyota, R. Fukuda, 
 J. Hasegawa, M. Ishida, T. Nakajima, Y. Honda, O. Kitao, H. Nakai, 
 T. Vreven, K. Throssell, J. A. Montgomery, Jr., J. E. Peralta, 
 F. Ogliaro, M. J. Bearpark, J. J. Heyd, E. N. Brothers, K. N. Kudin, 
 V. N. Staroverov, T. A. Keith, R. Kobayashi, J. Normand, 
 K. Raghavachari, A. P. Rendell, J. C. Burant, S. S. Iyengar, 
 J. Tomasi, M. Cossi, J. M. Millam, M. Klene, C. Adamo, R. Cammi, 
 J. W. Ochterski, R. L. Martin, K. Morokuma, O. Farkas, 
 J. B. Foresman, and D. J. Fox, Gaussian, Inc., Wallingford CT, 2016.
 
 ******************************************
 Gaussian 16:  ES64L-G16RevA.03 25-Dec-2016
                27-Apr-2022 
 ******************************************
 %nproc=24
 Will use up to   24 processors via shared memory.
 %mem=75GB
 ------------------------------
 #p blyp/Def2SVP td=(nstates=5)
 ------------------------------
 1/38=1,172=1/1;
 2/12=2,17=6,18=5,40=1/2;
 3/5=43,7=101,11=9,25=1,30=1,74=402/1,2,3,8;
 4//1;
 5/5=2,38=5/2;
 8/6=1,10=1,108=5/1;
 9/41=5,42=1,70=2/14;
 6/7=2,8=2,9=2,10=2/1;
 99/5=1,9=1/99;
 Leave Link    1 at Wed Apr 27 00:49:56 2022, MaxMem= 10066329600 cpu:               0.9 elap:               0.0
 (Enter /sw/apps/gaussian-16.0/g16/l101.exe)
 -------------------------------------------------
 step_101_chromophore_2 TDDFT with blyp functional
 -------------------------------------------------
 Symbolic Z-matrix:
 Charge =  0 Multiplicity = 1
 Mg                    3.216     0.079     44.437 
 C                     6.091     1.852     44.006 
 C                     1.441     2.849     43.22 
 C                     0.43     -1.896     44.114 
 C                     5.101    -2.709     45.298 
 N                     3.795     2.107     43.564 
 C                     4.995     2.612     43.529 
 C                     5.064     3.989     42.844 
 C                     3.546     4.407     42.997 
 C                     2.851     3.04      43.276 
 C                     3.279     5.44      44.006 
 C                     5.645     4.008     41.424 
 C                     5.517     2.8       40.448 
 C                     5.937     3.144     38.945 
 O                     6.334     4.231     38.53 
 O                     5.915     2.011     38.162 
 N                     1.165     0.396     43.779 
 C                     0.641     1.696     43.497 
 C                    -0.806     1.569     43.358 
 C                    -1.103     0.259     43.619 
 C                     0.185    -0.506     43.903 
 C                    -1.709     2.769     42.921 
 C                    -2.567    -0.392     43.776 
 O                    -3.5       0.356     43.648 
 C                    -2.854    -1.865     44.099 
 N                     2.894    -1.998     44.406 
 C                     1.647    -2.592     44.302 
 C                     1.716    -4.135     44.696 
 C                     3.248    -4.384     45.001 
 C                     3.758    -2.941     44.985 
 C                     0.705    -4.609     45.695 
 C                     3.914    -5.369     43.989 
 C                     4.873    -6.214     44.766 
 N                     5.167    -0.329     44.875 
 C                     5.763    -1.483     45.344 
 C                     7.18     -1.231     45.524 
 C                     7.332     0.125     45.1 
 C                     6.089     0.571     44.609 
 C                     8.207    -2.221     45.969 
 C                     8.263     1.2       44.873 
 O                     9.471     1.176     45.107 
 C                     7.504     2.36      44.138 
 C                     7.708     3.643     44.87 
 O                     8.686     4.363     44.841 
 O                     6.607     3.914     45.606 
 C                     6.791     5.14      46.457 
 C                     6.119     2.221     36.67 
 C                     4.941     1.588     35.928 
 C                     4.826     0.891     34.783 
 C                     5.995     0.705     33.803 
 C                     3.44      0.446     34.279 
 C                     2.557     1.568     33.719 
 C                     2.491     1.394     32.125 
 C                     1.406     0.305     31.691 
 C                     2.206    -0.883     31.177 
 C                     0.476     0.862     30.674 
 C                    -1.025     0.549     30.868 
 C                    -1.86      1.752     31.4 
 C                    -2.219     2.887     30.309 
 C                    -2.444     4.218     30.96 
 C                    -3.426     2.288     29.451 
 C                    -3.541     2.888     27.973 
 C                    -4.578     3.993     27.722 
 C                    -5.38      3.592     26.383 
 C                    -4.699     3.877     25.056 
 C                    -6.781     4.107     26.413 
 H                     0.95      3.761     42.876 
 H                    -0.381    -2.594     43.896 
 H                     5.707    -3.566     45.599 
 H                     5.769     4.677     43.31 
 H                     3.155     4.697     42.021 
 H                     4.066     5.773     44.683 
 H                     2.429     5.158     44.627 
 H                     3.024     6.322     43.419 
 H                     6.682     4.331     41.516 
 H                     5.21      4.892     40.957 
 H                     4.496     2.423     40.387 
 H                     6.083     1.93      40.781 
 H                    -2.612     2.381     42.45 
 H                    -1.384     3.357     42.063 
 H                    -2.01      3.365     43.782 
 H                    -3.911    -2.112     44.001 
 H                    -2.698    -2.153     45.138 
 H                    -2.311    -2.583     43.485 
 H                     1.417    -4.563     43.739 
 H                     3.419    -4.73      46.02 
 H                    -0.01     -5.286     45.226 
 H                     0.171    -3.76      46.122 
 H                     1.218    -5.156     46.485 
 H                     4.491    -4.875     43.207 
 H                     3.191    -6.047     43.536 
 H                     4.96     -6.043     45.839 
 H                     5.854    -5.994     44.346 
 H                     4.586    -7.235     44.514 
 H                     9.203    -1.812     45.799 
 H                     8.085    -3.169     45.444 
 H                     7.938    -2.425     47.006 
 H                     7.999     2.409     43.168 
 H                     6.078     5.218     47.278 
 H                     6.847     6.068     45.887 
 H                     7.731     4.977     46.983 
 H                     7.086     1.814     36.374 
 H                     6.29      3.242     36.329 
 H                     4.066     1.698     36.57 
 H                     5.624     0.91      32.799 
 H                     6.41     -0.296     33.926 
 H                     6.885     1.28      34.056 
 H                     2.881     0.043     35.123 
 H                     3.538    -0.405     33.605 
 H                     2.873     2.576     33.991 
 H                     1.591     1.466     34.213 
 H                     3.519     1.244     31.793 
 H                     2.338     2.423     31.798 
 H                     0.823    -0.081     32.527 
 H                     2.422    -1.659     31.912 
 H                     3.234    -0.568     30.998 
 H                     1.643    -1.431     30.421 
 H                     0.809     0.553     29.683 
 H                     0.523     1.951     30.659 
 H                    -1.26     -0.279     31.536 
 H                    -1.492     0.162     29.962 
 H                    -1.396     2.264     32.243 
 H                    -2.824     1.409     31.776 
 H                    -1.33      2.997     29.689 
 H                    -2.856     4.965     30.281 
 H                    -1.509     4.561     31.402 
 H                    -3.11      4.164     31.821 
 H                    -4.402     2.266     29.935 
 H                    -3.382     1.219     29.242 
 H                    -3.53      2.103     27.217 
 H                    -2.532     3.266     27.807 
 H                    -4.076     4.921     27.45 
 H                    -5.294     4.198     28.518 
 H                    -5.555     2.519     26.462 
 H                    -3.634     3.877     25.286 
 H                    -5.059     4.835     24.68 
 H                    -4.916     3.129     24.294 
 H                    -7.517     3.327     26.606 
 H                    -7.125     4.575     25.49 
 H                    -6.852     4.828     27.227 
 
 ITRead=  0  0  0  0  0  0  0  0  0  0  0  0  0  0  0  0  0  0  0  0
 ITRead=  0  0  0  0  0  0  0  0  0  0  0  0  0  0  0  0  0  0  0  0
 ITRead=  0  0  0  0  0  0  0  0  0  0  0  0  0  0  0  0  0  0  0  0
 ITRead=  0  0  0  0  0  0  0  0  0  0  0  0  0  0  0  0  0  0  0  0
 ITRead=  0  0  0  0  0  0  0  0  0  0  0  0  0  0  0  0  0  0  0  0
 ITRead=  0  0  0  0  0  0  0  0  0  0  0  0  0  0  0  0  0  0  0  0
 ITRead=  0  0  0  0  0  0  0  0  0  0  0  0  0  0  0  0  0  0  0  0
 MicOpt= -1 -1 -1 -1 -1 -1 -1 -1 -1 -1 -1 -1 -1 -1 -1 -1 -1 -1 -1 -1
 MicOpt= -1 -1 -1 -1 -1 -1 -1 -1 -1 -1 -1 -1 -1 -1 -1 -1 -1 -1 -1 -1
 MicOpt= -1 -1 -1 -1 -1 -1 -1 -1 -1 -1 -1 -1 -1 -1 -1 -1 -1 -1 -1 -1
 MicOpt= -1 -1 -1 -1 -1 -1 -1 -1 -1 -1 -1 -1 -1 -1 -1 -1 -1 -1 -1 -1
 MicOpt= -1 -1 -1 -1 -1 -1 -1 -1 -1 -1 -1 -1 -1 -1 -1 -1 -1 -1 -1 -1
 MicOpt= -1 -1 -1 -1 -1 -1 -1 -1 -1 -1 -1 -1 -1 -1 -1 -1 -1 -1 -1 -1
 MicOpt= -1 -1 -1 -1 -1 -1 -1 -1 -1 -1 -1 -1 -1 -1 -1 -1 -1 -1 -1 -1
 NAtoms=    140 NQM=      140 NQMF=       0 NMMI=      0 NMMIF=      0
                NMic=       0 NMicF=      0.
                    Isotopes and Nuclear Properties:
 (Nuclear quadrupole moments (NQMom) in fm**2, nuclear magnetic moments (NMagM)
  in nuclear magnetons)

  Atom         1           2           3           4           5           6           7           8           9          10
 IAtWgt=          24          12          12          12          12          14          12          12          12          12
 AtmWgt=  23.9850450  12.0000000  12.0000000  12.0000000  12.0000000  14.0030740  12.0000000  12.0000000  12.0000000  12.0000000
 NucSpn=           0           0           0           0           0           2           0           0           0           0
 AtZEff=  -0.0000000  -0.0000000  -0.0000000  -0.0000000  -0.0000000  -0.0000000  -0.0000000  -0.0000000  -0.0000000  -0.0000000
 NQMom=    0.0000000   0.0000000   0.0000000   0.0000000   0.0000000   2.0440000   0.0000000   0.0000000   0.0000000   0.0000000
 NMagM=    0.0000000   0.0000000   0.0000000   0.0000000   0.0000000   0.4037610   0.0000000   0.0000000   0.0000000   0.0000000
 AtZNuc=  12.0000000   6.0000000   6.0000000   6.0000000   6.0000000   7.0000000   6.0000000   6.0000000   6.0000000   6.0000000

  Atom        11          12          13          14          15          16          17          18          19          20
 IAtWgt=          12          12          12          12          16          16          14          12          12          12
 AtmWgt=  12.0000000  12.0000000  12.0000000  12.0000000  15.9949146  15.9949146  14.0030740  12.0000000  12.0000000  12.0000000
 NucSpn=           0           0           0           0           0           0           2           0           0           0
 AtZEff=  -0.0000000  -0.0000000  -0.0000000  -0.0000000  -0.0000000  -0.0000000  -0.0000000  -0.0000000  -0.0000000  -0.0000000
 NQMom=    0.0000000   0.0000000   0.0000000   0.0000000   0.0000000   0.0000000   2.0440000   0.0000000   0.0000000   0.0000000
 NMagM=    0.0000000   0.0000000   0.0000000   0.0000000   0.0000000   0.0000000   0.4037610   0.0000000   0.0000000   0.0000000
 AtZNuc=   6.0000000   6.0000000   6.0000000   6.0000000   8.0000000   8.0000000   7.0000000   6.0000000   6.0000000   6.0000000

  Atom        21          22          23          24          25          26          27          28          29          30
 IAtWgt=          12          12          12          16          12          14          12          12          12          12
 AtmWgt=  12.0000000  12.0000000  12.0000000  15.9949146  12.0000000  14.0030740  12.0000000  12.0000000  12.0000000  12.0000000
 NucSpn=           0           0           0           0           0           2           0           0           0           0
 AtZEff=  -0.0000000  -0.0000000  -0.0000000  -0.0000000  -0.0000000  -0.0000000  -0.0000000  -0.0000000  -0.0000000  -0.0000000
 NQMom=    0.0000000   0.0000000   0.0000000   0.0000000   0.0000000   2.0440000   0.0000000   0.0000000   0.0000000   0.0000000
 NMagM=    0.0000000   0.0000000   0.0000000   0.0000000   0.0000000   0.4037610   0.0000000   0.0000000   0.0000000   0.0000000
 AtZNuc=   6.0000000   6.0000000   6.0000000   8.0000000   6.0000000   7.0000000   6.0000000   6.0000000   6.0000000   6.0000000

  Atom        31          32          33          34          35          36          37          38          39          40
 IAtWgt=          12          12          12          14          12          12          12          12          12          12
 AtmWgt=  12.0000000  12.0000000  12.0000000  14.0030740  12.0000000  12.0000000  12.0000000  12.0000000  12.0000000  12.0000000
 NucSpn=           0           0           0           2           0           0           0           0           0           0
 AtZEff=  -0.0000000  -0.0000000  -0.0000000  -0.0000000  -0.0000000  -0.0000000  -0.0000000  -0.0000000  -0.0000000  -0.0000000
 NQMom=    0.0000000   0.0000000   0.0000000   2.0440000   0.0000000   0.0000000   0.0000000   0.0000000   0.0000000   0.0000000
 NMagM=    0.0000000   0.0000000   0.0000000   0.4037610   0.0000000   0.0000000   0.0000000   0.0000000   0.0000000   0.0000000
 AtZNuc=   6.0000000   6.0000000   6.0000000   7.0000000   6.0000000   6.0000000   6.0000000   6.0000000   6.0000000   6.0000000

  Atom        41          42          43          44          45          46          47          48          49          50
 IAtWgt=          16          12          12          16          16          12          12          12          12          12
 AtmWgt=  15.9949146  12.0000000  12.0000000  15.9949146  15.9949146  12.0000000  12.0000000  12.0000000  12.0000000  12.0000000
 NucSpn=           0           0           0           0           0           0           0           0           0           0
 AtZEff=  -0.0000000  -0.0000000  -0.0000000  -0.0000000  -0.0000000  -0.0000000  -0.0000000  -0.0000000  -0.0000000  -0.0000000
 NQMom=    0.0000000   0.0000000   0.0000000   0.0000000   0.0000000   0.0000000   0.0000000   0.0000000   0.0000000   0.0000000
 NMagM=    0.0000000   0.0000000   0.0000000   0.0000000   0.0000000   0.0000000   0.0000000   0.0000000   0.0000000   0.0000000
 AtZNuc=   8.0000000   6.0000000   6.0000000   8.0000000   8.0000000   6.0000000   6.0000000   6.0000000   6.0000000   6.0000000

  Atom        51          52          53          54          55          56          57          58          59          60
 IAtWgt=          12          12          12          12          12          12          12          12          12          12
 AtmWgt=  12.0000000  12.0000000  12.0000000  12.0000000  12.0000000  12.0000000  12.0000000  12.0000000  12.0000000  12.0000000
 NucSpn=           0           0           0           0           0           0           0           0           0           0
 AtZEff=  -0.0000000  -0.0000000  -0.0000000  -0.0000000  -0.0000000  -0.0000000  -0.0000000  -0.0000000  -0.0000000  -0.0000000
 NQMom=    0.0000000   0.0000000   0.0000000   0.0000000   0.0000000   0.0000000   0.0000000   0.0000000   0.0000000   0.0000000
 NMagM=    0.0000000   0.0000000   0.0000000   0.0000000   0.0000000   0.0000000   0.0000000   0.0000000   0.0000000   0.0000000
 AtZNuc=   6.0000000   6.0000000   6.0000000   6.0000000   6.0000000   6.0000000   6.0000000   6.0000000   6.0000000   6.0000000

  Atom        61          62          63          64          65          66          67          68          69          70
 IAtWgt=          12          12          12          12          12          12           1           1           1           1
 AtmWgt=  12.0000000  12.0000000  12.0000000  12.0000000  12.0000000  12.0000000   1.0078250   1.0078250   1.0078250   1.0078250
 NucSpn=           0           0           0           0           0           0           1           1           1           1
 AtZEff=  -0.0000000  -0.0000000  -0.0000000  -0.0000000  -0.0000000  -0.0000000  -0.0000000  -0.0000000  -0.0000000  -0.0000000
 NQMom=    0.0000000   0.0000000   0.0000000   0.0000000   0.0000000   0.0000000   0.0000000   0.0000000   0.0000000   0.0000000
 NMagM=    0.0000000   0.0000000   0.0000000   0.0000000   0.0000000   0.0000000   2.7928460   2.7928460   2.7928460   2.7928460
 AtZNuc=   6.0000000   6.0000000   6.0000000   6.0000000   6.0000000   6.0000000   1.0000000   1.0000000   1.0000000   1.0000000

  Atom        71          72          73          74          75          76          77          78          79          80
 IAtWgt=           1           1           1           1           1           1           1           1           1           1
 AtmWgt=   1.0078250   1.0078250   1.0078250   1.0078250   1.0078250   1.0078250   1.0078250   1.0078250   1.0078250   1.0078250
 NucSpn=           1           1           1           1           1           1           1           1           1           1
 AtZEff=  -0.0000000  -0.0000000  -0.0000000  -0.0000000  -0.0000000  -0.0000000  -0.0000000  -0.0000000  -0.0000000  -0.0000000
 NQMom=    0.0000000   0.0000000   0.0000000   0.0000000   0.0000000   0.0000000   0.0000000   0.0000000   0.0000000   0.0000000
 NMagM=    2.7928460   2.7928460   2.7928460   2.7928460   2.7928460   2.7928460   2.7928460   2.7928460   2.7928460   2.7928460
 AtZNuc=   1.0000000   1.0000000   1.0000000   1.0000000   1.0000000   1.0000000   1.0000000   1.0000000   1.0000000   1.0000000

  Atom        81          82          83          84          85          86          87          88          89          90
 IAtWgt=           1           1           1           1           1           1           1           1           1           1
 AtmWgt=   1.0078250   1.0078250   1.0078250   1.0078250   1.0078250   1.0078250   1.0078250   1.0078250   1.0078250   1.0078250
 NucSpn=           1           1           1           1           1           1           1           1           1           1
 AtZEff=  -0.0000000  -0.0000000  -0.0000000  -0.0000000  -0.0000000  -0.0000000  -0.0000000  -0.0000000  -0.0000000  -0.0000000
 NQMom=    0.0000000   0.0000000   0.0000000   0.0000000   0.0000000   0.0000000   0.0000000   0.0000000   0.0000000   0.0000000
 NMagM=    2.7928460   2.7928460   2.7928460   2.7928460   2.7928460   2.7928460   2.7928460   2.7928460   2.7928460   2.7928460
 AtZNuc=   1.0000000   1.0000000   1.0000000   1.0000000   1.0000000   1.0000000   1.0000000   1.0000000   1.0000000   1.0000000

  Atom        91          92          93          94          95          96          97          98          99         100
 IAtWgt=           1           1           1           1           1           1           1           1           1           1
 AtmWgt=   1.0078250   1.0078250   1.0078250   1.0078250   1.0078250   1.0078250   1.0078250   1.0078250   1.0078250   1.0078250
 NucSpn=           1           1           1           1           1           1           1           1           1           1
 AtZEff=  -0.0000000  -0.0000000  -0.0000000  -0.0000000  -0.0000000  -0.0000000  -0.0000000  -0.0000000  -0.0000000  -0.0000000
 NQMom=    0.0000000   0.0000000   0.0000000   0.0000000   0.0000000   0.0000000   0.0000000   0.0000000   0.0000000   0.0000000
 NMagM=    2.7928460   2.7928460   2.7928460   2.7928460   2.7928460   2.7928460   2.7928460   2.7928460   2.7928460   2.7928460
 AtZNuc=   1.0000000   1.0000000   1.0000000   1.0000000   1.0000000   1.0000000   1.0000000   1.0000000   1.0000000   1.0000000

  Atom       101         102         103         104         105         106         107         108         109         110
 IAtWgt=           1           1           1           1           1           1           1           1           1           1
 AtmWgt=   1.0078250   1.0078250   1.0078250   1.0078250   1.0078250   1.0078250   1.0078250   1.0078250   1.0078250   1.0078250
 NucSpn=           1           1           1           1           1           1           1           1           1           1
 AtZEff=  -0.0000000  -0.0000000  -0.0000000  -0.0000000  -0.0000000  -0.0000000  -0.0000000  -0.0000000  -0.0000000  -0.0000000
 NQMom=    0.0000000   0.0000000   0.0000000   0.0000000   0.0000000   0.0000000   0.0000000   0.0000000   0.0000000   0.0000000
 NMagM=    2.7928460   2.7928460   2.7928460   2.7928460   2.7928460   2.7928460   2.7928460   2.7928460   2.7928460   2.7928460
 AtZNuc=   1.0000000   1.0000000   1.0000000   1.0000000   1.0000000   1.0000000   1.0000000   1.0000000   1.0000000   1.0000000

  Atom       111         112         113         114         115         116         117         118         119         120
 IAtWgt=           1           1           1           1           1           1           1           1           1           1
 AtmWgt=   1.0078250   1.0078250   1.0078250   1.0078250   1.0078250   1.0078250   1.0078250   1.0078250   1.0078250   1.0078250
 NucSpn=           1           1           1           1           1           1           1           1           1           1
 AtZEff=  -0.0000000  -0.0000000  -0.0000000  -0.0000000  -0.0000000  -0.0000000  -0.0000000  -0.0000000  -0.0000000  -0.0000000
 NQMom=    0.0000000   0.0000000   0.0000000   0.0000000   0.0000000   0.0000000   0.0000000   0.0000000   0.0000000   0.0000000
 NMagM=    2.7928460   2.7928460   2.7928460   2.7928460   2.7928460   2.7928460   2.7928460   2.7928460   2.7928460   2.7928460
 AtZNuc=   1.0000000   1.0000000   1.0000000   1.0000000   1.0000000   1.0000000   1.0000000   1.0000000   1.0000000   1.0000000

  Atom       121         122         123         124         125         126         127         128         129         130
 IAtWgt=           1           1           1           1           1           1           1           1           1           1
 AtmWgt=   1.0078250   1.0078250   1.0078250   1.0078250   1.0078250   1.0078250   1.0078250   1.0078250   1.0078250   1.0078250
 NucSpn=           1           1           1           1           1           1           1           1           1           1
 AtZEff=  -0.0000000  -0.0000000  -0.0000000  -0.0000000  -0.0000000  -0.0000000  -0.0000000  -0.0000000  -0.0000000  -0.0000000
 NQMom=    0.0000000   0.0000000   0.0000000   0.0000000   0.0000000   0.0000000   0.0000000   0.0000000   0.0000000   0.0000000
 NMagM=    2.7928460   2.7928460   2.7928460   2.7928460   2.7928460   2.7928460   2.7928460   2.7928460   2.7928460   2.7928460
 AtZNuc=   1.0000000   1.0000000   1.0000000   1.0000000   1.0000000   1.0000000   1.0000000   1.0000000   1.0000000   1.0000000

  Atom       131         132         133         134         135         136         137         138         139         140
 IAtWgt=           1           1           1           1           1           1           1           1           1           1
 AtmWgt=   1.0078250   1.0078250   1.0078250   1.0078250   1.0078250   1.0078250   1.0078250   1.0078250   1.0078250   1.0078250
 NucSpn=           1           1           1           1           1           1           1           1           1           1
 AtZEff=  -0.0000000  -0.0000000  -0.0000000  -0.0000000  -0.0000000  -0.0000000  -0.0000000  -0.0000000  -0.0000000  -0.0000000
 NQMom=    0.0000000   0.0000000   0.0000000   0.0000000   0.0000000   0.0000000   0.0000000   0.0000000   0.0000000   0.0000000
 NMagM=    2.7928460   2.7928460   2.7928460   2.7928460   2.7928460   2.7928460   2.7928460   2.7928460   2.7928460   2.7928460
 AtZNuc=   1.0000000   1.0000000   1.0000000   1.0000000   1.0000000   1.0000000   1.0000000   1.0000000   1.0000000   1.0000000
 Leave Link  101 at Wed Apr 27 00:49:56 2022, MaxMem= 10066329600 cpu:               3.6 elap:               0.2
 (Enter /sw/apps/gaussian-16.0/g16/l202.exe)
 Stoichiometry    C55H74MgN4O6
 Framework group  C1[X(C55H74MgN4O6)]
 Deg. of freedom   414
 Full point group                 C1      NOp   1
 Largest Abelian subgroup         C1      NOp   1
 Largest concise Abelian subgroup C1      NOp   1
                         Standard orientation:                         
 ---------------------------------------------------------------------
 Center     Atomic      Atomic             Coordinates (Angstroms)
 Number     Number       Type             X           Y           Z
 ---------------------------------------------------------------------
      1         12           0        4.699591    1.313430   -0.416995
      2          6           0        5.237041   -2.040068   -0.662168
      3          6           0        2.478477    1.055876   -3.119760
      4          6           0        3.548512    4.469345    0.277245
      5          6           0        6.647788    1.384093    2.458248
      6          7           0        3.860405   -0.411396   -1.654290
      7          6           0        4.248897   -1.653340   -1.600441
      8          6           0        3.463031   -2.585800   -2.540148
      9          6           0        2.918132   -1.499059   -3.552341
     10          6           0        3.080065   -0.177990   -2.741101
     11          6           0        3.569358   -1.486035   -4.868469
     12          6           0        2.419787   -3.492364   -1.873735
     13          6           0        1.661283   -3.085934   -0.574615
     14          6           0        0.430677   -4.043794   -0.225534
     15          8           0        0.064097   -5.023737   -0.871083
     16          8           0       -0.121257   -3.703856    0.989816
     17          7           0        3.220058    2.646783   -1.296318
     18          6           0        2.564875    2.357930   -2.533815
     19          6           0        1.864187    3.566303   -2.955868
     20          6           0        2.165040    4.527569   -2.029648
     21          6           0        3.058853    3.928571   -0.949313
     22          6           0        0.928229    3.591447   -4.208756
     23          6           0        1.799022    6.093644   -2.101664
     24          8           0        1.193795    6.455818   -3.075783
     25          6           0        2.183165    7.144728   -1.050910
     26          7           0        4.837066    2.583610    1.252231
     27          6           0        4.316850    3.866462    1.300493
     28          6           0        4.921029    4.680635    2.530508
     29          6           0        5.859956    3.635430    3.257152
     30          6           0        5.848100    2.506913    2.223268
     31          6           0        5.473855    6.037785    2.218535
     32          6           0        5.362858    3.270623    4.691633
     33          6           0        6.577159    3.126700    5.553141
     34          7           0        5.952989    0.041471    0.570841
     35          6           0        6.785219    0.255256    1.651851
     36          6           0        7.492620   -0.977450    1.941356
     37          6           0        6.978882   -1.890473    0.969720
     38          6           0        5.962793   -1.233791    0.247654
     39          6           0        8.456578   -1.204619    3.060298
     40          6           0        7.002436   -3.247102    0.487104
     41          8           0        7.712255   -4.157411    0.913824
     42          6           0        5.862901   -3.408823   -0.579297
     43          6           0        6.422089   -3.986529   -1.835121
     44          8           0        6.694103   -5.149594   -2.056511
     45          8           0        6.594407   -2.997513   -2.740378
     46          6           0        7.260730   -3.495710   -3.992954
     47          6           0       -1.411385   -4.415709    1.364801
     48          6           0       -2.472309   -3.359344    1.677003
     49          6           0       -3.450881   -3.263373    2.595286
     50          6           0       -3.827231   -4.421988    3.532051
     51          6           0       -4.409724   -2.057722    2.587261
     52          6           0       -5.437081   -2.047291    1.448577
     53          6           0       -6.874849   -2.380100    2.079077
     54          6           0       -7.554903   -1.085984    2.722733
     55          6           0       -7.519428   -1.314075    4.226813
     56          6           0       -8.932204   -0.896170    2.196948
     57          6           0       -9.328494    0.546030    1.807566
     58          6           0       -9.364267    0.800843    0.270931
     59          6           0      -10.656731    0.217667   -0.501616
     60          6           0      -10.353385   -0.055431   -1.943624
     61          6           0      -11.838897    1.246864   -0.193314
     62          6           0      -13.303163    0.610332   -0.285297
     63          6           0      -14.112974    0.846950   -1.568891
     64          6           0      -15.590539    1.304585   -1.116898
     65          6           0      -16.547097    0.213491   -0.669206
     66          6           0      -16.212107    2.211481   -2.126907
     67          1           0        1.836571    0.911214   -3.990501
     68          1           0        3.119408    5.411470    0.624692
     69          1           0        7.290272    1.394769    3.341076
     70          1           0        4.073433   -3.362613   -3.000034
     71          1           0        1.837149   -1.608935   -3.646997
     72          1           0        4.454289   -2.094157   -5.057344
     73          1           0        3.820298   -0.466779   -5.161404
     74          1           0        2.809724   -1.881663   -5.542229
     75          1           0        2.881851   -4.473986   -1.768490
     76          1           0        1.694090   -3.705720   -2.658982
     77          1           0        1.241438   -2.081871   -0.636885
     78          1           0        2.318038   -3.026604    0.293312
     79          1           0        0.189113    4.382643   -4.084213
     80          1           0        0.204604    2.783291   -4.312603
     81          1           0        1.494807    3.802127   -5.115256
     82          1           0        1.696605    8.103842   -1.227607
     83          1           0        3.224183    7.465132   -1.071488
     84          1           0        1.955809    6.868221   -0.021725
     85          1           0        3.997751    4.851802    3.084306
     86          1           0        6.897424    3.965948    3.298816
     87          1           0        4.855072    6.816539    2.665932
     88          1           0        5.517720    6.187507    1.139672
     89          1           0        6.474188    6.118071    2.642051
     90          1           0        4.824540    2.324113    4.744743
     91          1           0        4.755346    4.061169    5.131619
     92          1           0        7.554741    3.289464    5.099292
     93          1           0        6.569875    2.089762    5.887606
     94          1           0        6.378692    3.786606    6.397800
     95          1           0        8.653536   -2.272210    3.158560
     96          1           0        8.069481   -0.796637    3.994600
     97          1           0        9.309389   -0.577091    2.799018
     98          1           0        5.185360   -4.126221   -0.116042
     99          1           0        7.696441   -2.705605   -4.604822
    100          1           0        6.637418   -4.164004   -4.588005
    101          1           0        8.143486   -4.031688   -3.646089
    102          1           0       -1.222923   -5.098000    2.193847
    103          1           0       -1.794589   -5.156019    0.662620
    104          1           0       -2.268862   -2.504940    1.030094
    105          1           0       -4.913050   -4.515025    3.527407
    106          1           0       -3.402799   -4.236901    4.519450
    107          1           0       -3.316573   -5.358464    3.310747
    108          1           0       -3.821215   -1.152100    2.443276
    109          1           0       -4.854646   -1.921809    3.572985
    110          1           0       -5.206842   -2.718720    0.620279
    111          1           0       -5.373899   -1.058421    0.994992
    112          1           0       -6.730594   -3.248715    2.722665
    113          1           0       -7.379525   -2.854286    1.236683
    114          1           0       -6.985881   -0.171343    2.557116
    115          1           0       -6.657684   -0.894423    4.746763
    116          1           0       -7.303982   -2.364649    4.421561
    117          1           0       -8.352807   -0.808090    4.714940
    118          1           0       -9.643845   -1.311874    2.910536
    119          1           0       -9.082418   -1.471420    1.283231
    120          1           0       -8.704686    1.341364    2.214188
    121          1           0      -10.280642    0.850129    2.243035
    122          1           0       -8.487995    0.419459   -0.253266
    123          1           0       -9.372018    1.870916    0.063076
    124          1           0      -10.866132   -0.749234   -0.045466
    125          1           0      -11.240956   -0.283481   -2.534390
    126          1           0       -9.620813   -0.859481   -2.007488
    127          1           0       -9.843457    0.772464   -2.435923
    128          1           0      -11.800283    2.201880   -0.716543
    129          1           0      -11.855954    1.671331    0.810636
    130          1           0      -13.867087    0.761101    0.635106
    131          1           0      -13.092829   -0.451592   -0.156458
    132          1           0      -14.284907   -0.099106   -2.081326
    133          1           0      -13.719201    1.570044   -2.283295
    134          1           0      -15.437494    1.996009   -0.288221
    135          1           0      -15.902990   -0.592381   -0.318748
    136          1           0      -17.170664   -0.070633   -1.517250
    137          1           0      -17.215271    0.531506    0.130573
    138          1           0      -16.228532    3.253839   -1.809787
    139          1           0      -17.251569    1.991734   -2.372911
    140          1           0      -15.611396    2.158404   -3.034546
 ---------------------------------------------------------------------
 Rotational constants (GHZ):           0.0358316           0.0103891           0.0095781
 Leave Link  202 at Wed Apr 27 00:49:56 2022, MaxMem= 10066329600 cpu:               0.2 elap:               0.0
 (Enter /sw/apps/gaussian-16.0/g16/l301.exe)
 Standard basis: def2SVP (5D, 7F)
 Ernie: Thresh=  0.10000D-02 Tol=  0.10000D-05 Strict=F.
 There are  1364 symmetry adapted cartesian basis functions of A   symmetry.
 There are  1298 symmetry adapted basis functions of A   symmetry.
  1298 basis functions,  2180 primitive gaussians,  1364 cartesian basis functions
   246 alpha electrons      246 beta electrons
       nuclear repulsion energy      9523.1523190612 Hartrees.
 IExCor=  402 DFT=T Ex=B Corr=LYP ExCW=0 ScaHFX=  0.000000
 ScaDFX=  1.000000  1.000000  1.000000  1.000000 ScalE2=  1.000000  1.000000
 IRadAn=      5 IRanWt=     -1 IRanGd=            0 ICorTp=0 IEmpDi=  4
 NAtoms=  140 NActive=  140 NUniq=  140 SFac= 1.00D+00 NAtFMM=   60 NAOKFM=T Big=T
 Integral buffers will be    131072 words long.
 Regular integral format.
 Two-electron integral symmetry is turned on.
 Leave Link  301 at Wed Apr 27 00:49:56 2022, MaxMem= 10066329600 cpu:               1.8 elap:               0.1
 (Enter /sw/apps/gaussian-16.0/g16/l302.exe)
 NPDir=0 NMtPBC=     1 NCelOv=     1 NCel=       1 NClECP=     1 NCelD=      1
         NCelK=      1 NCelE2=     1 NClLst=     1 CellRange=     0.0.
 One-electron integrals computed using PRISM.
 One-electron integral symmetry used in STVInt
   1 Symmetry operations used in ECPInt.
 ECPInt:  NShTT=  192510 NPrTT=  683786 LenC2=   94113 LenP2D=  204517.
 LDataN:  DoStor=T MaxTD1= 4 Len=   56
 NBasis=  1298 RedAO= T EigKep=  2.55D-04  NBF=  1298
 NBsUse=  1298 1.00D-06 EigRej= -1.00D+00 NBFU=  1298
 Precomputing XC quadrature grid using
 IXCGrd= 4 IRadAn=           5 IRanWt=          -1 IRanGd=           0 AccXCQ= 0.00D+00.
 Generated NRdTot=       0 NPtTot=           0 NUsed=           0 NTot=          32
 NSgBfM=  1073  1073  1073  1073  1073 MxSgAt=   140 MxSgA2=   140.
 Leave Link  302 at Wed Apr 27 00:50:00 2022, MaxMem= 10066329600 cpu:              82.5 elap:               3.5
 (Enter /sw/apps/gaussian-16.0/g16/l303.exe)
 DipDrv:  MaxL=1.
 Leave Link  303 at Wed Apr 27 00:50:00 2022, MaxMem= 10066329600 cpu:               5.9 elap:               0.3
 (Enter /sw/apps/gaussian-16.0/g16/l308.exe)
 Leave Link  308 at Wed Apr 27 00:50:01 2022, MaxMem= 10066329600 cpu:               9.0 elap:               0.4
 (Enter /sw/apps/gaussian-16.0/g16/l401.exe)
 ExpMin= 3.36D-02 ExpMax= 4.95D+03 ExpMxC= 7.45D+02 IAcc=3 IRadAn=         5 AccDes= 0.00D+00
 Harris functional with IExCor=  402 and IRadAn=       5 diagonalized for initial guess.
 HarFok:  IExCor=  402 AccDes= 0.00D+00 IRadAn=         5 IDoV= 1 UseB2=F ITyADJ=14
 ICtDFT=  3500011 ScaDFX=  1.000000  1.000000  1.000000  1.000000
 FoFCou: FMM=F IPFlag=           0 FMFlag=      100000 FMFlg1=        2001
         NFxFlg=           0 DoJE=T BraDBF=F KetDBF=T FulRan=T
         wScrn=  0.000000 ICntrl=       500 IOpCl=  0 I1Cent=   200000004 NGrid=           0
         NMat0=    1 NMatS0=      1 NMatT0=    0 NMatD0=    1 NMtDS0=    0 NMtDT0=    0
 Petite list used in FoFCou.
 Harris En= -3008.75783351609    
 JPrj=0 DoOrth=F DoCkMO=F.
 Leave Link  401 at Wed Apr 27 00:50:06 2022, MaxMem= 10066329600 cpu:             130.3 elap:               5.5
 (Enter /sw/apps/gaussian-16.0/g16/l502.exe)
 Integral symmetry usage will be decided dynamically.
 Closed shell SCF:
 Using DIIS extrapolation, IDIIS=  1040.
 NGot= 10066329600 LenX= 10062561258 LenY= 10060699398
 Requested convergence on RMS density matrix=1.00D-08 within 128 cycles.
 Requested convergence on MAX density matrix=1.00D-06.
 Requested convergence on             energy=1.00D-06.
 No special actions if energy rises.
 Fock matrices will be formed incrementally for  20 cycles.

 Cycle   1  Pass 1  IDiag  1:
 FoFJK:  IHMeth= 1 ICntrl=     500 DoSepK=F KAlg= 0 I1Cent=           0 FoldK=F
 IRaf= 500000000 NMat=       1 IRICut=       1 DoRegI=T DoRafI=F ISym2E= 0 IDoP0=0 IntGTp=1.
 FoFCou: FMM=T IPFlag=           0 FMFlag=      100000 FMFlg1=        2001
         NFxFlg=           0 DoJE=T BraDBF=F KetDBF=F FulRan=T
         wScrn=  0.000000 ICntrl=       500 IOpCl=  0 I1Cent=           0 NGrid=           0
         NMat0=    1 NMatS0=      1 NMatT0=    0 NMatD0=    1 NMtDS0=    0 NMtDT0=    0
 Symmetry not used in FoFCou.
 FMM levels:  10  Number of levels for PrismC:   9
 E= -3005.62498025017    
 DIIS: error= 2.02D-02 at cycle   1 NSaved=   1.
 NSaved= 1 IEnMin= 1 EnMin= -3005.62498025017     IErMin= 1 ErrMin= 2.02D-02
 ErrMax= 2.02D-02  0.00D+00 EMaxC= 1.00D-01 BMatC= 1.58D+00 BMatP= 1.58D+00
 IDIUse=3 WtCom= 7.98D-01 WtEn= 2.02D-01
 Coeff-Com:  0.100D+01
 Coeff-En:   0.100D+01
 Coeff:      0.100D+01
 Gap=     0.050 Goal=   None    Shift=    0.000
 GapD=    0.050 DampG=0.250 DampE=0.500 DampFc=0.2500 IDamp=-1.
 Damping current iteration by 2.50D-01
 RMSDP=3.76D-03 MaxDP=4.78D-01              OVMax= 8.66D-01

 Cycle   2  Pass 1  IDiag  1:
 RMSU=  9.34D-04    CP:  9.89D-01
 E= -3006.12191991712     Delta-E=       -0.496939666958 Rises=F Damp=T
 DIIS: error= 8.07D-03 at cycle   2 NSaved=   2.
 NSaved= 2 IEnMin= 2 EnMin= -3006.12191991712     IErMin= 2 ErrMin= 8.07D-03
 ErrMax= 8.07D-03  0.00D+00 EMaxC= 1.00D-01 BMatC= 2.61D-01 BMatP= 1.58D+00
 IDIUse=3 WtCom= 9.19D-01 WtEn= 8.07D-02
 Coeff-Com: -0.265D+00 0.126D+01
 Coeff-En:   0.112D+00 0.888D+00
 Coeff:     -0.234D+00 0.123D+01
 Gap=     0.159 Goal=   None    Shift=    0.000
 RMSDP=1.64D-03 MaxDP=2.05D-01 DE=-4.97D-01 OVMax= 5.43D-01

 Cycle   3  Pass 1  IDiag  1:
 RMSU=  1.61D-03    CP:  9.66D-01  1.22D+00
 E= -3005.18863815761     Delta-E=        0.933281759515 Rises=F Damp=F
 DIIS: error= 4.36D-02 at cycle   3 NSaved=   3.
 NSaved= 3 IEnMin= 2 EnMin= -3006.12191991712     IErMin= 2 ErrMin= 8.07D-03
 ErrMax= 4.36D-02  0.00D+00 EMaxC= 1.00D-01 BMatC= 1.66D+00 BMatP= 2.61D-01
 IDIUse=2 WtCom= 0.00D+00 WtEn= 1.00D+00
 Coeff-En:   0.000D+00 0.673D+00 0.327D+00
 Coeff:      0.000D+00 0.673D+00 0.327D+00
 Gap=     0.082 Goal=   None    Shift=    0.000
 RMSDP=2.25D-03 MaxDP=4.13D-01 DE= 9.33D-01 OVMax= 8.38D-01

 Cycle   4  Pass 1  IDiag  1:
 RMSU=  1.20D-03    CP:  9.68D-01  1.93D+00 -1.03D-01
 E= -3003.32349987931     Delta-E=        1.865138278299 Rises=F Damp=F
 DIIS: error= 4.41D-02 at cycle   4 NSaved=   4.
 NSaved= 4 IEnMin= 2 EnMin= -3006.12191991712     IErMin= 2 ErrMin= 8.07D-03
 ErrMax= 4.41D-02  0.00D+00 EMaxC= 1.00D-01 BMatC= 2.67D+00 BMatP= 2.61D-01
 IDIUse=2 WtCom= 0.00D+00 WtEn= 1.00D+00
 EnCoef did     1 forward-backward iterations
 Coeff-En:   0.126D+00 0.000D+00 0.514D+00 0.359D+00
 Coeff:      0.126D+00 0.000D+00 0.514D+00 0.359D+00
 Gap=    -0.007 Goal=   None    Shift=    0.000
 RMSDP=1.59D-03 MaxDP=2.46D-01 DE= 1.87D+00 OVMax= 6.70D-01

 Cycle   5  Pass 1  IDiag  1:
 RMSU=  7.71D-04    CP:  9.80D-01  1.21D+00  9.74D-02  3.18D-02
 E= -3006.96391782610     Delta-E=       -3.640417946788 Rises=F Damp=F
 DIIS: error= 3.09D-02 at cycle   5 NSaved=   5.
 NSaved= 5 IEnMin= 5 EnMin= -3006.96391782610     IErMin= 2 ErrMin= 8.07D-03
 ErrMax= 3.09D-02  0.00D+00 EMaxC= 1.00D-01 BMatC= 4.28D-01 BMatP= 2.61D-01
 IDIUse=2 WtCom= 0.00D+00 WtEn= 1.00D+00
 EnCoef did     4 forward-backward iterations
 Coeff-En:   0.000D+00 0.000D+00 0.208D+00 0.134D+00 0.658D+00
 Coeff:      0.000D+00 0.000D+00 0.208D+00 0.134D+00 0.658D+00
 Gap=     0.156 Goal=   None    Shift=    0.000
 RMSDP=1.48D-03 MaxDP=1.97D-01 DE=-3.64D+00 OVMax= 6.30D-01

 Cycle   6  Pass 1  IDiag  1:
 RMSU=  1.17D-03    CP:  9.75D-01  1.01D+00  2.95D-01  2.23D-01 -3.59D-02
 E= -3006.22608118503     Delta-E=        0.737836641067 Rises=F Damp=F
 DIIS: error= 5.25D-02 at cycle   6 NSaved=   6.
 NSaved= 6 IEnMin= 5 EnMin= -3006.96391782610     IErMin= 2 ErrMin= 8.07D-03
 ErrMax= 5.25D-02  0.00D+00 EMaxC= 1.00D-01 BMatC= 1.15D+00 BMatP= 2.61D-01
 IDIUse=2 WtCom= 0.00D+00 WtEn= 1.00D+00
 Coeff-En:   0.000D+00 0.000D+00 0.000D+00 0.000D+00 0.675D+00 0.325D+00
 Coeff:      0.000D+00 0.000D+00 0.000D+00 0.000D+00 0.675D+00 0.325D+00
 Gap=     0.089 Goal=   None    Shift=    0.000
 RMSDP=1.00D-03 MaxDP=9.28D-02 DE= 7.38D-01 OVMax= 5.60D-01

 Cycle   7  Pass 1  IDiag  1:
 RMSU=  4.97D-04    CP:  9.77D-01  1.21D+00  2.83D-01  4.88D-03  6.09D-01
                    CP:  4.51D-01
 E= -3007.19953172490     Delta-E=       -0.973450539872 Rises=F Damp=F
 DIIS: error= 1.15D-02 at cycle   7 NSaved=   7.
 NSaved= 7 IEnMin= 7 EnMin= -3007.19953172490     IErMin= 2 ErrMin= 8.07D-03
 ErrMax= 1.15D-02  0.00D+00 EMaxC= 1.00D-01 BMatC= 1.45D-01 BMatP= 2.61D-01
 IDIUse=3 WtCom= 8.85D-01 WtEn= 1.15D-01
 EnCoef did     4 forward-backward iterations
 Coeff-Com: -0.442D-01 0.102D+00 0.314D-01 0.688D-02 0.421D+00 0.194D+00
 Coeff-Com:  0.289D+00
 Coeff-En:   0.000D+00 0.000D+00 0.000D+00 0.000D+00 0.338D+00 0.715D-01
 Coeff-En:   0.591D+00
 Coeff:     -0.391D-01 0.907D-01 0.278D-01 0.609D-02 0.411D+00 0.180D+00
 Coeff:      0.323D+00
 Gap=     0.040 Goal=   None    Shift=    0.000
 RMSDP=6.11D-04 MaxDP=6.24D-02 DE=-9.73D-01 OVMax= 3.52D-01

 Cycle   8  Pass 1  IDiag  1:
 RMSU=  2.71D-04    CP:  9.77D-01  1.18D+00  1.86D-01  1.06D-01  5.56D-01
                    CP:  4.90D-01 -1.88D-02
 E= -3007.27855033189     Delta-E=       -0.079018606986 Rises=F Damp=F
 DIIS: error= 4.56D-03 at cycle   8 NSaved=   8.
 NSaved= 8 IEnMin= 8 EnMin= -3007.27855033189     IErMin= 8 ErrMin= 4.56D-03
 ErrMax= 4.56D-03  0.00D+00 EMaxC= 1.00D-01 BMatC= 4.96D-02 BMatP= 1.45D-01
 IDIUse=3 WtCom= 9.54D-01 WtEn= 4.56D-02
 EnCoef did     3 forward-backward iterations
 Coeff-Com: -0.139D-01 0.689D-01 0.128D-02-0.241D-02 0.206D+00 0.448D-01
 Coeff-Com:  0.335D+00 0.360D+00
 Coeff-En:   0.000D+00 0.000D+00 0.000D+00 0.000D+00 0.841D-01 0.000D+00
 Coeff-En:   0.341D+00 0.574D+00
 Coeff:     -0.133D-01 0.657D-01 0.123D-02-0.230D-02 0.201D+00 0.427D-01
 Coeff:      0.335D+00 0.370D+00
 Gap=     0.040 Goal=   None    Shift=    0.000
 RMSDP=3.80D-04 MaxDP=4.81D-02 DE=-7.90D-02 OVMax= 3.08D-01

 Cycle   9  Pass 1  IDiag  1:
 RMSU=  1.24D-04    CP:  9.79D-01  1.16D+00  2.02D-01  3.59D-02  7.25D-01
                    CP:  3.96D-01  4.48D-01  2.82D-01
 E= -3007.34626560310     Delta-E=       -0.067715271205 Rises=F Damp=F
 DIIS: error= 2.15D-03 at cycle   9 NSaved=   9.
 NSaved= 9 IEnMin= 9 EnMin= -3007.34626560310     IErMin= 9 ErrMin= 2.15D-03
 ErrMax= 2.15D-03  0.00D+00 EMaxC= 1.00D-01 BMatC= 6.88D-03 BMatP= 4.96D-02
 IDIUse=3 WtCom= 9.78D-01 WtEn= 2.15D-02
 Coeff-Com:  0.350D-02 0.238D-01-0.572D-02 0.149D-02 0.576D-01-0.158D-01
 Coeff-Com:  0.201D+00 0.317D+00 0.417D+00
 Coeff-En:   0.000D+00 0.000D+00 0.000D+00 0.000D+00 0.000D+00 0.000D+00
 Coeff-En:   0.000D+00 0.163D+00 0.837D+00
 Coeff:      0.343D-02 0.233D-01-0.559D-02 0.146D-02 0.564D-01-0.154D-01
 Coeff:      0.197D+00 0.314D+00 0.426D+00
 Gap=     0.043 Goal=   None    Shift=    0.000
 RMSDP=1.38D-04 MaxDP=1.49D-02 DE=-6.77D-02 OVMax= 1.11D-01

 Cycle  10  Pass 1  IDiag  1:
 RMSU=  6.71D-05    CP:  9.78D-01  1.17D+00  1.94D-01  4.75D-02  6.83D-01
                    CP:  4.09D-01  3.90D-01  5.28D-01  3.02D-01
 E= -3007.35207988715     Delta-E=       -0.005814284059 Rises=F Damp=F
 DIIS: error= 1.20D-03 at cycle  10 NSaved=  10.
 NSaved=10 IEnMin=10 EnMin= -3007.35207988715     IErMin=10 ErrMin= 1.20D-03
 ErrMax= 1.20D-03  0.00D+00 EMaxC= 1.00D-01 BMatC= 2.00D-03 BMatP= 6.88D-03
 IDIUse=3 WtCom= 9.88D-01 WtEn= 1.20D-02
 Coeff-Com:  0.465D-02 0.103D-01-0.536D-02 0.176D-02 0.216D-01-0.175D-01
 Coeff-Com:  0.122D+00 0.213D+00 0.360D+00 0.289D+00
 Coeff-En:   0.000D+00 0.000D+00 0.000D+00 0.000D+00 0.000D+00 0.000D+00
 Coeff-En:   0.000D+00 0.000D+00 0.291D+00 0.709D+00
 Coeff:      0.459D-02 0.102D-01-0.530D-02 0.173D-02 0.214D-01-0.173D-01
 Coeff:      0.121D+00 0.211D+00 0.359D+00 0.294D+00
 Gap=     0.044 Goal=   None    Shift=    0.000
 RMSDP=7.84D-05 MaxDP=6.54D-03 DE=-5.81D-03 OVMax= 5.36D-02

 Cycle  11  Pass 1  IDiag  1:
 RMSU=  3.02D-05    CP:  9.78D-01  1.17D+00  1.95D-01  4.58D-02  6.90D-01
                    CP:  4.03D-01  3.95D-01  4.81D-01  5.68D-01  7.01D-02
 E= -3007.35424471459     Delta-E=       -0.002164827438 Rises=F Damp=F
 DIIS: error= 5.02D-04 at cycle  11 NSaved=  11.
 NSaved=11 IEnMin=11 EnMin= -3007.35424471459     IErMin=11 ErrMin= 5.02D-04
 ErrMax= 5.02D-04  0.00D+00 EMaxC= 1.00D-01 BMatC= 4.61D-04 BMatP= 2.00D-03
 IDIUse=3 WtCom= 9.95D-01 WtEn= 5.02D-03
 Coeff-Com: -0.312D-04 0.668D-02-0.294D-02 0.100D-02 0.123D-02-0.696D-02
 Coeff-Com:  0.376D-01 0.772D-01 0.186D+00 0.286D+00 0.414D+00
 Coeff-En:   0.000D+00 0.000D+00 0.000D+00 0.000D+00 0.000D+00 0.000D+00
 Coeff-En:   0.000D+00 0.000D+00 0.000D+00 0.267D+00 0.733D+00
 Coeff:     -0.310D-04 0.665D-02-0.293D-02 0.995D-03 0.122D-02-0.693D-02
 Coeff:      0.374D-01 0.768D-01 0.185D+00 0.286D+00 0.415D+00
 Gap=     0.044 Goal=   None    Shift=    0.000
 RMSDP=3.75D-05 MaxDP=2.33D-03 DE=-2.16D-03 OVMax= 2.45D-02

 Cycle  12  Pass 1  IDiag  1:
 RMSU=  1.76D-05    CP:  9.78D-01  1.17D+00  1.94D-01  4.77D-02  6.87D-01
                    CP:  4.08D-01  3.95D-01  4.94D-01  5.06D-01  4.03D-01
                    CP:  2.79D-01
 E= -3007.35474283089     Delta-E=       -0.000498116300 Rises=F Damp=F
 DIIS: error= 4.12D-04 at cycle  12 NSaved=  12.
 NSaved=12 IEnMin=12 EnMin= -3007.35474283089     IErMin=12 ErrMin= 4.12D-04
 ErrMax= 4.12D-04  0.00D+00 EMaxC= 1.00D-01 BMatC= 1.50D-04 BMatP= 4.61D-04
 IDIUse=3 WtCom= 9.96D-01 WtEn= 4.12D-03
 Coeff-Com: -0.307D-02 0.717D-02-0.109D-02 0.181D-03-0.372D-02-0.522D-03
 Coeff-Com:  0.135D-02 0.124D-01 0.773D-01 0.184D+00 0.380D+00 0.345D+00
 Coeff-En:   0.000D+00 0.000D+00 0.000D+00 0.000D+00 0.000D+00 0.000D+00
 Coeff-En:   0.000D+00 0.000D+00 0.000D+00 0.000D+00 0.264D+00 0.736D+00
 Coeff:     -0.305D-02 0.714D-02-0.109D-02 0.180D-03-0.370D-02-0.519D-03
 Coeff:      0.135D-02 0.124D-01 0.770D-01 0.183D+00 0.380D+00 0.347D+00
 Gap=     0.044 Goal=   None    Shift=    0.000
 RMSDP=1.51D-05 MaxDP=1.10D-03 DE=-4.98D-04 OVMax= 9.25D-03

 Cycle  13  Pass 1  IDiag  1:
 RMSU=  6.67D-06    CP:  9.78D-01  1.17D+00  1.94D-01  4.72D-02  6.87D-01
                    CP:  4.10D-01  3.95D-01  4.96D-01  5.18D-01  3.58D-01
                    CP:  5.02D-01  3.66D-01
 E= -3007.35491552980     Delta-E=       -0.000172698905 Rises=F Damp=F
 DIIS: error= 1.12D-04 at cycle  13 NSaved=  13.
 NSaved=13 IEnMin=13 EnMin= -3007.35491552980     IErMin=13 ErrMin= 1.12D-04
 ErrMax= 1.12D-04  0.00D+00 EMaxC= 1.00D-01 BMatC= 1.40D-05 BMatP= 1.50D-04
 IDIUse=3 WtCom= 9.99D-01 WtEn= 1.12D-03
 Coeff-Com: -0.311D-02 0.600D-02-0.325D-03-0.869D-04-0.239D-02 0.104D-02
 Coeff-Com: -0.485D-02-0.395D-02 0.302D-01 0.845D-01 0.211D+00 0.249D+00
 Coeff-Com:  0.433D+00
 Coeff-En:   0.000D+00 0.000D+00 0.000D+00 0.000D+00 0.000D+00 0.000D+00
 Coeff-En:   0.000D+00 0.000D+00 0.000D+00 0.000D+00 0.000D+00 0.557D-01
 Coeff-En:   0.944D+00
 Coeff:     -0.310D-02 0.600D-02-0.325D-03-0.868D-04-0.238D-02 0.104D-02
 Coeff:     -0.485D-02-0.394D-02 0.301D-01 0.845D-01 0.210D+00 0.249D+00
 Coeff:      0.433D+00
 Gap=     0.044 Goal=   None    Shift=    0.000
 RMSDP=4.51D-06 MaxDP=3.44D-04 DE=-1.73D-04 OVMax= 1.62D-03

 Cycle  14  Pass 1  IDiag  1:
 RMSU=  2.28D-06    CP:  9.78D-01  1.17D+00  1.94D-01  4.69D-02  6.88D-01
                    CP:  4.10D-01  3.95D-01  4.93D-01  5.26D-01  3.64D-01
                    CP:  4.82D-01  4.44D-01  5.10D-01
 E= -3007.35492918571     Delta-E=       -0.000013655917 Rises=F Damp=F
 DIIS: error= 4.68D-05 at cycle  14 NSaved=  14.
 NSaved=14 IEnMin=14 EnMin= -3007.35492918571     IErMin=14 ErrMin= 4.68D-05
 ErrMax= 4.68D-05  0.00D+00 EMaxC= 1.00D-01 BMatC= 2.28D-06 BMatP= 1.40D-05
 IDIUse=1 WtCom= 1.00D+00 WtEn= 0.00D+00
 Coeff-Com: -0.206D-02 0.378D-02-0.167D-03-0.607D-04-0.111D-02 0.815D-03
 Coeff-Com: -0.353D-02-0.468D-02 0.123D-01 0.318D-01 0.962D-01 0.126D+00
 Coeff-Com:  0.301D+00 0.440D+00
 Coeff:     -0.206D-02 0.378D-02-0.167D-03-0.607D-04-0.111D-02 0.815D-03
 Coeff:     -0.353D-02-0.468D-02 0.123D-01 0.318D-01 0.962D-01 0.126D+00
 Coeff:      0.301D+00 0.440D+00
 Gap=     0.044 Goal=   None    Shift=    0.000
 RMSDP=1.70D-06 MaxDP=1.63D-04 DE=-1.37D-05 OVMax= 6.88D-04

 Cycle  15  Pass 1  IDiag  1:
 RMSU=  1.21D-06    CP:  9.78D-01  1.17D+00  1.94D-01  4.68D-02  6.88D-01
                    CP:  4.10D-01  3.96D-01  4.92D-01  5.27D-01  3.61D-01
                    CP:  4.93D-01  4.23D-01  5.72D-01  6.81D-01
 E= -3007.35493096352     Delta-E=       -0.000001777807 Rises=F Damp=F
 DIIS: error= 2.19D-05 at cycle  15 NSaved=  15.
 NSaved=15 IEnMin=15 EnMin= -3007.35493096352     IErMin=15 ErrMin= 2.19D-05
 ErrMax= 2.19D-05  0.00D+00 EMaxC= 1.00D-01 BMatC= 7.04D-07 BMatP= 2.28D-06
 IDIUse=1 WtCom= 1.00D+00 WtEn= 0.00D+00
 Coeff-Com: -0.837D-03 0.136D-02-0.961D-04-0.170D-04-0.146D-03 0.403D-03
 Coeff-Com: -0.158D-02-0.324D-02-0.908D-03-0.692D-02 0.133D-02 0.135D-01
 Coeff-Com:  0.995D-01 0.366D+00 0.532D+00
 Coeff:     -0.837D-03 0.136D-02-0.961D-04-0.170D-04-0.146D-03 0.403D-03
 Coeff:     -0.158D-02-0.324D-02-0.908D-03-0.692D-02 0.133D-02 0.135D-01
 Coeff:      0.995D-01 0.366D+00 0.532D+00
 Gap=     0.044 Goal=   None    Shift=    0.000
 RMSDP=9.56D-07 MaxDP=1.65D-04 DE=-1.78D-06 OVMax= 2.73D-04

 Cycle  16  Pass 1  IDiag  1:
 RMSU=  5.95D-07    CP:  9.78D-01  1.17D+00  1.94D-01  4.69D-02  6.88D-01
                    CP:  4.10D-01  3.96D-01  4.92D-01  5.29D-01  3.60D-01
                    CP:  4.92D-01  4.34D-01  5.93D-01  8.12D-01  7.46D-01
 E= -3007.35493149192     Delta-E=       -0.000000528396 Rises=F Damp=F
 DIIS: error= 1.08D-05 at cycle  16 NSaved=  16.
 NSaved=16 IEnMin=16 EnMin= -3007.35493149192     IErMin=16 ErrMin= 1.08D-05
 ErrMax= 1.08D-05  0.00D+00 EMaxC= 1.00D-01 BMatC= 1.88D-07 BMatP= 7.04D-07
 IDIUse=1 WtCom= 1.00D+00 WtEn= 0.00D+00
 Coeff-Com: -0.232D-03 0.259D-03-0.560D-04-0.183D-05 0.930D-04 0.178D-03
 Coeff-Com: -0.574D-03-0.166D-02-0.452D-02-0.153D-01-0.268D-01-0.233D-01
 Coeff-Com:  0.113D-02 0.186D+00 0.425D+00 0.460D+00
 Coeff:     -0.232D-03 0.259D-03-0.560D-04-0.183D-05 0.930D-04 0.178D-03
 Coeff:     -0.574D-03-0.166D-02-0.452D-02-0.153D-01-0.268D-01-0.233D-01
 Coeff:      0.113D-02 0.186D+00 0.425D+00 0.460D+00
 Gap=     0.044 Goal=   None    Shift=    0.000
 RMSDP=5.04D-07 MaxDP=1.14D-04 DE=-5.28D-07 OVMax= 1.97D-04

 Cycle  17  Pass 1  IDiag  1:
 RMSU=  2.97D-07    CP:  9.78D-01  1.17D+00  1.93D-01  4.69D-02  6.89D-01
                    CP:  4.10D-01  3.96D-01  4.92D-01  5.30D-01  3.60D-01
                    CP:  4.92D-01  4.34D-01  6.15D-01  8.74D-01  8.38D-01
                    CP:  7.00D-01
 E= -3007.35493167071     Delta-E=       -0.000000178794 Rises=F Damp=F
 DIIS: error= 6.14D-06 at cycle  17 NSaved=  17.
 NSaved=17 IEnMin=17 EnMin= -3007.35493167071     IErMin=17 ErrMin= 6.14D-06
 ErrMax= 6.14D-06  0.00D+00 EMaxC= 1.00D-01 BMatC= 2.87D-08 BMatP= 1.88D-07
 IDIUse=1 WtCom= 1.00D+00 WtEn= 0.00D+00
 Coeff-Com: -0.134D-04-0.505D-04-0.245D-04 0.373D-05 0.328D-04 0.539D-04
 Coeff-Com: -0.142D-03-0.491D-03-0.304D-02-0.928D-02-0.197D-01-0.191D-01
 Coeff-Com: -0.198D-01 0.543D-01 0.180D+00 0.325D+00 0.512D+00
 Coeff:     -0.134D-04-0.505D-04-0.245D-04 0.373D-05 0.328D-04 0.539D-04
 Coeff:     -0.142D-03-0.491D-03-0.304D-02-0.928D-02-0.197D-01-0.191D-01
 Coeff:     -0.198D-01 0.543D-01 0.180D+00 0.325D+00 0.512D+00
 Gap=     0.044 Goal=   None    Shift=    0.000
 RMSDP=2.00D-07 MaxDP=2.04D-05 DE=-1.79D-07 OVMax= 9.61D-05

 Cycle  18  Pass 1  IDiag  1:
 RMSU=  1.04D-07    CP:  9.78D-01  1.17D+00  1.93D-01  4.69D-02  6.88D-01
                    CP:  4.10D-01  3.96D-01  4.92D-01  5.30D-01  3.60D-01
                    CP:  4.91D-01  4.37D-01  6.19D-01  8.88D-01  8.66D-01
                    CP:  7.41D-01  6.55D-01
 E= -3007.35493170055     Delta-E=       -0.000000029842 Rises=F Damp=F
 DIIS: error= 1.19D-06 at cycle  18 NSaved=  18.
 NSaved=18 IEnMin=18 EnMin= -3007.35493170055     IErMin=18 ErrMin= 1.19D-06
 ErrMax= 1.19D-06  0.00D+00 EMaxC= 1.00D-01 BMatC= 4.06D-09 BMatP= 2.87D-08
 IDIUse=1 WtCom= 1.00D+00 WtEn= 0.00D+00
 Coeff-Com:  0.139D-05-0.200D-04-0.578D-05 0.531D-06-0.167D-04 0.170D-04
 Coeff-Com: -0.493D-04-0.967D-04-0.128D-02-0.373D-02-0.867D-02-0.866D-02
 Coeff-Com: -0.116D-01 0.122D-01 0.579D-01 0.146D+00 0.346D+00 0.472D+00
 Coeff:      0.139D-05-0.200D-04-0.578D-05 0.531D-06-0.167D-04 0.170D-04
 Coeff:     -0.493D-04-0.967D-04-0.128D-02-0.373D-02-0.867D-02-0.866D-02
 Coeff:     -0.116D-01 0.122D-01 0.579D-01 0.146D+00 0.346D+00 0.472D+00
 Gap=     0.044 Goal=   None    Shift=    0.000
 RMSDP=8.44D-08 MaxDP=8.42D-06 DE=-2.98D-08 OVMax= 4.84D-05

 Cycle  19  Pass 1  IDiag  1:
 RMSU=  3.97D-08    CP:  9.78D-01  1.17D+00  1.93D-01  4.69D-02  6.88D-01
                    CP:  4.10D-01  3.96D-01  4.92D-01  5.30D-01  3.60D-01
                    CP:  4.91D-01  4.36D-01  6.20D-01  8.95D-01  8.68D-01
                    CP:  7.43D-01  6.80D-01  5.18D-01
 E= -3007.35493170471     Delta-E=       -0.000000004156 Rises=F Damp=F
 DIIS: error= 8.42D-07 at cycle  19 NSaved=  19.
 NSaved=19 IEnMin=19 EnMin= -3007.35493170471     IErMin=19 ErrMin= 8.42D-07
 ErrMax= 8.42D-07  0.00D+00 EMaxC= 1.00D-01 BMatC= 4.61D-10 BMatP= 4.06D-09
 IDIUse=1 WtCom= 1.00D+00 WtEn= 0.00D+00
 Coeff-Com: -0.122D-05-0.172D-05-0.176D-05 0.160D-06-0.152D-04 0.681D-05
 Coeff-Com: -0.193D-04-0.247D-04-0.538D-03-0.161D-02-0.383D-02-0.390D-02
 Coeff-Com: -0.542D-02 0.452D-02 0.235D-01 0.671D-01 0.179D+00 0.316D+00
 Coeff-Com:  0.425D+00
 Coeff:     -0.122D-05-0.172D-05-0.176D-05 0.160D-06-0.152D-04 0.681D-05
 Coeff:     -0.193D-04-0.247D-04-0.538D-03-0.161D-02-0.383D-02-0.390D-02
 Coeff:     -0.542D-02 0.452D-02 0.235D-01 0.671D-01 0.179D+00 0.316D+00
 Coeff:      0.425D+00
 Gap=     0.044 Goal=   None    Shift=    0.000
 RMSDP=2.77D-08 MaxDP=2.62D-06 DE=-4.16D-09 OVMax= 1.18D-05

 Cycle  20  Pass 1  IDiag  1:
 RMSU=  1.70D-08    CP:  9.78D-01  1.17D+00  1.93D-01  4.69D-02  6.88D-01
                    CP:  4.10D-01  3.96D-01  4.92D-01  5.30D-01  3.60D-01
                    CP:  4.91D-01  4.36D-01  6.19D-01  8.93D-01  8.66D-01
                    CP:  7.44D-01  6.79D-01  5.62D-01  5.45D-01
 E= -3007.35493170516     Delta-E=       -0.000000000449 Rises=F Damp=F
 DIIS: error= 2.21D-07 at cycle  20 NSaved=  20.
 NSaved=20 IEnMin=20 EnMin= -3007.35493170516     IErMin=20 ErrMin= 2.21D-07
 ErrMax= 2.21D-07  0.00D+00 EMaxC= 1.00D-01 BMatC= 8.76D-11 BMatP= 4.61D-10
 IDIUse=1 WtCom= 1.00D+00 WtEn= 0.00D+00
 Coeff-Com: -0.741D-06 0.137D-05-0.208D-06-0.162D-06-0.735D-05 0.207D-05
 Coeff-Com: -0.452D-05-0.304D-05-0.162D-03-0.508D-03-0.122D-02-0.130D-02
 Coeff-Com: -0.192D-02 0.911D-03 0.621D-02 0.214D-01 0.662D-01 0.143D+00
 Coeff-Com:  0.315D+00 0.452D+00
 Coeff:     -0.741D-06 0.137D-05-0.208D-06-0.162D-06-0.735D-05 0.207D-05
 Coeff:     -0.452D-05-0.304D-05-0.162D-03-0.508D-03-0.122D-02-0.130D-02
 Coeff:     -0.192D-02 0.911D-03 0.621D-02 0.214D-01 0.662D-01 0.143D+00
 Coeff:      0.315D+00 0.452D+00
 Gap=     0.044 Goal=   None    Shift=    0.000
 RMSDP=1.16D-08 MaxDP=1.00D-06 DE=-4.49D-10 OVMax= 3.20D-06

 Cycle  21  Pass 1  IDiag  1:
 Restarting incremental Fock formation.
 E= -3007.35493170520     Delta-E=       -0.000000000042 Rises=F Damp=F
 DIIS: error= 4.31D-08 at cycle  21 NSaved=  20.
 NSaved=20 IEnMin=20 EnMin= -3007.35493170520     IErMin=20 ErrMin= 4.31D-08
 ErrMax= 4.31D-08  0.00D+00 EMaxC= 1.00D-01 BMatC= 9.53D-12 BMatP= 8.76D-11
 IDIUse=1 WtCom= 1.00D+00 WtEn= 0.00D+00
 Coeff-Com: -0.570D-06 0.127D-05-0.171D-07-0.364D-05 0.757D-06-0.146D-05
 Coeff-Com:  0.190D-06-0.494D-04-0.167D-03-0.408D-03-0.449D-03-0.717D-03
 Coeff-Com:  0.213D-03 0.179D-02 0.759D-02 0.265D-01 0.648D-01 0.174D+00
 Coeff-Com:  0.308D+00 0.420D+00
 Coeff:     -0.570D-06 0.127D-05-0.171D-07-0.364D-05 0.757D-06-0.146D-05
 Coeff:      0.190D-06-0.494D-04-0.167D-03-0.408D-03-0.449D-03-0.717D-03
 Coeff:      0.213D-03 0.179D-02 0.759D-02 0.265D-01 0.648D-01 0.174D+00
 Coeff:      0.308D+00 0.420D+00
 Gap=     0.044 Goal=   None    Shift=    0.000
 RMSDP=4.11D-09 MaxDP=4.74D-07 DE=-4.18D-11 OVMax= 1.79D-06

 SCF Done:  E(RB-LYP) =  -3007.35493171     A.U. after   21 cycles
            NFock= 21  Conv=0.41D-08     -V/T= 2.0100
 KE= 2.977491018930D+03 PE=-2.604123091191D+04 EE= 1.053323264221D+04
 Leave Link  502 at Wed Apr 27 00:53:55 2022, MaxMem= 10066329600 cpu:            5463.9 elap:             228.5
 (Enter /sw/apps/gaussian-16.0/g16/l801.exe)
 DoSCS=F DFT=T ScalE2(SS,OS)=  1.000000  1.000000
 ExpMin= 3.36D-02 ExpMax= 4.95D+03 ExpMxC= 7.45D+02 IAcc=3 IRadAn=         5 AccDes= 0.00D+00
 HarFok:  IExCor=  205 AccDes= 0.00D+00 IRadAn=         5 IDoV=-2 UseB2=F ITyADJ=14
 ICtDFT= 12500011 ScaDFX=  1.000000  1.000000  1.000000  1.000000
 GSVD:  LWork=       -5460 too small for GESVD, short by       25550 words or       25550 for optimal perf.
 Largest valence mixing into a core orbital is  1.37D-04
 Largest core mixing into a valence orbital is  4.44D-05
 Range of M.O.s used for correlation:    71  1298
 NBasis=  1298 NAE=   246 NBE=   246 NFC=    70 NFV=     0
 NROrb=   1228 NOA=   176 NOB=   176 NVA=  1052 NVB=  1052

 **** Warning!!: The smallest alpha delta epsilon is  0.43710153D-01

 Leave Link  801 at Wed Apr 27 00:53:55 2022, MaxMem= 10066329600 cpu:               6.4 elap:               0.3
 (Enter /sw/apps/gaussian-16.0/g16/l914.exe)
 RHF ground state
 Two-electron integrals replicated using symmetry.
 MDV= 10066329600 DFT=T DoStab=F Mixed=F DoRPA=T DoScal=T NonHer=F
 Making orbital integer symmetry assigments:
 Orbital symmetries:
       Occupied  (A) (A) (A) (A) (A) (A) (A) (A) (A) (A) (A) (A)
                 (A) (A) (A) (A) (A) (A) (A) (A) (A) (A) (A) (A)
                 (A) (A) (A) (A) (A) (A) (A) (A) (A) (A) (A) (A)
                 (A) (A) (A) (A) (A) (A) (A) (A) (A) (A) (A) (A)
                 (A) (A) (A) (A) (A) (A) (A) (A) (A) (A) (A) (A)
                 (A) (A) (A) (A) (A) (A) (A) (A) (A) (A) (A) (A)
                 (A) (A) (A) (A) (A) (A) (A) (A) (A) (A) (A) (A)
                 (A) (A) (A) (A) (A) (A) (A) (A) (A) (A) (A) (A)
                 (A) (A) (A) (A) (A) (A) (A) (A) (A) (A) (A) (A)
                 (A) (A) (A) (A) (A) (A) (A) (A) (A) (A) (A) (A)
                 (A) (A) (A) (A) (A) (A) (A) (A) (A) (A) (A) (A)
                 (A) (A) (A) (A) (A) (A) (A) (A) (A) (A) (A) (A)
                 (A) (A) (A) (A) (A) (A) (A) (A) (A) (A) (A) (A)
                 (A) (A) (A) (A) (A) (A) (A) (A) (A) (A) (A) (A)
                 (A) (A) (A) (A) (A) (A) (A) (A) (A) (A) (A) (A)
                 (A) (A) (A) (A) (A) (A) (A) (A) (A) (A) (A) (A)
                 (A) (A) (A) (A) (A) (A) (A) (A) (A) (A) (A) (A)
                 (A) (A) (A) (A) (A) (A) (A) (A) (A) (A) (A) (A)
                 (A) (A) (A) (A) (A) (A) (A) (A) (A) (A) (A) (A)
                 (A) (A) (A) (A) (A) (A) (A) (A) (A) (A) (A) (A)
                 (A) (A) (A) (A) (A) (A)
       Virtual   (A) (A) (A) (A) (A) (A) (A) (A) (A) (A) (A) (A)
                 (A) (A) (A) (A) (A) (A) (A) (A) (A) (A) (A) (A)
                 (A) (A) (A) (A) (A) (A) (A) (A) (A) (A) (A) (A)
                 (A) (A) (A) (A) (A) (A) (A) (A) (A) (A) (A) (A)
                 (A) (A) (A) (A) (A) (A) (A) (A) (A) (A) (A) (A)
                 (A) (A) (A) (A) (A) (A) (A) (A) (A) (A) (A) (A)
                 (A) (A) (A) (A) (A) (A) (A) (A) (A) (A) (A) (A)
                 (A) (A) (A) (A) (A) (A) (A) (A) (A) (A) (A) (A)
                 (A) (A) (A) (A) (A) (A) (A) (A) (A) (A) (A) (A)
                 (A) (A) (A) (A) (A) (A) (A) (A) (A) (A) (A) (A)
                 (A) (A) (A) (A) (A) (A) (A) (A) (A) (A) (A) (A)
                 (A) (A) (A) (A) (A) (A) (A) (A) (A) (A) (A) (A)
                 (A) (A) (A) (A) (A) (A) (A) (A) (A) (A) (A) (A)
                 (A) (A) (A) (A) (A) (A) (A) (A) (A) (A) (A) (A)
                 (A) (A) (A) (A) (A) (A) (A) (A) (A) (A) (A) (A)
                 (A) (A) (A) (A) (A) (A) (A) (A) (A) (A) (A) (A)
                 (A) (A) (A) (A) (A) (A) (A) (A) (A) (A) (A) (A)
                 (A) (A) (A) (A) (A) (A) (A) (A) (A) (A) (A) (A)
                 (A) (A) (A) (A) (A) (A) (A) (A) (A) (A) (A) (A)
                 (A) (A) (A) (A) (A) (A) (A) (A) (A) (A) (A) (A)
                 (A) (A) (A) (A) (A) (A) (A) (A) (A) (A) (A) (A)
                 (A) (A) (A) (A) (A) (A) (A) (A) (A) (A) (A) (A)
                 (A) (A) (A) (A) (A) (A) (A) (A) (A) (A) (A) (A)
                 (A) (A) (A) (A) (A) (A) (A) (A) (A) (A) (A) (A)
                 (A) (A) (A) (A) (A) (A) (A) (A) (A) (A) (A) (A)
                 (A) (A) (A) (A) (A) (A) (A) (A) (A) (A) (A) (A)
                 (A) (A) (A) (A) (A) (A) (A) (A) (A) (A) (A) (A)
                 (A) (A) (A) (A) (A) (A) (A) (A) (A) (A) (A) (A)
                 (A) (A) (A) (A) (A) (A) (A) (A) (A) (A) (A) (A)
                 (A) (A) (A) (A) (A) (A) (A) (A) (A) (A) (A) (A)
                 (A) (A) (A) (A) (A) (A) (A) (A) (A) (A) (A) (A)
                 (A) (A) (A) (A) (A) (A) (A) (A) (A) (A) (A) (A)
                 (A) (A) (A) (A) (A) (A) (A) (A) (A) (A) (A) (A)
                 (A) (A) (A) (A) (A) (A) (A) (A) (A) (A) (A) (A)
                 (A) (A) (A) (A) (A) (A) (A) (A) (A) (A) (A) (A)
                 (A) (A) (A) (A) (A) (A) (A) (A) (A) (A) (A) (A)
                 (A) (A) (A) (A) (A) (A) (A) (A) (A) (A) (A) (A)
                 (A) (A) (A) (A) (A) (A) (A) (A) (A) (A) (A) (A)
                 (A) (A) (A) (A) (A) (A) (A) (A) (A) (A) (A) (A)
                 (A) (A) (A) (A) (A) (A) (A) (A) (A) (A) (A) (A)
                 (A) (A) (A) (A) (A) (A) (A) (A) (A) (A) (A) (A)
                 (A) (A) (A) (A) (A) (A) (A) (A) (A) (A) (A) (A)
                 (A) (A) (A) (A) (A) (A) (A) (A) (A) (A) (A) (A)
                 (A) (A) (A) (A) (A) (A) (A) (A) (A) (A) (A) (A)
                 (A) (A) (A) (A) (A) (A) (A) (A) (A) (A) (A) (A)
                 (A) (A) (A) (A) (A) (A) (A) (A) (A) (A) (A) (A)
                 (A) (A) (A) (A) (A) (A) (A) (A) (A) (A) (A) (A)
                 (A) (A) (A) (A) (A) (A) (A) (A) (A) (A) (A) (A)
                 (A) (A) (A) (A) (A) (A) (A) (A) (A) (A) (A) (A)
                 (A) (A) (A) (A) (A) (A) (A) (A) (A) (A) (A) (A)
                 (A) (A) (A) (A) (A) (A) (A) (A) (A) (A) (A) (A)
                 (A) (A) (A) (A) (A) (A) (A) (A) (A) (A) (A) (A)
                 (A) (A) (A) (A) (A) (A) (A) (A) (A) (A) (A) (A)
                 (A) (A) (A) (A) (A) (A) (A) (A) (A) (A) (A) (A)
                 (A) (A) (A) (A) (A) (A) (A) (A) (A) (A) (A) (A)
                 (A) (A) (A) (A) (A) (A) (A) (A) (A) (A) (A) (A)
                 (A) (A) (A) (A) (A) (A) (A) (A) (A) (A) (A) (A)
                 (A) (A) (A) (A) (A) (A) (A) (A) (A) (A) (A) (A)
                 (A) (A) (A) (A) (A) (A) (A) (A) (A) (A) (A) (A)
                 (A) (A) (A) (A) (A) (A) (A) (A) (A) (A) (A) (A)
                 (A) (A) (A) (A) (A) (A) (A) (A) (A) (A) (A) (A)
                 (A) (A) (A) (A) (A) (A) (A) (A) (A) (A) (A) (A)
                 (A) (A) (A) (A) (A) (A) (A) (A) (A) (A) (A) (A)
                 (A) (A) (A) (A) (A) (A) (A) (A) (A) (A) (A) (A)
                 (A) (A) (A) (A) (A) (A) (A) (A) (A) (A) (A) (A)
                 (A) (A) (A) (A) (A) (A) (A) (A) (A) (A) (A) (A)
                 (A) (A) (A) (A) (A) (A) (A) (A) (A) (A) (A) (A)
                 (A) (A) (A) (A) (A) (A) (A) (A) (A) (A) (A) (A)
                 (A) (A) (A) (A) (A) (A) (A) (A) (A) (A) (A) (A)
                 (A) (A) (A) (A) (A) (A) (A) (A) (A) (A) (A) (A)
                 (A) (A) (A) (A) (A) (A) (A) (A) (A) (A) (A) (A)
                 (A) (A) (A) (A) (A) (A) (A) (A) (A) (A) (A) (A)
                 (A) (A) (A) (A) (A) (A) (A) (A) (A) (A) (A) (A)
                 (A) (A) (A) (A) (A) (A) (A) (A) (A) (A) (A) (A)
                 (A) (A) (A) (A) (A) (A) (A) (A) (A) (A) (A) (A)
                 (A) (A) (A) (A) (A) (A) (A) (A) (A) (A) (A) (A)
                 (A) (A) (A) (A) (A) (A) (A) (A) (A) (A) (A) (A)
                 (A) (A) (A) (A) (A) (A) (A) (A) (A) (A) (A) (A)
                 (A) (A) (A) (A) (A) (A) (A) (A) (A) (A) (A) (A)
                 (A) (A) (A) (A) (A) (A) (A) (A) (A) (A) (A) (A)
                 (A) (A) (A) (A) (A) (A) (A) (A) (A) (A) (A) (A)
                 (A) (A) (A) (A) (A) (A) (A) (A) (A) (A) (A) (A)
                 (A) (A) (A) (A) (A) (A) (A) (A) (A) (A) (A) (A)
                 (A) (A) (A) (A) (A) (A) (A) (A) (A) (A) (A) (A)
                 (A) (A) (A) (A) (A) (A) (A) (A) (A) (A) (A) (A)
                 (A) (A) (A) (A) (A) (A) (A) (A) (A) (A) (A) (A)
                 (A) (A) (A) (A) (A) (A) (A) (A) (A) (A) (A) (A)
                 (A) (A) (A) (A) (A) (A) (A) (A)
    20 initial guesses have been made.
 Convergence on wavefunction:    0.001000000000000
 Davidson Disk Diagonalization:  ConvIn= 1.00D-03 SkipCon=T Conv= 1.00D-03.
 Max sub-space:  2000 roots to seek:    20 dimension of matrix:       370304
 Iteration     1 Dimension    20 NMult     0 NNew     20
 CISAX will form    20 AO SS matrices at one time.
 NMat=    20 NSing=    20 JSym2X= 0.
 FoFJK:  IHMeth= 1 ICntrl=     500 DoSepK=F KAlg= 0 I1Cent=           0 FoldK=F
 IRaf= 500000000 NMat=      20 IRICut=       1 DoRegI=T DoRafI=F ISym2E= 0 IDoP0=0 IntGTp=1.
 FoFCou: FMM=T IPFlag=           0 FMFlag=      100000 FMFlg1=        2001
         NFxFlg=           0 DoJE=F BraDBF=F KetDBF=F FulRan=T
         wScrn=  0.000000 ICntrl=       500 IOpCl=  0 I1Cent=           0 NGrid=           0
         NMat0=   20 NMatS0=     20 NMatT0=    0 NMatD0=   20 NMtDS0=    0 NMtDT0=    0
 Symmetry not used in FoFCou.
 FMM levels:  10  Number of levels for PrismC:   9
 New state      1 was old state      3
 New state      2 was old state      4
 New state      3 was old state      1
 New state      4 was old state      5
 New state      5 was old state      2
 Excitation Energies [eV] at current iteration:
 Root      1 :     1.883818802216948
 Root      2 :     2.006267469472738
 Root      3 :     2.144096682651876
 Root      4 :     2.237211455093741
 Root      5 :     2.313606801599913
 Root      6 :     2.759983643426072
 Root      7 :     2.892280257456162
 Root      8 :     2.925357197732221
 Root      9 :     3.014664086925694
 Root     10 :     3.094213076406543
 Root     11 :     3.182201175139384
 Root     12 :     3.238992661941953
 Root     13 :     3.289271911971781
 Root     14 :     3.338027602815249
 Root     15 :     3.402774775928104
 Root     16 :     3.456619140108961
 Root     17 :     3.530686441507365
 Root     18 :     3.951426454678614
 Root     19 :     4.089832397739416
 Root     20 :     4.410765078468549
 Iteration     2 Dimension    40 NMult    20 NNew     20
 CISAX will form    20 AO SS matrices at one time.
 NMat=    20 NSing=    20 JSym2X= 0.
 Root      1 not converged, maximum delta is    0.078635806847447
 New state      2 was old state      3
 Root      2 not converged, maximum delta is    0.089707758177776
 New state      3 was old state      2
 Root      3 not converged, maximum delta is    0.071235552998177
 New state      4 was old state      5
 Root      4 not converged, maximum delta is    0.064326422829316
 New state      5 was old state      4
 Root      5 not converged, maximum delta is    0.023780383494721
 Excitation Energies [eV] at current iteration:
 Root      1 :     1.877095240433536   Change is   -0.006723561783411
 Root      2 :     1.898553477739502   Change is   -0.245543204912374
 Root      3 :     2.001846476907305   Change is   -0.004420992565432
 Root      4 :     2.087618043312771   Change is   -0.225988758287142
 Root      5 :     2.237162318047281   Change is   -0.000049137046461
 Root      6 :     2.590082225941546   Change is   -0.169901417484526
 Root      7 :     2.719444688893171   Change is   -0.295219398032522
 Root      8 :     2.824442587839612   Change is   -0.100914609892609
 Root      9 :     2.891065398493475   Change is   -0.001214858962687
 Root     10 :     3.007370542831562   Change is   -0.523315898675803
 Root     11 :     3.080189678671561   Change is   -0.014023397734982
 Root     12 :     3.096213257561488   Change is   -0.085987917577896
 Root     13 :     3.227815233242687   Change is   -0.011177428699266
 Root     14 :     3.243587566741235   Change is   -0.094440036074013
 Root     15 :     3.289269276821456   Change is   -0.000002635150326
 Root     16 :     3.315147512830660   Change is   -0.087627263097444
 Root     17 :     3.409985915526768   Change is   -0.046633224582194
 Root     18 :     3.516077703860217   Change is   -0.435348750818397
 Root     19 :     3.609219334392669   Change is   -0.480613063346747
 Root     20 :     3.966406239249469   Change is   -0.444358839219079
 Iteration     3 Dimension    45 NMult    40 NNew      5
 CISAX will form     5 AO SS matrices at one time.
 NMat=     5 NSing=     5 JSym2X= 0.
 New state      1 was old state      2
 Root      1 not converged, maximum delta is    0.179900505487683
 New state      2 was old state      1
 Root      2 not converged, maximum delta is    0.173118796499604
 Root      3 not converged, maximum delta is    0.049747874007598
 Root      4 not converged, maximum delta is    0.056788757632804
 Root      5 not converged, maximum delta is    0.001719166623978
 Excitation Energies [eV] at current iteration:
 Root      1 :     1.852662427706013   Change is   -0.045891050033489
 Root      2 :     1.876361674209878   Change is   -0.000733566223659
 Root      3 :     1.999320347498095   Change is   -0.002526129409210
 Root      4 :     2.053657756188703   Change is   -0.033960287124067
 Root      5 :     2.237138565863360   Change is   -0.000023752183920
 Iteration     4 Dimension    50 NMult    45 NNew      5
 CISAX will form     5 AO SS matrices at one time.
 NMat=     5 NSing=     5 JSym2X= 0.
 Root      1 not converged, maximum delta is    0.038208998555750
 Root      2 not converged, maximum delta is    0.035650022355569
 Root      3 not converged, maximum delta is    0.050125315242598
 Root      4 not converged, maximum delta is    0.055780131238960
 Root      5 has converged.
 Excitation Energies [eV] at current iteration:
 Root      1 :     1.834214180691105   Change is   -0.018448247014908
 Root      2 :     1.875450988693290   Change is   -0.000910685516587
 Root      3 :     1.997636229771298   Change is   -0.001684117726798
 Root      4 :     2.038543623636843   Change is   -0.015114132551861
 Root      5 :     2.237132041622810   Change is   -0.000006524240550
 Iteration     5 Dimension    54 NMult    50 NNew      4
 CISAX will form     4 AO SS matrices at one time.
 NMat=     4 NSing=     4 JSym2X= 0.
 Root      1 not converged, maximum delta is    0.005775332853999
 Root      2 not converged, maximum delta is    0.005419648519276
 Root      3 not converged, maximum delta is    0.023368288734343
 Root      4 not converged, maximum delta is    0.026031885165465
 Root      5 has converged.
 Excitation Energies [eV] at current iteration:
 Root      1 :     1.828625735113931   Change is   -0.005588445577174
 Root      2 :     1.875144383598788   Change is   -0.000306605094503
 Root      3 :     1.996917278033851   Change is   -0.000718951737447
 Root      4 :     2.033753911598209   Change is   -0.004789712038634
 Root      5 :     2.237131698782151   Change is   -0.000000342840659
 Iteration     6 Dimension    58 NMult    54 NNew      4
 CISAX will form     4 AO SS matrices at one time.
 NMat=     4 NSing=     4 JSym2X= 0.
 Root      1 not converged, maximum delta is    0.002328458644395
 Root      2 not converged, maximum delta is    0.001712414021698
 Root      3 not converged, maximum delta is    0.011332262431595
 Root      4 not converged, maximum delta is    0.012797516881961
 Root      5 has converged.
 Excitation Energies [eV] at current iteration:
 Root      1 :     1.825961746146304   Change is   -0.002663988967627
 Root      2 :     1.874992490755179   Change is   -0.000151892843608
 Root      3 :     1.996562229866789   Change is   -0.000355048167062
 Root      4 :     2.031804640866097   Change is   -0.001949270732113
 Root      5 :     2.237131492508397   Change is   -0.000000206273754
 Iteration     7 Dimension    62 NMult    58 NNew      4
 CISAX will form     4 AO SS matrices at one time.
 NMat=     4 NSing=     4 JSym2X= 0.
 Root      1 not converged, maximum delta is    0.001474549255731
 Root      2 has converged.
 Root      3 not converged, maximum delta is    0.004829499584175
 Root      4 not converged, maximum delta is    0.005532683721536
 Root      5 has converged.
 Excitation Energies [eV] at current iteration:
 Root      1 :     1.824817592728411   Change is   -0.001144153417892
 Root      2 :     1.874917470362134   Change is   -0.000075020393046
 Root      3 :     1.996405407693521   Change is   -0.000156822173268
 Root      4 :     2.031029980198614   Change is   -0.000774660667482
 Root      5 :     2.237131474796604   Change is   -0.000000017711794
 Iteration     8 Dimension    65 NMult    62 NNew      3
 CISAX will form     3 AO SS matrices at one time.
 NMat=     3 NSing=     3 JSym2X= 0.
 Root      1 has converged.
 Root      2 has converged.
 Root      3 not converged, maximum delta is    0.002268734331276
 Root      4 not converged, maximum delta is    0.002635942898663
 Root      5 has converged.
 Excitation Energies [eV] at current iteration:
 Root      1 :     1.824308601006689   Change is   -0.000508991721723
 Root      2 :     1.874907413444982   Change is   -0.000010056917151
 Root      3 :     1.996333384884025   Change is   -0.000072022809496
 Root      4 :     2.030677669665390   Change is   -0.000352310533225
 Root      5 :     2.237131458273643   Change is   -0.000000016522960
 Iteration     9 Dimension    67 NMult    65 NNew      2
 CISAX will form     2 AO SS matrices at one time.
 NMat=     2 NSing=     2 JSym2X= 0.
 Root      1 has converged.
 Root      2 has converged.
 Root      3 has converged.
 Root      4 not converged, maximum delta is    0.001299234410257
 Root      5 has converged.
 Excitation Energies [eV] at current iteration:
[...]
 Alpha virt. eigenvalues --    1.05373   1.05670   1.06531   1.06844   1.07023
 Alpha virt. eigenvalues --    1.07513   1.08535   1.09169   1.09520   1.09821
 Alpha virt. eigenvalues --    1.10102   1.10717   1.11101   1.12142   1.12389
 Alpha virt. eigenvalues --    1.12501   1.13333   1.13625   1.13814   1.14243
 Alpha virt. eigenvalues --    1.14323   1.14860   1.15455   1.15713   1.16746
 Alpha virt. eigenvalues --    1.17186   1.17299   1.18191   1.18767   1.18993
 Alpha virt. eigenvalues --    1.19211   1.20148   1.20430   1.21368   1.21455
 Alpha virt. eigenvalues --    1.22349   1.22515   1.22761   1.23083   1.23435
 Alpha virt. eigenvalues --    1.23702   1.24110   1.24629   1.24979   1.25866
 Alpha virt. eigenvalues --    1.26342   1.26467   1.26795   1.27366   1.27740
 Alpha virt. eigenvalues --    1.28244   1.28779   1.29329   1.29630   1.29902
 Alpha virt. eigenvalues --    1.30288   1.30910   1.30993   1.31569   1.31850
 Alpha virt. eigenvalues --    1.32503   1.32707   1.32777   1.33898   1.34014
 Alpha virt. eigenvalues --    1.34297   1.34596   1.35278   1.35402   1.35538
 Alpha virt. eigenvalues --    1.36410   1.36686   1.36897   1.37369   1.37431
 Alpha virt. eigenvalues --    1.37604   1.38684   1.39230   1.39486   1.39684
 Alpha virt. eigenvalues --    1.39996   1.41016   1.41279   1.41558   1.41789
 Alpha virt. eigenvalues --    1.42064   1.42753   1.42787   1.43590   1.44158
 Alpha virt. eigenvalues --    1.45004   1.45163   1.45309   1.45676   1.46129
 Alpha virt. eigenvalues --    1.46169   1.46390   1.46503   1.46939   1.47327
 Alpha virt. eigenvalues --    1.47365   1.47824   1.47850   1.48231   1.48301
 Alpha virt. eigenvalues --    1.48549   1.48875   1.49211   1.49566   1.50093
 Alpha virt. eigenvalues --    1.50149   1.50351   1.50584   1.50704   1.50920
 Alpha virt. eigenvalues --    1.51215   1.51421   1.51547   1.52084   1.52260
 Alpha virt. eigenvalues --    1.52558   1.52731   1.53035   1.53181   1.53790
 Alpha virt. eigenvalues --    1.54115   1.54285   1.55079   1.55129   1.55904
 Alpha virt. eigenvalues --    1.55980   1.56119   1.57498   1.57826   1.58332
 Alpha virt. eigenvalues --    1.58963   1.59152   1.59302   1.59963   1.60406
 Alpha virt. eigenvalues --    1.60678   1.60756   1.61171   1.61913   1.62299
 Alpha virt. eigenvalues --    1.62525   1.63137   1.63377   1.63550   1.64053
 Alpha virt. eigenvalues --    1.64238   1.64690   1.65101   1.65404   1.65454
 Alpha virt. eigenvalues --    1.65696   1.66033   1.66184   1.66349   1.66677
 Alpha virt. eigenvalues --    1.66928   1.67344   1.67458   1.67525   1.67651
 Alpha virt. eigenvalues --    1.67719   1.68059   1.68186   1.68520   1.68601
 Alpha virt. eigenvalues --    1.68631   1.69185   1.69234   1.69683   1.69960
 Alpha virt. eigenvalues --    1.70578   1.70695   1.70861   1.71078   1.71280
 Alpha virt. eigenvalues --    1.71419   1.71530   1.71749   1.71924   1.72307
 Alpha virt. eigenvalues --    1.72751   1.72776   1.72991   1.73192   1.73216
 Alpha virt. eigenvalues --    1.73883   1.74044   1.74079   1.74389   1.74659
 Alpha virt. eigenvalues --    1.74944   1.74962   1.75210   1.75764   1.75943
 Alpha virt. eigenvalues --    1.75964   1.76074   1.76187   1.76273   1.76696
 Alpha virt. eigenvalues --    1.76774   1.76994   1.77204   1.77292   1.77609
 Alpha virt. eigenvalues --    1.77658   1.77926   1.77975   1.78379   1.78547
 Alpha virt. eigenvalues --    1.78652   1.78915   1.79275   1.79619   1.79863
 Alpha virt. eigenvalues --    1.79942   1.80136   1.80157   1.80430   1.80756
 Alpha virt. eigenvalues --    1.80889   1.81069   1.81195   1.81418   1.81517
 Alpha virt. eigenvalues --    1.81597   1.82313   1.82450   1.82715   1.83437
 Alpha virt. eigenvalues --    1.83650   1.83882   1.84076   1.84270   1.84608
 Alpha virt. eigenvalues --    1.84843   1.84953   1.85160   1.85434   1.85623
 Alpha virt. eigenvalues --    1.85678   1.85856   1.86256   1.86699   1.86868
 Alpha virt. eigenvalues --    1.87102   1.87557   1.87999   1.88124   1.88451
 Alpha virt. eigenvalues --    1.88642   1.88819   1.88963   1.89136   1.89597
 Alpha virt. eigenvalues --    1.89909   1.90094   1.90288   1.90329   1.90656
 Alpha virt. eigenvalues --    1.90763   1.90925   1.91285   1.91535   1.91822
 Alpha virt. eigenvalues --    1.92062   1.92206   1.92645   1.92845   1.93257
 Alpha virt. eigenvalues --    1.93525   1.93937   1.94250   1.94823   1.94964
 Alpha virt. eigenvalues --    1.95048   1.95772   1.96326   1.96816   1.96845
 Alpha virt. eigenvalues --    1.97394   1.97816   1.97944   1.98210   1.98319
 Alpha virt. eigenvalues --    1.98732   1.99089   1.99524   1.99764   1.99979
 Alpha virt. eigenvalues --    2.00107   2.00153   2.00767   2.01303   2.01482
 Alpha virt. eigenvalues --    2.01604   2.01693   2.01994   2.02417   2.02511
 Alpha virt. eigenvalues --    2.02691   2.02970   2.03432   2.03934   2.04217
 Alpha virt. eigenvalues --    2.04291   2.04311   2.04692   2.04800   2.05155
 Alpha virt. eigenvalues --    2.05869   2.06689   2.06888   2.07515   2.07569
 Alpha virt. eigenvalues --    2.07866   2.08143   2.08657   2.08924   2.09449
 Alpha virt. eigenvalues --    2.09823   2.09881   2.10515   2.10682   2.10958
 Alpha virt. eigenvalues --    2.11208   2.11718   2.12588   2.12603   2.12935
 Alpha virt. eigenvalues --    2.13717   2.14140   2.14394   2.14667   2.15185
 Alpha virt. eigenvalues --    2.15469   2.16005   2.16801   2.16917   2.17350
 Alpha virt. eigenvalues --    2.17588   2.17810   2.18092   2.18379   2.18568
 Alpha virt. eigenvalues --    2.19305   2.19654   2.20270   2.20390   2.20554
 Alpha virt. eigenvalues --    2.21252   2.21594   2.21669   2.21942   2.22257
 Alpha virt. eigenvalues --    2.23103   2.23288   2.24158   2.24202   2.24680
 Alpha virt. eigenvalues --    2.24928   2.25459   2.25552   2.25835   2.26120
 Alpha virt. eigenvalues --    2.26275   2.26549   2.26639   2.26887   2.27227
 Alpha virt. eigenvalues --    2.27805   2.28124   2.28326   2.28517   2.28806
 Alpha virt. eigenvalues --    2.28942   2.29715   2.30406   2.30878   2.31068
 Alpha virt. eigenvalues --    2.31099   2.32226   2.32325   2.32476   2.32914
 Alpha virt. eigenvalues --    2.33750   2.33972   2.34322   2.34729   2.35074
 Alpha virt. eigenvalues --    2.35145   2.35361   2.35777   2.36460   2.37211
 Alpha virt. eigenvalues --    2.37422   2.37604   2.38289   2.38985   2.39185
 Alpha virt. eigenvalues --    2.39434   2.39559   2.40047   2.40243   2.41213
 Alpha virt. eigenvalues --    2.41539   2.41640   2.41927   2.42515   2.43144
 Alpha virt. eigenvalues --    2.44018   2.44417   2.44893   2.45082   2.45732
 Alpha virt. eigenvalues --    2.46482   2.46705   2.47236   2.47438   2.47981
 Alpha virt. eigenvalues --    2.48651   2.48713   2.49262   2.49462   2.49826
 Alpha virt. eigenvalues --    2.49877   2.50850   2.51732   2.51965   2.52041
 Alpha virt. eigenvalues --    2.52380   2.52686   2.52842   2.52913   2.53265
 Alpha virt. eigenvalues --    2.53326   2.53870   2.54237   2.54426   2.54744
 Alpha virt. eigenvalues --    2.55172   2.55623   2.55695   2.56019   2.56153
 Alpha virt. eigenvalues --    2.56343   2.56769   2.57532   2.57976   2.58457
 Alpha virt. eigenvalues --    2.58885   2.59217   2.59640   2.60575   2.60631
 Alpha virt. eigenvalues --    2.61159   2.61660   2.61898   2.62409   2.62510
 Alpha virt. eigenvalues --    2.62600   2.62716   2.62762   2.63342   2.64618
 Alpha virt. eigenvalues --    2.65254   2.65394   2.65833   2.66038   2.66089
 Alpha virt. eigenvalues --    2.66351   2.66481   2.67702   2.67921   2.68047
 Alpha virt. eigenvalues --    2.69722   2.70101   2.70875   2.71127   2.71614
 Alpha virt. eigenvalues --    2.71970   2.72024   2.72236   2.72460   2.74149
 Alpha virt. eigenvalues --    2.74309   2.74510   2.74915   2.75088   2.75444
 Alpha virt. eigenvalues --    2.76351   2.76904   2.77960   2.78370   2.79203
 Alpha virt. eigenvalues --    2.79399   2.79524   2.80118   2.80507   2.80646
 Alpha virt. eigenvalues --    2.81645   2.81824   2.82060   2.82498   2.82609
 Alpha virt. eigenvalues --    2.82742   2.83000   2.83391   2.83639   2.84177
 Alpha virt. eigenvalues --    2.84202   2.84355   2.84722   2.85230   2.85423
 Alpha virt. eigenvalues --    2.85504   2.86118   2.86757   2.86977   2.87238
 Alpha virt. eigenvalues --    2.87317   2.87517   2.88096   2.88126   2.88883
 Alpha virt. eigenvalues --    2.89220   2.89327   2.89607   2.89793   2.89952
 Alpha virt. eigenvalues --    2.90259   2.90402   2.91161   2.91558   2.91822
 Alpha virt. eigenvalues --    2.91849   2.92880   2.93009   2.93388   2.93962
 Alpha virt. eigenvalues --    2.94372   2.94697   2.94782   2.95172   2.95539
 Alpha virt. eigenvalues --    2.95723   2.96131   2.96526   2.96592   2.97349
 Alpha virt. eigenvalues --    2.97841   2.97919   2.98744   2.99509   2.99602
 Alpha virt. eigenvalues --    3.00075   3.00365   3.00695   3.02113   3.02333
 Alpha virt. eigenvalues --    3.03050   3.04066   3.04089   3.04735   3.05600
 Alpha virt. eigenvalues --    3.06809   3.07561   3.07624   3.08229   3.08476
 Alpha virt. eigenvalues --    3.09262   3.09774   3.09931   3.13882   3.14403
 Alpha virt. eigenvalues --    3.14421   3.17981   3.26639   3.28233   3.29698
 Alpha virt. eigenvalues --    3.30470   3.32424   3.32992   3.38092   3.39443
 Alpha virt. eigenvalues --    3.47444   3.47568   3.51698   3.52918   3.54728
 Alpha virt. eigenvalues --    3.56109   3.57990
          Condensed to atoms (all electrons):
 Mulliken charges:
               1
     1  Mg   0.681397
     2  C    0.045876
     3  C   -0.036815
     4  C   -0.048628
     5  C   -0.078762
     6  N   -0.153515
     7  C   -0.100113
     8  C    0.056709
     9  C    0.009396
    10  C   -0.029523
    11  C    0.156874
    12  C    0.083617
    13  C    0.097658
    14  C    0.108078
    15  O   -0.192111
    16  O   -0.282989
    17  N   -0.281418
    18  C    0.125684
    19  C   -0.121446
    20  C   -0.001510
    21  C    0.121116
    22  C    0.166960
    23  C   -0.036936
    24  O   -0.139688
    25  C    0.110194
    26  N   -0.265254
    27  C    0.000771
    28  C   -0.005335
    29  C    0.023284
    30  C    0.050427
    31  C    0.158187
    32  C    0.113009
    33  C    0.054162
    34  N   -0.260155
    35  C    0.118575
    36  C   -0.204545
    37  C    0.131888
    38  C    0.035392
    39  C    0.188160
    40  C   -0.112481
    41  O   -0.131865
    42  C    0.055299
    43  C    0.104506
    44  O   -0.165712
    45  O   -0.273855
    46  C    0.218608
    47  C    0.301516
    48  C   -0.085104
    49  C   -0.128405
    50  C    0.136439
    51  C    0.119953
    52  C    0.074301
    53  C    0.072189
    54  C   -0.020431
    55  C    0.116909
    56  C    0.139612
    57  C    0.090670
    58  C    0.059849
    59  C   -0.036036
    60  C    0.124708
    61  C    0.074698
    62  C    0.064226
    63  C    0.120667
    64  C   -0.134743
    65  C    0.129670
    66  C    0.112634
    67  H   -0.057749
    68  H   -0.069770
    69  H   -0.074679
    70  H   -0.037703
    71  H   -0.028021
    72  H   -0.006419
    73  H   -0.012870
    74  H   -0.012235
    75  H   -0.010772
    76  H   -0.019732
    77  H    0.004557
    78  H    0.011833
    79  H   -0.007923
    80  H   -0.007814
    81  H    0.009319
    82  H   -0.015524
    83  H    0.009459
    84  H    0.018373
    85  H   -0.020743
    86  H   -0.021084
    87  H   -0.014136
    88  H   -0.006164
    89  H   -0.014866
    90  H   -0.009326
    91  H   -0.018424
    92  H    0.002999
    93  H   -0.011877
    94  H   -0.009953
    95  H    0.018173
    96  H   -0.003901
    97  H    0.002643
    98  H    0.008099
    99  H    0.011123
   100  H    0.024324
   101  H    0.017329
   102  H   -0.012484
   103  H    0.013961
   104  H   -0.043332
   105  H    0.005268
   106  H   -0.002002
   107  H   -0.024064
   108  H   -0.033739
   109  H   -0.040028
   110  H   -0.028288
   111  H   -0.030963
   112  H   -0.033116
   113  H   -0.040932
   114  H   -0.028044
   115  H   -0.025159
   116  H   -0.021575
   117  H   -0.019267
   118  H   -0.041983
   119  H   -0.030721
   120  H   -0.039622
   121  H   -0.045645
   122  H   -0.043738
   123  H   -0.038482
   124  H   -0.030980
   125  H   -0.010116
   126  H   -0.019613
   127  H   -0.026051
   128  H   -0.041344
   129  H   -0.043112
   130  H   -0.029000
   131  H   -0.048042
   132  H   -0.031910
   133  H   -0.020748
   134  H   -0.037239
   135  H   -0.021012
   136  H   -0.014124
   137  H   -0.012990
   138  H   -0.023368
   139  H   -0.031306
   140  H   -0.028124
 Sum of Mulliken charges =  -0.00000
 Mulliken charges with hydrogens summed into heavy atoms:
               1
     1  Mg   0.681397
     2  C    0.045876
     3  C   -0.094563
     4  C   -0.118398
     5  C   -0.153441
     6  N   -0.153515
     7  C   -0.100113
     8  C    0.019006
     9  C   -0.018625
    10  C   -0.029523
    11  C    0.125350
    12  C    0.053113
    13  C    0.114049
    14  C    0.108078
    15  O   -0.192111
    16  O   -0.282989
    17  N   -0.281418
    18  C    0.125684
    19  C   -0.121446
    20  C   -0.001510
    21  C    0.121116
    22  C    0.160541
    23  C   -0.036936
    24  O   -0.139688
    25  C    0.122503
    26  N   -0.265254
    27  C    0.000771
    28  C   -0.026078
    29  C    0.002200
    30  C    0.050427
    31  C    0.123021
    32  C    0.085259
    33  C    0.035332
    34  N   -0.260155
    35  C    0.118575
    36  C   -0.204545
    37  C    0.131888
    38  C    0.035392
    39  C    0.205075
    40  C   -0.112481
    41  O   -0.131865
    42  C    0.063398
    43  C    0.104506
    44  O   -0.165712
    45  O   -0.273855
    46  C    0.271384
    47  C    0.302992
    48  C   -0.128435
    49  C   -0.128405
    50  C    0.115641
    51  C    0.046186
    52  C    0.015049
    53  C   -0.001860
    54  C   -0.048475
    55  C    0.050908
    56  C    0.066907
    57  C    0.005404
    58  C   -0.022371
    59  C   -0.067016
    60  C    0.068928
    61  C   -0.009759
    62  C   -0.012817
    63  C    0.068009
    64  C   -0.171983
    65  C    0.081543
    66  C    0.029836
 Electronic spatial extent (au):  <R**2>=         116141.7261
 Charge=             -0.0000 electrons
 Dipole moment (field-independent basis, Debye):
    X=             -1.0481    Y=              5.0709    Z=              2.1645  Tot=              5.6122
 Quadrupole moment (field-independent basis, Debye-Ang):
   XX=           -408.8953   YY=           -441.7992   ZZ=           -383.0262
   XY=             51.1318   XZ=            -11.7052   YZ=             22.8634
 Traceless Quadrupole moment (field-independent basis, Debye-Ang):
   XX=              2.3449   YY=            -30.5589   ZZ=             28.2140
   XY=             51.1318   XZ=            -11.7052   YZ=             22.8634
 Octapole moment (field-independent basis, Debye-Ang**2):
  XXX=             76.8599  YYY=            156.2537  ZZZ=            -40.1277  XYY=           -131.6582
  XXY=            346.2263  XXZ=             19.7304  XZZ=            185.0958  YZZ=            -85.1502
  YYZ=            178.7528  XYZ=            104.8258
 Hexadecapole moment (field-independent basis, Debye-Ang**3):
 XXXX=        -125226.9858 YYYY=         -25673.4425 ZZZZ=         -14009.9513 XXXY=           2106.9836
 XXXZ=          -1599.7790 YYYX=           1612.4862 YYYZ=            555.8381 ZZZX=           -398.1874
 ZZZY=            509.6854 XXYY=         -25840.1365 XXZZ=         -22034.8120 YYZZ=          -6586.2810
 XXYZ=            795.6826 YYXZ=              5.0729 ZZXY=           -191.5903
 N-N= 9.523152319061D+03 E-N=-2.604123089302D+04  KE= 2.977491018930D+03
 Leave Link  601 at Wed Apr 27 01:02:26 2022, MaxMem= 10066329600 cpu:              11.5 elap:               0.6
 (Enter /sw/apps/gaussian-16.0/g16/l9999.exe)
 1\1\GINC-BP1-COMPUTE165\SP\RBLYP TD-FC\def2SVP\C55H74Mg1N4O6\OF15641\2
 7-Apr-2022\0\\#p blyp/Def2SVP td=(nstates=5)\\step_101_chromophore_2 T
 DDFT with blyp functional\\0,1\Mg,0,3.216,0.079,44.437\C,0,6.091,1.852
 ,44.006\C,0,1.441,2.849,43.22\C,0,0.43,-1.896,44.114\C,0,5.101,-2.709,
 45.298\N,0,3.795,2.107,43.564\C,0,4.995,2.612,43.529\C,0,5.064,3.989,4
 2.844\C,0,3.546,4.407,42.997\C,0,2.851,3.04,43.276\C,0,3.279,5.44,44.0
 06\C,0,5.645,4.008,41.424\C,0,5.517,2.8,40.448\C,0,5.937,3.144,38.945\
 O,0,6.334,4.231,38.53\O,0,5.915,2.011,38.162\N,0,1.165,0.396,43.779\C,
 0,0.641,1.696,43.497\C,0,-0.806,1.569,43.358\C,0,-1.103,0.259,43.619\C
 ,0,0.185,-0.506,43.903\C,0,-1.709,2.769,42.921\C,0,-2.567,-0.392,43.77
 6\O,0,-3.5,0.356,43.648\C,0,-2.854,-1.865,44.099\N,0,2.894,-1.998,44.4
 06\C,0,1.647,-2.592,44.302\C,0,1.716,-4.135,44.696\C,0,3.248,-4.384,45
 .001\C,0,3.758,-2.941,44.985\C,0,0.705,-4.609,45.695\C,0,3.914,-5.369,
 43.989\C,0,4.873,-6.214,44.766\N,0,5.167,-0.329,44.875\C,0,5.763,-1.48
 3,45.344\C,0,7.18,-1.231,45.524\C,0,7.332,0.125,45.1\C,0,6.089,0.571,4
 4.609\C,0,8.207,-2.221,45.969\C,0,8.263,1.2,44.873\O,0,9.471,1.176,45.
 107\C,0,7.504,2.36,44.138\C,0,7.708,3.643,44.87\O,0,8.686,4.363,44.841
 \O,0,6.607,3.914,45.606\C,0,6.791,5.14,46.457\C,0,6.119,2.221,36.67\C,
 0,4.941,1.588,35.928\C,0,4.826,0.891,34.783\C,0,5.995,0.705,33.803\C,0
 ,3.44,0.446,34.279\C,0,2.557,1.568,33.719\C,0,2.491,1.394,32.125\C,0,1
 .406,0.305,31.691\C,0,2.206,-0.883,31.177\C,0,0.476,0.862,30.674\C,0,-
 1.025,0.549,30.868\C,0,-1.86,1.752,31.4\C,0,-2.219,2.887,30.309\C,0,-2
 .444,4.218,30.96\C,0,-3.426,2.288,29.451\C,0,-3.541,2.888,27.973\C,0,-
 4.578,3.993,27.722\C,0,-5.38,3.592,26.383\C,0,-4.699,3.877,25.056\C,0,
 -6.781,4.107,26.413\H,0,0.95,3.761,42.876\H,0,-0.381,-2.594,43.896\H,0
 ,5.707,-3.566,45.599\H,0,5.769,4.677,43.31\H,0,3.155,4.697,42.021\H,0,
 4.066,5.773,44.683\H,0,2.429,5.158,44.627\H,0,3.024,6.322,43.419\H,0,6
 .682,4.331,41.516\H,0,5.21,4.892,40.957\H,0,4.496,2.423,40.387\H,0,6.0
 83,1.93,40.781\H,0,-2.612,2.381,42.45\H,0,-1.384,3.357,42.063\H,0,-2.0
 1,3.365,43.782\H,0,-3.911,-2.112,44.001\H,0,-2.698,-2.153,45.138\H,0,-
 2.311,-2.583,43.485\H,0,1.417,-4.563,43.739\H,0,3.419,-4.73,46.02\H,0,
 -0.01,-5.286,45.226\H,0,0.171,-3.76,46.122\H,0,1.218,-5.156,46.485\H,0
 ,4.491,-4.875,43.207\H,0,3.191,-6.047,43.536\H,0,4.96,-6.043,45.839\H,
 0,5.854,-5.994,44.346\H,0,4.586,-7.235,44.514\H,0,9.203,-1.812,45.799\
 H,0,8.085,-3.169,45.444\H,0,7.938,-2.425,47.006\H,0,7.999,2.409,43.168
 \H,0,6.078,5.218,47.278\H,0,6.847,6.068,45.887\H,0,7.731,4.977,46.983\
 H,0,7.086,1.814,36.374\H,0,6.29,3.242,36.329\H,0,4.066,1.698,36.57\H,0
 ,5.624,0.91,32.799\H,0,6.41,-0.296,33.926\H,0,6.885,1.28,34.056\H,0,2.
 881,0.043,35.123\H,0,3.538,-0.405,33.605\H,0,2.873,2.576,33.991\H,0,1.
 591,1.466,34.213\H,0,3.519,1.244,31.793\H,0,2.338,2.423,31.798\H,0,0.8
 23,-0.081,32.527\H,0,2.422,-1.659,31.912\H,0,3.234,-0.568,30.998\H,0,1
 .643,-1.431,30.421\H,0,0.809,0.553,29.683\H,0,0.523,1.951,30.659\H,0,-
 1.26,-0.279,31.536\H,0,-1.492,0.162,29.962\H,0,-1.396,2.264,32.243\H,0
 ,-2.824,1.409,31.776\H,0,-1.33,2.997,29.689\H,0,-2.856,4.965,30.281\H,
 0,-1.509,4.561,31.402\H,0,-3.11,4.164,31.821\H,0,-4.402,2.266,29.935\H
 ,0,-3.382,1.219,29.242\H,0,-3.53,2.103,27.217\H,0,-2.532,3.266,27.807\
 H,0,-4.076,4.921,27.45\H,0,-5.294,4.198,28.518\H,0,-5.555,2.519,26.462
 \H,0,-3.634,3.877,25.286\H,0,-5.059,4.835,24.68\H,0,-4.916,3.129,24.29
 4\H,0,-7.517,3.327,26.606\H,0,-7.125,4.575,25.49\H,0,-6.852,4.828,27.2
 27\\Version=ES64L-G16RevA.03\State=1-A\HF=-3007.3549317\RMSD=4.111e-09
 \PG=C01 [X(C55H74Mg1N4O6)]\\@


 CHINESE FORTUNE COOKIE OF JAN 1 1967 SAY....
 ALL THINGS ARE DIFFICULT BEFORE THEY ARE EASY.
 WE LEARN SO LITTLE AND FORGET SO MUCH.
 YOU WILL OVERCOME OBSTACLES TO ACHIEVE SUCCESS.
 AH SO.
 Job cpu time:       0 days  4 hours 58 minutes 25.8 seconds.
 Elapsed time:       0 days  0 hours 12 minutes 29.8 seconds.
 File lengths (MBytes):  RWF=   8014 Int=      0 D2E=      0 Chk=    390 Scr=      1
 Normal termination of Gaussian 16 at Wed Apr 27 01:02:26 2022.
