 Entering Gaussian System, Link 0=g16
 Initial command:
 /sw/apps/gaussian-16.0/g16/l1.exe "/tmp/Gau-275080.inp" -scrdir="/tmp/"
 Entering Link 1 = /sw/apps/gaussian-16.0/g16/l1.exe PID=    275081.
  
 Copyright (c) 1988,1990,1992,1993,1995,1998,2003,2009,2016,
            Gaussian, Inc.  All Rights Reserved.
  
 This is part of the Gaussian(R) 16 program.  It is based on
 the Gaussian(R) 09 system (copyright 2009, Gaussian, Inc.),
 the Gaussian(R) 03 system (copyright 2003, Gaussian, Inc.),
 the Gaussian(R) 98 system (copyright 1998, Gaussian, Inc.),
 the Gaussian(R) 94 system (copyright 1995, Gaussian, Inc.),
 the Gaussian 92(TM) system (copyright 1992, Gaussian, Inc.),
 the Gaussian 90(TM) system (copyright 1990, Gaussian, Inc.),
 the Gaussian 88(TM) system (copyright 1988, Gaussian, Inc.),
 the Gaussian 86(TM) system (copyright 1986, Carnegie Mellon
 University), and the Gaussian 82(TM) system (copyright 1983,
 Carnegie Mellon University). Gaussian is a federally registered
 trademark of Gaussian, Inc.
  
 This software contains proprietary and confidential information,
 including trade secrets, belonging to Gaussian, Inc.
  
 This software is provided under written license and may be
 used, copied, transmitted, or stored only in accord with that
 written license.
  
 The following legend is applicable only to US Government
 contracts under FAR:
  
                    RESTRICTED RIGHTS LEGEND
  
 Use, reproduction and disclosure by the US Government is
 subject to restrictions as set forth in subparagraphs (a)
 and (c) of the Commercial Computer Software - Restricted
 Rights clause in FAR 52.227-19.
  
 Gaussian, Inc.
 340 Quinnipiac St., Bldg. 40, Wallingford CT 06492
  
  
 ---------------------------------------------------------------
 Warning -- This program may not be used in any manner that
 competes with the business of Gaussian, Inc. or will provide
 assistance to any competitor of Gaussian, Inc.  The licensee
 of this program is prohibited from giving any competitor of
 Gaussian, Inc. access to this program.  By using this program,
 the user acknowledges that Gaussian, Inc. is engaged in the
 business of creating and licensing software in the field of
 computational chemistry and represents and warrants to the
 licensee that it is not a competitor of Gaussian, Inc. and that
 it will not use this program in any manner prohibited above.
 ---------------------------------------------------------------
  

 Cite this work as:
 Gaussian 16, Revision A.03,
 M. J. Frisch, G. W. Trucks, H. B. Schlegel, G. E. Scuseria, 
 M. A. Robb, J. R. Cheeseman, G. Scalmani, V. Barone, 
 G. A. Petersson, H. Nakatsuji, X. Li, M. Caricato, A. V. Marenich, 
 J. Bloino, B. G. Janesko, R. Gomperts, B. Mennucci, H. P. Hratchian, 
 J. V. Ortiz, A. F. Izmaylov, J. L. Sonnenberg, D. Williams-Young, 
 F. Ding, F. Lipparini, F. Egidi, J. Goings, B. Peng, A. Petrone, 
 T. Henderson, D. Ranasinghe, V. G. Zakrzewski, J. Gao, N. Rega, 
 G. Zheng, W. Liang, M. Hada, M. Ehara, K. Toyota, R. Fukuda, 
 J. Hasegawa, M. Ishida, T. Nakajima, Y. Honda, O. Kitao, H. Nakai, 
 T. Vreven, K. Throssell, J. A. Montgomery, Jr., J. E. Peralta, 
 F. Ogliaro, M. J. Bearpark, J. J. Heyd, E. N. Brothers, K. N. Kudin, 
 V. N. Staroverov, T. A. Keith, R. Kobayashi, J. Normand, 
 K. Raghavachari, A. P. Rendell, J. C. Burant, S. S. Iyengar, 
 J. Tomasi, M. Cossi, J. M. Millam, M. Klene, C. Adamo, R. Cammi, 
 J. W. Ochterski, R. L. Martin, K. Morokuma, O. Farkas, 
 J. B. Foresman, and D. J. Fox, Gaussian, Inc., Wallingford CT, 2016.
 
 ******************************************
 Gaussian 16:  ES64L-G16RevA.03 25-Dec-2016
                28-Apr-2022 
 ******************************************
 %nproc=24
 Will use up to   24 processors via shared memory.
 %mem=75GB
 --------------------------------
 #p wB97XD/Def2SVP td=(nstates=5)
 --------------------------------
 1/38=1,172=1/1;
 2/12=2,17=6,18=5,40=1/2;
 3/5=43,7=101,11=9,25=1,30=1,74=-58/1,2,3,8;
 4//1;
 5/5=2,38=5/2;
 8/6=1,10=1,108=5/1;
 9/41=5,42=1,70=2/14;
 6/7=2,8=2,9=2,10=2/1;
 99/5=1,9=1/99;
 Leave Link    1 at Thu Apr 28 14:41:35 2022, MaxMem= 10066329600 cpu:               0.9 elap:               0.0
 (Enter /sw/apps/gaussian-16.0/g16/l101.exe)
 -----------------------------------------------------
 step_1601_chromophore_21 TDDFT with wB97XD functional
 -----------------------------------------------------
 Symbolic Z-matrix:
 Charge =  0 Multiplicity = 1
 Mg                    16.25     50.897    25.274 
 C                     18.032    49.629    27.906 
 C                     13.627    51.754    27.484 
 C                     14.633    52.169    22.668 
 C                     18.901    49.801    23.114 
 N                     15.941    50.805    27.388 
 C                     16.903    50.398    28.302 
 C                     16.421    50.603    29.758 
 C                     14.895    50.875    29.556 
 C                     14.774    51.159    28.068 
 C                     13.92     49.777    30.051 
 C                     17.325    51.639    30.338 
 C                     17.329    51.848    31.866 
 C                     16.388    51.033    32.791 
 O                     16.608    49.939    33.292 
 O                     15.148    51.647    32.852 
 N                     14.371    51.951    25.117 
 C                     13.476    52.168    26.098 
 C                     12.377    52.924    25.53 
 C                     12.63     52.963    24.135 
 C                     13.902    52.38     23.895 
 C                     11.228    53.456    26.381 
 C                     11.827    53.62     23.101 
 O                     12.171    53.746    21.96 
 C                     10.449    54.156    23.467 
 N                     16.74     50.977    23.22 
 C                     15.828    51.536    22.384 
 C                     16.259    51.277    20.922 
 C                     17.729    50.784    21.13 
 C                     17.859    50.544    22.609 
 C                     15.309    50.313    20.178 
 C                     18.816    51.787    20.728 
 C                     19.643    51.469    19.375 
 N                     18.027    49.842    25.424 
 C                     19.009    49.496    24.512 
 C                     20.009    48.667    25.108 
 C                     19.662    48.783    26.457 
 C                     18.461    49.495    26.561 
 C                     21.15     47.94     24.527 
 C                     20.076    48.323    27.843 
 O                     20.927    47.548    28.209 
 C                     19.055    48.864    28.831 
 C                     18.454    47.638    29.409 
 O                     17.893    46.758    28.759 
 O                     18.524    47.671    30.79 
 C                     17.609    46.813    31.571 
 C                     14.148    50.911    33.595 
 C                     12.829    51.438    33.245 
 C                     11.607    51.274    33.773 
 C                     11.252    50.46     35.044 
 C                     10.38     52.036    33.257 
 C                     10.406    53.623    33.321 
 C                     10.874    54.29     34.629 
 C                     9.973     55.485    35.044 
 C                     10.782    56.705    35.457 
 C                     9.038     55.053    36.129 
 C                     7.68      55.813    36.135 
 C                     7.174     56.106    37.568 
 C                     5.979     57.093    37.46 
 C                     6.481     58.601    37.701 
 C                     4.842     56.646    38.469 
 C                     3.387     57.059    38.088 
 C                     2.81      58.113    38.99 
 C                     1.274     58.174    38.927 
 C                     0.807     59.622    38.519 
 C                     0.642     57.609    40.187 
 H                     12.845    51.901    28.231 
 H                     14.142    52.382    21.716 
 H                     19.629    49.346    22.44 
 H                     16.53     49.666    30.304 
 H                     14.739    51.848    30.023 
 H                     13.234    50.384    30.643 
 H                     14.405    49.053    30.705 
 H                     13.451    49.208    29.248 
 H                     17.137    52.619    29.9 
 H                     18.389    51.495    30.151 
 H                     17.303    52.927    32.021 
 H                     18.327    51.578    32.212 
 H                     10.978    54.508    26.245 
 H                     11.27     53.175    27.434 
 H                     10.368    52.879    26.041 
 H                     10.451    54.997    24.16 
 H                     9.889     53.274    23.777 
 H                     10.17     54.723    22.579 
 H                     16.289    52.249    20.43 
 H                     17.716    49.834    20.595 
 H                     15.834    49.693    19.451 
 H                     14.562    50.824    19.571 
 H                     14.782    49.62     20.833 
 H                     19.544    51.833    21.539 
 H                     18.366    52.778    20.785 
 H                     19.143    51.288    18.423 
 H                     20.462    50.776    19.57 
 H                     20.104    52.435    19.168 
 H                     22.096    48.451    24.705 
 H                     20.979    47.64     23.493 
 H                     21.133    46.989    25.059 
 H                     19.588    49.502    29.537 
 H                     16.957    47.521    32.083 
 H                     18.076    46.212    32.351 
 H                     16.911    46.239    30.961 
 H                     14.303    50.991    34.671 
 H                     14.227    49.893    33.212 
 H                     12.822    52.255    32.523 
 H                     10.31     49.916    34.979 
 H                     11.243    51.16     35.879 
 H                     12.113    49.805    35.178 
 H                     9.402     51.741    33.638 
 H                     10.102    51.711    32.254 
 H                     9.426     53.957    32.98 
 H                     11.078    53.889    32.505 
 H                     11.801    54.794    34.355 
 H                     11.071    53.642    35.482 
 H                     9.501     55.936    34.171 
 H                     11.727    56.466    35.945 
 H                     10.261    57.195    36.28 
 H                     11.179    57.231    34.589 
 H                     9.53      54.868    37.084 
 H                     8.774     54.027    35.875 
 H                     6.852     55.309    35.638 
 H                     7.768     56.778    35.636 
 H                     8.015     56.65     37.998 
 H                     6.941     55.2      38.127 
 H                     5.64      57.115    36.424 
 H                     6.07      59.115    38.57 
 H                     6.18      59.087    36.774 
 H                     7.563     58.688    37.794 
 H                     5.155     56.937    39.472 
 H                     4.905     55.561    38.561 
 H                     2.88      56.094    38.102 
 H                     3.489     57.357    37.044 
 H                     3.17      59.109    38.729 
 H                     3.11      57.867    40.008 
 H                     1.045     57.454    38.141 
 H                     1.415     60.439    38.909 
 H                    -0.212     59.894    38.796 
 H                     0.928     59.661    37.436 
 H                     0.54      56.524    40.206 
 H                    -0.343     58.033    40.383 
 H                     1.188     57.798    41.111 
 
 ITRead=  0  0  0  0  0  0  0  0  0  0  0  0  0  0  0  0  0  0  0  0
 ITRead=  0  0  0  0  0  0  0  0  0  0  0  0  0  0  0  0  0  0  0  0
 ITRead=  0  0  0  0  0  0  0  0  0  0  0  0  0  0  0  0  0  0  0  0
 ITRead=  0  0  0  0  0  0  0  0  0  0  0  0  0  0  0  0  0  0  0  0
 ITRead=  0  0  0  0  0  0  0  0  0  0  0  0  0  0  0  0  0  0  0  0
 ITRead=  0  0  0  0  0  0  0  0  0  0  0  0  0  0  0  0  0  0  0  0
 ITRead=  0  0  0  0  0  0  0  0  0  0  0  0  0  0  0  0  0  0  0  0
 MicOpt= -1 -1 -1 -1 -1 -1 -1 -1 -1 -1 -1 -1 -1 -1 -1 -1 -1 -1 -1 -1
 MicOpt= -1 -1 -1 -1 -1 -1 -1 -1 -1 -1 -1 -1 -1 -1 -1 -1 -1 -1 -1 -1
 MicOpt= -1 -1 -1 -1 -1 -1 -1 -1 -1 -1 -1 -1 -1 -1 -1 -1 -1 -1 -1 -1
 MicOpt= -1 -1 -1 -1 -1 -1 -1 -1 -1 -1 -1 -1 -1 -1 -1 -1 -1 -1 -1 -1
 MicOpt= -1 -1 -1 -1 -1 -1 -1 -1 -1 -1 -1 -1 -1 -1 -1 -1 -1 -1 -1 -1
 MicOpt= -1 -1 -1 -1 -1 -1 -1 -1 -1 -1 -1 -1 -1 -1 -1 -1 -1 -1 -1 -1
 MicOpt= -1 -1 -1 -1 -1 -1 -1 -1 -1 -1 -1 -1 -1 -1 -1 -1 -1 -1 -1 -1
 NAtoms=    140 NQM=      140 NQMF=       0 NMMI=      0 NMMIF=      0
                NMic=       0 NMicF=      0.
                    Isotopes and Nuclear Properties:
 (Nuclear quadrupole moments (NQMom) in fm**2, nuclear magnetic moments (NMagM)
  in nuclear magnetons)

  Atom         1           2           3           4           5           6           7           8           9          10
 IAtWgt=          24          12          12          12          12          14          12          12          12          12
 AtmWgt=  23.9850450  12.0000000  12.0000000  12.0000000  12.0000000  14.0030740  12.0000000  12.0000000  12.0000000  12.0000000
 NucSpn=           0           0           0           0           0           2           0           0           0           0
 AtZEff=  -0.0000000  -0.0000000  -0.0000000  -0.0000000  -0.0000000  -0.0000000  -0.0000000  -0.0000000  -0.0000000  -0.0000000
 NQMom=    0.0000000   0.0000000   0.0000000   0.0000000   0.0000000   2.0440000   0.0000000   0.0000000   0.0000000   0.0000000
 NMagM=    0.0000000   0.0000000   0.0000000   0.0000000   0.0000000   0.4037610   0.0000000   0.0000000   0.0000000   0.0000000
 AtZNuc=  12.0000000   6.0000000   6.0000000   6.0000000   6.0000000   7.0000000   6.0000000   6.0000000   6.0000000   6.0000000

  Atom        11          12          13          14          15          16          17          18          19          20
 IAtWgt=          12          12          12          12          16          16          14          12          12          12
 AtmWgt=  12.0000000  12.0000000  12.0000000  12.0000000  15.9949146  15.9949146  14.0030740  12.0000000  12.0000000  12.0000000
 NucSpn=           0           0           0           0           0           0           2           0           0           0
 AtZEff=  -0.0000000  -0.0000000  -0.0000000  -0.0000000  -0.0000000  -0.0000000  -0.0000000  -0.0000000  -0.0000000  -0.0000000
 NQMom=    0.0000000   0.0000000   0.0000000   0.0000000   0.0000000   0.0000000   2.0440000   0.0000000   0.0000000   0.0000000
 NMagM=    0.0000000   0.0000000   0.0000000   0.0000000   0.0000000   0.0000000   0.4037610   0.0000000   0.0000000   0.0000000
 AtZNuc=   6.0000000   6.0000000   6.0000000   6.0000000   8.0000000   8.0000000   7.0000000   6.0000000   6.0000000   6.0000000

  Atom        21          22          23          24          25          26          27          28          29          30
 IAtWgt=          12          12          12          16          12          14          12          12          12          12
 AtmWgt=  12.0000000  12.0000000  12.0000000  15.9949146  12.0000000  14.0030740  12.0000000  12.0000000  12.0000000  12.0000000
 NucSpn=           0           0           0           0           0           2           0           0           0           0
 AtZEff=  -0.0000000  -0.0000000  -0.0000000  -0.0000000  -0.0000000  -0.0000000  -0.0000000  -0.0000000  -0.0000000  -0.0000000
 NQMom=    0.0000000   0.0000000   0.0000000   0.0000000   0.0000000   2.0440000   0.0000000   0.0000000   0.0000000   0.0000000
 NMagM=    0.0000000   0.0000000   0.0000000   0.0000000   0.0000000   0.4037610   0.0000000   0.0000000   0.0000000   0.0000000
 AtZNuc=   6.0000000   6.0000000   6.0000000   8.0000000   6.0000000   7.0000000   6.0000000   6.0000000   6.0000000   6.0000000

  Atom        31          32          33          34          35          36          37          38          39          40
 IAtWgt=          12          12          12          14          12          12          12          12          12          12
 AtmWgt=  12.0000000  12.0000000  12.0000000  14.0030740  12.0000000  12.0000000  12.0000000  12.0000000  12.0000000  12.0000000
 NucSpn=           0           0           0           2           0           0           0           0           0           0
 AtZEff=  -0.0000000  -0.0000000  -0.0000000  -0.0000000  -0.0000000  -0.0000000  -0.0000000  -0.0000000  -0.0000000  -0.0000000
 NQMom=    0.0000000   0.0000000   0.0000000   2.0440000   0.0000000   0.0000000   0.0000000   0.0000000   0.0000000   0.0000000
 NMagM=    0.0000000   0.0000000   0.0000000   0.4037610   0.0000000   0.0000000   0.0000000   0.0000000   0.0000000   0.0000000
 AtZNuc=   6.0000000   6.0000000   6.0000000   7.0000000   6.0000000   6.0000000   6.0000000   6.0000000   6.0000000   6.0000000

  Atom        41          42          43          44          45          46          47          48          49          50
 IAtWgt=          16          12          12          16          16          12          12          12          12          12
 AtmWgt=  15.9949146  12.0000000  12.0000000  15.9949146  15.9949146  12.0000000  12.0000000  12.0000000  12.0000000  12.0000000
 NucSpn=           0           0           0           0           0           0           0           0           0           0
 AtZEff=  -0.0000000  -0.0000000  -0.0000000  -0.0000000  -0.0000000  -0.0000000  -0.0000000  -0.0000000  -0.0000000  -0.0000000
 NQMom=    0.0000000   0.0000000   0.0000000   0.0000000   0.0000000   0.0000000   0.0000000   0.0000000   0.0000000   0.0000000
 NMagM=    0.0000000   0.0000000   0.0000000   0.0000000   0.0000000   0.0000000   0.0000000   0.0000000   0.0000000   0.0000000
 AtZNuc=   8.0000000   6.0000000   6.0000000   8.0000000   8.0000000   6.0000000   6.0000000   6.0000000   6.0000000   6.0000000

  Atom        51          52          53          54          55          56          57          58          59          60
 IAtWgt=          12          12          12          12          12          12          12          12          12          12
 AtmWgt=  12.0000000  12.0000000  12.0000000  12.0000000  12.0000000  12.0000000  12.0000000  12.0000000  12.0000000  12.0000000
 NucSpn=           0           0           0           0           0           0           0           0           0           0
 AtZEff=  -0.0000000  -0.0000000  -0.0000000  -0.0000000  -0.0000000  -0.0000000  -0.0000000  -0.0000000  -0.0000000  -0.0000000
 NQMom=    0.0000000   0.0000000   0.0000000   0.0000000   0.0000000   0.0000000   0.0000000   0.0000000   0.0000000   0.0000000
 NMagM=    0.0000000   0.0000000   0.0000000   0.0000000   0.0000000   0.0000000   0.0000000   0.0000000   0.0000000   0.0000000
 AtZNuc=   6.0000000   6.0000000   6.0000000   6.0000000   6.0000000   6.0000000   6.0000000   6.0000000   6.0000000   6.0000000

  Atom        61          62          63          64          65          66          67          68          69          70
 IAtWgt=          12          12          12          12          12          12           1           1           1           1
 AtmWgt=  12.0000000  12.0000000  12.0000000  12.0000000  12.0000000  12.0000000   1.0078250   1.0078250   1.0078250   1.0078250
 NucSpn=           0           0           0           0           0           0           1           1           1           1
 AtZEff=  -0.0000000  -0.0000000  -0.0000000  -0.0000000  -0.0000000  -0.0000000  -0.0000000  -0.0000000  -0.0000000  -0.0000000
 NQMom=    0.0000000   0.0000000   0.0000000   0.0000000   0.0000000   0.0000000   0.0000000   0.0000000   0.0000000   0.0000000
 NMagM=    0.0000000   0.0000000   0.0000000   0.0000000   0.0000000   0.0000000   2.7928460   2.7928460   2.7928460   2.7928460
 AtZNuc=   6.0000000   6.0000000   6.0000000   6.0000000   6.0000000   6.0000000   1.0000000   1.0000000   1.0000000   1.0000000

  Atom        71          72          73          74          75          76          77          78          79          80
 IAtWgt=           1           1           1           1           1           1           1           1           1           1
 AtmWgt=   1.0078250   1.0078250   1.0078250   1.0078250   1.0078250   1.0078250   1.0078250   1.0078250   1.0078250   1.0078250
 NucSpn=           1           1           1           1           1           1           1           1           1           1
 AtZEff=  -0.0000000  -0.0000000  -0.0000000  -0.0000000  -0.0000000  -0.0000000  -0.0000000  -0.0000000  -0.0000000  -0.0000000
 NQMom=    0.0000000   0.0000000   0.0000000   0.0000000   0.0000000   0.0000000   0.0000000   0.0000000   0.0000000   0.0000000
 NMagM=    2.7928460   2.7928460   2.7928460   2.7928460   2.7928460   2.7928460   2.7928460   2.7928460   2.7928460   2.7928460
 AtZNuc=   1.0000000   1.0000000   1.0000000   1.0000000   1.0000000   1.0000000   1.0000000   1.0000000   1.0000000   1.0000000

  Atom        81          82          83          84          85          86          87          88          89          90
 IAtWgt=           1           1           1           1           1           1           1           1           1           1
 AtmWgt=   1.0078250   1.0078250   1.0078250   1.0078250   1.0078250   1.0078250   1.0078250   1.0078250   1.0078250   1.0078250
 NucSpn=           1           1           1           1           1           1           1           1           1           1
 AtZEff=  -0.0000000  -0.0000000  -0.0000000  -0.0000000  -0.0000000  -0.0000000  -0.0000000  -0.0000000  -0.0000000  -0.0000000
 NQMom=    0.0000000   0.0000000   0.0000000   0.0000000   0.0000000   0.0000000   0.0000000   0.0000000   0.0000000   0.0000000
 NMagM=    2.7928460   2.7928460   2.7928460   2.7928460   2.7928460   2.7928460   2.7928460   2.7928460   2.7928460   2.7928460
 AtZNuc=   1.0000000   1.0000000   1.0000000   1.0000000   1.0000000   1.0000000   1.0000000   1.0000000   1.0000000   1.0000000

  Atom        91          92          93          94          95          96          97          98          99         100
 IAtWgt=           1           1           1           1           1           1           1           1           1           1
 AtmWgt=   1.0078250   1.0078250   1.0078250   1.0078250   1.0078250   1.0078250   1.0078250   1.0078250   1.0078250   1.0078250
 NucSpn=           1           1           1           1           1           1           1           1           1           1
 AtZEff=  -0.0000000  -0.0000000  -0.0000000  -0.0000000  -0.0000000  -0.0000000  -0.0000000  -0.0000000  -0.0000000  -0.0000000
 NQMom=    0.0000000   0.0000000   0.0000000   0.0000000   0.0000000   0.0000000   0.0000000   0.0000000   0.0000000   0.0000000
 NMagM=    2.7928460   2.7928460   2.7928460   2.7928460   2.7928460   2.7928460   2.7928460   2.7928460   2.7928460   2.7928460
 AtZNuc=   1.0000000   1.0000000   1.0000000   1.0000000   1.0000000   1.0000000   1.0000000   1.0000000   1.0000000   1.0000000

  Atom       101         102         103         104         105         106         107         108         109         110
 IAtWgt=           1           1           1           1           1           1           1           1           1           1
 AtmWgt=   1.0078250   1.0078250   1.0078250   1.0078250   1.0078250   1.0078250   1.0078250   1.0078250   1.0078250   1.0078250
 NucSpn=           1           1           1           1           1           1           1           1           1           1
 AtZEff=  -0.0000000  -0.0000000  -0.0000000  -0.0000000  -0.0000000  -0.0000000  -0.0000000  -0.0000000  -0.0000000  -0.0000000
 NQMom=    0.0000000   0.0000000   0.0000000   0.0000000   0.0000000   0.0000000   0.0000000   0.0000000   0.0000000   0.0000000
 NMagM=    2.7928460   2.7928460   2.7928460   2.7928460   2.7928460   2.7928460   2.7928460   2.7928460   2.7928460   2.7928460
 AtZNuc=   1.0000000   1.0000000   1.0000000   1.0000000   1.0000000   1.0000000   1.0000000   1.0000000   1.0000000   1.0000000

  Atom       111         112         113         114         115         116         117         118         119         120
 IAtWgt=           1           1           1           1           1           1           1           1           1           1
 AtmWgt=   1.0078250   1.0078250   1.0078250   1.0078250   1.0078250   1.0078250   1.0078250   1.0078250   1.0078250   1.0078250
 NucSpn=           1           1           1           1           1           1           1           1           1           1
 AtZEff=  -0.0000000  -0.0000000  -0.0000000  -0.0000000  -0.0000000  -0.0000000  -0.0000000  -0.0000000  -0.0000000  -0.0000000
 NQMom=    0.0000000   0.0000000   0.0000000   0.0000000   0.0000000   0.0000000   0.0000000   0.0000000   0.0000000   0.0000000
 NMagM=    2.7928460   2.7928460   2.7928460   2.7928460   2.7928460   2.7928460   2.7928460   2.7928460   2.7928460   2.7928460
 AtZNuc=   1.0000000   1.0000000   1.0000000   1.0000000   1.0000000   1.0000000   1.0000000   1.0000000   1.0000000   1.0000000

  Atom       121         122         123         124         125         126         127         128         129         130
 IAtWgt=           1           1           1           1           1           1           1           1           1           1
 AtmWgt=   1.0078250   1.0078250   1.0078250   1.0078250   1.0078250   1.0078250   1.0078250   1.0078250   1.0078250   1.0078250
 NucSpn=           1           1           1           1           1           1           1           1           1           1
 AtZEff=  -0.0000000  -0.0000000  -0.0000000  -0.0000000  -0.0000000  -0.0000000  -0.0000000  -0.0000000  -0.0000000  -0.0000000
 NQMom=    0.0000000   0.0000000   0.0000000   0.0000000   0.0000000   0.0000000   0.0000000   0.0000000   0.0000000   0.0000000
 NMagM=    2.7928460   2.7928460   2.7928460   2.7928460   2.7928460   2.7928460   2.7928460   2.7928460   2.7928460   2.7928460
 AtZNuc=   1.0000000   1.0000000   1.0000000   1.0000000   1.0000000   1.0000000   1.0000000   1.0000000   1.0000000   1.0000000

  Atom       131         132         133         134         135         136         137         138         139         140
 IAtWgt=           1           1           1           1           1           1           1           1           1           1
 AtmWgt=   1.0078250   1.0078250   1.0078250   1.0078250   1.0078250   1.0078250   1.0078250   1.0078250   1.0078250   1.0078250
 NucSpn=           1           1           1           1           1           1           1           1           1           1
 AtZEff=  -0.0000000  -0.0000000  -0.0000000  -0.0000000  -0.0000000  -0.0000000  -0.0000000  -0.0000000  -0.0000000  -0.0000000
 NQMom=    0.0000000   0.0000000   0.0000000   0.0000000   0.0000000   0.0000000   0.0000000   0.0000000   0.0000000   0.0000000
 NMagM=    2.7928460   2.7928460   2.7928460   2.7928460   2.7928460   2.7928460   2.7928460   2.7928460   2.7928460   2.7928460
 AtZNuc=   1.0000000   1.0000000   1.0000000   1.0000000   1.0000000   1.0000000   1.0000000   1.0000000   1.0000000   1.0000000
 Leave Link  101 at Thu Apr 28 14:41:35 2022, MaxMem= 10066329600 cpu:               3.8 elap:               0.2
 (Enter /sw/apps/gaussian-16.0/g16/l202.exe)
 Stoichiometry    C55H74MgN4O6
 Framework group  C1[X(C55H74MgN4O6)]
 Deg. of freedom   414
 Full point group                 C1      NOp   1
 Largest Abelian subgroup         C1      NOp   1
 Largest concise Abelian subgroup C1      NOp   1
                         Standard orientation:                         
 ---------------------------------------------------------------------
 Center     Atomic      Atomic             Coordinates (Angstroms)
 Number     Number       Type             X           Y           Z
 ---------------------------------------------------------------------
      1         12           0        5.085400    1.094403    0.006051
      2          6           0        4.870031   -2.313167    0.235953
      3          6           0        1.591292    1.264381   -0.504826
      4          6           0        5.387862    4.398184   -0.126079
      5          6           0        8.645566    0.766174    0.340866
      6          7           0        3.473240   -0.310427   -0.012216
      7          6           0        3.607948   -1.659342    0.285730
      8          6           0        2.231966   -2.364650    0.344869
      9          6           0        1.293916   -1.293637   -0.300465
     10          6           0        2.135322   -0.028154   -0.294890
     11          6           0        0.705472   -1.631475   -1.693610
     12          6           0        2.061295   -2.793348    1.764025
     13          6           0        0.947652   -3.804553    2.104236
     14          6           0       -0.010127   -4.343491    1.009916
     15          8           0        0.165386   -5.312637    0.284527
     16          8           0       -1.061408   -3.459098    0.833922
     17          7           0        3.620341    2.670159   -0.185791
     18          6           0        2.298955    2.530447   -0.397680
     19          6           0        1.719520    3.858542   -0.446485
     20          6           0        2.822441    4.749980   -0.425058
     21          6           0        4.006004    3.991900   -0.225141
     22          6           0        0.215098    4.087907   -0.553871
     23          6           0        2.786138    6.214228   -0.441586
     24          8           0        3.744129    6.913530   -0.270342
     25          6           0        1.464373    6.915999   -0.725470
     26          7           0        6.777221    2.355290    0.121474
     27          6           0        6.569116    3.689909   -0.014927
     28          6           0        7.934935    4.402112   -0.147566
     29          6           0        8.908838    3.256899    0.285114
     30          6           0        8.064244    2.012955    0.319837
     31          6           0        8.163311    5.005764   -1.550698
     32          6           0        9.538509    3.425971    1.672237
     33          6           0       11.105098    3.824606    1.722749
     34          7           0        6.489911   -0.423079    0.139649
     35          6           0        7.864524   -0.436937    0.300997
     36          6           0        8.386186   -1.765964    0.237662
     37          6           0        7.200869   -2.505068    0.286817
     38          6           0        6.111603   -1.628188    0.217943
     39          6           0        9.767991   -2.273677    0.209118
     40          6           0        6.678366   -3.930193    0.287840
     41          8           0        7.242715   -4.990516    0.161318
     42          6           0        5.159630   -3.863030    0.273832
     43          6           0        4.799293   -4.515106   -1.008086
     44          8           0        5.185001   -4.146235   -2.115690
     45          8           0        3.889150   -5.534029   -0.792251
     46          6           0        3.061320   -6.002023   -1.923193
     47          6           0       -1.959957   -3.800101   -0.247777
     48          6           0       -2.751277   -2.616549   -0.583944
     49          6           0       -3.842558   -2.428438   -1.340704
     50          6           0       -4.659847   -3.525035   -2.071166
     51          6           0       -4.542013   -1.067835   -1.450027
     52          6           0       -5.114854   -0.414402   -0.120283
     53          6           0       -5.936902   -1.305077    0.831406
     54          6           0       -7.211687   -0.593459    1.361099
     55          6           0       -7.392673   -0.768912    2.861069
     56          6           0       -8.406688   -1.078908    0.603216
     57          6           0       -9.546572   -0.027100    0.476077
     58          6           0      -10.952554   -0.663623    0.591940
     59          6           0      -11.987647    0.486744    0.730128
     60          6           0      -12.347804    0.726438    2.278348
     61          6           0      -13.255608    0.155703   -0.160571
     62          6           0      -14.074099    1.381952   -0.669631
     63          6           0      -15.424619    1.508157   -0.023397
     64          6           0      -16.391537    2.389252   -0.833168
     65          6           0      -16.911405    3.580340    0.056946
     66          6           0      -17.465304    1.558264   -1.513411
     67          1           0        0.526671    1.202670   -0.737028
     68          1           0        5.649116    5.439506   -0.326449
     69          1           0        9.731458    0.665163    0.297064
     70          1           0        2.251253   -3.237309   -0.307865
     71          1           0        0.539635   -1.111337    0.465682
     72          1           0       -0.349614   -1.425048   -1.510056
     73          1           0        0.819782   -2.684200   -1.950167
     74          1           0        1.148020   -1.060778   -2.510302
     75          1           0        1.902538   -1.937758    2.420036
     76          1           0        2.923717   -3.282925    2.216069
     77          1           0        0.453858   -3.417783    2.996154
     78          1           0        1.446628   -4.700801    2.473535
     79          1           0       -0.214750    4.790472    0.159805
     80          1           0       -0.380899    3.179361   -0.648025
     81          1           0        0.092198    4.526508   -1.544150
     82          1           0        0.702762    6.792687    0.044125
     83          1           0        1.195287    6.590434   -1.730072
     84          1           0        1.696632    7.958686   -0.509291
     85          1           0        7.956202    5.178383    0.617091
     86          1           0        9.592869    3.222948   -0.563322
     87          1           0        9.211471    4.975662   -1.849041
     88          1           0        7.921442    6.066679   -1.610185
     89          1           0        7.614672    4.498736   -2.343743
     90          1           0        9.437141    2.478146    2.202494
     91          1           0        8.868958    4.067029    2.245453
     92          1           0       11.496072    4.693572    1.192557
     93          1           0       11.737512    2.941420    1.627512
     94          1           0       11.211153    4.165663    2.752778
     95          1           0       10.079686   -2.670249    1.175191
     96          1           0       10.467774   -1.572114   -0.245317
     97          1           0        9.720533   -3.076224   -0.526667
     98          1           0        4.800854   -4.366366    1.172443
     99          1           0        2.048065   -5.710338   -1.646161
    100          1           0        3.035619   -7.080949   -2.074682
    101          1           0        3.226231   -5.452404   -2.850287
    102          1           0       -2.623079   -4.622448    0.020951
    103          1           0       -1.297188   -4.022750   -1.084687
    104          1           0       -2.543325   -1.724445    0.007434
    105          1           0       -5.034849   -3.226973   -3.049970
    106          1           0       -5.477096   -3.808442   -1.408527
    107          1           0       -3.971769   -4.369206   -2.118359
    108          1           0       -5.330661   -0.960874   -2.195186
    109          1           0       -3.923714   -0.343588   -1.981148
    110          1           0       -5.627669    0.497532   -0.426278
    111          1           0       -4.215950   -0.059371    0.383821
    112          1           0       -5.326106   -1.368506    1.732143
    113          1           0       -6.170178   -2.315760    0.499103
    114          1           0       -7.074051    0.487812    1.376063
    115          1           0       -7.035537   -1.725847    3.241882
    116          1           0       -8.459158   -0.868647    3.064868
    117          1           0       -6.724721   -0.114783    3.421126
    118          1           0       -8.678979   -2.110337    0.827550
    119          1           0       -8.050184   -1.217800   -0.416835
    120          1           0       -9.566672    0.540812   -0.453268
    121          1           0       -9.480768    0.720560    1.266421
    122          1           0      -10.892049   -1.172030    1.554218
    123          1           0      -11.173021   -1.351782   -0.223804
    124          1           0      -11.505418    1.422878    0.447620
    125          1           0      -13.383156    0.546405    2.568024
    126          1           0      -12.075196    1.772447    2.411299
    127          1           0      -11.744614    0.129091    2.961194
    128          1           0      -13.839678   -0.602242    0.361962
    129          1           0      -12.904743   -0.431537   -1.010100
    130          1           0      -14.078207    1.204872   -1.745314
    131          1           0      -13.397381    2.215874   -0.480496
    132          1           0      -15.357007    1.954823    0.969404
    133          1           0      -15.842612    0.504856    0.050825
    134          1           0      -15.754141    2.753526   -1.639188
    135          1           0      -17.067482    3.346113    1.110526
    136          1           0      -17.850389    4.038802   -0.254817
    137          1           0      -16.106718    4.316004    0.038880
    138          1           0      -17.170786    1.110539   -2.462511
    139          1           0      -18.379315    2.125629   -1.689758
    140          1           0      -17.810274    0.688903   -0.954107
 ---------------------------------------------------------------------
 Rotational constants (GHZ):           0.0467013           0.0096146           0.0082293
 Leave Link  202 at Thu Apr 28 14:41:35 2022, MaxMem= 10066329600 cpu:               0.2 elap:               0.0
 (Enter /sw/apps/gaussian-16.0/g16/l301.exe)
 Standard basis: def2SVP (5D, 7F)
 Ernie: Thresh=  0.10000D-02 Tol=  0.10000D-05 Strict=F.
 There are  1364 symmetry adapted cartesian basis functions of A   symmetry.
 There are  1298 symmetry adapted basis functions of A   symmetry.
  1298 basis functions,  2180 primitive gaussians,  1364 cartesian basis functions
   246 alpha electrons      246 beta electrons
       nuclear repulsion energy      9607.4680122990 Hartrees.
 IExCor= 4639 DFT=T Ex+Corr=wB97XD ExCW=0 ScaHFX=  1.000000
 ScaDFX=  1.000000  1.000000  1.000000  1.000000 ScalE2=  1.000000  1.000000
 IRadAn=      5 IRanWt=     -1 IRanGd=            0 ICorTp=0 IEmpDi=121
 HFx  wShort=  0.000000 wLong=  0.200000 cFull=  0.222036 cShort=  0.000000 cLong=  0.777964
 DFx  wShort=  0.000000 wLong=  0.200000 cFull=  0.000000 cShort=  0.000000 cLong=  1.000000
 NAtoms=  140 NActive=  140 NUniq=  140 SFac= 1.00D+00 NAtFMM=   60 NAOKFM=T Big=T
 Integral buffers will be    131072 words long.
 Raffenetti 1 integral format.
 Two-electron integral symmetry is turned on.
 R6Disp:  Grimme-D2 Dispersion energy=       -0.1363252709 Hartrees.
 Nuclear repulsion after empirical dispersion term =     9607.3316870282 Hartrees.
 Leave Link  301 at Thu Apr 28 14:41:35 2022, MaxMem= 10066329600 cpu:               1.5 elap:               0.1
 (Enter /sw/apps/gaussian-16.0/g16/l302.exe)
 NPDir=0 NMtPBC=     1 NCelOv=     1 NCel=       1 NClECP=     1 NCelD=      1
         NCelK=      1 NCelE2=     1 NClLst=     1 CellRange=     0.0.
 One-electron integrals computed using PRISM.
 One-electron integral symmetry used in STVInt
   1 Symmetry operations used in ECPInt.
 ECPInt:  NShTT=  192510 NPrTT=  683786 LenC2=   95489 LenP2D=  209834.
 LDataN:  DoStor=T MaxTD1= 4 Len=   56
 NBasis=  1298 RedAO= T EigKep=  3.22D-04  NBF=  1298
 NBsUse=  1298 1.00D-06 EigRej= -1.00D+00 NBFU=  1298
 Precomputing XC quadrature grid using
 IXCGrd= 4 IRadAn=           5 IRanWt=          -1 IRanGd=           0 AccXCQ= 0.00D+00.
 Generated NRdTot=       0 NPtTot=           0 NUsed=           0 NTot=          32
 NSgBfM=  1093  1093  1093  1093  1093 MxSgAt=   140 MxSgA2=   139.
 Leave Link  302 at Thu Apr 28 14:41:38 2022, MaxMem= 10066329600 cpu:              82.9 elap:               3.5
 (Enter /sw/apps/gaussian-16.0/g16/l303.exe)
 DipDrv:  MaxL=1.
 Leave Link  303 at Thu Apr 28 14:41:39 2022, MaxMem= 10066329600 cpu:               5.8 elap:               0.3
 (Enter /sw/apps/gaussian-16.0/g16/l308.exe)
 Leave Link  308 at Thu Apr 28 14:41:39 2022, MaxMem= 10066329600 cpu:              11.3 elap:               0.5
 (Enter /sw/apps/gaussian-16.0/g16/l401.exe)
 ExpMin= 3.36D-02 ExpMax= 4.95D+03 ExpMxC= 7.45D+02 IAcc=3 IRadAn=         5 AccDes= 0.00D+00
 Harris functional with IExCor= 4639 and IRadAn=       5 diagonalized for initial guess.
 HarFok:  IExCor= 4639 AccDes= 0.00D+00 IRadAn=         5 IDoV= 1 UseB2=F ITyADJ=14
 ICtDFT=  3500011 ScaDFX=  1.000000  1.000000  1.000000  1.000000
 FoFCou: FMM=F IPFlag=           0 FMFlag=      100000 FMFlg1=        2001
         NFxFlg=           0 DoJE=T BraDBF=F KetDBF=T FulRan=T
         wScrn=  0.000000 ICntrl=       500 IOpCl=  0 I1Cent=   200000004 NGrid=           0
         NMat0=    1 NMatS0=      1 NMatT0=    0 NMatD0=    1 NMtDS0=    0 NMtDT0=    0
 Petite list used in FoFCou.
 Harris En= -2877.98446890841    
 JPrj=0 DoOrth=F DoCkMO=F.
 Leave Link  401 at Thu Apr 28 14:41:45 2022, MaxMem= 10066329600 cpu:             137.6 elap:               5.8
 (Enter /sw/apps/gaussian-16.0/g16/l502.exe)
 Integral symmetry usage will be decided dynamically.
 Closed shell SCF:
 Using DIIS extrapolation, IDIIS=  1040.
 NGot= 10066329600 LenX= 10062561258 LenY= 10060699398
 Requested convergence on RMS density matrix=1.00D-08 within 128 cycles.
 Requested convergence on MAX density matrix=1.00D-06.
 Requested convergence on             energy=1.00D-06.
 No special actions if energy rises.
 Fock matrices will be formed incrementally for  20 cycles.

 Cycle   1  Pass 1  IDiag  1:
 FoFJK:  IHMeth= 1 ICntrl=       0 DoSepK=T KAlg= 0 I1Cent=           0 FoldK=F
 IRaf=         1 NMat=       1 IRICut=       1 DoRegI=T DoRafI=F ISym2E= 0 IDoP0=0 IntGTp=1.
 FoFCou: FMM=T IPFlag=           0 FMFlag=      100000 FMFlg1=        2001
         NFxFlg=           0 DoJE=T BraDBF=F KetDBF=F FulRan=T
         wScrn=  0.000000 ICntrl=       500 IOpCl=  0 I1Cent=           0 NGrid=           0
         NMat0=    1 NMatS0=      1 NMatT0=    0 NMatD0=    1 NMtDS0=    0 NMtDT0=    0
 Symmetry not used in FoFCou.
 FMM levels:  10  Number of levels for PrismC:   9
 E= -3007.20602563068    
 DIIS: error= 2.97D-02 at cycle   1 NSaved=   1.
 NSaved= 1 IEnMin= 1 EnMin= -3007.20602563068     IErMin= 1 ErrMin= 2.97D-02
 ErrMax= 2.97D-02  0.00D+00 EMaxC= 1.00D-01 BMatC= 1.48D+00 BMatP= 1.48D+00
 IDIUse=3 WtCom= 7.03D-01 WtEn= 2.97D-01
 Coeff-Com:  0.100D+01
 Coeff-En:   0.100D+01
 Coeff:      0.100D+01
 Gap=     0.153 Goal=   None    Shift=    0.000
 GapD=    0.153 DampG=1.000 DampE=0.500 DampFc=0.5000 IDamp=-1.
 Damping current iteration by 5.00D-01
 RMSDP=1.53D-03 MaxDP=2.01D-01              OVMax= 1.79D-01

 Cycle   2  Pass 1  IDiag  1:
 RMSU=  7.55D-04    CP:  9.87D-01
 E= -3007.52222062226     Delta-E=       -0.316194991578 Rises=F Damp=T
 DIIS: error= 1.54D-02 at cycle   2 NSaved=   2.
 NSaved= 2 IEnMin= 2 EnMin= -3007.52222062226     IErMin= 2 ErrMin= 1.54D-02
 ErrMax= 1.54D-02  0.00D+00 EMaxC= 1.00D-01 BMatC= 2.89D-01 BMatP= 1.48D+00
 IDIUse=3 WtCom= 8.46D-01 WtEn= 1.54D-01
 Coeff-Com: -0.360D+00 0.136D+01
 Coeff-En:   0.000D+00 0.100D+01
 Coeff:     -0.305D+00 0.130D+01
 Gap=     0.178 Goal=   None    Shift=    0.000
 RMSDP=7.19D-04 MaxDP=1.07D-01 DE=-3.16D-01 OVMax= 1.82D-01

 Cycle   3  Pass 1  IDiag  1:
 RMSU=  6.68D-04    CP:  9.78D-01  1.34D+00
 E= -3007.75329645788     Delta-E=       -0.231075835622 Rises=F Damp=F
 DIIS: error= 1.32D-02 at cycle   3 NSaved=   3.
 NSaved= 3 IEnMin= 3 EnMin= -3007.75329645788     IErMin= 3 ErrMin= 1.32D-02
 ErrMax= 1.32D-02  0.00D+00 EMaxC= 1.00D-01 BMatC= 1.34D-01 BMatP= 2.89D-01
 IDIUse=3 WtCom= 8.68D-01 WtEn= 1.32D-01
 Coeff-Com: -0.310D+00 0.687D+00 0.623D+00
 Coeff-En:   0.000D+00 0.000D+00 0.100D+01
 Coeff:     -0.269D+00 0.596D+00 0.673D+00
 Gap=     0.160 Goal=   None    Shift=    0.000
 RMSDP=4.18D-04 MaxDP=5.17D-02 DE=-2.31D-01 OVMax= 9.16D-02

 Cycle   4  Pass 1  IDiag  1:
 RMSU=  2.17D-04    CP:  9.74D-01  1.62D+00  5.75D-01
 E= -3007.85274090556     Delta-E=       -0.099444447684 Rises=F Damp=F
 DIIS: error= 4.90D-03 at cycle   4 NSaved=   4.
 NSaved= 4 IEnMin= 4 EnMin= -3007.85274090556     IErMin= 4 ErrMin= 4.90D-03
 ErrMax= 4.90D-03  0.00D+00 EMaxC= 1.00D-01 BMatC= 2.02D-02 BMatP= 1.34D-01
 IDIUse=3 WtCom= 9.51D-01 WtEn= 4.90D-02
 Coeff-Com: -0.115D+00 0.230D+00 0.370D+00 0.515D+00
 Coeff-En:   0.000D+00 0.000D+00 0.102D+00 0.898D+00
 Coeff:     -0.109D+00 0.219D+00 0.357D+00 0.534D+00
 Gap=     0.158 Goal=   None    Shift=    0.000
 RMSDP=1.31D-04 MaxDP=1.54D-02 DE=-9.94D-02 OVMax= 2.69D-02

 Cycle   5  Pass 1  IDiag  1:
 RMSU=  6.11D-05    CP:  9.74D-01  1.59D+00  7.06D-01  6.71D-01
 E= -3007.86977917888     Delta-E=       -0.017038273316 Rises=F Damp=F
 DIIS: error= 5.44D-04 at cycle   5 NSaved=   5.
 NSaved= 5 IEnMin= 5 EnMin= -3007.86977917888     IErMin= 5 ErrMin= 5.44D-04
 ErrMax= 5.44D-04  0.00D+00 EMaxC= 1.00D-01 BMatC= 3.94D-04 BMatP= 2.02D-02
 IDIUse=3 WtCom= 9.95D-01 WtEn= 5.44D-03
 Coeff-Com: -0.261D-01 0.493D-01 0.111D+00 0.218D+00 0.648D+00
 Coeff-En:   0.000D+00 0.000D+00 0.000D+00 0.000D+00 0.100D+01
 Coeff:     -0.259D-01 0.490D-01 0.110D+00 0.217D+00 0.650D+00
 Gap=     0.158 Goal=   None    Shift=    0.000
 RMSDP=2.44D-05 MaxDP=3.01D-03 DE=-1.70D-02 OVMax= 6.96D-03

 Cycle   6  Pass 1  IDiag  1:
 RMSU=  2.10D-05    CP:  9.74D-01  1.59D+00  7.07D-01  7.22D-01  9.35D-01
 E= -3007.87011559184     Delta-E=       -0.000336412957 Rises=F Damp=F
 DIIS: error= 2.32D-04 at cycle   6 NSaved=   6.
 NSaved= 6 IEnMin= 6 EnMin= -3007.87011559184     IErMin= 6 ErrMin= 2.32D-04
 ErrMax= 2.32D-04  0.00D+00 EMaxC= 1.00D-01 BMatC= 7.17D-05 BMatP= 3.94D-04
 IDIUse=3 WtCom= 9.98D-01 WtEn= 2.32D-03
 Coeff-Com:  0.102D-01-0.219D-01-0.170D-01-0.852D-03 0.308D+00 0.722D+00
 Coeff-En:   0.000D+00 0.000D+00 0.000D+00 0.000D+00 0.000D+00 0.100D+01
 Coeff:      0.102D-01-0.218D-01-0.170D-01-0.850D-03 0.307D+00 0.722D+00
 Gap=     0.158 Goal=   None    Shift=    0.000
 RMSDP=1.29D-05 MaxDP=2.32D-03 DE=-3.36D-04 OVMax= 4.18D-03

 Cycle   7  Pass 1  IDiag  1:
 RMSU=  8.98D-06    CP:  9.74D-01  1.60D+00  7.13D-01  7.39D-01  1.05D+00
                    CP:  9.71D-01
 E= -3007.87020697589     Delta-E=       -0.000091384052 Rises=F Damp=F
 DIIS: error= 7.78D-05 at cycle   7 NSaved=   7.
 NSaved= 7 IEnMin= 7 EnMin= -3007.87020697589     IErMin= 7 ErrMin= 7.78D-05
 ErrMax= 7.78D-05  0.00D+00 EMaxC= 1.00D-01 BMatC= 6.15D-06 BMatP= 7.17D-05
 IDIUse=1 WtCom= 1.00D+00 WtEn= 0.00D+00
 Coeff-Com:  0.630D-02-0.127D-01-0.164D-01-0.236D-01 0.414D-01 0.243D+00
 Coeff-Com:  0.762D+00
 Coeff:      0.630D-02-0.127D-01-0.164D-01-0.236D-01 0.414D-01 0.243D+00
 Coeff:      0.762D+00
 Gap=     0.158 Goal=   None    Shift=    0.000
 RMSDP=5.89D-06 MaxDP=8.90D-04 DE=-9.14D-05 OVMax= 2.72D-03

 Cycle   8  Pass 1  IDiag  1:
 RMSU=  3.77D-06    CP:  9.74D-01  1.60D+00  7.15D-01  7.44D-01  1.08D+00
                    CP:  1.13D+00  1.16D+00
 E= -3007.87022367887     Delta-E=       -0.000016702978 Rises=F Damp=F
 DIIS: error= 3.52D-05 at cycle   8 NSaved=   8.
 NSaved= 8 IEnMin= 8 EnMin= -3007.87022367887     IErMin= 8 ErrMin= 3.52D-05
 ErrMax= 3.52D-05  0.00D+00 EMaxC= 1.00D-01 BMatC= 2.43D-06 BMatP= 6.15D-06
 IDIUse=1 WtCom= 1.00D+00 WtEn= 0.00D+00
 Coeff-Com:  0.116D-02-0.205D-02-0.461D-02-0.122D-01-0.402D-01-0.328D-01
 Coeff-Com:  0.400D+00 0.690D+00
 Coeff:      0.116D-02-0.205D-02-0.461D-02-0.122D-01-0.402D-01-0.328D-01
 Coeff:      0.400D+00 0.690D+00
 Gap=     0.158 Goal=   None    Shift=    0.000
 RMSDP=3.67D-06 MaxDP=4.80D-04 DE=-1.67D-05 OVMax= 1.77D-03

 Cycle   9  Pass 1  IDiag  1:
 RMSU=  1.92D-06    CP:  9.74D-01  1.60D+00  7.15D-01  7.46D-01  1.10D+00
                    CP:  1.19D+00  1.42D+00  1.26D+00
 E= -3007.87023142191     Delta-E=       -0.000007743040 Rises=F Damp=F
 DIIS: error= 3.28D-05 at cycle   9 NSaved=   9.
 NSaved= 9 IEnMin= 9 EnMin= -3007.87023142191     IErMin= 9 ErrMin= 3.28D-05
 ErrMax= 3.28D-05  0.00D+00 EMaxC= 1.00D-01 BMatC= 4.60D-07 BMatP= 2.43D-06
 IDIUse=1 WtCom= 1.00D+00 WtEn= 0.00D+00
 Coeff-Com: -0.134D-02 0.276D-02 0.323D-02 0.269D-02-0.207D-01-0.838D-01
 Coeff-Com: -0.561D-01 0.123D+00 0.103D+01
 Coeff:     -0.134D-02 0.276D-02 0.323D-02 0.269D-02-0.207D-01-0.838D-01
 Coeff:     -0.561D-01 0.123D+00 0.103D+01
 Gap=     0.158 Goal=   None    Shift=    0.000
 RMSDP=3.29D-06 MaxDP=2.70D-04 DE=-7.74D-06 OVMax= 1.88D-03

 Cycle  10  Pass 1  IDiag  1:
 RMSU=  1.11D-06    CP:  9.74D-01  1.60D+00  7.15D-01  7.47D-01  1.11D+00
                    CP:  1.24D+00  1.62D+00  1.75D+00  1.56D+00
 E= -3007.87023567900     Delta-E=       -0.000004257095 Rises=F Damp=F
 DIIS: error= 1.69D-05 at cycle  10 NSaved=  10.
 NSaved=10 IEnMin=10 EnMin= -3007.87023567900     IErMin=10 ErrMin= 1.69D-05
 ErrMax= 1.69D-05  0.00D+00 EMaxC= 1.00D-01 BMatC= 2.12D-07 BMatP= 4.60D-07
 IDIUse=1 WtCom= 1.00D+00 WtEn= 0.00D+00
 Coeff-Com: -0.995D-03 0.192D-02 0.317D-02 0.583D-02 0.793D-02-0.276D-01
 Coeff-Com: -0.160D+00-0.268D+00 0.428D+00 0.101D+01
 Coeff:     -0.995D-03 0.192D-02 0.317D-02 0.583D-02 0.793D-02-0.276D-01
 Coeff:     -0.160D+00-0.268D+00 0.428D+00 0.101D+01
 Gap=     0.158 Goal=   None    Shift=    0.000
 RMSDP=2.83D-06 MaxDP=2.43D-04 DE=-4.26D-06 OVMax= 1.68D-03

 Cycle  11  Pass 1  IDiag  1:
 RMSU=  6.18D-07    CP:  9.74D-01  1.60D+00  7.15D-01  7.48D-01  1.12D+00
                    CP:  1.27D+00  1.79D+00  2.14D+00  2.27D+00  1.54D+00
 E= -3007.87023774178     Delta-E=       -0.000002062774 Rises=F Damp=F
 DIIS: error= 9.52D-06 at cycle  11 NSaved=  11.
 NSaved=11 IEnMin=11 EnMin= -3007.87023774178     IErMin=11 ErrMin= 9.52D-06
 ErrMax= 9.52D-06  0.00D+00 EMaxC= 1.00D-01 BMatC= 5.77D-08 BMatP= 2.12D-07
 IDIUse=1 WtCom= 1.00D+00 WtEn= 0.00D+00
 Coeff-Com: -0.283D-05-0.317D-04 0.327D-03 0.157D-02 0.921D-02 0.113D-01
 Coeff-Com: -0.344D-01-0.153D+00-0.113D+00 0.404D+00 0.874D+00
 Coeff:     -0.283D-05-0.317D-04 0.327D-03 0.157D-02 0.921D-02 0.113D-01
 Coeff:     -0.344D-01-0.153D+00-0.113D+00 0.404D+00 0.874D+00
 Gap=     0.158 Goal=   None    Shift=    0.000
 RMSDP=1.31D-06 MaxDP=9.10D-05 DE=-2.06D-06 OVMax= 8.25D-04

 Cycle  12  Pass 1  IDiag  1:
 RMSU=  3.45D-07    CP:  9.74D-01  1.60D+00  7.15D-01  7.48D-01  1.12D+00
                    CP:  1.28D+00  1.86D+00  2.33D+00  2.58D+00  2.04D+00
                    CP:  1.31D+00
 E= -3007.87023822921     Delta-E=       -0.000000487435 Rises=F Damp=F
 DIIS: error= 3.21D-06 at cycle  12 NSaved=  12.
 NSaved=12 IEnMin=12 EnMin= -3007.87023822921     IErMin=12 ErrMin= 3.21D-06
 ErrMax= 3.21D-06  0.00D+00 EMaxC= 1.00D-01 BMatC= 1.97D-08 BMatP= 5.77D-08
 IDIUse=1 WtCom= 1.00D+00 WtEn= 0.00D+00
 Coeff-Com:  0.382D-03-0.758D-03-0.109D-02-0.153D-02 0.619D-03 0.145D-01
 Coeff-Com:  0.527D-01 0.335D-01-0.222D+00-0.244D+00 0.381D+00 0.986D+00
 Coeff:      0.382D-03-0.758D-03-0.109D-02-0.153D-02 0.619D-03 0.145D-01
 Coeff:      0.527D-01 0.335D-01-0.222D+00-0.244D+00 0.381D+00 0.986D+00
 Gap=     0.158 Goal=   None    Shift=    0.000
 RMSDP=9.36D-07 MaxDP=6.46D-05 DE=-4.87D-07 OVMax= 5.39D-04

 Cycle  13  Pass 1  IDiag  1:
 RMSU=  1.72D-07    CP:  9.74D-01  1.60D+00  7.15D-01  7.48D-01  1.13D+00
                    CP:  1.29D+00  1.90D+00  2.44D+00  2.81D+00  2.40D+00
                    CP:  1.84D+00  1.34D+00
 E= -3007.87023838056     Delta-E=       -0.000000151347 Rises=F Damp=F
 DIIS: error= 2.48D-06 at cycle  13 NSaved=  13.
 NSaved=13 IEnMin=13 EnMin= -3007.87023838056     IErMin=13 ErrMin= 2.48D-06
 ErrMax= 2.48D-06  0.00D+00 EMaxC= 1.00D-01 BMatC= 2.66D-09 BMatP= 1.97D-08
 IDIUse=1 WtCom= 1.00D+00 WtEn= 0.00D+00
 Coeff-Com:  0.153D-03-0.298D-03-0.491D-03-0.860D-03-0.133D-02 0.328D-02
 Coeff-Com:  0.282D-01 0.370D-01-0.591D-01-0.160D+00 0.110D-01 0.364D+00
 Coeff-Com:  0.779D+00
 Coeff:      0.153D-03-0.298D-03-0.491D-03-0.860D-03-0.133D-02 0.328D-02
 Coeff:      0.282D-01 0.370D-01-0.591D-01-0.160D+00 0.110D-01 0.364D+00
 Coeff:      0.779D+00
 Gap=     0.158 Goal=   None    Shift=    0.000
 RMSDP=1.98D-07 MaxDP=1.59D-05 DE=-1.51D-07 OVMax= 1.40D-04

 Cycle  14  Pass 1  IDiag  1:
 RMSU=  8.55D-08    CP:  9.74D-01  1.60D+00  7.15D-01  7.49D-01  1.13D+00
                    CP:  1.29D+00  1.91D+00  2.45D+00  2.84D+00  2.49D+00
                    CP:  1.97D+00  1.57D+00  1.13D+00
 E= -3007.87023839460     Delta-E=       -0.000000014041 Rises=F Damp=F
 DIIS: error= 8.61D-07 at cycle  14 NSaved=  14.
 NSaved=14 IEnMin=14 EnMin= -3007.87023839460     IErMin=14 ErrMin= 8.61D-07
 ErrMax= 8.61D-07  0.00D+00 EMaxC= 1.00D-01 BMatC= 9.89D-10 BMatP= 2.66D-09
 IDIUse=1 WtCom= 1.00D+00 WtEn= 0.00D+00
 Coeff-Com: -0.164D-04 0.351D-04 0.267D-04-0.239D-04-0.591D-03-0.177D-02
 Coeff-Com:  0.687D-03 0.460D-02 0.237D-01-0.174D-01-0.634D-01-0.849D-01
 Coeff-Com:  0.321D+00 0.818D+00
 Coeff:     -0.164D-04 0.351D-04 0.267D-04-0.239D-04-0.591D-03-0.177D-02
 Coeff:      0.687D-03 0.460D-02 0.237D-01-0.174D-01-0.634D-01-0.849D-01
 Coeff:      0.321D+00 0.818D+00
 Gap=     0.158 Goal=   None    Shift=    0.000
 RMSDP=1.21D-07 MaxDP=9.02D-06 DE=-1.40D-08 OVMax= 7.12D-05

 Cycle  15  Pass 1  IDiag  1:
 RMSU=  4.30D-08    CP:  9.74D-01  1.60D+00  7.15D-01  7.49D-01  1.13D+00
                    CP:  1.29D+00  1.91D+00  2.46D+00  2.86D+00  2.53D+00
                    CP:  2.04D+00  1.68D+00  1.44D+00  1.37D+00
 E= -3007.87023839936     Delta-E=       -0.000000004766 Rises=F Damp=F
 DIIS: error= 8.75D-07 at cycle  15 NSaved=  15.
 NSaved=15 IEnMin=15 EnMin= -3007.87023839936     IErMin=14 ErrMin= 8.61D-07
 ErrMax= 8.75D-07  0.00D+00 EMaxC= 1.00D-01 BMatC= 2.93D-10 BMatP= 9.89D-10
 IDIUse=1 WtCom= 1.00D+00 WtEn= 0.00D+00
 Coeff-Com: -0.557D-04 0.110D-03 0.166D-03 0.249D-03 0.117D-03-0.194D-02
 Coeff-Com: -0.783D-02-0.108D-01 0.315D-01 0.378D-01-0.238D-01-0.160D+00
 Coeff-Com: -0.448D-01 0.348D+00 0.831D+00
 Coeff:     -0.557D-04 0.110D-03 0.166D-03 0.249D-03 0.117D-03-0.194D-02
 Coeff:     -0.783D-02-0.108D-01 0.315D-01 0.378D-01-0.238D-01-0.160D+00
 Coeff:     -0.448D-01 0.348D+00 0.831D+00
 Gap=     0.158 Goal=   None    Shift=    0.000
 RMSDP=6.98D-08 MaxDP=5.50D-06 DE=-4.77D-09 OVMax= 5.15D-05

 Cycle  16  Pass 1  IDiag  1:
 RMSU=  2.89D-08    CP:  9.74D-01  1.60D+00  7.15D-01  7.49D-01  1.13D+00
                    CP:  1.29D+00  1.91D+00  2.46D+00  2.86D+00  2.54D+00
                    CP:  2.07D+00  1.75D+00  1.61D+00  1.84D+00  1.41D+00
 E= -3007.87023840173     Delta-E=       -0.000000002370 Rises=F Damp=F
 DIIS: error= 4.03D-07 at cycle  16 NSaved=  16.
 NSaved=16 IEnMin=16 EnMin= -3007.87023840173     IErMin=16 ErrMin= 4.03D-07
 ErrMax= 4.03D-07  0.00D+00 EMaxC= 1.00D-01 BMatC= 1.32D-10 BMatP= 2.93D-10
 IDIUse=1 WtCom= 1.00D+00 WtEn= 0.00D+00
 Coeff-Com: -0.853D-05 0.157D-04 0.338D-04 0.670D-04 0.264D-03 0.121D-03
 Coeff-Com: -0.191D-02-0.541D-02 0.319D-02 0.133D-01 0.202D-01-0.230D-01
 Coeff-Com: -0.109D+00-0.282D+00 0.311D+00 0.107D+01
 Coeff:     -0.853D-05 0.157D-04 0.338D-04 0.670D-04 0.264D-03 0.121D-03
 Coeff:     -0.191D-02-0.541D-02 0.319D-02 0.133D-01 0.202D-01-0.230D-01
 Coeff:     -0.109D+00-0.282D+00 0.311D+00 0.107D+01
 Gap=     0.158 Goal=   None    Shift=    0.000
 RMSDP=6.50D-08 MaxDP=5.02D-06 DE=-2.37D-09 OVMax= 4.30D-05

 Cycle  17  Pass 1  IDiag  1:
 RMSU=  1.36D-08    CP:  9.74D-01  1.60D+00  7.15D-01  7.49D-01  1.13D+00
                    CP:  1.29D+00  1.91D+00  2.46D+00  2.87D+00  2.54D+00
                    CP:  2.08D+00  1.79D+00  1.77D+00  2.28D+00  2.18D+00
                    CP:  1.64D+00
 E= -3007.87023840303     Delta-E=       -0.000000001293 Rises=F Damp=F
 DIIS: error= 2.87D-07 at cycle  17 NSaved=  17.
 NSaved=17 IEnMin=17 EnMin= -3007.87023840303     IErMin=17 ErrMin= 2.87D-07
 ErrMax= 2.87D-07  0.00D+00 EMaxC= 1.00D-01 BMatC= 4.10D-11 BMatP= 1.32D-10
 IDIUse=1 WtCom= 1.00D+00 WtEn= 0.00D+00
 Coeff-Com:  0.212D-04-0.425D-04-0.612D-04-0.873D-04 0.750D-04 0.928D-03
 Coeff-Com:  0.293D-02 0.209D-02-0.126D-01-0.140D-01 0.230D-01 0.619D-01
 Coeff-Com: -0.112D-01-0.307D+00-0.199D+00 0.386D+00 0.107D+01
 Coeff:      0.212D-04-0.425D-04-0.612D-04-0.873D-04 0.750D-04 0.928D-03
 Coeff:      0.293D-02 0.209D-02-0.126D-01-0.140D-01 0.230D-01 0.619D-01
 Coeff:     -0.112D-01-0.307D+00-0.199D+00 0.386D+00 0.107D+01
 Gap=     0.158 Goal=   None    Shift=    0.000
 RMSDP=5.07D-08 MaxDP=4.13D-06 DE=-1.29D-09 OVMax= 3.46D-05

 Cycle  18  Pass 1  IDiag  1:
 RMSU=  8.38D-09    CP:  9.74D-01  1.60D+00  7.15D-01  7.49D-01  1.13D+00
                    CP:  1.29D+00  1.91D+00  2.47D+00  2.87D+00  2.55D+00
                    CP:  2.09D+00  1.82D+00  1.87D+00  2.62D+00  2.77D+00
                    CP:  2.39D+00  1.53D+00
 E= -3007.87023840338     Delta-E=       -0.000000000357 Rises=F Damp=F
 DIIS: error= 8.25D-08 at cycle  18 NSaved=  18.
 NSaved=18 IEnMin=18 EnMin= -3007.87023840338     IErMin=18 ErrMin= 8.25D-08
 ErrMax= 8.25D-08  0.00D+00 EMaxC= 1.00D-01 BMatC= 1.15D-11 BMatP= 4.10D-11
 IDIUse=1 WtCom= 1.00D+00 WtEn= 0.00D+00
 Coeff-Com:  0.121D-04-0.238D-04-0.388D-04-0.609D-04-0.419D-04 0.373D-03
 Coeff-Com:  0.197D-02 0.258D-02-0.648D-02-0.110D-01 0.536D-02 0.350D-01
 Coeff-Com:  0.297D-01-0.713D-01-0.173D+00-0.160D+00 0.504D+00 0.843D+00
 Coeff:      0.121D-04-0.238D-04-0.388D-04-0.609D-04-0.419D-04 0.373D-03
 Coeff:      0.197D-02 0.258D-02-0.648D-02-0.110D-01 0.536D-02 0.350D-01
 Coeff:      0.297D-01-0.713D-01-0.173D+00-0.160D+00 0.504D+00 0.843D+00
 Gap=     0.158 Goal=   None    Shift=    0.000
 RMSDP=2.30D-08 MaxDP=1.80D-06 DE=-3.57D-10 OVMax= 1.53D-05

 Cycle  19  Pass 1  IDiag  1:
 RMSU=  4.96D-09    CP:  9.74D-01  1.60D+00  7.15D-01  7.49D-01  1.13D+00
                    CP:  1.29D+00  1.91D+00  2.47D+00  2.87D+00  2.55D+00
                    CP:  2.10D+00  1.83D+00  1.91D+00  2.76D+00  3.00D+00
                    CP:  2.73D+00  1.99D+00  1.15D+00
 E= -3007.87023840363     Delta-E=       -0.000000000246 Rises=F Damp=F
 DIIS: error= 4.58D-08 at cycle  19 NSaved=  19.
 NSaved=19 IEnMin=19 EnMin= -3007.87023840363     IErMin=19 ErrMin= 4.58D-08
 ErrMax= 4.58D-08  0.00D+00 EMaxC= 1.00D-01 BMatC= 2.24D-12 BMatP= 1.15D-11
 IDIUse=1 WtCom= 1.00D+00 WtEn= 0.00D+00
 Coeff-Com: -0.157D-06 0.500D-06-0.153D-05-0.362D-05-0.341D-04-0.762D-04
 Coeff-Com:  0.809D-04 0.540D-03 0.390D-03-0.138D-02-0.292D-02-0.922D-03
 Coeff-Com:  0.159D-01 0.424D-01-0.102D-01-0.158D+00-0.461D-01 0.357D+00
 Coeff-Com:  0.804D+00
 Coeff:     -0.157D-06 0.500D-06-0.153D-05-0.362D-05-0.341D-04-0.762D-04
 Coeff:      0.809D-04 0.540D-03 0.390D-03-0.138D-02-0.292D-02-0.922D-03
 Coeff:      0.159D-01 0.424D-01-0.102D-01-0.158D+00-0.461D-01 0.357D+00
 Coeff:      0.804D+00
 Gap=     0.158 Goal=   None    Shift=    0.000
 RMSDP=6.04D-09 MaxDP=7.06D-07 DE=-2.46D-10 OVMax= 3.70D-06

 SCF Done:  E(RwB97XD) =  -3007.87023840     A.U. after   19 cycles
            NFock= 19  Conv=0.60D-08     -V/T= 2.0107
 KE= 2.976077899984D+03 PE=-2.620740042364D+04 EE= 1.061612059823D+04
 Leave Link  502 at Thu Apr 28 14:49:06 2022, MaxMem= 10066329600 cpu:           10165.1 elap:             441.3
 (Enter /sw/apps/gaussian-16.0/g16/l801.exe)
 DoSCS=F DFT=T ScalE2(SS,OS)=  1.000000  1.000000
 ExpMin= 3.36D-02 ExpMax= 4.95D+03 ExpMxC= 7.45D+02 IAcc=3 IRadAn=         5 AccDes= 0.00D+00
 HarFok:  IExCor=  205 AccDes= 0.00D+00 IRadAn=         5 IDoV=-2 UseB2=F ITyADJ=14
 ICtDFT= 12500011 ScaDFX=  1.000000  1.000000  1.000000  1.000000
 GSVD:  LWork=       -5460 too small for GESVD, short by       25550 words or       25550 for optimal perf.
 Largest valence mixing into a core orbital is  1.43D-04
 Largest core mixing into a valence orbital is  5.78D-05
 Range of M.O.s used for correlation:    71  1298
 NBasis=  1298 NAE=   246 NBE=   246 NFC=    70 NFV=     0
 NROrb=   1228 NOA=   176 NOB=   176 NVA=  1052 NVB=  1052
 Leave Link  801 at Thu Apr 28 14:49:07 2022, MaxMem= 10066329600 cpu:               5.9 elap:               0.3
 (Enter /sw/apps/gaussian-16.0/g16/l914.exe)
 RHF ground state
 Two-electron integrals replicated using symmetry.
 MDV= 10066329600 DFT=T DoStab=F Mixed=T DoRPA=T DoScal=F NonHer=T
 Making orbital integer symmetry assigments:
 Orbital symmetries:
       Occupied  (A) (A) (A) (A) (A) (A) (A) (A) (A) (A) (A) (A)
                 (A) (A) (A) (A) (A) (A) (A) (A) (A) (A) (A) (A)
                 (A) (A) (A) (A) (A) (A) (A) (A) (A) (A) (A) (A)
                 (A) (A) (A) (A) (A) (A) (A) (A) (A) (A) (A) (A)
                 (A) (A) (A) (A) (A) (A) (A) (A) (A) (A) (A) (A)
                 (A) (A) (A) (A) (A) (A) (A) (A) (A) (A) (A) (A)
                 (A) (A) (A) (A) (A) (A) (A) (A) (A) (A) (A) (A)
                 (A) (A) (A) (A) (A) (A) (A) (A) (A) (A) (A) (A)
                 (A) (A) (A) (A) (A) (A) (A) (A) (A) (A) (A) (A)
                 (A) (A) (A) (A) (A) (A) (A) (A) (A) (A) (A) (A)
                 (A) (A) (A) (A) (A) (A) (A) (A) (A) (A) (A) (A)
                 (A) (A) (A) (A) (A) (A) (A) (A) (A) (A) (A) (A)
                 (A) (A) (A) (A) (A) (A) (A) (A) (A) (A) (A) (A)
                 (A) (A) (A) (A) (A) (A) (A) (A) (A) (A) (A) (A)
                 (A) (A) (A) (A) (A) (A) (A) (A) (A) (A) (A) (A)
                 (A) (A) (A) (A) (A) (A) (A) (A) (A) (A) (A) (A)
                 (A) (A) (A) (A) (A) (A) (A) (A) (A) (A) (A) (A)
                 (A) (A) (A) (A) (A) (A) (A) (A) (A) (A) (A) (A)
                 (A) (A) (A) (A) (A) (A) (A) (A) (A) (A) (A) (A)
                 (A) (A) (A) (A) (A) (A) (A) (A) (A) (A) (A) (A)
                 (A) (A) (A) (A) (A) (A)
       Virtual   (A) (A) (A) (A) (A) (A) (A) (A) (A) (A) (A) (A)
                 (A) (A) (A) (A) (A) (A) (A) (A) (A) (A) (A) (A)
                 (A) (A) (A) (A) (A) (A) (A) (A) (A) (A) (A) (A)
                 (A) (A) (A) (A) (A) (A) (A) (A) (A) (A) (A) (A)
                 (A) (A) (A) (A) (A) (A) (A) (A) (A) (A) (A) (A)
                 (A) (A) (A) (A) (A) (A) (A) (A) (A) (A) (A) (A)
                 (A) (A) (A) (A) (A) (A) (A) (A) (A) (A) (A) (A)
                 (A) (A) (A) (A) (A) (A) (A) (A) (A) (A) (A) (A)
                 (A) (A) (A) (A) (A) (A) (A) (A) (A) (A) (A) (A)
                 (A) (A) (A) (A) (A) (A) (A) (A) (A) (A) (A) (A)
                 (A) (A) (A) (A) (A) (A) (A) (A) (A) (A) (A) (A)
                 (A) (A) (A) (A) (A) (A) (A) (A) (A) (A) (A) (A)
                 (A) (A) (A) (A) (A) (A) (A) (A) (A) (A) (A) (A)
                 (A) (A) (A) (A) (A) (A) (A) (A) (A) (A) (A) (A)
                 (A) (A) (A) (A) (A) (A) (A) (A) (A) (A) (A) (A)
                 (A) (A) (A) (A) (A) (A) (A) (A) (A) (A) (A) (A)
                 (A) (A) (A) (A) (A) (A) (A) (A) (A) (A) (A) (A)
                 (A) (A) (A) (A) (A) (A) (A) (A) (A) (A) (A) (A)
                 (A) (A) (A) (A) (A) (A) (A) (A) (A) (A) (A) (A)
                 (A) (A) (A) (A) (A) (A) (A) (A) (A) (A) (A) (A)
                 (A) (A) (A) (A) (A) (A) (A) (A) (A) (A) (A) (A)
                 (A) (A) (A) (A) (A) (A) (A) (A) (A) (A) (A) (A)
                 (A) (A) (A) (A) (A) (A) (A) (A) (A) (A) (A) (A)
                 (A) (A) (A) (A) (A) (A) (A) (A) (A) (A) (A) (A)
                 (A) (A) (A) (A) (A) (A) (A) (A) (A) (A) (A) (A)
                 (A) (A) (A) (A) (A) (A) (A) (A) (A) (A) (A) (A)
                 (A) (A) (A) (A) (A) (A) (A) (A) (A) (A) (A) (A)
                 (A) (A) (A) (A) (A) (A) (A) (A) (A) (A) (A) (A)
                 (A) (A) (A) (A) (A) (A) (A) (A) (A) (A) (A) (A)
                 (A) (A) (A) (A) (A) (A) (A) (A) (A) (A) (A) (A)
                 (A) (A) (A) (A) (A) (A) (A) (A) (A) (A) (A) (A)
                 (A) (A) (A) (A) (A) (A) (A) (A) (A) (A) (A) (A)
                 (A) (A) (A) (A) (A) (A) (A) (A) (A) (A) (A) (A)
                 (A) (A) (A) (A) (A) (A) (A) (A) (A) (A) (A) (A)
                 (A) (A) (A) (A) (A) (A) (A) (A) (A) (A) (A) (A)
                 (A) (A) (A) (A) (A) (A) (A) (A) (A) (A) (A) (A)
                 (A) (A) (A) (A) (A) (A) (A) (A) (A) (A) (A) (A)
                 (A) (A) (A) (A) (A) (A) (A) (A) (A) (A) (A) (A)
                 (A) (A) (A) (A) (A) (A) (A) (A) (A) (A) (A) (A)
                 (A) (A) (A) (A) (A) (A) (A) (A) (A) (A) (A) (A)
                 (A) (A) (A) (A) (A) (A) (A) (A) (A) (A) (A) (A)
                 (A) (A) (A) (A) (A) (A) (A) (A) (A) (A) (A) (A)
                 (A) (A) (A) (A) (A) (A) (A) (A) (A) (A) (A) (A)
                 (A) (A) (A) (A) (A) (A) (A) (A) (A) (A) (A) (A)
                 (A) (A) (A) (A) (A) (A) (A) (A) (A) (A) (A) (A)
                 (A) (A) (A) (A) (A) (A) (A) (A) (A) (A) (A) (A)
                 (A) (A) (A) (A) (A) (A) (A) (A) (A) (A) (A) (A)
                 (A) (A) (A) (A) (A) (A) (A) (A) (A) (A) (A) (A)
                 (A) (A) (A) (A) (A) (A) (A) (A) (A) (A) (A) (A)
                 (A) (A) (A) (A) (A) (A) (A) (A) (A) (A) (A) (A)
                 (A) (A) (A) (A) (A) (A) (A) (A) (A) (A) (A) (A)
                 (A) (A) (A) (A) (A) (A) (A) (A) (A) (A) (A) (A)
                 (A) (A) (A) (A) (A) (A) (A) (A) (A) (A) (A) (A)
                 (A) (A) (A) (A) (A) (A) (A) (A) (A) (A) (A) (A)
                 (A) (A) (A) (A) (A) (A) (A) (A) (A) (A) (A) (A)
                 (A) (A) (A) (A) (A) (A) (A) (A) (A) (A) (A) (A)
                 (A) (A) (A) (A) (A) (A) (A) (A) (A) (A) (A) (A)
                 (A) (A) (A) (A) (A) (A) (A) (A) (A) (A) (A) (A)
                 (A) (A) (A) (A) (A) (A) (A) (A) (A) (A) (A) (A)
                 (A) (A) (A) (A) (A) (A) (A) (A) (A) (A) (A) (A)
                 (A) (A) (A) (A) (A) (A) (A) (A) (A) (A) (A) (A)
                 (A) (A) (A) (A) (A) (A) (A) (A) (A) (A) (A) (A)
                 (A) (A) (A) (A) (A) (A) (A) (A) (A) (A) (A) (A)
                 (A) (A) (A) (A) (A) (A) (A) (A) (A) (A) (A) (A)
                 (A) (A) (A) (A) (A) (A) (A) (A) (A) (A) (A) (A)
                 (A) (A) (A) (A) (A) (A) (A) (A) (A) (A) (A) (A)
                 (A) (A) (A) (A) (A) (A) (A) (A) (A) (A) (A) (A)
                 (A) (A) (A) (A) (A) (A) (A) (A) (A) (A) (A) (A)
                 (A) (A) (A) (A) (A) (A) (A) (A) (A) (A) (A) (A)
                 (A) (A) (A) (A) (A) (A) (A) (A) (A) (A) (A) (A)
                 (A) (A) (A) (A) (A) (A) (A) (A) (A) (A) (A) (A)
                 (A) (A) (A) (A) (A) (A) (A) (A) (A) (A) (A) (A)
                 (A) (A) (A) (A) (A) (A) (A) (A) (A) (A) (A) (A)
                 (A) (A) (A) (A) (A) (A) (A) (A) (A) (A) (A) (A)
                 (A) (A) (A) (A) (A) (A) (A) (A) (A) (A) (A) (A)
                 (A) (A) (A) (A) (A) (A) (A) (A) (A) (A) (A) (A)
                 (A) (A) (A) (A) (A) (A) (A) (A) (A) (A) (A) (A)
                 (A) (A) (A) (A) (A) (A) (A) (A) (A) (A) (A) (A)
                 (A) (A) (A) (A) (A) (A) (A) (A) (A) (A) (A) (A)
                 (A) (A) (A) (A) (A) (A) (A) (A) (A) (A) (A) (A)
                 (A) (A) (A) (A) (A) (A) (A) (A) (A) (A) (A) (A)
                 (A) (A) (A) (A) (A) (A) (A) (A) (A) (A) (A) (A)
                 (A) (A) (A) (A) (A) (A) (A) (A) (A) (A) (A) (A)
                 (A) (A) (A) (A) (A) (A) (A) (A) (A) (A) (A) (A)
                 (A) (A) (A) (A) (A) (A) (A) (A) (A) (A) (A) (A)
                 (A) (A) (A) (A) (A) (A) (A) (A) (A) (A) (A) (A)
                 (A) (A) (A) (A) (A) (A) (A) (A) (A) (A) (A) (A)
                 (A) (A) (A) (A) (A) (A) (A) (A)
    20 initial guesses have been made.
 Convergence on wavefunction:    0.001000000000000
 Davidson Disk Diagonalization:  ConvIn= 1.00D-03 SkipCon=T Conv= 1.00D-03.
 Max sub-space:  2000 roots to seek:    20 dimension of matrix:       370304
 Iteration     1 Dimension    20 NMult     0 NNew     20
 CISAX will form    20 AO SS matrices at one time.
 NMat=    20 NSing=    20 JSym2X= 0.
 FoFJK:  IHMeth= 1 ICntrl=       0 DoSepK=T KAlg= 0 I1Cent=           0 FoldK=F
 IRaf=         1 NMat=      40 IRICut=       1 DoRegI=T DoRafI=F ISym2E= 0 IDoP0=3 IntGTp=3.
 FoFCou: FMM=T IPFlag=           0 FMFlag=      100000 FMFlg1=        2001
         NFxFlg=           0 DoJE=F BraDBF=F KetDBF=F FulRan=T
         wScrn=  0.000000 ICntrl=       500 IOpCl=  0 I1Cent=           0 NGrid=           0
         NMat0=   20 NMatS0=     20 NMatT0=    0 NMatD0=   20 NMtDS0=    0 NMtDT0=    0
 Symmetry not used in FoFCou.
 FMM levels:  10  Number of levels for PrismC:   9
 New state      3 was old state      4
 New state      4 was old state      7
 New state      5 was old state      8
 Excitation Energies [eV] at current iteration:
 Root      1 :     2.210904318283927
 Root      2 :     2.630434249421434
 Root      3 :     3.723791671784884
 Root      4 :     3.927099971055248
 Root      5 :     4.048869133488452
 Root      6 :     4.127723318974680
 Root      7 :     4.374417448327327
 Root      8 :     4.487081870456240
 Root      9 :     4.714658899952310
 Root     10 :     4.779782356314255
 Root     11 :     4.910837574852314
 Root     12 :     5.011949592053419
 Root     13 :     5.146634354173187
 Root     14 :     5.302256793120626
 Root     15 :     5.313119948627969
 Root     16 :     5.332576851343760
 Root     17 :     5.368548980323538
 Root     18 :     5.805112293839992
 Root     19 :     6.380855185064556
 Root     20 :     6.723415922160042
 Iteration     2 Dimension    30 NMult    20 NNew     10
 CISAX will form    10 AO SS matrices at one time.
 NMat=    10 NSing=    10 JSym2X= 0.
 Root      1 not converged, maximum delta is    0.079493155515241
 Root      2 not converged, maximum delta is    0.065321973926383
 Root      3 not converged, maximum delta is    0.062119913780477
 Root      4 not converged, maximum delta is    0.048080278546515
 Root      5 not converged, maximum delta is    0.135059047577035
 Excitation Energies [eV] at current iteration:
 Root      1 :     1.689523787745012   Change is   -0.521380530538915
 Root      2 :     2.192876385118890   Change is   -0.437557864302544
 Root      3 :     3.382707031620319   Change is   -0.341084640164566
 Root      4 :     3.554652374532821   Change is   -0.372447596522428
 Root      5 :     3.706420351096861   Change is   -0.342448782391591
 Iteration     3 Dimension    40 NMult    30 NNew     10
 CISAX will form    10 AO SS matrices at one time.
 NMat=    10 NSing=    10 JSym2X= 0.
 Root      1 not converged, maximum delta is    0.018598944801265
 Root      2 not converged, maximum delta is    0.015581812469996
 Root      3 not converged, maximum delta is    0.008151447689790
 Root      4 not converged, maximum delta is    0.069638842263287
 Root      5 not converged, maximum delta is    0.097944963269682
 Excitation Energies [eV] at current iteration:
 Root      1 :     1.651343193382707   Change is   -0.038180594362305
 Root      2 :     2.169174231446509   Change is   -0.023702153672381
 Root      3 :     3.368759252168723   Change is   -0.013947779451595
 Root      4 :     3.536184632611872   Change is   -0.018467741920948
 Root      5 :     3.578780379132907   Change is   -0.127639971963954
 Iteration     4 Dimension    50 NMult    40 NNew     10
 CISAX will form    10 AO SS matrices at one time.
 NMat=    10 NSing=    10 JSym2X= 0.
 Root      1 not converged, maximum delta is    0.003637059977203
 Root      2 not converged, maximum delta is    0.002066020370803
 Root      3 not converged, maximum delta is    0.005340102815728
 Root      4 not converged, maximum delta is    0.166969046922097
 Root      5 not converged, maximum delta is    0.161132376911563
 Excitation Energies [eV] at current iteration:
 Root      1 :     1.647193830194945   Change is   -0.004149363187761
 Root      2 :     2.166642198209345   Change is   -0.002532033237163
 Root      3 :     3.365353201224471   Change is   -0.003406050944253
 Root      4 :     3.529844437081106   Change is   -0.006340195530766
 Root      5 :     3.548501403131736   Change is   -0.030278976001170
 Iteration     5 Dimension    60 NMult    50 NNew     10
 CISAX will form    10 AO SS matrices at one time.
 NMat=    10 NSing=    10 JSym2X= 0.
 Root      1 not converged, maximum delta is    0.001340885476143
 Root      2 has converged.
 Root      3 not converged, maximum delta is    0.006428044896856
 Root      4 not converged, maximum delta is    0.066548977988815
 Root      5 not converged, maximum delta is    0.058642789571527
 Excitation Energies [eV] at current iteration:
 Root      1 :     1.646800473446679   Change is   -0.000393356748266
 Root      2 :     2.166454521885608   Change is   -0.000187676323737
 Root      3 :     3.364645392377100   Change is   -0.000707808847370
 Root      4 :     3.528256805581991   Change is   -0.001587631499115
 Root      5 :     3.544428880534585   Change is   -0.004072522597151
 Iteration     6 Dimension    68 NMult    60 NNew      8
 CISAX will form     8 AO SS matrices at one time.
 NMat=     8 NSing=     8 JSym2X= 0.
 Root      1 has converged.
 Root      2 has converged.
 Root      3 not converged, maximum delta is    0.007753554058557
 Root      4 not converged, maximum delta is    0.034559095686826
 Root      5 not converged, maximum delta is    0.035264228473005
 Excitation Energies [eV] at current iteration:
 Root      1 :     1.646768512728212   Change is   -0.000031960718467
 Root      2 :     2.166453947601330   Change is   -0.000000574284278
 Root      3 :     3.364318821089352   Change is   -0.000326571287748
 Root      4 :     3.527726768072701   Change is   -0.000530037509290
 Root      5 :     3.542557735734690   Change is   -0.001871144799896
 Iteration     7 Dimension    74 NMult    68 NNew      6
 CISAX will form     6 AO SS matrices at one time.
 NMat=     6 NSing=     6 JSym2X= 0.
 Root      1 has converged.
 Root      2 has converged.
 Root      3 not converged, maximum delta is    0.003213940609706
 Root      4 not converged, maximum delta is    0.016473138004612
 Root      5 not converged, maximum delta is    0.023870468440535
 Excitation Energies [eV] at current iteration:
 Root      1 :     1.646768281366224   Change is   -0.000000231361988
 Root      2 :     2.166453267242066   Change is   -0.000000680359265
 Root      3 :     3.364231117866814   Change is   -0.000087703222538
 Root      4 :     3.527504458326805   Change is   -0.000222309745895
 Root      5 :     3.541747368034996   Change is   -0.000810367699693
 Iteration     8 Dimension    80 NMult    74 NNew      6
 CISAX will form     6 AO SS matrices at one time.
 NMat=     6 NSing=     6 JSym2X= 0.
 Root      1 has converged.
 Root      2 has converged.
 Root      3 has converged.
 Root      4 not converged, maximum delta is    0.004027855525442
 Root      5 not converged, maximum delta is    0.007820219204241
 Excitation Energies [eV] at current iteration:
 Root      1 :     1.646768062907659   Change is   -0.000000218458565
 Root      2 :     2.166452284052137   Change is   -0.000000983189929
 Root      3 :     3.364216910812509   Change is   -0.000014207054305
 Root      4 :     3.527450033602450   Change is   -0.000054424724356
 Root      5 :     3.541565740639863   Change is   -0.000181627395133
 Iteration     9 Dimension    84 NMult    80 NNew      4
 CISAX will form     4 AO SS matrices at one time.
 NMat=     4 NSing=     4 JSym2X= 0.
 Root      1 has converged.
 Root      2 has converged.
 Root      3 has converged.
 Root      4 has converged.
 Root      5 not converged, maximum delta is    0.001877746265962
 Excitation Energies [eV] at current iteration:
 Root      1 :     1.646767940812349   Change is   -0.000000122095309
 Root      2 :     2.166451985663263   Change is   -0.000000298388874
 Root      3 :     3.364215316575523   Change is   -0.000001594236986
 Root      4 :     3.527440408781675   Change is   -0.000009624820775
 Root      5 :     3.541534386376457   Change is   -0.000031354263406
 Iteration    10 Dimension    86 NMult    84 NNew      2
 CISAX will form     2 AO SS matrices at one time.
 NMat=     2 NSing=     2 JSym2X= 0.
 Root      1 has converged.
 Root      2 has converged.
 Root      3 has converged.
 Root      4 has converged.
 Root      5 has converged.
 Excitation Energies [eV] at current iteration:
 Root      1 :     1.646767901128628   Change is   -0.000000039683721
 Root      2 :     2.166451702455054   Change is   -0.000000283208208
 Root      3 :     3.364215222489666   Change is   -0.000000094085857
 Root      4 :     3.527439507512765   Change is   -0.000000901268910
 Root      5 :     3.541530240278539   Change is   -0.000004146097918
 Convergence achieved on expansion vectors.
 ***********************************************************************
 Excited states from <AA,BB:AA,BB> singles matrix:
 ***********************************************************************
 
 1PDM for each excited state written to RWF  633
 Ground to excited state transition densities written to RWF  633
 Ground to excited state transition electric dipole moments (Au):
       state          X           Y           Z        Dip. S.      Osc.
         1        -2.0430      2.3504     -0.3437      9.8163      0.3960
         2        -1.2328     -1.1678     -0.0864      2.8909      0.1534
         3        -0.0824      0.0393     -0.0150      0.0086      0.0007
         4         0.3523      0.2996     -0.0102      0.2140      0.0185
         5         0.0736      0.1502     -0.0128      0.0281      0.0024
 Ground to excited state transition velocity dipole moments (Au):
       state          X           Y           Z        Dip. S.      Osc.
         1         0.1195     -0.1389      0.0216      0.0340      0.3751
         2         0.0929      0.0885      0.0067      0.0165      0.1382
         3         0.0103     -0.0045      0.0011      0.0001      0.0007
         4        -0.0425     -0.0380      0.0007      0.0033      0.0167
         5        -0.0112     -0.0177     -0.0003      0.0004      0.0023
 Ground to excited state transition magnetic dipole moments (Au):
       state          X           Y           Z
         1         0.0963     -0.2137     -1.8809
         2        -0.0035     -0.0690      0.9738
         3        -0.0451      0.1519      0.8621
         4        -0.2693      0.4235      0.0838
         5        -0.1446      0.4402     -0.4320
 Ground to excited state transition velocity quadrupole moments (Au):
       state          XX          YY          ZZ          XY          XZ          YZ
         1         2.2339     -0.5501      0.0084     -1.0075      0.1922      0.0885
         2         1.6906      0.2026     -0.0179      0.9749      0.0655     -0.0148
         3         0.3716     -0.4075      0.0097     -0.0158     -0.0157     -0.0046
         4        -0.6081     -0.2032      0.0051     -0.4363     -0.0449     -0.0275
         5        -0.4459      0.2021     -0.0166     -0.2076     -0.0084     -0.0098
 <0|del|b> * <b|rxdel|0> + <0|del|b> * <b|delr+rdel|0>
 Rotatory Strengths (R) in cgs (10**-40 erg-esu-cm/Gauss)
       state          XX          YY          ZZ    R(velocity)    E-M Angle
         1       -35.8727     18.5881     22.8877      1.8677       89.92
         2         5.1256     -7.5841      3.3447      0.2954       90.00
         3         0.4737      1.2724     -2.9461     -0.4000       91.22
         4       -49.2352     35.4600    -11.1792     -8.3181       99.07
         5       -21.1358      4.8606    -16.7217    -10.9990      117.20
 1/2[<0|r|b>*<b|rxdel|0> + (<0|rxdel|b>*<b|r|0>)*]
 Rotatory Strengths (R) in cgs (10**-40 erg-esu-cm/Gauss)
       state          XX          YY          ZZ     R(length)
         1       139.0858    355.1391   -457.1985     12.3421
         2        -3.0226    -56.9442     59.5127     -0.1514
[...]
 Alpha virt. eigenvalues --    1.21880   1.22236   1.22952   1.23286   1.23525
 Alpha virt. eigenvalues --    1.24017   1.24634   1.24799   1.25098   1.25795
 Alpha virt. eigenvalues --    1.26200   1.26364   1.26852   1.27075   1.27846
 Alpha virt. eigenvalues --    1.28011   1.28931   1.29621   1.30328   1.30770
 Alpha virt. eigenvalues --    1.31137   1.32518   1.32611   1.33069   1.33397
 Alpha virt. eigenvalues --    1.33585   1.34266   1.34563   1.35108   1.35326
 Alpha virt. eigenvalues --    1.36177   1.36499   1.36940   1.37171   1.37679
 Alpha virt. eigenvalues --    1.38108   1.38707   1.38922   1.39052   1.39177
 Alpha virt. eigenvalues --    1.40066   1.40297   1.40357   1.41138   1.41778
 Alpha virt. eigenvalues --    1.42021   1.42305   1.42393   1.43248   1.43590
 Alpha virt. eigenvalues --    1.43725   1.44082   1.44488   1.44718   1.45229
 Alpha virt. eigenvalues --    1.45572   1.46043   1.46640   1.47061   1.47888
 Alpha virt. eigenvalues --    1.48191   1.48521   1.48730   1.48847   1.49522
 Alpha virt. eigenvalues --    1.49763   1.50543   1.51042   1.51161   1.51707
 Alpha virt. eigenvalues --    1.52408   1.52779   1.53403   1.53852   1.54135
 Alpha virt. eigenvalues --    1.54447   1.54733   1.55891   1.56138   1.56836
 Alpha virt. eigenvalues --    1.57486   1.57665   1.58157   1.59216   1.59643
 Alpha virt. eigenvalues --    1.59828   1.60045   1.60167   1.60221   1.60743
 Alpha virt. eigenvalues --    1.60865   1.61008   1.61283   1.61684   1.61833
 Alpha virt. eigenvalues --    1.62000   1.62187   1.62479   1.62599   1.62730
 Alpha virt. eigenvalues --    1.62958   1.63096   1.63137   1.63487   1.63559
 Alpha virt. eigenvalues --    1.64223   1.64614   1.64722   1.64800   1.64879
 Alpha virt. eigenvalues --    1.65006   1.65762   1.66062   1.66267   1.66871
 Alpha virt. eigenvalues --    1.66941   1.67163   1.67337   1.67909   1.68143
 Alpha virt. eigenvalues --    1.68878   1.69166   1.69764   1.69921   1.71025
 Alpha virt. eigenvalues --    1.71219   1.71967   1.72542   1.72955   1.73245
 Alpha virt. eigenvalues --    1.73385   1.73886   1.74064   1.74305   1.74995
 Alpha virt. eigenvalues --    1.76056   1.76307   1.76988   1.77595   1.77732
 Alpha virt. eigenvalues --    1.77868   1.78347   1.78812   1.78979   1.79313
 Alpha virt. eigenvalues --    1.79399   1.79863   1.80254   1.80487   1.80816
 Alpha virt. eigenvalues --    1.80979   1.80992   1.81682   1.81812   1.81919
 Alpha virt. eigenvalues --    1.82293   1.82592   1.82877   1.82929   1.83035
 Alpha virt. eigenvalues --    1.83483   1.83818   1.84085   1.84173   1.84293
 Alpha virt. eigenvalues --    1.84709   1.85019   1.85285   1.85361   1.85622
 Alpha virt. eigenvalues --    1.85861   1.86140   1.86205   1.86418   1.86577
 Alpha virt. eigenvalues --    1.86862   1.87031   1.87256   1.87361   1.87671
 Alpha virt. eigenvalues --    1.87810   1.88174   1.88259   1.88282   1.88546
 Alpha virt. eigenvalues --    1.88607   1.88899   1.88968   1.89051   1.89154
 Alpha virt. eigenvalues --    1.89462   1.89723   1.90006   1.90411   1.90582
 Alpha virt. eigenvalues --    1.90745   1.91048   1.91188   1.91658   1.91750
 Alpha virt. eigenvalues --    1.91925   1.92035   1.92097   1.92215   1.92562
 Alpha virt. eigenvalues --    1.92783   1.92881   1.93182   1.93463   1.93545
 Alpha virt. eigenvalues --    1.93725   1.93805   1.94440   1.94517   1.94616
 Alpha virt. eigenvalues --    1.95051   1.95280   1.95305   1.95543   1.95792
 Alpha virt. eigenvalues --    1.96000   1.96135   1.96547   1.96622   1.96703
 Alpha virt. eigenvalues --    1.96951   1.97524   1.97695   1.98034   1.98166
 Alpha virt. eigenvalues --    1.98581   1.98870   1.99008   1.99092   1.99348
 Alpha virt. eigenvalues --    1.99816   2.00160   2.00260   2.00434   2.00674
 Alpha virt. eigenvalues --    2.00798   2.00970   2.01284   2.01848   2.01943
 Alpha virt. eigenvalues --    2.02107   2.02266   2.02451   2.02906   2.02961
 Alpha virt. eigenvalues --    2.03219   2.03703   2.03998   2.04314   2.04613
 Alpha virt. eigenvalues --    2.04651   2.04902   2.05087   2.05344   2.05419
 Alpha virt. eigenvalues --    2.05737   2.05919   2.06326   2.06572   2.07271
 Alpha virt. eigenvalues --    2.07519   2.07640   2.07952   2.08309   2.08653
 Alpha virt. eigenvalues --    2.08870   2.09623   2.09832   2.10064   2.10305
 Alpha virt. eigenvalues --    2.10568   2.11178   2.11266   2.11875   2.12205
 Alpha virt. eigenvalues --    2.12232   2.12637   2.12821   2.13087   2.13522
 Alpha virt. eigenvalues --    2.13688   2.13962   2.14224   2.14515   2.14873
 Alpha virt. eigenvalues --    2.15021   2.15158   2.15769   2.15911   2.16380
 Alpha virt. eigenvalues --    2.16443   2.16747   2.16808   2.17408   2.17914
 Alpha virt. eigenvalues --    2.18044   2.18120   2.18409   2.18794   2.19269
 Alpha virt. eigenvalues --    2.19533   2.20109   2.20327   2.20702   2.20929
 Alpha virt. eigenvalues --    2.21449   2.21732   2.22146   2.22313   2.22654
 Alpha virt. eigenvalues --    2.22925   2.23157   2.23275   2.24434   2.24807
 Alpha virt. eigenvalues --    2.25292   2.25610   2.25694   2.25976   2.26707
 Alpha virt. eigenvalues --    2.27232   2.27370   2.27670   2.28694   2.28849
 Alpha virt. eigenvalues --    2.29464   2.29621   2.29866   2.30312   2.30351
 Alpha virt. eigenvalues --    2.31008   2.31400   2.31469   2.32844   2.33027
 Alpha virt. eigenvalues --    2.33058   2.34163   2.34963   2.35235   2.35732
 Alpha virt. eigenvalues --    2.36095   2.36261   2.36743   2.37092   2.37320
 Alpha virt. eigenvalues --    2.37343   2.37589   2.38326   2.38820   2.38919
 Alpha virt. eigenvalues --    2.39201   2.40221   2.40396   2.40889   2.40931
 Alpha virt. eigenvalues --    2.41003   2.41138   2.41820   2.42155   2.42176
 Alpha virt. eigenvalues --    2.42921   2.43462   2.43767   2.44030   2.44467
 Alpha virt. eigenvalues --    2.44587   2.45005   2.46311   2.46389   2.46450
 Alpha virt. eigenvalues --    2.46722   2.47002   2.47271   2.47579   2.48113
 Alpha virt. eigenvalues --    2.48452   2.48659   2.48923   2.49208   2.49651
 Alpha virt. eigenvalues --    2.49792   2.50549   2.50675   2.51072   2.51186
 Alpha virt. eigenvalues --    2.51355   2.51617   2.52056   2.52852   2.52991
 Alpha virt. eigenvalues --    2.53106   2.54287   2.54370   2.54975   2.55014
 Alpha virt. eigenvalues --    2.55019   2.55598   2.55943   2.56065   2.56393
 Alpha virt. eigenvalues --    2.56481   2.57419   2.57768   2.58654   2.58941
 Alpha virt. eigenvalues --    2.59346   2.59576   2.59813   2.60493   2.60508
 Alpha virt. eigenvalues --    2.60929   2.61599   2.62030   2.62928   2.63188
 Alpha virt. eigenvalues --    2.63874   2.63988   2.64247   2.64722   2.65099
 Alpha virt. eigenvalues --    2.65214   2.65285   2.66348   2.66764   2.67274
 Alpha virt. eigenvalues --    2.67589   2.67751   2.68372   2.68673   2.69341
 Alpha virt. eigenvalues --    2.69412   2.69672   2.70021   2.70910   2.71143
 Alpha virt. eigenvalues --    2.71301   2.72246   2.72343   2.72476   2.72955
 Alpha virt. eigenvalues --    2.73686   2.73888   2.74092   2.74569   2.74891
 Alpha virt. eigenvalues --    2.75839   2.76112   2.76588   2.76691   2.77288
 Alpha virt. eigenvalues --    2.77552   2.77795   2.78462   2.79042   2.79559
 Alpha virt. eigenvalues --    2.79703   2.80108   2.80499   2.80642   2.81719
 Alpha virt. eigenvalues --    2.81792   2.82270   2.82450   2.82727   2.83115
 Alpha virt. eigenvalues --    2.83549   2.84651   2.84709   2.85039   2.85627
 Alpha virt. eigenvalues --    2.86489   2.86925   2.87343   2.87544   2.88393
 Alpha virt. eigenvalues --    2.89086   2.89339   2.89531   2.90004   2.90764
 Alpha virt. eigenvalues --    2.91810   2.91884   2.92969   2.93085   2.93158
 Alpha virt. eigenvalues --    2.93389   2.93618   2.94189   2.94809   2.95367
 Alpha virt. eigenvalues --    2.96125   2.96459   2.97215   2.97647   2.98076
 Alpha virt. eigenvalues --    2.99005   2.99213   2.99360   3.00294   3.00556
 Alpha virt. eigenvalues --    3.00938   3.01138   3.01312   3.01414   3.01540
 Alpha virt. eigenvalues --    3.02080   3.02136   3.02287   3.02551   3.02671
 Alpha virt. eigenvalues --    3.02786   3.03294   3.03396   3.03614   3.03822
 Alpha virt. eigenvalues --    3.03868   3.04296   3.04368   3.04863   3.05140
 Alpha virt. eigenvalues --    3.05505   3.05850   3.06364   3.07107   3.07447
 Alpha virt. eigenvalues --    3.08037   3.08361   3.08436   3.08766   3.08892
 Alpha virt. eigenvalues --    3.09469   3.10294   3.10311   3.10679   3.10893
 Alpha virt. eigenvalues --    3.11421   3.11559   3.11879   3.12462   3.12956
 Alpha virt. eigenvalues --    3.13241   3.13325   3.13797   3.14865   3.15935
 Alpha virt. eigenvalues --    3.16371   3.16456   3.16815   3.17105   3.17456
 Alpha virt. eigenvalues --    3.17581   3.17709   3.18535   3.18873   3.20315
 Alpha virt. eigenvalues --    3.20345   3.21180   3.22063   3.22764   3.23060
 Alpha virt. eigenvalues --    3.24103   3.24191   3.24709   3.25145   3.27691
 Alpha virt. eigenvalues --    3.28217   3.28428   3.28757   3.29807   3.30123
 Alpha virt. eigenvalues --    3.30796   3.37327   3.45273   3.46217   3.48263
 Alpha virt. eigenvalues --    3.48612   3.52480   3.55584   3.59217   3.60962
 Alpha virt. eigenvalues --    3.63682   3.67612   3.68212   3.71685   3.72614
 Alpha virt. eigenvalues --    3.76686   3.77141
          Condensed to atoms (all electrons):
 Mulliken charges:
               1
     1  Mg   0.962025
     2  C   -0.105101
     3  C   -0.072215
     4  C   -0.009109
     5  C   -0.098177
     6  N   -0.398556
     7  C    0.022649
     8  C   -0.081418
     9  C   -0.076371
    10  C    0.023560
    11  C    0.037008
    12  C    0.030929
    13  C    0.037464
    14  C    0.205363
    15  O   -0.254701
    16  O   -0.372480
    17  N   -0.421671
    18  C    0.151159
    19  C   -0.175738
    20  C   -0.045014
    21  C    0.140630
    22  C    0.090782
    23  C   -0.009161
    24  O   -0.217916
    25  C   -0.011920
    26  N   -0.365131
    27  C    0.003413
    28  C   -0.083119
    29  C   -0.074495
    30  C    0.076713
    31  C    0.018194
    32  C   -0.002592
    33  C   -0.052548
    34  N   -0.387295
    35  C    0.101074
    36  C   -0.197897
    37  C   -0.085977
    38  C    0.199216
    39  C    0.086966
    40  C    0.117858
    41  O   -0.188318
    42  C   -0.010470
    43  C    0.276364
    44  O   -0.247843
    45  O   -0.374585
    46  C    0.130132
    47  C    0.285101
    48  C   -0.157216
    49  C   -0.215616
    50  C    0.032770
    51  C    0.015424
    52  C   -0.037763
    53  C    0.051889
    54  C   -0.211899
    55  C    0.009221
    56  C    0.050475
    57  C   -0.057053
    58  C    0.008361
    59  C   -0.195636
    60  C   -0.012113
    61  C   -0.013454
    62  C   -0.010487
    63  C    0.027040
    64  C   -0.182101
    65  C   -0.022545
    66  C   -0.008070
    67  H   -0.007497
    68  H    0.020219
    69  H    0.012145
    70  H    0.032110
    71  H    0.033510
    72  H    0.046492
    73  H    0.038301
    74  H    0.057041
    75  H    0.027311
    76  H    0.038513
    77  H    0.049029
    78  H    0.048302
    79  H    0.052809
    80  H    0.031270
    81  H    0.034819
    82  H    0.041431
    83  H    0.063318
    84  H    0.040381
    85  H    0.033505
    86  H    0.026329
    87  H    0.029111
    88  H    0.045279
    89  H    0.044023
    90  H    0.032841
    91  H    0.025746
    92  H    0.044047
    93  H    0.045222
    94  H    0.028662
    95  H    0.069737
    96  H    0.030962
    97  H    0.061497
    98  H    0.067280
    99  H    0.048522
   100  H    0.064788
   101  H    0.058366
   102  H    0.059850
   103  H    0.055116
   104  H    0.030871
   105  H    0.051833
   106  H    0.049470
   107  H    0.028504
   108  H    0.004565
   109  H    0.019968
   110  H    0.024376
   111  H    0.021827
   112  H    0.004886
   113  H    0.021914
   114  H    0.019921
   115  H    0.003509
   116  H    0.026568
   117  H    0.031395
   118  H    0.020784
   119  H    0.002079
   120  H    0.026452
   121  H    0.017214
   122  H    0.010977
   123  H    0.024914
   124  H    0.021134
   125  H    0.037245
   126  H    0.027262
   127  H    0.025223
   128  H    0.011799
   129  H    0.004847
   130  H    0.021461
   131  H    0.016861
   132  H    0.018410
   133  H    0.013659
   134  H    0.026564
   135  H    0.030330
   136  H    0.029154
   137  H    0.032110
   138  H    0.025511
   139  H    0.020774
   140  H    0.017230
 Sum of Mulliken charges =  -0.00000
 Mulliken charges with hydrogens summed into heavy atoms:
               1
     1  Mg   0.962025
     2  C   -0.105101
     3  C   -0.079712
     4  C    0.011110
     5  C   -0.086032
     6  N   -0.398556
     7  C    0.022649
     8  C   -0.049308
     9  C   -0.042861
    10  C    0.023560
    11  C    0.178842
    12  C    0.096754
    13  C    0.134795
    14  C    0.205363
    15  O   -0.254701
    16  O   -0.372480
    17  N   -0.421671
    18  C    0.151159
    19  C   -0.175738
    20  C   -0.045014
    21  C    0.140630
    22  C    0.209680
    23  C   -0.009161
    24  O   -0.217916
    25  C    0.133211
    26  N   -0.365131
    27  C    0.003413
    28  C   -0.049614
    29  C   -0.048166
    30  C    0.076713
    31  C    0.136608
    32  C    0.055996
    33  C    0.065383
    34  N   -0.387295
    35  C    0.101074
    36  C   -0.197897
    37  C   -0.085977
    38  C    0.199216
    39  C    0.249163
    40  C    0.117858
    41  O   -0.188318
    42  C    0.056811
    43  C    0.276364
    44  O   -0.247843
    45  O   -0.374585
    46  C    0.301807
    47  C    0.400066
    48  C   -0.126345
    49  C   -0.215616
    50  C    0.162577
    51  C    0.039957
    52  C    0.008441
    53  C    0.078689
    54  C   -0.191978
    55  C    0.070693
    56  C    0.073339
    57  C   -0.013388
    58  C    0.044253
    59  C   -0.174502
    60  C    0.077618
    61  C    0.003192
    62  C    0.027835
    63  C    0.059109
    64  C   -0.155537
    65  C    0.069048
    66  C    0.055445
 Electronic spatial extent (au):  <R**2>=         125503.7967
 Charge=              0.0000 electrons
 Dipole moment (field-independent basis, Debye):
    X=             -4.6521    Y=              1.6135    Z=              1.1896  Tot=              5.0656
 Quadrupole moment (field-independent basis, Debye-Ang):
   XX=           -388.0785   YY=           -442.4478   ZZ=           -397.0145
   XY=             29.7101   XZ=             16.3406   YZ=             -5.1386
 Traceless Quadrupole moment (field-independent basis, Debye-Ang):
   XX=             21.1018   YY=            -33.2675   ZZ=             12.1657
   XY=             29.7101   XZ=             16.3406   YZ=             -5.1386
 Octapole moment (field-independent basis, Debye-Ang**2):
  XXX=            379.3273  YYY=            -89.5225  ZZZ=              1.8933  XYY=           -260.6527
  XXY=            242.6700  XXZ=             47.4521  XZZ=             18.4830  YZZ=            -40.3470
  YYZ=             -7.5624  XYZ=            -51.2704
 Hexadecapole moment (field-independent basis, Debye-Ang**3):
 XXXX=        -139956.4790 YYYY=         -27916.9992 ZZZZ=          -3266.9320 XXXY=           3090.9973
 XXXZ=            447.0976 YYYX=            126.7671 YYYZ=            249.6493 ZZZX=             93.8511
 ZZZY=            -29.5433 XXYY=         -29582.4569 XXZZ=         -24652.4913 YYZZ=          -4655.9772
 XXYZ=            -66.0618 YYXZ=             38.2869 ZZXY=             53.5640
 N-N= 9.607331687028D+03 E-N=-2.620740041634D+04  KE= 2.976077899984D+03
 Leave Link  601 at Thu Apr 28 15:10:53 2022, MaxMem= 10066329600 cpu:              11.4 elap:               0.6
 (Enter /sw/apps/gaussian-16.0/g16/l9999.exe)
 1\1\GINC-BP1-COMPUTE156\SP\RwB97XD TD-FC\def2SVP\C55H74Mg1N4O6\OF15641
 \28-Apr-2022\0\\#p wB97XD/Def2SVP td=(nstates=5)\\step_1601_chromophor
 e_21 TDDFT with wB97XD functional\\0,1\Mg,0,16.25,50.897,25.274\C,0,18
 .032,49.629,27.906\C,0,13.627,51.754,27.484\C,0,14.633,52.169,22.668\C
 ,0,18.901,49.801,23.114\N,0,15.941,50.805,27.388\C,0,16.903,50.398,28.
 302\C,0,16.421,50.603,29.758\C,0,14.895,50.875,29.556\C,0,14.774,51.15
 9,28.068\C,0,13.92,49.777,30.051\C,0,17.325,51.639,30.338\C,0,17.329,5
 1.848,31.866\C,0,16.388,51.033,32.791\O,0,16.608,49.939,33.292\O,0,15.
 148,51.647,32.852\N,0,14.371,51.951,25.117\C,0,13.476,52.168,26.098\C,
 0,12.377,52.924,25.53\C,0,12.63,52.963,24.135\C,0,13.902,52.38,23.895\
 C,0,11.228,53.456,26.381\C,0,11.827,53.62,23.101\O,0,12.171,53.746,21.
 96\C,0,10.449,54.156,23.467\N,0,16.74,50.977,23.22\C,0,15.828,51.536,2
 2.384\C,0,16.259,51.277,20.922\C,0,17.729,50.784,21.13\C,0,17.859,50.5
 44,22.609\C,0,15.309,50.313,20.178\C,0,18.816,51.787,20.728\C,0,19.643
 ,51.469,19.375\N,0,18.027,49.842,25.424\C,0,19.009,49.496,24.512\C,0,2
 0.009,48.667,25.108\C,0,19.662,48.783,26.457\C,0,18.461,49.495,26.561\
 C,0,21.15,47.94,24.527\C,0,20.076,48.323,27.843\O,0,20.927,47.548,28.2
 09\C,0,19.055,48.864,28.831\C,0,18.454,47.638,29.409\O,0,17.893,46.758
 ,28.759\O,0,18.524,47.671,30.79\C,0,17.609,46.813,31.571\C,0,14.148,50
 .911,33.595\C,0,12.829,51.438,33.245\C,0,11.607,51.274,33.773\C,0,11.2
 52,50.46,35.044\C,0,10.38,52.036,33.257\C,0,10.406,53.623,33.321\C,0,1
 0.874,54.29,34.629\C,0,9.973,55.485,35.044\C,0,10.782,56.705,35.457\C,
 0,9.038,55.053,36.129\C,0,7.68,55.813,36.135\C,0,7.174,56.106,37.568\C
 ,0,5.979,57.093,37.46\C,0,6.481,58.601,37.701\C,0,4.842,56.646,38.469\
 C,0,3.387,57.059,38.088\C,0,2.81,58.113,38.99\C,0,1.274,58.174,38.927\
 C,0,0.807,59.622,38.519\C,0,0.642,57.609,40.187\H,0,12.845,51.901,28.2
 31\H,0,14.142,52.382,21.716\H,0,19.629,49.346,22.44\H,0,16.53,49.666,3
 0.304\H,0,14.739,51.848,30.023\H,0,13.234,50.384,30.643\H,0,14.405,49.
 053,30.705\H,0,13.451,49.208,29.248\H,0,17.137,52.619,29.9\H,0,18.389,
 51.495,30.151\H,0,17.303,52.927,32.021\H,0,18.327,51.578,32.212\H,0,10
 .978,54.508,26.245\H,0,11.27,53.175,27.434\H,0,10.368,52.879,26.041\H,
 0,10.451,54.997,24.16\H,0,9.889,53.274,23.777\H,0,10.17,54.723,22.579\
 H,0,16.289,52.249,20.43\H,0,17.716,49.834,20.595\H,0,15.834,49.693,19.
 451\H,0,14.562,50.824,19.571\H,0,14.782,49.62,20.833\H,0,19.544,51.833
 ,21.539\H,0,18.366,52.778,20.785\H,0,19.143,51.288,18.423\H,0,20.462,5
 0.776,19.57\H,0,20.104,52.435,19.168\H,0,22.096,48.451,24.705\H,0,20.9
 79,47.64,23.493\H,0,21.133,46.989,25.059\H,0,19.588,49.502,29.537\H,0,
 16.957,47.521,32.083\H,0,18.076,46.212,32.351\H,0,16.911,46.239,30.961
 \H,0,14.303,50.991,34.671\H,0,14.227,49.893,33.212\H,0,12.822,52.255,3
 2.523\H,0,10.31,49.916,34.979\H,0,11.243,51.16,35.879\H,0,12.113,49.80
 5,35.178\H,0,9.402,51.741,33.638\H,0,10.102,51.711,32.254\H,0,9.426,53
 .957,32.98\H,0,11.078,53.889,32.505\H,0,11.801,54.794,34.355\H,0,11.07
 1,53.642,35.482\H,0,9.501,55.936,34.171\H,0,11.727,56.466,35.945\H,0,1
 0.261,57.195,36.28\H,0,11.179,57.231,34.589\H,0,9.53,54.868,37.084\H,0
 ,8.774,54.027,35.875\H,0,6.852,55.309,35.638\H,0,7.768,56.778,35.636\H
 ,0,8.015,56.65,37.998\H,0,6.941,55.2,38.127\H,0,5.64,57.115,36.424\H,0
 ,6.07,59.115,38.57\H,0,6.18,59.087,36.774\H,0,7.563,58.688,37.794\H,0,
 5.155,56.937,39.472\H,0,4.905,55.561,38.561\H,0,2.88,56.094,38.102\H,0
 ,3.489,57.357,37.044\H,0,3.17,59.109,38.729\H,0,3.11,57.867,40.008\H,0
 ,1.045,57.454,38.141\H,0,1.415,60.439,38.909\H,0,-0.212,59.894,38.796\
 H,0,0.928,59.661,37.436\H,0,0.54,56.524,40.206\H,0,-0.343,58.033,40.38
 3\H,0,1.188,57.798,41.111\\Version=ES64L-G16RevA.03\State=1-A\HF=-3007
 .8702384\RMSD=6.036e-09\PG=C01 [X(C55H74Mg1N4O6)]\\@


 THOSE WITH THE GOLD MAKE THE RULES.

             -- PETER'S GOLDEN RULE
 Job cpu time:       0 days 11 hours 31 minutes 21.7 seconds.
 Elapsed time:       0 days  0 hours 29 minutes 18.2 seconds.
 File lengths (MBytes):  RWF=   8929 Int=      0 D2E=      0 Chk=    390 Scr=      1
 Normal termination of Gaussian 16 at Thu Apr 28 15:10:54 2022.
