 Entering Gaussian System, Link 0=g16
 Initial command:
 /sw/apps/gaussian-16.0/g16/l1.exe "/tmp/Gau-260574.inp" -scrdir="/tmp/"
 Entering Link 1 = /sw/apps/gaussian-16.0/g16/l1.exe PID=    260575.
  
 Copyright (c) 1988,1990,1992,1993,1995,1998,2003,2009,2016,
            Gaussian, Inc.  All Rights Reserved.
  
 This is part of the Gaussian(R) 16 program.  It is based on
 the Gaussian(R) 09 system (copyright 2009, Gaussian, Inc.),
 the Gaussian(R) 03 system (copyright 2003, Gaussian, Inc.),
 the Gaussian(R) 98 system (copyright 1998, Gaussian, Inc.),
 the Gaussian(R) 94 system (copyright 1995, Gaussian, Inc.),
 the Gaussian 92(TM) system (copyright 1992, Gaussian, Inc.),
 the Gaussian 90(TM) system (copyright 1990, Gaussian, Inc.),
 the Gaussian 88(TM) system (copyright 1988, Gaussian, Inc.),
 the Gaussian 86(TM) system (copyright 1986, Carnegie Mellon
 University), and the Gaussian 82(TM) system (copyright 1983,
 Carnegie Mellon University). Gaussian is a federally registered
 trademark of Gaussian, Inc.
  
 This software contains proprietary and confidential information,
 including trade secrets, belonging to Gaussian, Inc.
  
 This software is provided under written license and may be
 used, copied, transmitted, or stored only in accord with that
 written license.
  
 The following legend is applicable only to US Government
 contracts under FAR:
  
                    RESTRICTED RIGHTS LEGEND
  
 Use, reproduction and disclosure by the US Government is
 subject to restrictions as set forth in subparagraphs (a)
 and (c) of the Commercial Computer Software - Restricted
 Rights clause in FAR 52.227-19.
  
 Gaussian, Inc.
 340 Quinnipiac St., Bldg. 40, Wallingford CT 06492
  
  
 ---------------------------------------------------------------
 Warning -- This program may not be used in any manner that
 competes with the business of Gaussian, Inc. or will provide
 assistance to any competitor of Gaussian, Inc.  The licensee
 of this program is prohibited from giving any competitor of
 Gaussian, Inc. access to this program.  By using this program,
 the user acknowledges that Gaussian, Inc. is engaged in the
 business of creating and licensing software in the field of
 computational chemistry and represents and warrants to the
 licensee that it is not a competitor of Gaussian, Inc. and that
 it will not use this program in any manner prohibited above.
 ---------------------------------------------------------------
  

 Cite this work as:
 Gaussian 16, Revision A.03,
 M. J. Frisch, G. W. Trucks, H. B. Schlegel, G. E. Scuseria, 
 M. A. Robb, J. R. Cheeseman, G. Scalmani, V. Barone, 
 G. A. Petersson, H. Nakatsuji, X. Li, M. Caricato, A. V. Marenich, 
 J. Bloino, B. G. Janesko, R. Gomperts, B. Mennucci, H. P. Hratchian, 
 J. V. Ortiz, A. F. Izmaylov, J. L. Sonnenberg, D. Williams-Young, 
 F. Ding, F. Lipparini, F. Egidi, J. Goings, B. Peng, A. Petrone, 
 T. Henderson, D. Ranasinghe, V. G. Zakrzewski, J. Gao, N. Rega, 
 G. Zheng, W. Liang, M. Hada, M. Ehara, K. Toyota, R. Fukuda, 
 J. Hasegawa, M. Ishida, T. Nakajima, Y. Honda, O. Kitao, H. Nakai, 
 T. Vreven, K. Throssell, J. A. Montgomery, Jr., J. E. Peralta, 
 F. Ogliaro, M. J. Bearpark, J. J. Heyd, E. N. Brothers, K. N. Kudin, 
 V. N. Staroverov, T. A. Keith, R. Kobayashi, J. Normand, 
 K. Raghavachari, A. P. Rendell, J. C. Burant, S. S. Iyengar, 
 J. Tomasi, M. Cossi, J. M. Millam, M. Klene, C. Adamo, R. Cammi, 
 J. W. Ochterski, R. L. Martin, K. Morokuma, O. Farkas, 
 J. B. Foresman, and D. J. Fox, Gaussian, Inc., Wallingford CT, 2016.
 
 ******************************************
 Gaussian 16:  ES64L-G16RevA.03 25-Dec-2016
                 4-May-2022 
 ******************************************
 %nproc=24
 Will use up to   24 processors via shared memory.
 %mem=75GB
 ---------------------------------
 #p PBE1PBE/Def2SVP td=(nstates=5)
 ---------------------------------
 1/38=1,172=1/1;
 2/12=2,17=6,18=5,40=1/2;
 3/5=43,7=101,11=9,25=1,30=1,74=-13/1,2,3,8;
 4//1;
 5/5=2,38=5/2;
 8/6=1,10=1,108=5/1;
 9/41=5,42=1,70=2/14;
 6/7=2,8=2,9=2,10=2/1;
 99/5=1,9=1/99;
 Leave Link    1 at Wed May  4 13:03:32 2022, MaxMem= 10066329600 cpu:               1.5 elap:               0.1
 (Enter /sw/apps/gaussian-16.0/g16/l101.exe)
 ------------------------------------------------------
 step_1751_chromophore_19 TDDFT with PBE1PBE functional
 ------------------------------------------------------
 Symbolic Z-matrix:
 Charge =  0 Multiplicity = 1
 Mg                    25.97     50.131    26.772 
 C                     23.737    50.804    29.43 
 C                     28.306    49.235    29.069 
 C                     28.045    49.931    24.281 
 C                     23.391    51.185    24.618 
 N                     25.935    49.781    29.064 
 C                     24.92     50.274    29.882 
 C                     25.393    50.144    31.358 
 C                     26.899    49.875    31.239 
 C                     27.102    49.566    29.731 
 C                     27.852    51.151    31.724 
 C                     24.477    49.123    32.123 
 C                     23.954    49.507    33.52 
 C                     24.859    50.394    34.471 
 O                     25.079    51.579    34.266 
 O                     25.368    49.702    35.555 
 N                     27.975    49.655    26.634 
 C                     28.765    49.166    27.726 
 C                     30.067    48.893    27.268 
 C                     30.066    49.249    25.86 
 C                     28.631    49.657    25.556 
 C                     31.028    48.238    28.114 
 C                     31.176    48.951    24.833 
 O                     31.042    49.241    23.649 
 C                     32.468    48.283    25.221 
 N                     25.779    50.679    24.699 
 C                     26.745    50.391    23.884 
 C                     26.353    50.525    22.387 
 C                     24.757    50.716    22.537 
 C                     24.623    50.911    24.031 
 C                     27.003    51.751    21.715 
 C                     23.953    49.605    21.847 
 C                     23.741    48.242    22.551 
 N                     23.944    51.015    26.926 
 C                     23.036    51.354    25.924 
 C                     21.805    51.644    26.556 
 C                     22.028    51.546    27.968 
 C                     23.328    51.092    28.112 
 C                     20.571    52.164    25.907 
 C                     21.521    51.772    29.307 
 O                     20.459    52.204    29.729 
 C                     22.582    51.306    30.264 
 C                     23.061    52.557    31.017 
 O                     24.043    53.182    30.811 
 O                     22.304    52.757    32.099 
 C                     22.792    53.719    33.149 
 C                     25.93     50.526    36.687 
 C                     25.799    50.078    38.035 
 C                     26.476    50.526    39.123 
 C                     27.474    51.599    39.256 
 C                     26.167    49.895    40.518 
 C                     27.052    48.713    40.779 
 C                     26.241    47.5      41.42 
 C                     27.163    46.342    41.841 
 C                     27.967    45.544    40.726 
 C                     26.476    45.274    42.761 
 C                     27.016    45.275    44.251 
 C                     26.339    46.368    45.141 
 C                     27.381    47.34     45.764 
 C                     26.943    47.423    47.255 
 C                     27.32     48.707    45.083 
 C                     28.511    49.666    45.542 
 C                     29.152    50.314    44.271 
 C                     29.468    51.776    44.538 
 C                     28.182    52.647    44.313 
 C                     30.689    52.138    43.732 
 H                     29.111    49.055    29.784 
 H                     28.695    49.718    23.429 
 H                     22.459    51.17     24.049 
 H                     25.259    51.153    31.749 
 H                     27.009    49.001    31.881 
 H                     28.257    51.619    30.827 
 H                     28.685    50.745    32.298 
 H                     27.37     51.911    32.338 
 H                     24.952    48.144    32.177 
 H                     23.6      48.907    31.513 
 H                     23.734    48.537    33.966 
 H                     23.114    50.197    33.447 
 H                     30.801    48.228    29.18 
 H                     31.966    48.792    28.113 
 H                     30.922    47.212    27.761 
 H                     32.314    47.34     25.746 
 H                     32.928    48.982    25.919 
 H                     33.067    48.207    24.313 
 H                     26.596    49.631    21.813 
 H                     24.312    51.652    22.199 
 H                     27.654    52.214    22.456 
 H                     26.389    52.511    21.232 
 H                     27.725    51.388    20.984 
 H                     24.48     49.504    20.898 
 H                     22.997    49.988    21.489 
 H                     24.12     47.517    21.83 
 H                     22.701    47.992    22.757 
 H                     24.263    48.146    23.504 
 H                     19.658    52.059    26.492 
 H                     20.438    51.747    24.908 
 H                     20.64     53.238    25.734 
 H                     22.3      50.638    31.078 
 H                     23.709    54.286    32.984 
 H                     22.797    53.146    34.076 
 H                     22.023    54.48     33.282 
 H                     25.357    51.454    36.7 
 H                     26.998    50.729    36.616 
 H                     25.128    49.219    38.06 
 H                     27.237    52.263    38.425 
 H                     28.483    51.202    39.147 
 H                     27.253    52.374    39.989 
 H                     25.146    49.519    40.582 
 H                     26.376    50.708    41.213 
 H                     27.866    49.123    41.377 
 H                     27.551    48.339    39.885 
 H                     25.68     47.209    40.532 
 H                     25.556    47.822    42.205 
 H                     28.01     46.737    42.402 
 H                     27.934    46.092    39.785 
 H                     27.645    44.522    40.527 
 H                     28.991    45.449    41.089 
 H                     26.478    44.254    42.378 
 H                     25.423    45.553    42.79 
 H                     28.105    45.272    44.274 
 H                     26.815    44.268    44.618 
 H                     25.918    45.697    45.89 
 H                     25.552    46.857    44.567 
 H                     28.387    46.942    45.627 
 H                     26.766    48.462    47.534 
 H                     27.722    46.995    47.885 
 H                     26.003    46.922    47.483 
 H                     26.355    49.136    45.351 
 H                     27.322    48.521    44.009 
 H                     29.282    49.       45.93 
 H                     28.183    50.442    46.235 
 H                     28.534    50.136    43.391 
 H                     30.12     49.83     44.143 
 H                     29.691    51.871    45.6 
 H                     28.217    53.335    43.468 
 H                     28.106    53.288    45.191 
 H                     27.285    52.03     44.266 
 H                     30.807    51.477    42.873 
 H                     31.571    52.006    44.359 
 H                     30.561    53.153    43.355 
 
 ITRead=  0  0  0  0  0  0  0  0  0  0  0  0  0  0  0  0  0  0  0  0
 ITRead=  0  0  0  0  0  0  0  0  0  0  0  0  0  0  0  0  0  0  0  0
 ITRead=  0  0  0  0  0  0  0  0  0  0  0  0  0  0  0  0  0  0  0  0
 ITRead=  0  0  0  0  0  0  0  0  0  0  0  0  0  0  0  0  0  0  0  0
 ITRead=  0  0  0  0  0  0  0  0  0  0  0  0  0  0  0  0  0  0  0  0
 ITRead=  0  0  0  0  0  0  0  0  0  0  0  0  0  0  0  0  0  0  0  0
 ITRead=  0  0  0  0  0  0  0  0  0  0  0  0  0  0  0  0  0  0  0  0
 MicOpt= -1 -1 -1 -1 -1 -1 -1 -1 -1 -1 -1 -1 -1 -1 -1 -1 -1 -1 -1 -1
 MicOpt= -1 -1 -1 -1 -1 -1 -1 -1 -1 -1 -1 -1 -1 -1 -1 -1 -1 -1 -1 -1
 MicOpt= -1 -1 -1 -1 -1 -1 -1 -1 -1 -1 -1 -1 -1 -1 -1 -1 -1 -1 -1 -1
 MicOpt= -1 -1 -1 -1 -1 -1 -1 -1 -1 -1 -1 -1 -1 -1 -1 -1 -1 -1 -1 -1
 MicOpt= -1 -1 -1 -1 -1 -1 -1 -1 -1 -1 -1 -1 -1 -1 -1 -1 -1 -1 -1 -1
 MicOpt= -1 -1 -1 -1 -1 -1 -1 -1 -1 -1 -1 -1 -1 -1 -1 -1 -1 -1 -1 -1
 MicOpt= -1 -1 -1 -1 -1 -1 -1 -1 -1 -1 -1 -1 -1 -1 -1 -1 -1 -1 -1 -1
 NAtoms=    140 NQM=      140 NQMF=       0 NMMI=      0 NMMIF=      0
                NMic=       0 NMicF=      0.
                    Isotopes and Nuclear Properties:
 (Nuclear quadrupole moments (NQMom) in fm**2, nuclear magnetic moments (NMagM)
  in nuclear magnetons)

  Atom         1           2           3           4           5           6           7           8           9          10
 IAtWgt=          24          12          12          12          12          14          12          12          12          12
 AtmWgt=  23.9850450  12.0000000  12.0000000  12.0000000  12.0000000  14.0030740  12.0000000  12.0000000  12.0000000  12.0000000
 NucSpn=           0           0           0           0           0           2           0           0           0           0
 AtZEff=  -0.0000000  -0.0000000  -0.0000000  -0.0000000  -0.0000000  -0.0000000  -0.0000000  -0.0000000  -0.0000000  -0.0000000
 NQMom=    0.0000000   0.0000000   0.0000000   0.0000000   0.0000000   2.0440000   0.0000000   0.0000000   0.0000000   0.0000000
 NMagM=    0.0000000   0.0000000   0.0000000   0.0000000   0.0000000   0.4037610   0.0000000   0.0000000   0.0000000   0.0000000
 AtZNuc=  12.0000000   6.0000000   6.0000000   6.0000000   6.0000000   7.0000000   6.0000000   6.0000000   6.0000000   6.0000000

  Atom        11          12          13          14          15          16          17          18          19          20
 IAtWgt=          12          12          12          12          16          16          14          12          12          12
 AtmWgt=  12.0000000  12.0000000  12.0000000  12.0000000  15.9949146  15.9949146  14.0030740  12.0000000  12.0000000  12.0000000
 NucSpn=           0           0           0           0           0           0           2           0           0           0
 AtZEff=  -0.0000000  -0.0000000  -0.0000000  -0.0000000  -0.0000000  -0.0000000  -0.0000000  -0.0000000  -0.0000000  -0.0000000
 NQMom=    0.0000000   0.0000000   0.0000000   0.0000000   0.0000000   0.0000000   2.0440000   0.0000000   0.0000000   0.0000000
 NMagM=    0.0000000   0.0000000   0.0000000   0.0000000   0.0000000   0.0000000   0.4037610   0.0000000   0.0000000   0.0000000
 AtZNuc=   6.0000000   6.0000000   6.0000000   6.0000000   8.0000000   8.0000000   7.0000000   6.0000000   6.0000000   6.0000000

  Atom        21          22          23          24          25          26          27          28          29          30
 IAtWgt=          12          12          12          16          12          14          12          12          12          12
 AtmWgt=  12.0000000  12.0000000  12.0000000  15.9949146  12.0000000  14.0030740  12.0000000  12.0000000  12.0000000  12.0000000
 NucSpn=           0           0           0           0           0           2           0           0           0           0
 AtZEff=  -0.0000000  -0.0000000  -0.0000000  -0.0000000  -0.0000000  -0.0000000  -0.0000000  -0.0000000  -0.0000000  -0.0000000
 NQMom=    0.0000000   0.0000000   0.0000000   0.0000000   0.0000000   2.0440000   0.0000000   0.0000000   0.0000000   0.0000000
 NMagM=    0.0000000   0.0000000   0.0000000   0.0000000   0.0000000   0.4037610   0.0000000   0.0000000   0.0000000   0.0000000
 AtZNuc=   6.0000000   6.0000000   6.0000000   8.0000000   6.0000000   7.0000000   6.0000000   6.0000000   6.0000000   6.0000000

  Atom        31          32          33          34          35          36          37          38          39          40
 IAtWgt=          12          12          12          14          12          12          12          12          12          12
 AtmWgt=  12.0000000  12.0000000  12.0000000  14.0030740  12.0000000  12.0000000  12.0000000  12.0000000  12.0000000  12.0000000
 NucSpn=           0           0           0           2           0           0           0           0           0           0
 AtZEff=  -0.0000000  -0.0000000  -0.0000000  -0.0000000  -0.0000000  -0.0000000  -0.0000000  -0.0000000  -0.0000000  -0.0000000
 NQMom=    0.0000000   0.0000000   0.0000000   2.0440000   0.0000000   0.0000000   0.0000000   0.0000000   0.0000000   0.0000000
 NMagM=    0.0000000   0.0000000   0.0000000   0.4037610   0.0000000   0.0000000   0.0000000   0.0000000   0.0000000   0.0000000
 AtZNuc=   6.0000000   6.0000000   6.0000000   7.0000000   6.0000000   6.0000000   6.0000000   6.0000000   6.0000000   6.0000000

  Atom        41          42          43          44          45          46          47          48          49          50
 IAtWgt=          16          12          12          16          16          12          12          12          12          12
 AtmWgt=  15.9949146  12.0000000  12.0000000  15.9949146  15.9949146  12.0000000  12.0000000  12.0000000  12.0000000  12.0000000
 NucSpn=           0           0           0           0           0           0           0           0           0           0
 AtZEff=  -0.0000000  -0.0000000  -0.0000000  -0.0000000  -0.0000000  -0.0000000  -0.0000000  -0.0000000  -0.0000000  -0.0000000
 NQMom=    0.0000000   0.0000000   0.0000000   0.0000000   0.0000000   0.0000000   0.0000000   0.0000000   0.0000000   0.0000000
 NMagM=    0.0000000   0.0000000   0.0000000   0.0000000   0.0000000   0.0000000   0.0000000   0.0000000   0.0000000   0.0000000
 AtZNuc=   8.0000000   6.0000000   6.0000000   8.0000000   8.0000000   6.0000000   6.0000000   6.0000000   6.0000000   6.0000000

  Atom        51          52          53          54          55          56          57          58          59          60
 IAtWgt=          12          12          12          12          12          12          12          12          12          12
 AtmWgt=  12.0000000  12.0000000  12.0000000  12.0000000  12.0000000  12.0000000  12.0000000  12.0000000  12.0000000  12.0000000
 NucSpn=           0           0           0           0           0           0           0           0           0           0
 AtZEff=  -0.0000000  -0.0000000  -0.0000000  -0.0000000  -0.0000000  -0.0000000  -0.0000000  -0.0000000  -0.0000000  -0.0000000
 NQMom=    0.0000000   0.0000000   0.0000000   0.0000000   0.0000000   0.0000000   0.0000000   0.0000000   0.0000000   0.0000000
 NMagM=    0.0000000   0.0000000   0.0000000   0.0000000   0.0000000   0.0000000   0.0000000   0.0000000   0.0000000   0.0000000
 AtZNuc=   6.0000000   6.0000000   6.0000000   6.0000000   6.0000000   6.0000000   6.0000000   6.0000000   6.0000000   6.0000000

  Atom        61          62          63          64          65          66          67          68          69          70
 IAtWgt=          12          12          12          12          12          12           1           1           1           1
 AtmWgt=  12.0000000  12.0000000  12.0000000  12.0000000  12.0000000  12.0000000   1.0078250   1.0078250   1.0078250   1.0078250
 NucSpn=           0           0           0           0           0           0           1           1           1           1
 AtZEff=  -0.0000000  -0.0000000  -0.0000000  -0.0000000  -0.0000000  -0.0000000  -0.0000000  -0.0000000  -0.0000000  -0.0000000
 NQMom=    0.0000000   0.0000000   0.0000000   0.0000000   0.0000000   0.0000000   0.0000000   0.0000000   0.0000000   0.0000000
 NMagM=    0.0000000   0.0000000   0.0000000   0.0000000   0.0000000   0.0000000   2.7928460   2.7928460   2.7928460   2.7928460
 AtZNuc=   6.0000000   6.0000000   6.0000000   6.0000000   6.0000000   6.0000000   1.0000000   1.0000000   1.0000000   1.0000000

  Atom        71          72          73          74          75          76          77          78          79          80
 IAtWgt=           1           1           1           1           1           1           1           1           1           1
 AtmWgt=   1.0078250   1.0078250   1.0078250   1.0078250   1.0078250   1.0078250   1.0078250   1.0078250   1.0078250   1.0078250
 NucSpn=           1           1           1           1           1           1           1           1           1           1
 AtZEff=  -0.0000000  -0.0000000  -0.0000000  -0.0000000  -0.0000000  -0.0000000  -0.0000000  -0.0000000  -0.0000000  -0.0000000
 NQMom=    0.0000000   0.0000000   0.0000000   0.0000000   0.0000000   0.0000000   0.0000000   0.0000000   0.0000000   0.0000000
 NMagM=    2.7928460   2.7928460   2.7928460   2.7928460   2.7928460   2.7928460   2.7928460   2.7928460   2.7928460   2.7928460
 AtZNuc=   1.0000000   1.0000000   1.0000000   1.0000000   1.0000000   1.0000000   1.0000000   1.0000000   1.0000000   1.0000000

  Atom        81          82          83          84          85          86          87          88          89          90
 IAtWgt=           1           1           1           1           1           1           1           1           1           1
 AtmWgt=   1.0078250   1.0078250   1.0078250   1.0078250   1.0078250   1.0078250   1.0078250   1.0078250   1.0078250   1.0078250
 NucSpn=           1           1           1           1           1           1           1           1           1           1
 AtZEff=  -0.0000000  -0.0000000  -0.0000000  -0.0000000  -0.0000000  -0.0000000  -0.0000000  -0.0000000  -0.0000000  -0.0000000
 NQMom=    0.0000000   0.0000000   0.0000000   0.0000000   0.0000000   0.0000000   0.0000000   0.0000000   0.0000000   0.0000000
 NMagM=    2.7928460   2.7928460   2.7928460   2.7928460   2.7928460   2.7928460   2.7928460   2.7928460   2.7928460   2.7928460
 AtZNuc=   1.0000000   1.0000000   1.0000000   1.0000000   1.0000000   1.0000000   1.0000000   1.0000000   1.0000000   1.0000000

  Atom        91          92          93          94          95          96          97          98          99         100
 IAtWgt=           1           1           1           1           1           1           1           1           1           1
 AtmWgt=   1.0078250   1.0078250   1.0078250   1.0078250   1.0078250   1.0078250   1.0078250   1.0078250   1.0078250   1.0078250
 NucSpn=           1           1           1           1           1           1           1           1           1           1
 AtZEff=  -0.0000000  -0.0000000  -0.0000000  -0.0000000  -0.0000000  -0.0000000  -0.0000000  -0.0000000  -0.0000000  -0.0000000
 NQMom=    0.0000000   0.0000000   0.0000000   0.0000000   0.0000000   0.0000000   0.0000000   0.0000000   0.0000000   0.0000000
 NMagM=    2.7928460   2.7928460   2.7928460   2.7928460   2.7928460   2.7928460   2.7928460   2.7928460   2.7928460   2.7928460
 AtZNuc=   1.0000000   1.0000000   1.0000000   1.0000000   1.0000000   1.0000000   1.0000000   1.0000000   1.0000000   1.0000000

  Atom       101         102         103         104         105         106         107         108         109         110
 IAtWgt=           1           1           1           1           1           1           1           1           1           1
 AtmWgt=   1.0078250   1.0078250   1.0078250   1.0078250   1.0078250   1.0078250   1.0078250   1.0078250   1.0078250   1.0078250
 NucSpn=           1           1           1           1           1           1           1           1           1           1
 AtZEff=  -0.0000000  -0.0000000  -0.0000000  -0.0000000  -0.0000000  -0.0000000  -0.0000000  -0.0000000  -0.0000000  -0.0000000
 NQMom=    0.0000000   0.0000000   0.0000000   0.0000000   0.0000000   0.0000000   0.0000000   0.0000000   0.0000000   0.0000000
 NMagM=    2.7928460   2.7928460   2.7928460   2.7928460   2.7928460   2.7928460   2.7928460   2.7928460   2.7928460   2.7928460
 AtZNuc=   1.0000000   1.0000000   1.0000000   1.0000000   1.0000000   1.0000000   1.0000000   1.0000000   1.0000000   1.0000000

  Atom       111         112         113         114         115         116         117         118         119         120
 IAtWgt=           1           1           1           1           1           1           1           1           1           1
 AtmWgt=   1.0078250   1.0078250   1.0078250   1.0078250   1.0078250   1.0078250   1.0078250   1.0078250   1.0078250   1.0078250
 NucSpn=           1           1           1           1           1           1           1           1           1           1
 AtZEff=  -0.0000000  -0.0000000  -0.0000000  -0.0000000  -0.0000000  -0.0000000  -0.0000000  -0.0000000  -0.0000000  -0.0000000
 NQMom=    0.0000000   0.0000000   0.0000000   0.0000000   0.0000000   0.0000000   0.0000000   0.0000000   0.0000000   0.0000000
 NMagM=    2.7928460   2.7928460   2.7928460   2.7928460   2.7928460   2.7928460   2.7928460   2.7928460   2.7928460   2.7928460
 AtZNuc=   1.0000000   1.0000000   1.0000000   1.0000000   1.0000000   1.0000000   1.0000000   1.0000000   1.0000000   1.0000000

  Atom       121         122         123         124         125         126         127         128         129         130
 IAtWgt=           1           1           1           1           1           1           1           1           1           1
 AtmWgt=   1.0078250   1.0078250   1.0078250   1.0078250   1.0078250   1.0078250   1.0078250   1.0078250   1.0078250   1.0078250
 NucSpn=           1           1           1           1           1           1           1           1           1           1
 AtZEff=  -0.0000000  -0.0000000  -0.0000000  -0.0000000  -0.0000000  -0.0000000  -0.0000000  -0.0000000  -0.0000000  -0.0000000
 NQMom=    0.0000000   0.0000000   0.0000000   0.0000000   0.0000000   0.0000000   0.0000000   0.0000000   0.0000000   0.0000000
 NMagM=    2.7928460   2.7928460   2.7928460   2.7928460   2.7928460   2.7928460   2.7928460   2.7928460   2.7928460   2.7928460
 AtZNuc=   1.0000000   1.0000000   1.0000000   1.0000000   1.0000000   1.0000000   1.0000000   1.0000000   1.0000000   1.0000000

  Atom       131         132         133         134         135         136         137         138         139         140
 IAtWgt=           1           1           1           1           1           1           1           1           1           1
 AtmWgt=   1.0078250   1.0078250   1.0078250   1.0078250   1.0078250   1.0078250   1.0078250   1.0078250   1.0078250   1.0078250
 NucSpn=           1           1           1           1           1           1           1           1           1           1
 AtZEff=  -0.0000000  -0.0000000  -0.0000000  -0.0000000  -0.0000000  -0.0000000  -0.0000000  -0.0000000  -0.0000000  -0.0000000
 NQMom=    0.0000000   0.0000000   0.0000000   0.0000000   0.0000000   0.0000000   0.0000000   0.0000000   0.0000000   0.0000000
 NMagM=    2.7928460   2.7928460   2.7928460   2.7928460   2.7928460   2.7928460   2.7928460   2.7928460   2.7928460   2.7928460
 AtZNuc=   1.0000000   1.0000000   1.0000000   1.0000000   1.0000000   1.0000000   1.0000000   1.0000000   1.0000000   1.0000000
 Leave Link  101 at Wed May  4 13:03:33 2022, MaxMem= 10066329600 cpu:               4.3 elap:               0.2
 (Enter /sw/apps/gaussian-16.0/g16/l202.exe)
 Stoichiometry    C55H74MgN4O6
 Framework group  C1[X(C55H74MgN4O6)]
 Deg. of freedom   414
 Full point group                 C1      NOp   1
 Largest Abelian subgroup         C1      NOp   1
 Largest concise Abelian subgroup C1      NOp   1
                         Standard orientation:                         
 ---------------------------------------------------------------------
 Center     Atomic      Atomic             Coordinates (Angstroms)
 Number     Number       Type             X           Y           Z
 ---------------------------------------------------------------------
      1         12           0       -5.883556    0.412844   -0.218404
      2          6           0       -3.501475   -2.199495   -0.292960
      3          6           0       -3.320211    2.636733   -0.078743
      4          6           0       -8.154483    2.688619    0.244677
      5          6           0       -8.340080   -2.109374   -0.294418
      6          7           0       -3.582137    0.246149   -0.447912
      7          6           0       -2.902623   -0.964611   -0.326591
      8          6           0       -1.384821   -0.648117   -0.202839
      9          6           0       -1.346369    0.856052    0.098088
     10          6           0       -2.798362    1.327605   -0.184945
     11          6           0       -0.890052    1.220059    1.657218
     12          6           0       -0.619273   -1.212703   -1.452599
     13          6           0        0.687774   -1.994804   -1.223385
     14          6           0        1.635643   -1.587349   -0.021004
     15          8           0        1.350069   -1.789830    1.150362
     16          8           0        2.815831   -0.989267   -0.424063
     17          7           0       -5.801979    2.455784    0.073803
     18          6           0       -4.606360    3.239347   -0.036692
     19          6           0       -4.922056    4.594874    0.169168
     20          6           0       -6.349929    4.625378    0.432701
     21          6           0       -6.813782    3.184720    0.267023
     22          6           0       -3.941166    5.624795   -0.043856
     23          6           0       -7.245154    5.877178    0.517574
     24          8           0       -8.456863    5.783041    0.681311
     25          6           0       -6.688316    7.270186    0.393100
     26          7           0       -8.004658    0.273784    0.121742
     27          6           0       -8.703121    1.364599    0.172726
     28          6           0      -10.234927    1.123978    0.081611
     29          6           0      -10.243902   -0.438717   -0.323484
     30          6           0       -8.789909   -0.803542   -0.121431
     31          6           0      -10.949342    1.357625    1.427783
     32          6           0      -10.904600   -0.701317   -1.684129
     33          6           0      -10.107860   -0.483794   -2.994174
     34          7           0       -5.986109   -1.799172   -0.138948
     35          6           0       -7.090008   -2.647798   -0.206997
     36          6           0       -6.596806   -3.963629   -0.362639
     37          6           0       -5.167417   -3.882704   -0.304543
     38          6           0       -4.870362   -2.532033   -0.238973
     39          6           0       -7.394816   -5.219624   -0.366430
     40          6           0       -3.902957   -4.586150   -0.218799
     41          8           0       -3.615353   -5.773169   -0.190154
     42          6           0       -2.819262   -3.544847   -0.214237
     43          6           0       -2.136857   -3.640796    1.159287
     44          8           0       -2.307859   -2.935364    2.092298
     45          8           0       -1.147362   -4.536807    1.116430
     46          6           0       -0.144639   -4.553557    2.239085
     47          6           0        3.918322   -0.896904    0.601718
     48          6           0        5.282845   -1.009347    0.201215
     49          6           0        6.384114   -0.669356    0.918425
     50          6           0        6.512517   -0.150065    2.289145
     51          6           0        7.795199   -0.885510    0.284560
     52          6           0        8.234020    0.331699   -0.473271
     53          6           0        8.902289   -0.052062   -1.868303
     54          6           0        9.501110    1.172450   -2.582638
     55          6           0        8.534322    2.332367   -3.078984
     56          6           0       10.444801    0.819073   -3.784122
     57          6           0       11.971198    1.148488   -3.513383
     58          6           0       12.700657    0.024804   -2.706970
     59          6           0       13.327881    0.565565   -1.390595
     60          6           0       14.761561   -0.039557   -1.404906
     61          6           0       12.529427    0.091430   -0.176577
     62          6           0       13.008224    0.793421    1.175017
     63          6           0       11.748159    1.296409    1.953132
     64          6           0       11.915731    1.028596    3.439330
     65          6           0       11.503770   -0.450983    3.762123
     66          6           0       11.193049    2.118767    4.188182
     67          1           0       -2.523887    3.365166    0.085277
     68          1           0       -8.924102    3.464154    0.246813
     69          1           0       -8.986049   -2.901272   -0.679426
     70          1           0       -1.095224   -1.182204    0.702590
     71          1           0       -0.624559    1.201333   -0.642121
     72          1           0       -1.784450    1.527340    2.198779
     73          1           0       -0.211786    2.072343    1.615169
     74          1           0       -0.388643    0.428860    2.213557
     75          1           0       -0.439619   -0.424737   -2.183227
     76          1           0       -1.283815   -1.876224   -2.005779
     77          1           0        1.194068   -1.897680   -2.183828
     78          1           0        0.481704   -3.013543   -0.896680
     79          1           0       -2.902565    5.296978   -0.086625
     80          1           0       -3.906543    6.291893    0.816692
     81          1           0       -4.212866    5.938698   -1.051906
     82          1           0       -6.100092    7.409581   -0.514177
     83          1           0       -6.014830    7.362928    1.244698
     84          1           0       -7.529778    7.955285    0.500905
     85          1           0      -10.706330    1.738080   -0.685474
     86          1           0      -10.699041   -1.150994    0.364902
     87          1           0      -10.196015    1.707664    2.132922
     88          1           0      -11.548257    0.569301    1.883558
     89          1           0      -11.579639    2.240328    1.323011
     90          1           0      -11.790986   -0.069093   -1.628054
     91          1           0      -11.377443   -1.683660   -1.698653
     92          1           0      -10.727582    0.211632   -3.561124
     93          1           0       -9.974162   -1.378750   -3.600569
     94          1           0       -9.107638   -0.074705   -2.845472
     95          1           0       -6.886193   -6.092813   -0.773446
     96          1           0       -8.362211   -5.077752   -0.849752
     97          1           0       -7.652497   -5.525217    0.647660
     98          1           0       -1.979176   -3.656425   -0.899911
     99          1           0       -0.275740   -3.891911    3.096197
    100          1           0        0.824873   -4.446936    1.752915
    101          1           0       -0.146079   -5.555810    2.667638
    102          1           0        3.800846   -1.764681    1.251983
    103          1           0        3.925106    0.025602    1.181209
    104          1           0        5.321862   -1.321679   -0.842659
    105          1           0        5.609906   -0.515210    2.778623
    106          1           0        6.527824    0.939584    2.288192
    107          1           0        7.153863   -0.718815    2.961420
    108          1           0        7.800472   -1.701059   -0.438465
    109          1           0        8.433685   -1.065921    1.149119
    110          1           0        8.864431    0.868019    0.236126
    111          1           0        7.423148    1.030669   -0.678310
    112          1           0        7.996308   -0.364416   -2.387513
    113          1           0        9.592969   -0.891834   -1.785368
    114          1           0       10.099014    1.748947   -1.876722
    115          1           0        7.550580    2.210497   -2.627019
    116          1           0        8.395960    2.427461   -4.155823
    117          1           0        8.993453    3.272696   -2.771818
    118          1           0       10.152388    1.234127   -4.748133
    119          1           0       10.356326   -0.259410   -3.912714
    120          1           0       12.090794    2.154349   -3.112884
    121          1           0       12.403952    1.285595   -4.504879
    122          1           0       13.464178   -0.206865   -3.449835
    123          1           0       12.019349   -0.815000   -2.570901
    124          1           0       13.315222    1.655991   -1.394906
    125          1           0       14.933629   -0.611532   -0.492805
    126          1           0       15.492500    0.764364   -1.484671
    127          1           0       14.947482   -0.753571   -2.206282
    128          1           0       12.673061   -0.987226   -0.122165
    129          1           0       11.479757    0.283034   -0.399191
    130          1           0       13.518716    1.703745    0.859980
    131          1           0       13.600307    0.129884    1.806813
    132          1           0       10.835373    0.889472    1.518123
    133          1           0       11.748439    2.381817    1.855395
    134          1           0       12.981239    1.079470    3.660019
    135          1           0       10.609314   -0.571611    4.373671
    136          1           0       12.313353   -0.853568    4.370434
    137          1           0       11.430550   -1.051859    2.855980
    138          1           0       10.407759    2.565286    3.577718
    139          1           0       11.904753    2.911065    4.421033
    140          1           0       10.720527    1.675555    5.065122
 ---------------------------------------------------------------------
 Rotational constants (GHZ):           0.0549794           0.0091510           0.0084278
 Leave Link  202 at Wed May  4 13:03:33 2022, MaxMem= 10066329600 cpu:               0.3 elap:               0.0
 (Enter /sw/apps/gaussian-16.0/g16/l301.exe)
 Standard basis: def2SVP (5D, 7F)
 Ernie: Thresh=  0.10000D-02 Tol=  0.10000D-05 Strict=F.
 There are  1364 symmetry adapted cartesian basis functions of A   symmetry.
 There are  1298 symmetry adapted basis functions of A   symmetry.
  1298 basis functions,  2180 primitive gaussians,  1364 cartesian basis functions
   246 alpha electrons      246 beta electrons
       nuclear repulsion energy      9583.0724822841 Hartrees.
 IExCor= 1009 DFT=T Ex+Corr=PBE1PBE ExCW=0 ScaHFX=  0.250000
 ScaDFX=  0.750000  0.750000  1.000000  1.000000 ScalE2=  1.000000  1.000000
 IRadAn=      5 IRanWt=     -1 IRanGd=            0 ICorTp=0 IEmpDi=  4
 NAtoms=  140 NActive=  140 NUniq=  140 SFac= 1.00D+00 NAtFMM=   60 NAOKFM=T Big=T
 Integral buffers will be    131072 words long.
 Regular integral format.
 Two-electron integral symmetry is turned on.
 Leave Link  301 at Wed May  4 13:03:33 2022, MaxMem= 10066329600 cpu:               1.3 elap:               0.1
 (Enter /sw/apps/gaussian-16.0/g16/l302.exe)
 NPDir=0 NMtPBC=     1 NCelOv=     1 NCel=       1 NClECP=     1 NCelD=      1
         NCelK=      1 NCelE2=     1 NClLst=     1 CellRange=     0.0.
 One-electron integrals computed using PRISM.
 One-electron integral symmetry used in STVInt
   1 Symmetry operations used in ECPInt.
 ECPInt:  NShTT=  192510 NPrTT=  683786 LenC2=   93896 LenP2D=  207728.
 LDataN:  DoStor=T MaxTD1= 4 Len=   56
 NBasis=  1298 RedAO= T EigKep=  2.43D-04  NBF=  1298
 NBsUse=  1298 1.00D-06 EigRej= -1.00D+00 NBFU=  1298
 Precomputing XC quadrature grid using
 IXCGrd= 4 IRadAn=           5 IRanWt=          -1 IRanGd=           0 AccXCQ= 0.00D+00.
 Generated NRdTot=       0 NPtTot=           0 NUsed=           0 NTot=          32
 NSgBfM=  1000   971   986   995  1000 MxSgAt=   140 MxSgA2=   140.
 Leave Link  302 at Wed May  4 13:03:36 2022, MaxMem= 10066329600 cpu:              83.1 elap:               3.5
 (Enter /sw/apps/gaussian-16.0/g16/l303.exe)
 DipDrv:  MaxL=1.
 Leave Link  303 at Wed May  4 13:03:37 2022, MaxMem= 10066329600 cpu:               7.2 elap:               0.3
 (Enter /sw/apps/gaussian-16.0/g16/l308.exe)
 Leave Link  308 at Wed May  4 13:03:37 2022, MaxMem= 10066329600 cpu:               9.3 elap:               0.5
 (Enter /sw/apps/gaussian-16.0/g16/l401.exe)
 ExpMin= 3.36D-02 ExpMax= 4.95D+03 ExpMxC= 7.45D+02 IAcc=3 IRadAn=         5 AccDes= 0.00D+00
 Harris functional with IExCor= 1009 and IRadAn=       5 diagonalized for initial guess.
 HarFok:  IExCor= 1009 AccDes= 0.00D+00 IRadAn=         5 IDoV= 1 UseB2=F ITyADJ=14
 ICtDFT=  3500011 ScaDFX=  1.000000  1.000000  1.000000  1.000000
 FoFCou: FMM=F IPFlag=           0 FMFlag=      100000 FMFlg1=        2001
         NFxFlg=           0 DoJE=T BraDBF=F KetDBF=T FulRan=T
         wScrn=  0.000000 ICntrl=       500 IOpCl=  0 I1Cent=   200000004 NGrid=           0
         NMat0=    1 NMatS0=      1 NMatT0=    0 NMatD0=    1 NMtDS0=    0 NMtDT0=    0
 Petite list used in FoFCou.
 Harris En= -3006.11522657479    
 JPrj=0 DoOrth=F DoCkMO=F.
 Leave Link  401 at Wed May  4 13:03:44 2022, MaxMem= 10066329600 cpu:             156.3 elap:               6.5
 (Enter /sw/apps/gaussian-16.0/g16/l502.exe)
 Integral symmetry usage will be decided dynamically.
 Closed shell SCF:
 Using DIIS extrapolation, IDIIS=  1040.
 NGot= 10066329600 LenX= 10062561258 LenY= 10060699398
 Requested convergence on RMS density matrix=1.00D-08 within 128 cycles.
 Requested convergence on MAX density matrix=1.00D-06.
 Requested convergence on             energy=1.00D-06.
 No special actions if energy rises.
 Fock matrices will be formed incrementally for  20 cycles.

 Cycle   1  Pass 1  IDiag  1:
 FoFJK:  IHMeth= 1 ICntrl=       0 DoSepK=F KAlg= 0 I1Cent=           0 FoldK=F
 IRaf= 530000000 NMat=       1 IRICut=       1 DoRegI=T DoRafI=F ISym2E= 0 IDoP0=0 IntGTp=1.
 FoFCou: FMM=T IPFlag=           0 FMFlag=      100000 FMFlg1=        2001
         NFxFlg=           0 DoJE=F BraDBF=F KetDBF=F FulRan=T
         wScrn=  0.000000 ICntrl=         0 IOpCl=  0 I1Cent=           0 NGrid=           0
         NMat0=    1 NMatS0=      1 NMatT0=    0 NMatD0=    1 NMtDS0=    0 NMtDT0=    0
 Symmetry not used in FoFCou.
 FMM levels:  10  Number of levels for PrismC:   9
 E= -3003.75800511559    
 DIIS: error= 2.50D-02 at cycle   1 NSaved=   1.
 NSaved= 1 IEnMin= 1 EnMin= -3003.75800511559     IErMin= 1 ErrMin= 2.50D-02
 ErrMax= 2.50D-02  0.00D+00 EMaxC= 1.00D-01 BMatC= 1.46D+00 BMatP= 1.46D+00
 IDIUse=3 WtCom= 7.50D-01 WtEn= 2.50D-01
 Coeff-Com:  0.100D+01
 Coeff-En:   0.100D+01
 Coeff:      0.100D+01
 Gap=     0.066 Goal=   None    Shift=    0.000
 GapD=    0.066 DampG=0.500 DampE=0.500 DampFc=0.2500 IDamp=-1.
 Damping current iteration by 2.50D-01
 RMSDP=2.81D-03 MaxDP=7.46D-01              OVMax= 4.26D-01

 Cycle   2  Pass 1  IDiag  1:
 RMSU=  6.95D-04    CP:  9.89D-01
 E= -3004.31007517923     Delta-E=       -0.552070063633 Rises=F Damp=T
 DIIS: error= 1.30D-02 at cycle   2 NSaved=   2.
 NSaved= 2 IEnMin= 2 EnMin= -3004.31007517923     IErMin= 2 ErrMin= 1.30D-02
 ErrMax= 1.30D-02  0.00D+00 EMaxC= 1.00D-01 BMatC= 3.68D-01 BMatP= 1.46D+00
 IDIUse=3 WtCom= 8.70D-01 WtEn= 1.30D-01
 Coeff-Com: -0.779D+00 0.178D+01
 Coeff-En:   0.000D+00 0.100D+01
 Coeff:     -0.678D+00 0.168D+01
 Gap=     0.159 Goal=   None    Shift=    0.000
 RMSDP=1.03D-03 MaxDP=6.52D-02 DE=-5.52D-01 OVMax= 4.89D-01

 Cycle   3  Pass 1  IDiag  1:
 RMSU=  8.78D-04    CP:  9.63D-01  1.71D+00
 E= -3005.12144274069     Delta-E=       -0.811367561462 Rises=F Damp=F
 DIIS: error= 1.08D-02 at cycle   3 NSaved=   3.
 NSaved= 3 IEnMin= 3 EnMin= -3005.12144274069     IErMin= 3 ErrMin= 1.08D-02
 ErrMax= 1.08D-02  0.00D+00 EMaxC= 1.00D-01 BMatC= 1.71D-01 BMatP= 3.68D-01
 IDIUse=3 WtCom= 8.92D-01 WtEn= 1.08D-01
 Coeff-Com: -0.489D+00 0.105D+01 0.436D+00
 Coeff-En:   0.000D+00 0.000D+00 0.100D+01
 Coeff:     -0.436D+00 0.938D+00 0.497D+00
 Gap=     0.065 Goal=   None    Shift=    0.000
 RMSDP=6.96D-04 MaxDP=7.14D-02 DE=-8.11D-01 OVMax= 4.25D-01

 Cycle   4  Pass 1  IDiag  1:
 RMSU=  4.78D-04    CP:  9.68D-01  1.95D+00  4.58D-01
 E= -3005.22202700383     Delta-E=       -0.100584263146 Rises=F Damp=F
 DIIS: error= 5.75D-03 at cycle   4 NSaved=   4.
 NSaved= 4 IEnMin= 4 EnMin= -3005.22202700383     IErMin= 4 ErrMin= 5.75D-03
 ErrMax= 5.75D-03  0.00D+00 EMaxC= 1.00D-01 BMatC= 6.15D-02 BMatP= 1.71D-01
 IDIUse=3 WtCom= 9.42D-01 WtEn= 5.75D-02
 Coeff-Com: -0.162D+00 0.355D+00 0.358D+00 0.449D+00
 Coeff-En:   0.000D+00 0.000D+00 0.351D+00 0.649D+00
 Coeff:     -0.153D+00 0.335D+00 0.358D+00 0.461D+00
 Gap=     0.070 Goal=   None    Shift=    0.000
 RMSDP=4.36D-04 MaxDP=3.90D-02 DE=-1.01D-01 OVMax= 3.30D-01

 Cycle   5  Pass 1  IDiag  1:
 RMSU=  2.09D-04    CP:  9.68D-01  1.83D+00  7.01D-01  3.54D-01
 E= -3005.28178760733     Delta-E=       -0.059760603492 Rises=F Damp=F
 DIIS: error= 3.01D-03 at cycle   5 NSaved=   5.
 NSaved= 5 IEnMin= 5 EnMin= -3005.28178760733     IErMin= 5 ErrMin= 3.01D-03
 ErrMax= 3.01D-03  0.00D+00 EMaxC= 1.00D-01 BMatC= 1.63D-02 BMatP= 6.15D-02
 IDIUse=3 WtCom= 9.70D-01 WtEn= 3.01D-02
 Coeff-Com: -0.319D-01 0.752D-01 0.204D+00 0.377D+00 0.376D+00
 Coeff-En:   0.000D+00 0.000D+00 0.000D+00 0.265D+00 0.735D+00
 Coeff:     -0.310D-01 0.729D-01 0.198D+00 0.374D+00 0.386D+00
 Gap=     0.073 Goal=   None    Shift=    0.000
 RMSDP=1.88D-04 MaxDP=2.82D-02 DE=-5.98D-02 OVMax= 1.36D-01

 Cycle   6  Pass 1  IDiag  1:
 RMSU=  6.93D-05    CP:  9.68D-01  1.83D+00  6.50D-01  5.74D-01  3.67D-01
 E= -3005.30367260554     Delta-E=       -0.021884998214 Rises=F Damp=F
 DIIS: error= 7.31D-04 at cycle   6 NSaved=   6.
 NSaved= 6 IEnMin= 6 EnMin= -3005.30367260554     IErMin= 6 ErrMin= 7.31D-04
 ErrMax= 7.31D-04  0.00D+00 EMaxC= 1.00D-01 BMatC= 6.56D-04 BMatP= 1.63D-02
 IDIUse=3 WtCom= 9.93D-01 WtEn= 7.31D-03
 Coeff-Com:  0.359D-02-0.561D-02 0.476D-01 0.120D+00 0.206D+00 0.628D+00
 Coeff-En:   0.000D+00 0.000D+00 0.000D+00 0.000D+00 0.000D+00 0.100D+01
 Coeff:      0.356D-02-0.557D-02 0.472D-01 0.120D+00 0.205D+00 0.630D+00
 Gap=     0.076 Goal=   None    Shift=    0.000
 RMSDP=3.87D-05 MaxDP=4.01D-03 DE=-2.19D-02 OVMax= 2.23D-02

 Cycle   7  Pass 1  IDiag  1:
 RMSU=  2.69D-05    CP:  9.67D-01  1.83D+00  6.60D-01  5.53D-01  4.57D-01
                    CP:  7.78D-01
 E= -3005.30423705921     Delta-E=       -0.000564453667 Rises=F Damp=F
 DIIS: error= 3.87D-04 at cycle   7 NSaved=   7.
 NSaved= 7 IEnMin= 7 EnMin= -3005.30423705921     IErMin= 7 ErrMin= 3.87D-04
 ErrMax= 3.87D-04  0.00D+00 EMaxC= 1.00D-01 BMatC= 1.57D-04 BMatP= 6.56D-04
 IDIUse=3 WtCom= 9.96D-01 WtEn= 3.87D-03
 Coeff-Com:  0.409D-02-0.851D-02 0.549D-02 0.269D-01 0.771D-01 0.398D+00
 Coeff-Com:  0.497D+00
 Coeff-En:   0.000D+00 0.000D+00 0.000D+00 0.000D+00 0.000D+00 0.198D+00
 Coeff-En:   0.802D+00
 Coeff:      0.408D-02-0.848D-02 0.547D-02 0.268D-01 0.768D-01 0.397D+00
 Coeff:      0.498D+00
 Gap=     0.077 Goal=   None    Shift=    0.000
 RMSDP=1.87D-05 MaxDP=2.30D-03 DE=-5.64D-04 OVMax= 8.95D-03

 Cycle   8  Pass 1  IDiag  1:
 RMSU=  1.16D-05    CP:  9.67D-01  1.83D+00  6.58D-01  5.58D-01  4.47D-01
                    CP:  8.41D-01  4.95D-01
 E= -3005.30437256796     Delta-E=       -0.000135508755 Rises=F Damp=F
 DIIS: error= 1.17D-04 at cycle   8 NSaved=   8.
 NSaved= 8 IEnMin= 8 EnMin= -3005.30437256796     IErMin= 8 ErrMin= 1.17D-04
 ErrMax= 1.17D-04  0.00D+00 EMaxC= 1.00D-01 BMatC= 3.01D-05 BMatP= 1.57D-04
 IDIUse=3 WtCom= 9.99D-01 WtEn= 1.17D-03
 Coeff-Com:  0.186D-02-0.409D-02-0.195D-02 0.287D-02 0.265D-01 0.195D+00
 Coeff-Com:  0.348D+00 0.432D+00
 Coeff-En:   0.000D+00 0.000D+00 0.000D+00 0.000D+00 0.000D+00 0.000D+00
 Coeff-En:   0.199D+00 0.801D+00
 Coeff:      0.186D-02-0.408D-02-0.195D-02 0.287D-02 0.264D-01 0.194D+00
 Coeff:      0.348D+00 0.432D+00
 Gap=     0.077 Goal=   None    Shift=    0.000
 RMSDP=8.84D-06 MaxDP=9.41D-04 DE=-1.36D-04 OVMax= 5.30D-03

 Cycle   9  Pass 1  IDiag  1:
 RMSU=  4.40D-06    CP:  9.68D-01  1.83D+00  6.58D-01  5.58D-01  4.53D-01
                    CP:  8.33D-01  6.34D-01  4.34D-01
 E= -3005.30440734496     Delta-E=       -0.000034776995 Rises=F Damp=F
 DIIS: error= 4.62D-05 at cycle   9 NSaved=   9.
 NSaved= 9 IEnMin= 9 EnMin= -3005.30440734496     IErMin= 9 ErrMin= 4.62D-05
 ErrMax= 4.62D-05  0.00D+00 EMaxC= 1.00D-01 BMatC= 3.75D-06 BMatP= 3.01D-05
 IDIUse=1 WtCom= 1.00D+00 WtEn= 0.00D+00
 Coeff-Com:  0.508D-03-0.117D-02-0.217D-02-0.254D-02 0.613D-02 0.737D-01
 Coeff-Com:  0.169D+00 0.296D+00 0.461D+00
 Coeff:      0.508D-03-0.117D-02-0.217D-02-0.254D-02 0.613D-02 0.737D-01
 Coeff:      0.169D+00 0.296D+00 0.461D+00
 Gap=     0.077 Goal=   None    Shift=    0.000
 RMSDP=2.91D-06 MaxDP=5.81D-04 DE=-3.48D-05 OVMax= 1.58D-03

 Cycle  10  Pass 1  IDiag  1:
 RMSU=  1.75D-06    CP:  9.68D-01  1.83D+00  6.59D-01  5.58D-01  4.52D-01
                    CP:  8.45D-01  6.17D-01  5.53D-01  6.70D-01
 E= -3005.30441141750     Delta-E=       -0.000004072543 Rises=F Damp=F
 DIIS: error= 1.77D-05 at cycle  10 NSaved=  10.
 NSaved=10 IEnMin=10 EnMin= -3005.30441141750     IErMin=10 ErrMin= 1.77D-05
 ErrMax= 1.77D-05  0.00D+00 EMaxC= 1.00D-01 BMatC= 4.17D-07 BMatP= 3.75D-06
 IDIUse=1 WtCom= 1.00D+00 WtEn= 0.00D+00
 Coeff-Com: -0.514D-05-0.805D-05-0.976D-03-0.206D-02-0.677D-03 0.137D-01
 Coeff-Com:  0.500D-01 0.118D+00 0.287D+00 0.535D+00
 Coeff:     -0.514D-05-0.805D-05-0.976D-03-0.206D-02-0.677D-03 0.137D-01
 Coeff:      0.500D-01 0.118D+00 0.287D+00 0.535D+00
 Gap=     0.077 Goal=   None    Shift=    0.000
 RMSDP=9.40D-07 MaxDP=1.14D-04 DE=-4.07D-06 OVMax= 4.85D-04

 Cycle  11  Pass 1  IDiag  1:
 RMSU=  6.16D-07    CP:  9.68D-01  1.83D+00  6.58D-01  5.58D-01  4.52D-01
                    CP:  8.44D-01  6.24D-01  5.47D-01  7.57D-01  6.97D-01
 E= -3005.30441185719     Delta-E=       -0.000000439693 Rises=F Damp=F
 DIIS: error= 5.57D-06 at cycle  11 NSaved=  11.
 NSaved=11 IEnMin=11 EnMin= -3005.30441185719     IErMin=11 ErrMin= 5.57D-06
 ErrMax= 5.57D-06  0.00D+00 EMaxC= 1.00D-01 BMatC= 7.26D-08 BMatP= 4.17D-07
 IDIUse=1 WtCom= 1.00D+00 WtEn= 0.00D+00
 Coeff-Com: -0.575D-04 0.131D-03-0.355D-03-0.103D-02-0.154D-02-0.243D-02
 Coeff-Com:  0.731D-02 0.323D-01 0.108D+00 0.344D+00 0.514D+00
 Coeff:     -0.575D-04 0.131D-03-0.355D-03-0.103D-02-0.154D-02-0.243D-02
 Coeff:      0.731D-02 0.323D-01 0.108D+00 0.344D+00 0.514D+00
 Gap=     0.077 Goal=   None    Shift=    0.000
 RMSDP=3.48D-07 MaxDP=2.78D-05 DE=-4.40D-07 OVMax= 1.12D-04

 Cycle  12  Pass 1  IDiag  1:
 RMSU=  2.26D-07    CP:  9.68D-01  1.83D+00  6.59D-01  5.58D-01  4.52D-01
                    CP:  8.45D-01  6.28D-01  5.57D-01  7.62D-01  7.83D-01
                    CP:  7.83D-01
 E= -3005.30441193410     Delta-E=       -0.000000076912 Rises=F Damp=F
 DIIS: error= 1.57D-06 at cycle  12 NSaved=  12.
 NSaved=12 IEnMin=12 EnMin= -3005.30441193410     IErMin=12 ErrMin= 1.57D-06
 ErrMax= 1.57D-06  0.00D+00 EMaxC= 1.00D-01 BMatC= 6.61D-09 BMatP= 7.26D-08
 IDIUse=1 WtCom= 1.00D+00 WtEn= 0.00D+00
 Coeff-Com: -0.157D-04 0.467D-04-0.278D-04-0.173D-03-0.740D-03-0.360D-02
 Coeff-Com: -0.432D-02-0.209D-02 0.492D-02 0.100D+00 0.263D+00 0.643D+00
 Coeff:     -0.157D-04 0.467D-04-0.278D-04-0.173D-03-0.740D-03-0.360D-02
 Coeff:     -0.432D-02-0.209D-02 0.492D-02 0.100D+00 0.263D+00 0.643D+00
 Gap=     0.077 Goal=   None    Shift=    0.000
 RMSDP=1.50D-07 MaxDP=2.13D-05 DE=-7.69D-08 OVMax= 6.00D-05

 Cycle  13  Pass 1  IDiag  1:
 RMSU=  1.05D-07    CP:  9.68D-01  1.83D+00  6.59D-01  5.57D-01  4.52D-01
                    CP:  8.46D-01  6.28D-01  5.59D-01  7.72D-01  7.98D-01
                    CP:  8.84D-01  7.39D-01
 E= -3005.30441194015     Delta-E=       -0.000000006048 Rises=F Damp=F
 DIIS: error= 8.37D-07 at cycle  13 NSaved=  13.
 NSaved=13 IEnMin=13 EnMin= -3005.30441194015     IErMin=13 ErrMin= 8.37D-07
 ErrMax= 8.37D-07  0.00D+00 EMaxC= 1.00D-01 BMatC= 2.44D-09 BMatP= 6.61D-09
 IDIUse=1 WtCom= 1.00D+00 WtEn= 0.00D+00
 Coeff-Com: -0.170D-05 0.116D-04 0.403D-04 0.589D-04-0.295D-03-0.226D-02
 Coeff-Com: -0.472D-02-0.748D-02-0.182D-01 0.808D-02 0.797D-01 0.435D+00
 Coeff-Com:  0.510D+00
 Coeff:     -0.170D-05 0.116D-04 0.403D-04 0.589D-04-0.295D-03-0.226D-02
 Coeff:     -0.472D-02-0.748D-02-0.182D-01 0.808D-02 0.797D-01 0.435D+00
 Coeff:      0.510D+00
 Gap=     0.077 Goal=   None    Shift=    0.000
 RMSDP=6.77D-08 MaxDP=6.81D-06 DE=-6.05D-09 OVMax= 2.22D-05

 Cycle  14  Pass 1  IDiag  1:
 RMSU=  3.98D-08    CP:  9.68D-01  1.83D+00  6.59D-01  5.58D-01  4.52D-01
                    CP:  8.46D-01  6.28D-01  5.60D-01  7.75D-01  8.12D-01
                    CP:  8.84D-01  8.72D-01  7.04D-01
 E= -3005.30441194308     Delta-E=       -0.000000002925 Rises=F Damp=F
 DIIS: error= 4.22D-07 at cycle  14 NSaved=  14.
 NSaved=14 IEnMin=14 EnMin= -3005.30441194308     IErMin=14 ErrMin= 4.22D-07
 ErrMax= 4.22D-07  0.00D+00 EMaxC= 1.00D-01 BMatC= 2.45D-10 BMatP= 2.44D-09
 IDIUse=1 WtCom= 1.00D+00 WtEn= 0.00D+00
 Coeff-Com:  0.227D-05-0.187D-05 0.263D-04 0.618D-04-0.767D-04-0.794D-03
 Coeff-Com: -0.216D-02-0.374D-02-0.115D-01-0.702D-02 0.109D-01 0.172D+00
 Coeff-Com:  0.297D+00 0.545D+00
 Coeff:      0.227D-05-0.187D-05 0.263D-04 0.618D-04-0.767D-04-0.794D-03
 Coeff:     -0.216D-02-0.374D-02-0.115D-01-0.702D-02 0.109D-01 0.172D+00
 Coeff:      0.297D+00 0.545D+00
 Gap=     0.077 Goal=   None    Shift=    0.000
 RMSDP=2.17D-08 MaxDP=3.22D-06 DE=-2.92D-09 OVMax= 8.62D-06

 Cycle  15  Pass 1  IDiag  1:
 RMSU=  1.59D-08    CP:  9.68D-01  1.83D+00  6.59D-01  5.58D-01  4.52D-01
                    CP:  8.46D-01  6.28D-01  5.60D-01  7.75D-01  8.12D-01
                    CP:  8.99D-01  8.88D-01  7.78D-01  8.98D-01
 E= -3005.30441194332     Delta-E=       -0.000000000238 Rises=F Damp=F
 DIIS: error= 1.62D-07 at cycle  15 NSaved=  15.
 NSaved=15 IEnMin=15 EnMin= -3005.30441194332     IErMin=15 ErrMin= 1.62D-07
 ErrMax= 1.62D-07  0.00D+00 EMaxC= 1.00D-01 BMatC= 3.64D-11 BMatP= 2.45D-10
 IDIUse=1 WtCom= 1.00D+00 WtEn= 0.00D+00
 Coeff-Com:  0.886D-06-0.177D-05 0.703D-05 0.242D-04 0.260D-05-0.373D-04
 Coeff-Com: -0.403D-03-0.559D-03-0.324D-02-0.443D-02-0.724D-02 0.197D-01
 Coeff-Com:  0.678D-01 0.288D+00 0.641D+00
 Coeff:      0.886D-06-0.177D-05 0.703D-05 0.242D-04 0.260D-05-0.373D-04
 Coeff:     -0.403D-03-0.559D-03-0.324D-02-0.443D-02-0.724D-02 0.197D-01
 Coeff:      0.678D-01 0.288D+00 0.641D+00
 Gap=     0.077 Goal=   None    Shift=    0.000
 RMSDP=9.00D-09 MaxDP=6.58D-07 DE=-2.38D-10 OVMax= 4.36D-06

 SCF Done:  E(RPBE1PBE) =  -3005.30441194     A.U. after   15 cycles
            NFock= 15  Conv=0.90D-08     -V/T= 2.0101
 KE= 2.975339106838D+03 PE=-2.615796633614D+04 EE= 1.059425033507D+04
 Leave Link  502 at Wed May  4 13:08:29 2022, MaxMem= 10066329600 cpu:            6813.4 elap:             285.7
 (Enter /sw/apps/gaussian-16.0/g16/l801.exe)
 DoSCS=F DFT=T ScalE2(SS,OS)=  1.000000  1.000000
 ExpMin= 3.36D-02 ExpMax= 4.95D+03 ExpMxC= 7.45D+02 IAcc=3 IRadAn=         5 AccDes= 0.00D+00
 HarFok:  IExCor=  205 AccDes= 0.00D+00 IRadAn=         5 IDoV=-2 UseB2=F ITyADJ=14
 ICtDFT= 12500011 ScaDFX=  1.000000  1.000000  1.000000  1.000000
 GSVD:  LWork=       -5460 too small for GESVD, short by       25550 words or       25550 for optimal perf.
 Largest valence mixing into a core orbital is  1.14D-04
 Largest core mixing into a valence orbital is  5.45D-05
 Range of M.O.s used for correlation:    71  1298
 NBasis=  1298 NAE=   246 NBE=   246 NFC=    70 NFV=     0
 NROrb=   1228 NOA=   176 NOB=   176 NVA=  1052 NVB=  1052

 **** Warning!!: The largest alpha MO coefficient is  0.12763105D+02


 **** Warning!!: The smallest alpha delta epsilon is  0.76800731D-01

 Leave Link  801 at Wed May  4 13:08:30 2022, MaxMem= 10066329600 cpu:               7.4 elap:               0.3
 (Enter /sw/apps/gaussian-16.0/g16/l914.exe)
 RHF ground state
 Two-electron integrals replicated using symmetry.
 MDV= 10066329600 DFT=T DoStab=F Mixed=T DoRPA=T DoScal=F NonHer=T
 Making orbital integer symmetry assigments:
 Orbital symmetries:
       Occupied  (A) (A) (A) (A) (A) (A) (A) (A) (A) (A) (A) (A)
                 (A) (A) (A) (A) (A) (A) (A) (A) (A) (A) (A) (A)
                 (A) (A) (A) (A) (A) (A) (A) (A) (A) (A) (A) (A)
                 (A) (A) (A) (A) (A) (A) (A) (A) (A) (A) (A) (A)
                 (A) (A) (A) (A) (A) (A) (A) (A) (A) (A) (A) (A)
                 (A) (A) (A) (A) (A) (A) (A) (A) (A) (A) (A) (A)
                 (A) (A) (A) (A) (A) (A) (A) (A) (A) (A) (A) (A)
                 (A) (A) (A) (A) (A) (A) (A) (A) (A) (A) (A) (A)
                 (A) (A) (A) (A) (A) (A) (A) (A) (A) (A) (A) (A)
                 (A) (A) (A) (A) (A) (A) (A) (A) (A) (A) (A) (A)
                 (A) (A) (A) (A) (A) (A) (A) (A) (A) (A) (A) (A)
                 (A) (A) (A) (A) (A) (A) (A) (A) (A) (A) (A) (A)
                 (A) (A) (A) (A) (A) (A) (A) (A) (A) (A) (A) (A)
                 (A) (A) (A) (A) (A) (A) (A) (A) (A) (A) (A) (A)
                 (A) (A) (A) (A) (A) (A) (A) (A) (A) (A) (A) (A)
                 (A) (A) (A) (A) (A) (A) (A) (A) (A) (A) (A) (A)
                 (A) (A) (A) (A) (A) (A) (A) (A) (A) (A) (A) (A)
                 (A) (A) (A) (A) (A) (A) (A) (A) (A) (A) (A) (A)
                 (A) (A) (A) (A) (A) (A) (A) (A) (A) (A) (A) (A)
                 (A) (A) (A) (A) (A) (A) (A) (A) (A) (A) (A) (A)
                 (A) (A) (A) (A) (A) (A)
       Virtual   (A) (A) (A) (A) (A) (A) (A) (A) (A) (A) (A) (A)
                 (A) (A) (A) (A) (A) (A) (A) (A) (A) (A) (A) (A)
                 (A) (A) (A) (A) (A) (A) (A) (A) (A) (A) (A) (A)
                 (A) (A) (A) (A) (A) (A) (A) (A) (A) (A) (A) (A)
                 (A) (A) (A) (A) (A) (A) (A) (A) (A) (A) (A) (A)
                 (A) (A) (A) (A) (A) (A) (A) (A) (A) (A) (A) (A)
                 (A) (A) (A) (A) (A) (A) (A) (A) (A) (A) (A) (A)
                 (A) (A) (A) (A) (A) (A) (A) (A) (A) (A) (A) (A)
                 (A) (A) (A) (A) (A) (A) (A) (A) (A) (A) (A) (A)
                 (A) (A) (A) (A) (A) (A) (A) (A) (A) (A) (A) (A)
                 (A) (A) (A) (A) (A) (A) (A) (A) (A) (A) (A) (A)
                 (A) (A) (A) (A) (A) (A) (A) (A) (A) (A) (A) (A)
                 (A) (A) (A) (A) (A) (A) (A) (A) (A) (A) (A) (A)
                 (A) (A) (A) (A) (A) (A) (A) (A) (A) (A) (A) (A)
                 (A) (A) (A) (A) (A) (A) (A) (A) (A) (A) (A) (A)
                 (A) (A) (A) (A) (A) (A) (A) (A) (A) (A) (A) (A)
                 (A) (A) (A) (A) (A) (A) (A) (A) (A) (A) (A) (A)
                 (A) (A) (A) (A) (A) (A) (A) (A) (A) (A) (A) (A)
                 (A) (A) (A) (A) (A) (A) (A) (A) (A) (A) (A) (A)
                 (A) (A) (A) (A) (A) (A) (A) (A) (A) (A) (A) (A)
                 (A) (A) (A) (A) (A) (A) (A) (A) (A) (A) (A) (A)
                 (A) (A) (A) (A) (A) (A) (A) (A) (A) (A) (A) (A)
                 (A) (A) (A) (A) (A) (A) (A) (A) (A) (A) (A) (A)
                 (A) (A) (A) (A) (A) (A) (A) (A) (A) (A) (A) (A)
                 (A) (A) (A) (A) (A) (A) (A) (A) (A) (A) (A) (A)
                 (A) (A) (A) (A) (A) (A) (A) (A) (A) (A) (A) (A)
                 (A) (A) (A) (A) (A) (A) (A) (A) (A) (A) (A) (A)
                 (A) (A) (A) (A) (A) (A) (A) (A) (A) (A) (A) (A)
                 (A) (A) (A) (A) (A) (A) (A) (A) (A) (A) (A) (A)
                 (A) (A) (A) (A) (A) (A) (A) (A) (A) (A) (A) (A)
                 (A) (A) (A) (A) (A) (A) (A) (A) (A) (A) (A) (A)
                 (A) (A) (A) (A) (A) (A) (A) (A) (A) (A) (A) (A)
                 (A) (A) (A) (A) (A) (A) (A) (A) (A) (A) (A) (A)
                 (A) (A) (A) (A) (A) (A) (A) (A) (A) (A) (A) (A)
                 (A) (A) (A) (A) (A) (A) (A) (A) (A) (A) (A) (A)
                 (A) (A) (A) (A) (A) (A) (A) (A) (A) (A) (A) (A)
                 (A) (A) (A) (A) (A) (A) (A) (A) (A) (A) (A) (A)
                 (A) (A) (A) (A) (A) (A) (A) (A) (A) (A) (A) (A)
                 (A) (A) (A) (A) (A) (A) (A) (A) (A) (A) (A) (A)
                 (A) (A) (A) (A) (A) (A) (A) (A) (A) (A) (A) (A)
                 (A) (A) (A) (A) (A) (A) (A) (A) (A) (A) (A) (A)
                 (A) (A) (A) (A) (A) (A) (A) (A) (A) (A) (A) (A)
                 (A) (A) (A) (A) (A) (A) (A) (A) (A) (A) (A) (A)
                 (A) (A) (A) (A) (A) (A) (A) (A) (A) (A) (A) (A)
                 (A) (A) (A) (A) (A) (A) (A) (A) (A) (A) (A) (A)
                 (A) (A) (A) (A) (A) (A) (A) (A) (A) (A) (A) (A)
                 (A) (A) (A) (A) (A) (A) (A) (A) (A) (A) (A) (A)
                 (A) (A) (A) (A) (A) (A) (A) (A) (A) (A) (A) (A)
                 (A) (A) (A) (A) (A) (A) (A) (A) (A) (A) (A) (A)
                 (A) (A) (A) (A) (A) (A) (A) (A) (A) (A) (A) (A)
                 (A) (A) (A) (A) (A) (A) (A) (A) (A) (A) (A) (A)
                 (A) (A) (A) (A) (A) (A) (A) (A) (A) (A) (A) (A)
                 (A) (A) (A) (A) (A) (A) (A) (A) (A) (A) (A) (A)
                 (A) (A) (A) (A) (A) (A) (A) (A) (A) (A) (A) (A)
                 (A) (A) (A) (A) (A) (A) (A) (A) (A) (A) (A) (A)
                 (A) (A) (A) (A) (A) (A) (A) (A) (A) (A) (A) (A)
                 (A) (A) (A) (A) (A) (A) (A) (A) (A) (A) (A) (A)
                 (A) (A) (A) (A) (A) (A) (A) (A) (A) (A) (A) (A)
                 (A) (A) (A) (A) (A) (A) (A) (A) (A) (A) (A) (A)
                 (A) (A) (A) (A) (A) (A) (A) (A) (A) (A) (A) (A)
                 (A) (A) (A) (A) (A) (A) (A) (A) (A) (A) (A) (A)
                 (A) (A) (A) (A) (A) (A) (A) (A) (A) (A) (A) (A)
                 (A) (A) (A) (A) (A) (A) (A) (A) (A) (A) (A) (A)
                 (A) (A) (A) (A) (A) (A) (A) (A) (A) (A) (A) (A)
                 (A) (A) (A) (A) (A) (A) (A) (A) (A) (A) (A) (A)
                 (A) (A) (A) (A) (A) (A) (A) (A) (A) (A) (A) (A)
                 (A) (A) (A) (A) (A) (A) (A) (A) (A) (A) (A) (A)
                 (A) (A) (A) (A) (A) (A) (A) (A) (A) (A) (A) (A)
                 (A) (A) (A) (A) (A) (A) (A) (A) (A) (A) (A) (A)
                 (A) (A) (A) (A) (A) (A) (A) (A) (A) (A) (A) (A)
                 (A) (A) (A) (A) (A) (A) (A) (A) (A) (A) (A) (A)
                 (A) (A) (A) (A) (A) (A) (A) (A) (A) (A) (A) (A)
                 (A) (A) (A) (A) (A) (A) (A) (A) (A) (A) (A) (A)
                 (A) (A) (A) (A) (A) (A) (A) (A) (A) (A) (A) (A)
                 (A) (A) (A) (A) (A) (A) (A) (A) (A) (A) (A) (A)
                 (A) (A) (A) (A) (A) (A) (A) (A) (A) (A) (A) (A)
                 (A) (A) (A) (A) (A) (A) (A) (A) (A) (A) (A) (A)
                 (A) (A) (A) (A) (A) (A) (A) (A) (A) (A) (A) (A)
                 (A) (A) (A) (A) (A) (A) (A) (A) (A) (A) (A) (A)
                 (A) (A) (A) (A) (A) (A) (A) (A) (A) (A) (A) (A)
                 (A) (A) (A) (A) (A) (A) (A) (A) (A) (A) (A) (A)
                 (A) (A) (A) (A) (A) (A) (A) (A) (A) (A) (A) (A)
                 (A) (A) (A) (A) (A) (A) (A) (A) (A) (A) (A) (A)
                 (A) (A) (A) (A) (A) (A) (A) (A) (A) (A) (A) (A)
                 (A) (A) (A) (A) (A) (A) (A) (A) (A) (A) (A) (A)
                 (A) (A) (A) (A) (A) (A) (A) (A) (A) (A) (A) (A)
                 (A) (A) (A) (A) (A) (A) (A) (A) (A) (A) (A) (A)
                 (A) (A) (A) (A) (A) (A) (A) (A)
    20 initial guesses have been made.
 Convergence on wavefunction:    0.001000000000000
 Davidson Disk Diagonalization:  ConvIn= 1.00D-03 SkipCon=T Conv= 1.00D-03.
 Max sub-space:  2000 roots to seek:    20 dimension of matrix:       370304
 Iteration     1 Dimension    20 NMult     0 NNew     20
 CISAX will form    20 AO SS matrices at one time.
 NMat=    20 NSing=    20 JSym2X= 0.
 FoFJK:  IHMeth= 1 ICntrl=       0 DoSepK=F KAlg= 0 I1Cent=           0 FoldK=F
 IRaf= 530000000 NMat=      40 IRICut=       1 DoRegI=T DoRafI=F ISym2E= 0 IDoP0=3 IntGTp=3.
 FoFCou: FMM=T IPFlag=           0 FMFlag=      100000 FMFlg1=        2001
         NFxFlg=           0 DoJE=F BraDBF=F KetDBF=F FulRan=T
         wScrn=  0.000000 ICntrl=         0 IOpCl=  0 I1Cent=           0 NGrid=           0
         NMat0=   40 NMatS0=     20 NMatT0=    0 NMatD0=   40 NMtDS0=    0 NMtDT0=    0
 Symmetry not used in FoFCou.
 FMM levels:  10  Number of levels for PrismC:   9
 New state      3 was old state      5
 New state      4 was old state      6
 New state      5 was old state      3
 Excitation Energies [eV] at current iteration:
 Root      1 :     2.248855146381987
 Root      2 :     2.471781430267337
 Root      3 :     2.998738764343854
 Root      4 :     3.093588057829188
 Root      5 :     3.145414951816974
 Root      6 :     3.443402099037788
 Root      7 :     3.491963066308732
 Root      8 :     3.798754158126262
 Root      9 :     3.869950746730856
 Root     10 :     3.988669826096736
 Root     11 :     4.018972312479234
 Root     12 :     4.193994755076800
 Root     13 :     4.334369018942827
 Root     14 :     4.426854473524724
 Root     15 :     4.489017565568373
 Root     16 :     4.538744228350058
 Root     17 :     4.595159116347177
 Root     18 :     4.749543000655881
 Root     19 :     4.870492015407633
 Root     20 :     4.980705658242375
 Iteration     2 Dimension    30 NMult    20 NNew     10
 CISAX will form    10 AO SS matrices at one time.
 NMat=    10 NSing=    10 JSym2X= 0.
 Root      1 not converged, maximum delta is    0.054561690482070
 Root      2 not converged, maximum delta is    0.061269232568676
 Root      3 not converged, maximum delta is    0.281906945080209
 New state      4 was old state      5
 Root      4 not converged, maximum delta is    0.279333364857114
 New state      5 was old state      4
 Root      5 not converged, maximum delta is    0.102303176315572
 Excitation Energies [eV] at current iteration:
 Root      1 :     1.906889262799083   Change is   -0.341965883582904
 Root      2 :     2.178865484188770   Change is   -0.292915946078567
 Root      3 :     2.838763086229868   Change is   -0.159975678113986
 Root      4 :     2.932254842703534   Change is   -0.213160109113440
 Root      5 :     2.988927159058126   Change is   -0.104660898771062
 Iteration     3 Dimension    40 NMult    30 NNew     10
 CISAX will form    10 AO SS matrices at one time.
 NMat=    10 NSing=    10 JSym2X= 0.
 Root      1 not converged, maximum delta is    0.025131550499675
 Root      2 not converged, maximum delta is    0.025300771232213
 Root      3 not converged, maximum delta is    0.009977955905144
 Root      4 not converged, maximum delta is    0.021985409355827
 Root      5 not converged, maximum delta is    0.019014028453068
 Excitation Energies [eV] at current iteration:
 Root      1 :     1.877422626303160   Change is   -0.029466636495922
 Root      2 :     2.157388802773580   Change is   -0.021476681415189
 Root      3 :     2.829142179387703   Change is   -0.009620906842165
 Root      4 :     2.918253664842000   Change is   -0.014001177861534
 Root      5 :     2.976616375572659   Change is   -0.012310783485466
 Iteration     4 Dimension    50 NMult    40 NNew     10
 CISAX will form    10 AO SS matrices at one time.
 NMat=    10 NSing=    10 JSym2X= 0.
 Root      1 not converged, maximum delta is    0.002072863610501
 Root      2 not converged, maximum delta is    0.005861849818899
 Root      3 not converged, maximum delta is    0.009194298849788
 Root      4 not converged, maximum delta is    0.002930064123565
 Root      5 not converged, maximum delta is    0.003201224522934
 Excitation Energies [eV] at current iteration:
 Root      1 :     1.874884782506414   Change is   -0.002537843796747
 Root      2 :     2.154463773825595   Change is   -0.002925028947986
 Root      3 :     2.827466292935332   Change is   -0.001675886452371
 Root      4 :     2.916763035610735   Change is   -0.001490629231265
 Root      5 :     2.975266790246690   Change is   -0.001349585325969
 Iteration     5 Dimension    60 NMult    50 NNew     10
 CISAX will form    10 AO SS matrices at one time.
 NMat=    10 NSing=    10 JSym2X= 0.
 Root      1 has converged.
 Root      2 has converged.
 Root      3 not converged, maximum delta is    0.001054889048828
 Root      4 has converged.
 Root      5 has converged.
 Excitation Energies [eV] at current iteration:
 Root      1 :     1.874590496309127   Change is   -0.000294286197287
 Root      2 :     2.154228369144077   Change is   -0.000235404681517
 Root      3 :     2.827300734837300   Change is   -0.000165558098032
 Root      4 :     2.916563948813421   Change is   -0.000199086797314
 Root      5 :     2.975090330723238   Change is   -0.000176459523452
 Iteration     6 Dimension    62 NMult    60 NNew      2
 CISAX will form     2 AO SS matrices at one time.
 NMat=     2 NSing=     2 JSym2X= 0.
 Root      1 has converged.
 Root      2 has converged.
 Root      3 has converged.
 Root      4 has converged.
 Root      5 has converged.
 Excitation Energies [eV] at current iteration:
 Root      1 :     1.874590205944643   Change is   -0.000000290364484
 Root      2 :     2.154225854263575   Change is   -0.000002514880502
 Root      3 :     2.827281230642017   Change is   -0.000019504195283
 Root      4 :     2.916562902383829   Change is   -0.000001046429592
 Root      5 :     2.975089561246187   Change is   -0.000000769477051
 Convergence achieved on expansion vectors.
 ***********************************************************************
 Excited states from <AA,BB:AA,BB> singles matrix:
 ***********************************************************************
 
 1PDM for each excited state written to RWF  633
 Ground to excited state transition densities written to RWF  633
 Ground to excited state transition electric dipole moments (Au):
       state          X           Y           Z        Dip. S.      Osc.
         1        -0.6725     -2.6799     -0.1775      7.6657      0.3521
         2        -1.4602      0.9701      0.0858      3.0807      0.1626
         3         0.3738      0.0700      0.0238      0.1452      0.0101
         4         0.1669     -0.1260     -0.0225      0.0442      0.0032
         5        -0.0103      0.1176      0.0123      0.0141      0.0010
 Ground to excited state transition velocity dipole moments (Au):
       state          X           Y           Z        Dip. S.      Osc.
         1         0.0441      0.1785      0.0134      0.0340      0.3289
         2         0.1113     -0.0746     -0.0049      0.0180      0.1515
         3        -0.0388     -0.0079     -0.0005      0.0016      0.0100
         4        -0.0208      0.0117      0.0006      0.0006      0.0035
         5         0.0034     -0.0109      0.0008      0.0001      0.0008
 Ground to excited state transition magnetic dipole moments (Au):
       state          X           Y           Z
         1         0.0789      0.1958     -1.9994
         2        -0.1033     -0.0167      0.3708
         3        -0.1251      0.3042     -0.6885
         4         0.1541     -0.3488     -0.3411
         5        -0.3765      0.0486      0.1677
 Ground to excited state transition velocity quadrupole moments (Au):
       state          XX          YY          ZZ          XY          XZ          YZ
         1        -1.0277      0.3153     -0.0165     -1.9670     -0.2139      0.0311
         2        -2.1533     -0.1224      0.0132      0.8442      0.0744     -0.0503
         3         0.7447     -0.0674     -0.0151      0.2998     -0.0227     -0.0062
         4         0.3603      0.0138      0.0126      0.0603     -0.0044      0.0122
         5        -0.0704     -0.0889      0.0093      0.1876     -0.0034      0.0049
 <0|del|b> * <b|rxdel|0> + <0|del|b> * <b|delr+rdel|0>
 Rotatory Strengths (R) in cgs (10**-40 erg-esu-cm/Gauss)
       state          XX          YY          ZZ    R(velocity)    E-M Angle
         1       102.8464     22.6572     -5.7809     39.9076       88.20
         2         3.8974    -66.0422    -45.5655    -35.9034      103.49
         3        -8.0984     19.1408      8.0927      6.3784       84.66
         4       -13.8400    -12.1800    -23.3714    -16.4638      127.81
         5        -0.8753     -4.1113     -5.7562     -3.5810      110.48
 1/2[<0|r|b>*<b|rxdel|0> + (<0|rxdel|b>*<b|r|0>)*]
 Rotatory Strengths (R) in cgs (10**-40 erg-esu-cm/Gauss)
       state          XX          YY          ZZ     R(length)
         1        37.5442    371.0631   -251.0321     52.5251
         2      -106.6450     11.4840    -22.4963    -39.2191
         3        33.0668    -15.0480     11.5981      9.8723
         4       -18.1866    -31.0710     -5.4170    -18.2248
         5        -2.7504     -4.0403     -1.4609     -2.7505
  1/2[<0|del|b>*<b|r|0> + (<0|r|b>*<b|del|0>)*] (Au)
       state          X           Y           Z        Dip. S.   Osc.(frdel)
         1        -0.0296     -0.4784     -0.0024      0.5104      0.3403
         2        -0.1626     -0.0724     -0.0004      0.2354      0.1569
         3        -0.0145     -0.0006     -0.0000      0.0151      0.0100
         4        -0.0035     -0.0015     -0.0000      0.0050      0.0033
         5        -0.0000     -0.0013      0.0000      0.0013      0.0009

 Excitation energies and oscillator strengths:
 
 Excited State   1:      Singlet-A      1.8746 eV  661.39 nm  f=0.3521  <S**2>=0.000
     245 -> 248        0.16634
     246 -> 247        0.69220
     246 <- 247       -0.10604
 This state for optimization and/or second-order correction.
 Total Energy, E(TD-HF/TD-DFT) =  -3005.23552202    
 Copying the excited state density for this state as the 1-particle RhoCI density.
 
 Excited State   2:      Singlet-A      2.1542 eV  575.54 nm  f=0.1626  <S**2>=0.000
     245 -> 247        0.66598
     246 -> 248       -0.21432
 
 Excited State   3:      Singlet-A      2.8273 eV  438.53 nm  f=0.0101  <S**2>=0.000
     242 -> 247       -0.19574
     243 -> 247       -0.18011
     244 -> 247        0.63975
 
 Excited State   4:      Singlet-A      2.9166 eV  425.10 nm  f=0.0032  <S**2>=0.000
     240 -> 247       -0.14691
     242 -> 247        0.44303
     243 -> 247        0.41802
     244 -> 247        0.26754
 
 Excited State   5:      Singlet-A      2.9751 eV  416.74 nm  f=0.0010  <S**2>=0.000
     240 -> 247        0.31134
     241 -> 247        0.60623
     241 -> 249       -0.11378
 SavETr:  write IOETrn=   770 NScale= 10 NData=  16 NLR=1 NState=    5 LETran=     100.
 Leave Link  914 at Wed May  4 13:20:35 2022, MaxMem= 10066329600 cpu:           17375.3 elap:             725.5
 (Enter /sw/apps/gaussian-16.0/g16/l601.exe)
 Copying SCF densities to generalized density rwf, IOpCl= 0 IROHF=0.
 Hyperfine terms turned off by default for NAtoms > 100.

 **********************************************************************

            Population analysis using the SCF density.

 **********************************************************************

 Orbital symmetries:
       Occupied  (A) (A) (A) (A) (A) (A) (A) (A) (A) (A) (A) (A)
                 (A) (A) (A) (A) (A) (A) (A) (A) (A) (A) (A) (A)
                 (A) (A) (A) (A) (A) (A) (A) (A) (A) (A) (A) (A)
                 (A) (A) (A) (A) (A) (A) (A) (A) (A) (A) (A) (A)
                 (A) (A) (A) (A) (A) (A) (A) (A) (A) (A) (A) (A)
                 (A) (A) (A) (A) (A) (A) (A) (A) (A) (A) (A) (A)
                 (A) (A) (A) (A) (A) (A) (A) (A) (A) (A) (A) (A)
                 (A) (A) (A) (A) (A) (A) (A) (A) (A) (A) (A) (A)
                 (A) (A) (A) (A) (A) (A) (A) (A) (A) (A) (A) (A)
                 (A) (A) (A) (A) (A) (A) (A) (A) (A) (A) (A) (A)
                 (A) (A) (A) (A) (A) (A) (A) (A) (A) (A) (A) (A)
                 (A) (A) (A) (A) (A) (A) (A) (A) (A) (A) (A) (A)
                 (A) (A) (A) (A) (A) (A) (A) (A) (A) (A) (A) (A)
                 (A) (A) (A) (A) (A) (A) (A) (A) (A) (A) (A) (A)
                 (A) (A) (A) (A) (A) (A) (A) (A) (A) (A) (A) (A)
                 (A) (A) (A) (A) (A) (A) (A) (A) (A) (A) (A) (A)
                 (A) (A) (A) (A) (A) (A) (A) (A) (A) (A) (A) (A)
                 (A) (A) (A) (A) (A) (A) (A) (A) (A) (A) (A) (A)
                 (A) (A) (A) (A) (A) (A) (A) (A) (A) (A) (A) (A)
                 (A) (A) (A) (A) (A) (A) (A) (A) (A) (A) (A) (A)
                 (A) (A) (A) (A) (A) (A)
       Virtual   (A) (A) (A) (A) (A) (A) (A) (A) (A) (A) (A) (A)
                 (A) (A) (A) (A) (A) (A) (A) (A) (A) (A) (A) (A)
                 (A) (A) (A) (A) (A) (A) (A) (A) (A) (A) (A) (A)
                 (A) (A) (A) (A) (A) (A) (A) (A) (A) (A) (A) (A)
                 (A) (A) (A) (A) (A) (A) (A) (A) (A) (A) (A) (A)
                 (A) (A) (A) (A) (A) (A) (A) (A) (A) (A) (A) (A)
                 (A) (A) (A) (A) (A) (A) (A) (A) (A) (A) (A) (A)
                 (A) (A) (A) (A) (A) (A) (A) (A) (A) (A) (A) (A)
                 (A) (A) (A) (A) (A) (A) (A) (A) (A) (A) (A) (A)
                 (A) (A) (A) (A) (A) (A) (A) (A) (A) (A) (A) (A)
                 (A) (A) (A) (A) (A) (A) (A) (A) (A) (A) (A) (A)
                 (A) (A) (A) (A) (A) (A) (A) (A) (A) (A) (A) (A)
                 (A) (A) (A) (A) (A) (A) (A) (A) (A) (A) (A) (A)
                 (A) (A) (A) (A) (A) (A) (A) (A) (A) (A) (A) (A)
                 (A) (A) (A) (A) (A) (A) (A) (A) (A) (A) (A) (A)
                 (A) (A) (A) (A) (A) (A) (A) (A) (A) (A) (A) (A)
                 (A) (A) (A) (A) (A) (A) (A) (A) (A) (A) (A) (A)
                 (A) (A) (A) (A) (A) (A) (A) (A) (A) (A) (A) (A)
                 (A) (A) (A) (A) (A) (A) (A) (A) (A) (A) (A) (A)
                 (A) (A) (A) (A) (A) (A) (A) (A) (A) (A) (A) (A)
                 (A) (A) (A) (A) (A) (A) (A) (A) (A) (A) (A) (A)
                 (A) (A) (A) (A) (A) (A) (A) (A) (A) (A) (A) (A)
                 (A) (A) (A) (A) (A) (A) (A) (A) (A) (A) (A) (A)
                 (A) (A) (A) (A) (A) (A) (A) (A) (A) (A) (A) (A)
                 (A) (A) (A) (A) (A) (A) (A) (A) (A) (A) (A) (A)
                 (A) (A) (A) (A) (A) (A) (A) (A) (A) (A) (A) (A)
                 (A) (A) (A) (A) (A) (A) (A) (A) (A) (A) (A) (A)
                 (A) (A) (A) (A) (A) (A) (A) (A) (A) (A) (A) (A)
                 (A) (A) (A) (A) (A) (A) (A) (A) (A) (A) (A) (A)
                 (A) (A) (A) (A) (A) (A) (A) (A) (A) (A) (A) (A)
                 (A) (A) (A) (A) (A) (A) (A) (A) (A) (A) (A) (A)
                 (A) (A) (A) (A) (A) (A) (A) (A) (A) (A) (A) (A)
                 (A) (A) (A) (A) (A) (A) (A) (A) (A) (A) (A) (A)
                 (A) (A) (A) (A) (A) (A) (A) (A) (A) (A) (A) (A)
                 (A) (A) (A) (A) (A) (A) (A) (A) (A) (A) (A) (A)
                 (A) (A) (A) (A) (A) (A) (A) (A) (A) (A) (A) (A)
                 (A) (A) (A) (A) (A) (A) (A) (A) (A) (A) (A) (A)
                 (A) (A) (A) (A) (A) (A) (A) (A) (A) (A) (A) (A)
                 (A) (A) (A) (A) (A) (A) (A) (A) (A) (A) (A) (A)
                 (A) (A) (A) (A) (A) (A) (A) (A) (A) (A) (A) (A)
                 (A) (A) (A) (A) (A) (A) (A) (A) (A) (A) (A) (A)
                 (A) (A) (A) (A) (A) (A) (A) (A) (A) (A) (A) (A)
                 (A) (A) (A) (A) (A) (A) (A) (A) (A) (A) (A) (A)
                 (A) (A) (A) (A) (A) (A) (A) (A) (A) (A) (A) (A)
                 (A) (A) (A) (A) (A) (A) (A) (A) (A) (A) (A) (A)
                 (A) (A) (A) (A) (A) (A) (A) (A) (A) (A) (A) (A)
                 (A) (A) (A) (A) (A) (A) (A) (A) (A) (A) (A) (A)
                 (A) (A) (A) (A) (A) (A) (A) (A) (A) (A) (A) (A)
                 (A) (A) (A) (A) (A) (A) (A) (A) (A) (A) (A) (A)
                 (A) (A) (A) (A) (A) (A) (A) (A) (A) (A) (A) (A)
                 (A) (A) (A) (A) (A) (A) (A) (A) (A) (A) (A) (A)
                 (A) (A) (A) (A) (A) (A) (A) (A) (A) (A) (A) (A)
                 (A) (A) (A) (A) (A) (A) (A) (A) (A) (A) (A) (A)
                 (A) (A) (A) (A) (A) (A) (A) (A) (A) (A) (A) (A)
                 (A) (A) (A) (A) (A) (A) (A) (A) (A) (A) (A) (A)
                 (A) (A) (A) (A) (A) (A) (A) (A) (A) (A) (A) (A)
                 (A) (A) (A) (A) (A) (A) (A) (A) (A) (A) (A) (A)
                 (A) (A) (A) (A) (A) (A) (A) (A) (A) (A) (A) (A)
                 (A) (A) (A) (A) (A) (A) (A) (A) (A) (A) (A) (A)
                 (A) (A) (A) (A) (A) (A) (A) (A) (A) (A) (A) (A)
[...]
 Alpha virt. eigenvalues --    1.17436   1.17663   1.17964   1.18174   1.18929
 Alpha virt. eigenvalues --    1.19199   1.19972   1.20612   1.20678   1.21095
 Alpha virt. eigenvalues --    1.21423   1.21872   1.22206   1.23222   1.23432
 Alpha virt. eigenvalues --    1.24028   1.24285   1.24953   1.25346   1.25459
 Alpha virt. eigenvalues --    1.26333   1.26971   1.27211   1.27639   1.28226
 Alpha virt. eigenvalues --    1.28493   1.29659   1.29818   1.30617   1.30924
 Alpha virt. eigenvalues --    1.31435   1.32061   1.33043   1.33214   1.33239
 Alpha virt. eigenvalues --    1.33794   1.34250   1.34392   1.34578   1.34658
 Alpha virt. eigenvalues --    1.35759   1.36102   1.36469   1.37034   1.37335
 Alpha virt. eigenvalues --    1.37597   1.37664   1.38064   1.38489   1.38618
 Alpha virt. eigenvalues --    1.39009   1.39362   1.39768   1.40303   1.40404
 Alpha virt. eigenvalues --    1.40738   1.41025   1.41441   1.42311   1.42699
 Alpha virt. eigenvalues --    1.42997   1.43432   1.43973   1.44577   1.45024
 Alpha virt. eigenvalues --    1.45302   1.45823   1.46130   1.46251   1.46599
 Alpha virt. eigenvalues --    1.46769   1.47449   1.47835   1.48405   1.48542
 Alpha virt. eigenvalues --    1.48806   1.49788   1.50065   1.50374   1.51077
 Alpha virt. eigenvalues --    1.51479   1.51905   1.52606   1.52783   1.52865
 Alpha virt. eigenvalues --    1.53670   1.54074   1.54399   1.54523   1.54718
 Alpha virt. eigenvalues --    1.55009   1.55079   1.55266   1.55502   1.55651
 Alpha virt. eigenvalues --    1.56026   1.56084   1.56246   1.56384   1.56632
 Alpha virt. eigenvalues --    1.56803   1.56835   1.57187   1.57373   1.58103
 Alpha virt. eigenvalues --    1.58248   1.58565   1.59028   1.59133   1.59647
 Alpha virt. eigenvalues --    1.59862   1.60206   1.60831   1.61402   1.62078
 Alpha virt. eigenvalues --    1.62387   1.62553   1.62968   1.63037   1.64043
 Alpha virt. eigenvalues --    1.64170   1.64297   1.64894   1.65124   1.66322
 Alpha virt. eigenvalues --    1.66616   1.66949   1.66999   1.67436   1.67698
 Alpha virt. eigenvalues --    1.68016   1.68402   1.68960   1.69309   1.69537
 Alpha virt. eigenvalues --    1.69688   1.70069   1.70136   1.70718   1.70841
 Alpha virt. eigenvalues --    1.71199   1.71837   1.71857   1.72124   1.72563
 Alpha virt. eigenvalues --    1.72851   1.72871   1.73172   1.73327   1.73505
 Alpha virt. eigenvalues --    1.73786   1.74331   1.74511   1.74601   1.75186
 Alpha virt. eigenvalues --    1.75550   1.75752   1.75812   1.76463   1.76511
 Alpha virt. eigenvalues --    1.76814   1.77305   1.77381   1.77519   1.77537
 Alpha virt. eigenvalues --    1.77683   1.77838   1.78207   1.78419   1.78697
 Alpha virt. eigenvalues --    1.78762   1.78951   1.79051   1.79421   1.79657
 Alpha virt. eigenvalues --    1.79753   1.80257   1.80392   1.80538   1.80836
 Alpha virt. eigenvalues --    1.80928   1.81060   1.81292   1.81493   1.81620
 Alpha virt. eigenvalues --    1.81817   1.81901   1.82186   1.82219   1.82403
 Alpha virt. eigenvalues --    1.82790   1.83065   1.83073   1.83300   1.83439
 Alpha virt. eigenvalues --    1.83553   1.83955   1.84283   1.84346   1.84426
 Alpha virt. eigenvalues --    1.84503   1.84616   1.85267   1.85499   1.85714
 Alpha virt. eigenvalues --    1.85967   1.86153   1.86342   1.86635   1.86735
 Alpha virt. eigenvalues --    1.86865   1.87159   1.87538   1.87916   1.88429
 Alpha virt. eigenvalues --    1.88609   1.88761   1.88880   1.89386   1.89472
 Alpha virt. eigenvalues --    1.89926   1.90247   1.90338   1.90904   1.91150
 Alpha virt. eigenvalues --    1.91223   1.91434   1.91818   1.91964   1.92237
 Alpha virt. eigenvalues --    1.92390   1.92593   1.92826   1.93064   1.93147
 Alpha virt. eigenvalues --    1.93521   1.93568   1.93947   1.94089   1.94838
 Alpha virt. eigenvalues --    1.94938   1.95124   1.95384   1.95818   1.96161
 Alpha virt. eigenvalues --    1.96253   1.96545   1.96746   1.97028   1.97173
 Alpha virt. eigenvalues --    1.97304   1.97448   1.98236   1.98287   1.98471
 Alpha virt. eigenvalues --    1.98804   1.98880   1.99130   1.99337   1.99417
 Alpha virt. eigenvalues --    2.00003   2.00288   2.00758   2.01014   2.01375
 Alpha virt. eigenvalues --    2.02137   2.02160   2.02337   2.02795   2.02931
 Alpha virt. eigenvalues --    2.03174   2.03456   2.03757   2.04127   2.04414
 Alpha virt. eigenvalues --    2.04642   2.05189   2.05368   2.05644   2.06284
 Alpha virt. eigenvalues --    2.06552   2.06650   2.06775   2.07035   2.07646
 Alpha virt. eigenvalues --    2.08063   2.08334   2.08736   2.08810   2.09039
 Alpha virt. eigenvalues --    2.09405   2.09564   2.09937   2.10198   2.10286
 Alpha virt. eigenvalues --    2.10811   2.11088   2.11457   2.11506   2.11761
 Alpha virt. eigenvalues --    2.12150   2.12842   2.13019   2.13299   2.13844
 Alpha virt. eigenvalues --    2.14215   2.14488   2.14911   2.15181   2.15565
 Alpha virt. eigenvalues --    2.16262   2.17187   2.17370   2.17625   2.17767
 Alpha virt. eigenvalues --    2.18157   2.18399   2.18608   2.18877   2.19734
 Alpha virt. eigenvalues --    2.19915   2.20694   2.20868   2.21016   2.21530
 Alpha virt. eigenvalues --    2.21693   2.22091   2.22533   2.22558   2.23060
 Alpha virt. eigenvalues --    2.23758   2.23929   2.24290   2.24840   2.25484
 Alpha virt. eigenvalues --    2.25870   2.26112   2.26728   2.27220   2.27884
 Alpha virt. eigenvalues --    2.28017   2.28441   2.28678   2.29016   2.29263
 Alpha virt. eigenvalues --    2.29758   2.29860   2.30601   2.31288   2.31426
 Alpha virt. eigenvalues --    2.31874   2.32235   2.32465   2.32956   2.33259
 Alpha virt. eigenvalues --    2.33548   2.33886   2.34261   2.34435   2.34509
 Alpha virt. eigenvalues --    2.34759   2.35205   2.35585   2.36007   2.36571
 Alpha virt. eigenvalues --    2.36668   2.37147   2.37169   2.37652   2.37860
 Alpha virt. eigenvalues --    2.38250   2.38436   2.38681   2.38869   2.39365
 Alpha virt. eigenvalues --    2.39854   2.40422   2.40660   2.41066   2.41970
 Alpha virt. eigenvalues --    2.42248   2.42663   2.42844   2.43956   2.44421
 Alpha virt. eigenvalues --    2.44624   2.44812   2.44953   2.45162   2.45819
 Alpha virt. eigenvalues --    2.46269   2.46433   2.46720   2.47153   2.47583
 Alpha virt. eigenvalues --    2.47658   2.48205   2.48214   2.48892   2.48979
 Alpha virt. eigenvalues --    2.49456   2.49811   2.50283   2.50998   2.51834
 Alpha virt. eigenvalues --    2.52261   2.52342   2.53216   2.53337   2.53550
 Alpha virt. eigenvalues --    2.54415   2.55135   2.55355   2.55474   2.56109
 Alpha virt. eigenvalues --    2.57035   2.57307   2.57580   2.57800   2.58862
 Alpha virt. eigenvalues --    2.59135   2.59398   2.59500   2.59952   2.60231
 Alpha virt. eigenvalues --    2.61134   2.61271   2.61481   2.61881   2.62041
 Alpha virt. eigenvalues --    2.62531   2.62949   2.63357   2.63492   2.64231
 Alpha virt. eigenvalues --    2.64413   2.64580   2.65588   2.66041   2.66355
 Alpha virt. eigenvalues --    2.66614   2.66990   2.67607   2.68004   2.68843
 Alpha virt. eigenvalues --    2.69146   2.69316   2.69523   2.70640   2.71005
 Alpha virt. eigenvalues --    2.71365   2.71917   2.72278   2.72390   2.73112
 Alpha virt. eigenvalues --    2.73601   2.73644   2.74075   2.74377   2.74680
 Alpha virt. eigenvalues --    2.74924   2.75167   2.75766   2.76548   2.77078
 Alpha virt. eigenvalues --    2.77292   2.78110   2.78597   2.79229   2.79571
 Alpha virt. eigenvalues --    2.79936   2.80285   2.80878   2.81214   2.81893
 Alpha virt. eigenvalues --    2.82719   2.83047   2.83668   2.84191   2.84511
 Alpha virt. eigenvalues --    2.85268   2.85581   2.86083   2.86568   2.86995
 Alpha virt. eigenvalues --    2.87432   2.87671   2.88403   2.88608   2.88908
 Alpha virt. eigenvalues --    2.89459   2.89654   2.89818   2.90019   2.91021
 Alpha virt. eigenvalues --    2.91048   2.91270   2.91898   2.92404   2.92817
 Alpha virt. eigenvalues --    2.93203   2.93326   2.94046   2.94149   2.94955
 Alpha virt. eigenvalues --    2.95355   2.95491   2.95701   2.95912   2.96445
 Alpha virt. eigenvalues --    2.96484   2.96750   2.96842   2.97209   2.97330
 Alpha virt. eigenvalues --    2.97392   2.97694   2.97923   2.98124   2.98298
 Alpha virt. eigenvalues --    2.98972   2.99013   2.99544   2.99968   3.00143
 Alpha virt. eigenvalues --    3.00719   3.00805   3.01355   3.01574   3.01871
 Alpha virt. eigenvalues --    3.02015   3.02188   3.02474   3.02800   3.03311
 Alpha virt. eigenvalues --    3.03573   3.03681   3.04192   3.04480   3.04615
 Alpha virt. eigenvalues --    3.05338   3.05668   3.06096   3.06464   3.06877
 Alpha virt. eigenvalues --    3.07224   3.07902   3.08122   3.08393   3.10059
 Alpha virt. eigenvalues --    3.10461   3.10887   3.11654   3.11851   3.12683
 Alpha virt. eigenvalues --    3.12993   3.14154   3.14983   3.15607   3.16190
 Alpha virt. eigenvalues --    3.17256   3.17392   3.18784   3.19719   3.20762
 Alpha virt. eigenvalues --    3.21087   3.22483   3.24535   3.26317   3.26819
 Alpha virt. eigenvalues --    3.28350   3.29766   3.39346   3.39719   3.43912
 Alpha virt. eigenvalues --    3.44303   3.45394   3.48709   3.52357   3.53858
 Alpha virt. eigenvalues --    3.57582   3.59379   3.64685   3.64838   3.67701
 Alpha virt. eigenvalues --    3.70402   3.73230
          Condensed to atoms (all electrons):
 Mulliken charges:
               1
     1  Mg   0.923651
     2  C    0.044751
     3  C   -0.067727
     4  C   -0.044854
     5  C   -0.081977
     6  N   -0.371222
     7  C   -0.028495
     8  C   -0.111626
     9  C   -0.078188
    10  C    0.047074
    11  C   -0.018180
    12  C    0.012328
    13  C    0.001122
    14  C    0.224477
    15  O   -0.267694
    16  O   -0.380631
    17  N   -0.477196
    18  C    0.174495
    19  C   -0.183418
    20  C   -0.080322
    21  C    0.153564
    22  C    0.053907
    23  C    0.025584
    24  O   -0.249766
    25  C   -0.002504
    26  N   -0.344577
    27  C    0.052086
    28  C   -0.130302
    29  C   -0.070470
    30  C    0.078682
    31  C    0.014656
    32  C   -0.041268
    33  C   -0.059486
    34  N   -0.442194
    35  C    0.125818
    36  C   -0.186255
    37  C   -0.010471
    38  C    0.135056
    39  C    0.057358
    40  C    0.141147
    41  O   -0.215102
    42  C   -0.167606
    43  C    0.268768
    44  O   -0.222024
    45  O   -0.354396
    46  C    0.123864
    47  C    0.244781
    48  C   -0.131368
    49  C   -0.275181
    50  C    0.036677
    51  C    0.042970
    52  C   -0.066917
    53  C   -0.022786
    54  C   -0.188923
    55  C   -0.032100
    56  C   -0.011688
    57  C   -0.076495
    58  C    0.019558
    59  C   -0.233976
    60  C    0.000694
    61  C   -0.040344
    62  C   -0.020653
    63  C   -0.059904
    64  C   -0.259858
    65  C   -0.018401
    66  C    0.007714
    67  H   -0.003854
    68  H    0.020912
    69  H   -0.001067
    70  H    0.091008
    71  H    0.036896
    72  H    0.054772
    73  H    0.040418
    74  H    0.073885
    75  H    0.034734
    76  H    0.052579
    77  H    0.059205
    78  H    0.076491
    79  H    0.035592
    80  H    0.057936
    81  H    0.081162
    82  H    0.057308
    83  H    0.052743
    84  H    0.061364
    85  H    0.055665
    86  H    0.043963
    87  H    0.047347
    88  H    0.052544
    89  H    0.040146
    90  H    0.036212
    91  H    0.028419
    92  H    0.043574
    93  H    0.046382
    94  H    0.054580
    95  H    0.058148
    96  H    0.030270
    97  H    0.057040
    98  H    0.069513
    99  H    0.079921
   100  H    0.057250
   101  H    0.049707
   102  H    0.068080
   103  H    0.060388
   104  H    0.028894
   105  H    0.023770
   106  H    0.075067
   107  H    0.053785
   108  H    0.030459
   109  H    0.028204
   110  H    0.024599
   111  H    0.034207
   112  H    0.035076
   113  H    0.044707
   114  H    0.036909
   115  H    0.030226
   116  H    0.035566
   117  H    0.034910
   118  H    0.022810
   119  H    0.016676
   120  H    0.021826
   121  H    0.017958
   122  H    0.036478
   123  H    0.031750
   124  H    0.032493
   125  H    0.024085
   126  H    0.036077
   127  H    0.035542
   128  H    0.023738
   129  H    0.045004
   130  H    0.032298
   131  H    0.044557
   132  H    0.054781
   133  H    0.021826
   134  H    0.035395
   135  H    0.032361
   136  H    0.031999
   137  H    0.040915
   138  H    0.032990
   139  H    0.040910
   140  H    0.025688
 Sum of Mulliken charges =  -0.00000
 Mulliken charges with hydrogens summed into heavy atoms:
               1
     1  Mg   0.923651
     2  C    0.044751
     3  C   -0.071581
     4  C   -0.023942
     5  C   -0.083044
     6  N   -0.371222
     7  C   -0.028495
     8  C   -0.020618
     9  C   -0.041291
    10  C    0.047074
    11  C    0.150895
    12  C    0.099641
    13  C    0.136818
    14  C    0.224477
    15  O   -0.267694
    16  O   -0.380631
    17  N   -0.477196
    18  C    0.174495
    19  C   -0.183418
    20  C   -0.080322
    21  C    0.153564
    22  C    0.228596
    23  C    0.025584
    24  O   -0.249766
    25  C    0.168911
    26  N   -0.344577
    27  C    0.052086
    28  C   -0.074637
    29  C   -0.026506
    30  C    0.078682
    31  C    0.154692
    32  C    0.023362
    33  C    0.085050
    34  N   -0.442194
    35  C    0.125818
    36  C   -0.186255
    37  C   -0.010471
    38  C    0.135056
    39  C    0.202815
    40  C    0.141147
    41  O   -0.215102
    42  C   -0.098093
    43  C    0.268768
    44  O   -0.222024
    45  O   -0.354396
    46  C    0.310741
    47  C    0.373250
    48  C   -0.102474
    49  C   -0.275181
    50  C    0.189298
    51  C    0.101632
    52  C   -0.008111
    53  C    0.056997
    54  C   -0.152014
    55  C    0.068601
    56  C    0.027799
    57  C   -0.036711
    58  C    0.087786
    59  C   -0.201483
    60  C    0.096398
    61  C    0.028398
    62  C    0.056201
    63  C    0.016703
    64  C   -0.224463
    65  C    0.086874
    66  C    0.107302
 Electronic spatial extent (au):  <R**2>=         124705.3826
 Charge=             -0.0000 electrons
 Dipole moment (field-independent basis, Debye):
    X=              4.3571    Y=              3.6000    Z=             -2.1121  Tot=              6.0337
 Quadrupole moment (field-independent basis, Debye-Ang):
   XX=           -373.1070   YY=           -421.3689   ZZ=           -399.9027
   XY=              9.3801   XZ=             22.6515   YZ=             -3.0560
 Traceless Quadrupole moment (field-independent basis, Debye-Ang):
   XX=             25.0192   YY=            -23.2427   ZZ=             -1.7765
   XY=              9.3801   XZ=             22.6515   YZ=             -3.0560
 Octapole moment (field-independent basis, Debye-Ang**2):
  XXX=           -171.2613  YYY=            170.2829  ZZZ=             15.7417  XYY=            168.9368
  XXY=           -262.2880  XXZ=            -77.7603  XZZ=             21.4510  YZZ=            -29.2453
  YYZ=             15.5628  XYZ=             11.3484
 Hexadecapole moment (field-independent basis, Debye-Ang**3):
 XXXX=        -141954.4639 YYYY=         -19140.6157 ZZZZ=          -6813.2828 XXXY=           3725.8441
 XXXZ=           1475.4419 YYYX=           -214.9791 YYYZ=           -272.1206 ZZZX=             -1.9099
 ZZZY=           -129.9227 XXYY=         -28702.4556 XXZZ=         -25446.6401 YYZZ=          -4148.3425
 XXYZ=           -320.9056 YYXZ=            147.1327 ZZXY=            -73.9694
 N-N= 9.583072482284D+03 E-N=-2.615796632537D+04  KE= 2.975339106838D+03
 Leave Link  601 at Wed May  4 13:20:36 2022, MaxMem= 10066329600 cpu:              11.5 elap:               0.6
 (Enter /sw/apps/gaussian-16.0/g16/l9999.exe)
 1\1\GINC-BP1-COMPUTE036\SP\RPBE1PBE TD-FC\def2SVP\C55H74Mg1N4O6\OF1564
 1\04-May-2022\0\\#p PBE1PBE/Def2SVP td=(nstates=5)\\step_1751_chromoph
 ore_19 TDDFT with PBE1PBE functional\\0,1\Mg,0,25.97,50.131,26.772\C,0
 ,23.737,50.804,29.43\C,0,28.306,49.235,29.069\C,0,28.045,49.931,24.281
 \C,0,23.391,51.185,24.618\N,0,25.935,49.781,29.064\C,0,24.92,50.274,29
 .882\C,0,25.393,50.144,31.358\C,0,26.899,49.875,31.239\C,0,27.102,49.5
 66,29.731\C,0,27.852,51.151,31.724\C,0,24.477,49.123,32.123\C,0,23.954
 ,49.507,33.52\C,0,24.859,50.394,34.471\O,0,25.079,51.579,34.266\O,0,25
 .368,49.702,35.555\N,0,27.975,49.655,26.634\C,0,28.765,49.166,27.726\C
 ,0,30.067,48.893,27.268\C,0,30.066,49.249,25.86\C,0,28.631,49.657,25.5
 56\C,0,31.028,48.238,28.114\C,0,31.176,48.951,24.833\O,0,31.042,49.241
 ,23.649\C,0,32.468,48.283,25.221\N,0,25.779,50.679,24.699\C,0,26.745,5
 0.391,23.884\C,0,26.353,50.525,22.387\C,0,24.757,50.716,22.537\C,0,24.
 623,50.911,24.031\C,0,27.003,51.751,21.715\C,0,23.953,49.605,21.847\C,
 0,23.741,48.242,22.551\N,0,23.944,51.015,26.926\C,0,23.036,51.354,25.9
 24\C,0,21.805,51.644,26.556\C,0,22.028,51.546,27.968\C,0,23.328,51.092
 ,28.112\C,0,20.571,52.164,25.907\C,0,21.521,51.772,29.307\O,0,20.459,5
 2.204,29.729\C,0,22.582,51.306,30.264\C,0,23.061,52.557,31.017\O,0,24.
 043,53.182,30.811\O,0,22.304,52.757,32.099\C,0,22.792,53.719,33.149\C,
 0,25.93,50.526,36.687\C,0,25.799,50.078,38.035\C,0,26.476,50.526,39.12
 3\C,0,27.474,51.599,39.256\C,0,26.167,49.895,40.518\C,0,27.052,48.713,
 40.779\C,0,26.241,47.5,41.42\C,0,27.163,46.342,41.841\C,0,27.967,45.54
 4,40.726\C,0,26.476,45.274,42.761\C,0,27.016,45.275,44.251\C,0,26.339,
 46.368,45.141\C,0,27.381,47.34,45.764\C,0,26.943,47.423,47.255\C,0,27.
 32,48.707,45.083\C,0,28.511,49.666,45.542\C,0,29.152,50.314,44.271\C,0
 ,29.468,51.776,44.538\C,0,28.182,52.647,44.313\C,0,30.689,52.138,43.73
 2\H,0,29.111,49.055,29.784\H,0,28.695,49.718,23.429\H,0,22.459,51.17,2
 4.049\H,0,25.259,51.153,31.749\H,0,27.009,49.001,31.881\H,0,28.257,51.
 619,30.827\H,0,28.685,50.745,32.298\H,0,27.37,51.911,32.338\H,0,24.952
 ,48.144,32.177\H,0,23.6,48.907,31.513\H,0,23.734,48.537,33.966\H,0,23.
 114,50.197,33.447\H,0,30.801,48.228,29.18\H,0,31.966,48.792,28.113\H,0
 ,30.922,47.212,27.761\H,0,32.314,47.34,25.746\H,0,32.928,48.982,25.919
 \H,0,33.067,48.207,24.313\H,0,26.596,49.631,21.813\H,0,24.312,51.652,2
 2.199\H,0,27.654,52.214,22.456\H,0,26.389,52.511,21.232\H,0,27.725,51.
 388,20.984\H,0,24.48,49.504,20.898\H,0,22.997,49.988,21.489\H,0,24.12,
 47.517,21.83\H,0,22.701,47.992,22.757\H,0,24.263,48.146,23.504\H,0,19.
 658,52.059,26.492\H,0,20.438,51.747,24.908\H,0,20.64,53.238,25.734\H,0
 ,22.3,50.638,31.078\H,0,23.709,54.286,32.984\H,0,22.797,53.146,34.076\
 H,0,22.023,54.48,33.282\H,0,25.357,51.454,36.7\H,0,26.998,50.729,36.61
 6\H,0,25.128,49.219,38.06\H,0,27.237,52.263,38.425\H,0,28.483,51.202,3
 9.147\H,0,27.253,52.374,39.989\H,0,25.146,49.519,40.582\H,0,26.376,50.
 708,41.213\H,0,27.866,49.123,41.377\H,0,27.551,48.339,39.885\H,0,25.68
 ,47.209,40.532\H,0,25.556,47.822,42.205\H,0,28.01,46.737,42.402\H,0,27
 .934,46.092,39.785\H,0,27.645,44.522,40.527\H,0,28.991,45.449,41.089\H
 ,0,26.478,44.254,42.378\H,0,25.423,45.553,42.79\H,0,28.105,45.272,44.2
 74\H,0,26.815,44.268,44.618\H,0,25.918,45.697,45.89\H,0,25.552,46.857,
 44.567\H,0,28.387,46.942,45.627\H,0,26.766,48.462,47.534\H,0,27.722,46
 .995,47.885\H,0,26.003,46.922,47.483\H,0,26.355,49.136,45.351\H,0,27.3
 22,48.521,44.009\H,0,29.282,49.,45.93\H,0,28.183,50.442,46.235\H,0,28.
 534,50.136,43.391\H,0,30.12,49.83,44.143\H,0,29.691,51.871,45.6\H,0,28
 .217,53.335,43.468\H,0,28.106,53.288,45.191\H,0,27.285,52.03,44.266\H,
 0,30.807,51.477,42.873\H,0,31.571,52.006,44.359\H,0,30.561,53.153,43.3
 55\\Version=ES64L-G16RevA.03\State=1-A\HF=-3005.3044119\RMSD=9.004e-09
 \PG=C01 [X(C55H74Mg1N4O6)]\\@


 ERROR IS THE FORCE THAT WELDS MEN TOGETHER....
 TRUTH IS COMMUNICATED TO MEN ONLY BY DEEDS OF TRUTH.
           TOLSTOI,MY RELIGION
 Job cpu time:       0 days  6 hours 47 minutes 58.5 seconds.
 Elapsed time:       0 days  0 hours 17 minutes  3.6 seconds.
 File lengths (MBytes):  RWF=   8929 Int=      0 D2E=      0 Chk=    390 Scr=      1
 Normal termination of Gaussian 16 at Wed May  4 13:20:37 2022.
