 Entering Gaussian System, Link 0=g16
 Initial command:
 /sw/apps/gaussian-16.0/g16/l1.exe "/tmp/Gau-260020.inp" -scrdir="/tmp/"
 Entering Link 1 = /sw/apps/gaussian-16.0/g16/l1.exe PID=    260021.
  
 Copyright (c) 1988,1990,1992,1993,1995,1998,2003,2009,2016,
            Gaussian, Inc.  All Rights Reserved.
  
 This is part of the Gaussian(R) 16 program.  It is based on
 the Gaussian(R) 09 system (copyright 2009, Gaussian, Inc.),
 the Gaussian(R) 03 system (copyright 2003, Gaussian, Inc.),
 the Gaussian(R) 98 system (copyright 1998, Gaussian, Inc.),
 the Gaussian(R) 94 system (copyright 1995, Gaussian, Inc.),
 the Gaussian 92(TM) system (copyright 1992, Gaussian, Inc.),
 the Gaussian 90(TM) system (copyright 1990, Gaussian, Inc.),
 the Gaussian 88(TM) system (copyright 1988, Gaussian, Inc.),
 the Gaussian 86(TM) system (copyright 1986, Carnegie Mellon
 University), and the Gaussian 82(TM) system (copyright 1983,
 Carnegie Mellon University). Gaussian is a federally registered
 trademark of Gaussian, Inc.
  
 This software contains proprietary and confidential information,
 including trade secrets, belonging to Gaussian, Inc.
  
 This software is provided under written license and may be
 used, copied, transmitted, or stored only in accord with that
 written license.
  
 The following legend is applicable only to US Government
 contracts under FAR:
  
                    RESTRICTED RIGHTS LEGEND
  
 Use, reproduction and disclosure by the US Government is
 subject to restrictions as set forth in subparagraphs (a)
 and (c) of the Commercial Computer Software - Restricted
 Rights clause in FAR 52.227-19.
  
 Gaussian, Inc.
 340 Quinnipiac St., Bldg. 40, Wallingford CT 06492
  
  
 ---------------------------------------------------------------
 Warning -- This program may not be used in any manner that
 competes with the business of Gaussian, Inc. or will provide
 assistance to any competitor of Gaussian, Inc.  The licensee
 of this program is prohibited from giving any competitor of
 Gaussian, Inc. access to this program.  By using this program,
 the user acknowledges that Gaussian, Inc. is engaged in the
 business of creating and licensing software in the field of
 computational chemistry and represents and warrants to the
 licensee that it is not a competitor of Gaussian, Inc. and that
 it will not use this program in any manner prohibited above.
 ---------------------------------------------------------------
  

 Cite this work as:
 Gaussian 16, Revision A.03,
 M. J. Frisch, G. W. Trucks, H. B. Schlegel, G. E. Scuseria, 
 M. A. Robb, J. R. Cheeseman, G. Scalmani, V. Barone, 
 G. A. Petersson, H. Nakatsuji, X. Li, M. Caricato, A. V. Marenich, 
 J. Bloino, B. G. Janesko, R. Gomperts, B. Mennucci, H. P. Hratchian, 
 J. V. Ortiz, A. F. Izmaylov, J. L. Sonnenberg, D. Williams-Young, 
 F. Ding, F. Lipparini, F. Egidi, J. Goings, B. Peng, A. Petrone, 
 T. Henderson, D. Ranasinghe, V. G. Zakrzewski, J. Gao, N. Rega, 
 G. Zheng, W. Liang, M. Hada, M. Ehara, K. Toyota, R. Fukuda, 
 J. Hasegawa, M. Ishida, T. Nakajima, Y. Honda, O. Kitao, H. Nakai, 
 T. Vreven, K. Throssell, J. A. Montgomery, Jr., J. E. Peralta, 
 F. Ogliaro, M. J. Bearpark, J. J. Heyd, E. N. Brothers, K. N. Kudin, 
 V. N. Staroverov, T. A. Keith, R. Kobayashi, J. Normand, 
 K. Raghavachari, A. P. Rendell, J. C. Burant, S. S. Iyengar, 
 J. Tomasi, M. Cossi, J. M. Millam, M. Klene, C. Adamo, R. Cammi, 
 J. W. Ochterski, R. L. Martin, K. Morokuma, O. Farkas, 
 J. B. Foresman, and D. J. Fox, Gaussian, Inc., Wallingford CT, 2016.
 
 ******************************************
 Gaussian 16:  ES64L-G16RevA.03 25-Dec-2016
                 5-May-2022 
 ******************************************
 %nproc=24
 Will use up to   24 processors via shared memory.
 %mem=75GB
 --------------------------------
 #p wB97XD/Def2SVP td=(nstates=5)
 --------------------------------
 1/38=1,172=1/1;
 2/12=2,17=6,18=5,40=1/2;
 3/5=43,7=101,11=9,25=1,30=1,74=-58/1,2,3,8;
 4//1;
 5/5=2,38=5/2;
 8/6=1,10=1,108=5/1;
 9/41=5,42=1,70=2/14;
 6/7=2,8=2,9=2,10=2/1;
 99/5=1,9=1/99;
 Leave Link    1 at Thu May  5 00:22:39 2022, MaxMem= 10066329600 cpu:               1.1 elap:               0.1
 (Enter /sw/apps/gaussian-16.0/g16/l101.exe)
 ----------------------------------------------------
 step_501_chromophore_27 TDDFT with wB97XD functional
 ----------------------------------------------------
 Symbolic Z-matrix:
 Charge =  0 Multiplicity = 1
 Mg                   -5.098     24.633    26.684 
 C                    -3.702     26.367    29.522 
 C                    -6.113     22.143    28.935 
 C                    -6.48      23.096    24.133 
 C                    -3.729     27.067    24.581 
 N                    -4.871     24.33     29.015 
 C                    -4.476     25.238    29.946 
 C                    -4.87      24.819    31.353 
 C                    -5.343     23.269    31.183 
 C                    -5.428     23.221    29.63 
 C                    -4.42      22.225    31.86 
 C                    -5.972     25.743    31.973 
 C                    -5.564     26.394    33.32 
 C                    -6.482     25.916    34.587 
 O                    -7.289     26.617    35.221 
 O                    -6.011     24.68     35.008 
 N                    -6.124     22.921    26.559 
 C                    -6.454     21.955    27.569 
 C                    -7.238     20.808    27.053 
 C                    -7.372     21.152    25.668 
 C                    -6.657     22.414    25.414 
 C                    -7.704     19.615    27.89 
 C                    -8.01      20.371    24.583 
 O                    -8.306     20.8      23.473 
 C                    -8.472     18.936    24.904 
 N                    -5.236     25.127    24.715 
 C                    -5.843     24.308    23.826 
 C                    -5.574     24.69     22.397 
 C                    -4.734     25.987    22.498 
 C                    -4.583     26.133    24.029 
 C                    -4.979     23.587    21.547 
 C                    -5.554     27.258    21.863 
 C                    -4.768     28.103    20.72 
 N                    -3.719     26.233    26.928 
 C                    -3.333     27.18     25.949 
 C                    -2.554     28.225    26.623 
 C                    -2.813     27.99     27.999 
 C                    -3.404     26.732    28.126 
 C                    -1.719     29.358    26.034 
 C                    -2.392     28.463    29.348 
 O                    -1.66      29.393    29.787 
 C                    -3.081     27.468    30.36 
 C                    -2.035     26.949    31.302 
 O                    -0.946     26.579    30.965 
 O                    -2.475     27.079    32.59 
 C                    -1.384     26.911    33.583 
 C                    -6.374     24.226    36.343 
 C                    -7.414     23.062    36.258 
 C                    -8.208     22.565    37.211 
 C                    -8.073     22.838    38.65 
 C                    -9.155     21.415    36.826 
 C                    -10.633    21.906    36.573 
 C                    -11.57     21.341    37.717 
 C                    -12.97     21.084    37.103 
 C                    -13.945    22.283    37.314 
 C                    -13.551    19.827    37.804 
 C                    -13.081    18.451    37.169 
 C                    -12.248    17.597    38.17 
 C                    -10.705    17.457    37.927 
 C                    -10.011    18.026    39.187 
 C                    -10.375    15.95     37.678 
 C                    -8.891     15.706    37.398 
 C                    -8.148     14.665    38.216 
 C                    -6.622     14.648    37.801 
 C                    -6.179     13.124    37.758 
 C                    -5.693     15.376    38.778 
 H                    -6.286     21.338    29.652 
 H                    -6.914     22.633    23.244 
 H                    -3.324     27.859    23.948 
 H                    -3.949     24.825    31.936 
 H                    -6.361     23.102    31.536 
 H                    -3.941     21.589    31.115 
 H                    -4.988     21.612    32.561 
 H                    -3.647     22.627    32.515 
 H                    -6.895     25.196    32.167 
 H                    -6.221     26.572    31.31 
 H                    -5.77      27.464    33.358 
 H                    -4.505     26.326    33.567 
 H                    -7.713     19.742    28.973 
 H                    -7.2       18.671    27.683 
 H                    -8.742     19.458    27.595 
 H                    -7.62      18.317    25.185 
 H                    -9.032     18.487    24.083 
 H                    -9.156     18.989    25.751 
 H                    -6.535     24.861    21.91 
 H                    -3.751     25.858    22.046 
 H                    -5.68      23.169    20.824 
 H                    -4.667     22.698    22.095 
 H                    -4.097     23.989    21.048 
 H                    -5.869     27.995    22.601 
 H                    -6.485     26.956    21.384 
 H                    -4.001     27.429    20.338 
 H                    -4.328     29.017    21.121 
 H                    -5.402     28.282    19.852 
 H                    -1.719     30.243    26.67 
 H                    -2.23      29.702    25.134 
 H                    -0.779     28.87     25.776 
 H                    -3.744     28.083    30.968 
 H                    -0.903     25.955    33.377 
 H                    -1.918     26.795    34.526 
 H                    -0.581     27.647    33.622 
 H                    -6.805     25.045    36.919 
 H                    -5.552     23.912    36.986 
 H                    -7.603     22.722    35.239 
 H                    -9.073     23.092    39.001 
 H                    -7.374     23.572    39.053 
 H                    -7.895     21.896    39.168 
 H                    -9.125     20.653    37.605 
 H                    -8.743     20.94     35.936 
 H                    -10.933    21.508    35.604 
 H                    -10.722    22.986    36.458 
 H                    -11.703    22.058    38.526 
 H                    -11.135    20.428    38.124 
 H                    -12.965    20.936    36.023 
 H                    -14.726    22.375    36.559 
 H                    -13.333    23.172    37.463 
 H                    -14.44     22.113    38.27 
 H                    -14.63     19.912    37.675 
 H                    -13.303    19.912    38.862 
 H                    -12.534    18.6      36.238 
 H                    -14.049    17.998    36.954 
 H                    -12.658    16.593    38.054 
 H                    -12.406    17.821    39.225 
 H                    -10.514    18.078    37.052 
 H                    -10.157    17.351    40.03 
 H                    -10.455    18.947    39.563 
 H                    -8.954     18.207    38.992 
 H                    -10.858    15.612    36.761 
 H                    -10.631    15.322    38.531 
 H                    -8.372     16.656    37.528 
 H                    -8.777     15.524    36.329 
 H                    -8.696     13.812    37.816 
 H                    -8.331     14.827    39.278 
 H                    -6.427     15.052    36.807 
 H                    -6.964     12.533    37.286 
 H                    -6.107     12.809    38.799 
 H                    -5.374     12.858    37.073 
 H                    -5.18      16.196    38.275 
 H                    -5.026     14.617    39.188 
 H                    -6.372     15.759    39.539 
 
 ITRead=  0  0  0  0  0  0  0  0  0  0  0  0  0  0  0  0  0  0  0  0
 ITRead=  0  0  0  0  0  0  0  0  0  0  0  0  0  0  0  0  0  0  0  0
 ITRead=  0  0  0  0  0  0  0  0  0  0  0  0  0  0  0  0  0  0  0  0
 ITRead=  0  0  0  0  0  0  0  0  0  0  0  0  0  0  0  0  0  0  0  0
 ITRead=  0  0  0  0  0  0  0  0  0  0  0  0  0  0  0  0  0  0  0  0
 ITRead=  0  0  0  0  0  0  0  0  0  0  0  0  0  0  0  0  0  0  0  0
 ITRead=  0  0  0  0  0  0  0  0  0  0  0  0  0  0  0  0  0  0  0  0
 MicOpt= -1 -1 -1 -1 -1 -1 -1 -1 -1 -1 -1 -1 -1 -1 -1 -1 -1 -1 -1 -1
 MicOpt= -1 -1 -1 -1 -1 -1 -1 -1 -1 -1 -1 -1 -1 -1 -1 -1 -1 -1 -1 -1
 MicOpt= -1 -1 -1 -1 -1 -1 -1 -1 -1 -1 -1 -1 -1 -1 -1 -1 -1 -1 -1 -1
 MicOpt= -1 -1 -1 -1 -1 -1 -1 -1 -1 -1 -1 -1 -1 -1 -1 -1 -1 -1 -1 -1
 MicOpt= -1 -1 -1 -1 -1 -1 -1 -1 -1 -1 -1 -1 -1 -1 -1 -1 -1 -1 -1 -1
 MicOpt= -1 -1 -1 -1 -1 -1 -1 -1 -1 -1 -1 -1 -1 -1 -1 -1 -1 -1 -1 -1
 MicOpt= -1 -1 -1 -1 -1 -1 -1 -1 -1 -1 -1 -1 -1 -1 -1 -1 -1 -1 -1 -1
 NAtoms=    140 NQM=      140 NQMF=       0 NMMI=      0 NMMIF=      0
                NMic=       0 NMicF=      0.
                    Isotopes and Nuclear Properties:
 (Nuclear quadrupole moments (NQMom) in fm**2, nuclear magnetic moments (NMagM)
  in nuclear magnetons)

  Atom         1           2           3           4           5           6           7           8           9          10
 IAtWgt=          24          12          12          12          12          14          12          12          12          12
 AtmWgt=  23.9850450  12.0000000  12.0000000  12.0000000  12.0000000  14.0030740  12.0000000  12.0000000  12.0000000  12.0000000
 NucSpn=           0           0           0           0           0           2           0           0           0           0
 AtZEff=  -0.0000000  -0.0000000  -0.0000000  -0.0000000  -0.0000000  -0.0000000  -0.0000000  -0.0000000  -0.0000000  -0.0000000
 NQMom=    0.0000000   0.0000000   0.0000000   0.0000000   0.0000000   2.0440000   0.0000000   0.0000000   0.0000000   0.0000000
 NMagM=    0.0000000   0.0000000   0.0000000   0.0000000   0.0000000   0.4037610   0.0000000   0.0000000   0.0000000   0.0000000
 AtZNuc=  12.0000000   6.0000000   6.0000000   6.0000000   6.0000000   7.0000000   6.0000000   6.0000000   6.0000000   6.0000000

  Atom        11          12          13          14          15          16          17          18          19          20
 IAtWgt=          12          12          12          12          16          16          14          12          12          12
 AtmWgt=  12.0000000  12.0000000  12.0000000  12.0000000  15.9949146  15.9949146  14.0030740  12.0000000  12.0000000  12.0000000
 NucSpn=           0           0           0           0           0           0           2           0           0           0
 AtZEff=  -0.0000000  -0.0000000  -0.0000000  -0.0000000  -0.0000000  -0.0000000  -0.0000000  -0.0000000  -0.0000000  -0.0000000
 NQMom=    0.0000000   0.0000000   0.0000000   0.0000000   0.0000000   0.0000000   2.0440000   0.0000000   0.0000000   0.0000000
 NMagM=    0.0000000   0.0000000   0.0000000   0.0000000   0.0000000   0.0000000   0.4037610   0.0000000   0.0000000   0.0000000
 AtZNuc=   6.0000000   6.0000000   6.0000000   6.0000000   8.0000000   8.0000000   7.0000000   6.0000000   6.0000000   6.0000000

  Atom        21          22          23          24          25          26          27          28          29          30
 IAtWgt=          12          12          12          16          12          14          12          12          12          12
 AtmWgt=  12.0000000  12.0000000  12.0000000  15.9949146  12.0000000  14.0030740  12.0000000  12.0000000  12.0000000  12.0000000
 NucSpn=           0           0           0           0           0           2           0           0           0           0
 AtZEff=  -0.0000000  -0.0000000  -0.0000000  -0.0000000  -0.0000000  -0.0000000  -0.0000000  -0.0000000  -0.0000000  -0.0000000
 NQMom=    0.0000000   0.0000000   0.0000000   0.0000000   0.0000000   2.0440000   0.0000000   0.0000000   0.0000000   0.0000000
 NMagM=    0.0000000   0.0000000   0.0000000   0.0000000   0.0000000   0.4037610   0.0000000   0.0000000   0.0000000   0.0000000
 AtZNuc=   6.0000000   6.0000000   6.0000000   8.0000000   6.0000000   7.0000000   6.0000000   6.0000000   6.0000000   6.0000000

  Atom        31          32          33          34          35          36          37          38          39          40
 IAtWgt=          12          12          12          14          12          12          12          12          12          12
 AtmWgt=  12.0000000  12.0000000  12.0000000  14.0030740  12.0000000  12.0000000  12.0000000  12.0000000  12.0000000  12.0000000
 NucSpn=           0           0           0           2           0           0           0           0           0           0
 AtZEff=  -0.0000000  -0.0000000  -0.0000000  -0.0000000  -0.0000000  -0.0000000  -0.0000000  -0.0000000  -0.0000000  -0.0000000
 NQMom=    0.0000000   0.0000000   0.0000000   2.0440000   0.0000000   0.0000000   0.0000000   0.0000000   0.0000000   0.0000000
 NMagM=    0.0000000   0.0000000   0.0000000   0.4037610   0.0000000   0.0000000   0.0000000   0.0000000   0.0000000   0.0000000
 AtZNuc=   6.0000000   6.0000000   6.0000000   7.0000000   6.0000000   6.0000000   6.0000000   6.0000000   6.0000000   6.0000000

  Atom        41          42          43          44          45          46          47          48          49          50
 IAtWgt=          16          12          12          16          16          12          12          12          12          12
 AtmWgt=  15.9949146  12.0000000  12.0000000  15.9949146  15.9949146  12.0000000  12.0000000  12.0000000  12.0000000  12.0000000
 NucSpn=           0           0           0           0           0           0           0           0           0           0
 AtZEff=  -0.0000000  -0.0000000  -0.0000000  -0.0000000  -0.0000000  -0.0000000  -0.0000000  -0.0000000  -0.0000000  -0.0000000
 NQMom=    0.0000000   0.0000000   0.0000000   0.0000000   0.0000000   0.0000000   0.0000000   0.0000000   0.0000000   0.0000000
 NMagM=    0.0000000   0.0000000   0.0000000   0.0000000   0.0000000   0.0000000   0.0000000   0.0000000   0.0000000   0.0000000
 AtZNuc=   8.0000000   6.0000000   6.0000000   8.0000000   8.0000000   6.0000000   6.0000000   6.0000000   6.0000000   6.0000000

  Atom        51          52          53          54          55          56          57          58          59          60
 IAtWgt=          12          12          12          12          12          12          12          12          12          12
 AtmWgt=  12.0000000  12.0000000  12.0000000  12.0000000  12.0000000  12.0000000  12.0000000  12.0000000  12.0000000  12.0000000
 NucSpn=           0           0           0           0           0           0           0           0           0           0
 AtZEff=  -0.0000000  -0.0000000  -0.0000000  -0.0000000  -0.0000000  -0.0000000  -0.0000000  -0.0000000  -0.0000000  -0.0000000
 NQMom=    0.0000000   0.0000000   0.0000000   0.0000000   0.0000000   0.0000000   0.0000000   0.0000000   0.0000000   0.0000000
 NMagM=    0.0000000   0.0000000   0.0000000   0.0000000   0.0000000   0.0000000   0.0000000   0.0000000   0.0000000   0.0000000
 AtZNuc=   6.0000000   6.0000000   6.0000000   6.0000000   6.0000000   6.0000000   6.0000000   6.0000000   6.0000000   6.0000000

  Atom        61          62          63          64          65          66          67          68          69          70
 IAtWgt=          12          12          12          12          12          12           1           1           1           1
 AtmWgt=  12.0000000  12.0000000  12.0000000  12.0000000  12.0000000  12.0000000   1.0078250   1.0078250   1.0078250   1.0078250
 NucSpn=           0           0           0           0           0           0           1           1           1           1
 AtZEff=  -0.0000000  -0.0000000  -0.0000000  -0.0000000  -0.0000000  -0.0000000  -0.0000000  -0.0000000  -0.0000000  -0.0000000
 NQMom=    0.0000000   0.0000000   0.0000000   0.0000000   0.0000000   0.0000000   0.0000000   0.0000000   0.0000000   0.0000000
 NMagM=    0.0000000   0.0000000   0.0000000   0.0000000   0.0000000   0.0000000   2.7928460   2.7928460   2.7928460   2.7928460
 AtZNuc=   6.0000000   6.0000000   6.0000000   6.0000000   6.0000000   6.0000000   1.0000000   1.0000000   1.0000000   1.0000000

  Atom        71          72          73          74          75          76          77          78          79          80
 IAtWgt=           1           1           1           1           1           1           1           1           1           1
 AtmWgt=   1.0078250   1.0078250   1.0078250   1.0078250   1.0078250   1.0078250   1.0078250   1.0078250   1.0078250   1.0078250
 NucSpn=           1           1           1           1           1           1           1           1           1           1
 AtZEff=  -0.0000000  -0.0000000  -0.0000000  -0.0000000  -0.0000000  -0.0000000  -0.0000000  -0.0000000  -0.0000000  -0.0000000
 NQMom=    0.0000000   0.0000000   0.0000000   0.0000000   0.0000000   0.0000000   0.0000000   0.0000000   0.0000000   0.0000000
 NMagM=    2.7928460   2.7928460   2.7928460   2.7928460   2.7928460   2.7928460   2.7928460   2.7928460   2.7928460   2.7928460
 AtZNuc=   1.0000000   1.0000000   1.0000000   1.0000000   1.0000000   1.0000000   1.0000000   1.0000000   1.0000000   1.0000000

  Atom        81          82          83          84          85          86          87          88          89          90
 IAtWgt=           1           1           1           1           1           1           1           1           1           1
 AtmWgt=   1.0078250   1.0078250   1.0078250   1.0078250   1.0078250   1.0078250   1.0078250   1.0078250   1.0078250   1.0078250
 NucSpn=           1           1           1           1           1           1           1           1           1           1
 AtZEff=  -0.0000000  -0.0000000  -0.0000000  -0.0000000  -0.0000000  -0.0000000  -0.0000000  -0.0000000  -0.0000000  -0.0000000
 NQMom=    0.0000000   0.0000000   0.0000000   0.0000000   0.0000000   0.0000000   0.0000000   0.0000000   0.0000000   0.0000000
 NMagM=    2.7928460   2.7928460   2.7928460   2.7928460   2.7928460   2.7928460   2.7928460   2.7928460   2.7928460   2.7928460
 AtZNuc=   1.0000000   1.0000000   1.0000000   1.0000000   1.0000000   1.0000000   1.0000000   1.0000000   1.0000000   1.0000000

  Atom        91          92          93          94          95          96          97          98          99         100
 IAtWgt=           1           1           1           1           1           1           1           1           1           1
 AtmWgt=   1.0078250   1.0078250   1.0078250   1.0078250   1.0078250   1.0078250   1.0078250   1.0078250   1.0078250   1.0078250
 NucSpn=           1           1           1           1           1           1           1           1           1           1
 AtZEff=  -0.0000000  -0.0000000  -0.0000000  -0.0000000  -0.0000000  -0.0000000  -0.0000000  -0.0000000  -0.0000000  -0.0000000
 NQMom=    0.0000000   0.0000000   0.0000000   0.0000000   0.0000000   0.0000000   0.0000000   0.0000000   0.0000000   0.0000000
 NMagM=    2.7928460   2.7928460   2.7928460   2.7928460   2.7928460   2.7928460   2.7928460   2.7928460   2.7928460   2.7928460
 AtZNuc=   1.0000000   1.0000000   1.0000000   1.0000000   1.0000000   1.0000000   1.0000000   1.0000000   1.0000000   1.0000000

  Atom       101         102         103         104         105         106         107         108         109         110
 IAtWgt=           1           1           1           1           1           1           1           1           1           1
 AtmWgt=   1.0078250   1.0078250   1.0078250   1.0078250   1.0078250   1.0078250   1.0078250   1.0078250   1.0078250   1.0078250
 NucSpn=           1           1           1           1           1           1           1           1           1           1
 AtZEff=  -0.0000000  -0.0000000  -0.0000000  -0.0000000  -0.0000000  -0.0000000  -0.0000000  -0.0000000  -0.0000000  -0.0000000
 NQMom=    0.0000000   0.0000000   0.0000000   0.0000000   0.0000000   0.0000000   0.0000000   0.0000000   0.0000000   0.0000000
 NMagM=    2.7928460   2.7928460   2.7928460   2.7928460   2.7928460   2.7928460   2.7928460   2.7928460   2.7928460   2.7928460
 AtZNuc=   1.0000000   1.0000000   1.0000000   1.0000000   1.0000000   1.0000000   1.0000000   1.0000000   1.0000000   1.0000000

  Atom       111         112         113         114         115         116         117         118         119         120
 IAtWgt=           1           1           1           1           1           1           1           1           1           1
 AtmWgt=   1.0078250   1.0078250   1.0078250   1.0078250   1.0078250   1.0078250   1.0078250   1.0078250   1.0078250   1.0078250
 NucSpn=           1           1           1           1           1           1           1           1           1           1
 AtZEff=  -0.0000000  -0.0000000  -0.0000000  -0.0000000  -0.0000000  -0.0000000  -0.0000000  -0.0000000  -0.0000000  -0.0000000
 NQMom=    0.0000000   0.0000000   0.0000000   0.0000000   0.0000000   0.0000000   0.0000000   0.0000000   0.0000000   0.0000000
 NMagM=    2.7928460   2.7928460   2.7928460   2.7928460   2.7928460   2.7928460   2.7928460   2.7928460   2.7928460   2.7928460
 AtZNuc=   1.0000000   1.0000000   1.0000000   1.0000000   1.0000000   1.0000000   1.0000000   1.0000000   1.0000000   1.0000000

  Atom       121         122         123         124         125         126         127         128         129         130
 IAtWgt=           1           1           1           1           1           1           1           1           1           1
 AtmWgt=   1.0078250   1.0078250   1.0078250   1.0078250   1.0078250   1.0078250   1.0078250   1.0078250   1.0078250   1.0078250
 NucSpn=           1           1           1           1           1           1           1           1           1           1
 AtZEff=  -0.0000000  -0.0000000  -0.0000000  -0.0000000  -0.0000000  -0.0000000  -0.0000000  -0.0000000  -0.0000000  -0.0000000
 NQMom=    0.0000000   0.0000000   0.0000000   0.0000000   0.0000000   0.0000000   0.0000000   0.0000000   0.0000000   0.0000000
 NMagM=    2.7928460   2.7928460   2.7928460   2.7928460   2.7928460   2.7928460   2.7928460   2.7928460   2.7928460   2.7928460
 AtZNuc=   1.0000000   1.0000000   1.0000000   1.0000000   1.0000000   1.0000000   1.0000000   1.0000000   1.0000000   1.0000000

  Atom       131         132         133         134         135         136         137         138         139         140
 IAtWgt=           1           1           1           1           1           1           1           1           1           1
 AtmWgt=   1.0078250   1.0078250   1.0078250   1.0078250   1.0078250   1.0078250   1.0078250   1.0078250   1.0078250   1.0078250
 NucSpn=           1           1           1           1           1           1           1           1           1           1
 AtZEff=  -0.0000000  -0.0000000  -0.0000000  -0.0000000  -0.0000000  -0.0000000  -0.0000000  -0.0000000  -0.0000000  -0.0000000
 NQMom=    0.0000000   0.0000000   0.0000000   0.0000000   0.0000000   0.0000000   0.0000000   0.0000000   0.0000000   0.0000000
 NMagM=    2.7928460   2.7928460   2.7928460   2.7928460   2.7928460   2.7928460   2.7928460   2.7928460   2.7928460   2.7928460
 AtZNuc=   1.0000000   1.0000000   1.0000000   1.0000000   1.0000000   1.0000000   1.0000000   1.0000000   1.0000000   1.0000000
 Leave Link  101 at Thu May  5 00:22:39 2022, MaxMem= 10066329600 cpu:               4.0 elap:               0.2
 (Enter /sw/apps/gaussian-16.0/g16/l202.exe)
 Stoichiometry    C55H74MgN4O6
 Framework group  C1[X(C55H74MgN4O6)]
 Deg. of freedom   414
 Full point group                 C1      NOp   1
 Largest Abelian subgroup         C1      NOp   1
 Largest concise Abelian subgroup C1      NOp   1
                         Standard orientation:                         
 ---------------------------------------------------------------------
 Center     Atomic      Atomic             Coordinates (Angstroms)
 Number     Number       Type             X           Y           Z
 ---------------------------------------------------------------------
      1         12           0       -4.730958    0.894399    0.083161
      2          6           0       -3.759485   -2.558704    0.460171
      3          6           0       -1.370616    1.713587    0.661396
      4          6           0       -5.570399    4.035371   -0.374575
      5          6           0       -8.068101   -0.118293   -0.159852
      6          7           0       -2.785758   -0.363672    0.541805
      7          6           0       -2.607781   -1.706526    0.430820
      8          6           0       -1.136070   -2.084042    0.386169
      9          6           0       -0.365856   -0.711873    0.809316
     10          6           0       -1.565051    0.272926    0.693377
     11          6           0        0.359710   -0.763702    2.177183
     12          6           0       -0.696570   -2.640875   -1.010024
     13          6           0       -0.064621   -4.055847   -0.953731
     14          6           0        1.504499   -4.094924   -1.415068
     15          8           0        1.959732   -4.625848   -2.442438
     16          8           0        2.272727   -3.676867   -0.337185
     17          7           0       -3.654782    2.579339    0.128631
     18          6           0       -2.263080    2.790314    0.412903
     19          6           0       -1.856916    4.213895    0.342420
     20          6           0       -3.091588    4.847006   -0.017128
     21          6           0       -4.149535    3.826180   -0.101083
     22          6           0       -0.448614    4.740587    0.625711
     23          6           0       -3.370179    6.292029   -0.186023
     24          8           0       -4.367686    6.770122   -0.715326
     25          6           0       -2.263162    7.289924    0.206952
     26          7           0       -6.506846    1.769505   -0.386361
     27          6           0       -6.620011    3.112570   -0.499939
     28          6           0       -8.048310    3.580039   -0.541903
     29          6           0       -8.880312    2.274117   -0.523175
     30          6           0       -7.768745    1.207095   -0.405022
     31          6           0       -8.411324    4.604915    0.512129
     32          6           0       -9.716605    2.101070   -1.923795
     33          6           0      -11.315859    1.865835   -1.764672
     34          7           0       -5.780119   -0.927573    0.400742
     35          6           0       -7.157174   -1.166584    0.175270
     36          6           0       -7.385360   -2.610430    0.303255
     37          6           0       -6.073715   -3.152949    0.272573
     38          6           0       -5.163108   -2.110777    0.453254
     39          6           0       -8.693156   -3.393011    0.374483
     40          6           0       -5.359346   -4.450639    0.435209
     41          8           0       -5.705497   -5.656547    0.574531
     42          6           0       -3.827462   -4.073527    0.432299
     43          6           0       -3.182673   -4.697290    1.634800
     44          8           0       -3.655114   -4.687438    2.736205
     45          8           0       -2.054059   -5.367524    1.252099
     46          6           0       -1.552039   -6.283937    2.306953
     47          6           0        3.692417   -4.000254   -0.340195
     48          6           0        4.543017   -2.714295   -0.598089
     49          6           0        5.825099   -2.605662   -0.958810
     50          6           0        6.807194   -3.700150   -0.926281
     51          6           0        6.394891   -1.190499   -1.159269
     52          6           0        6.468878   -0.776839   -2.680119
     53          6           0        7.987161   -0.675030   -3.116448
     54          6           0        8.101640    0.439922   -4.187346
     55          6           0        8.035564   -0.118826   -5.642056
     56          6           0        9.470940    1.138527   -3.972915
     57          6           0        9.455485    2.277607   -2.868488
     58          6           0       10.382374    1.939307   -1.663650
     59          6           0        9.717790    1.547638   -0.298212
     60          6           0       10.219604    0.123813    0.039285
     61          6           0       10.124862    2.607390    0.775644
     62          6           0        9.500795    2.334069    2.145326
     63          6           0       10.401078    2.270715    3.366117
     64          6           0        9.544806    1.901986    4.643625
     65          6           0       10.086822    2.805663    5.831169
     66          6           0        9.660698    0.438287    5.081471
     67          1           0       -0.346767    1.921169    0.978707
     68          1           0       -5.914287    5.059944   -0.532813
     69          1           0       -9.098581   -0.461504   -0.270741
     70          1           0       -0.988880   -2.809803    1.186027
     71          1           0        0.352230   -0.386809    0.055985
     72          1           0       -0.102243   -0.078028    2.888108
     73          1           0        1.415800   -0.518300    2.057830
     74          1           0        0.426509   -1.746696    2.643465
     75          1           0        0.042521   -1.996634   -1.486965
     76          1           0       -1.541852   -2.724047   -1.693685
     77          1           0       -0.475349   -4.737978   -1.698566
     78          1           0       -0.200700   -4.588402   -0.012996
     79          1           0        0.366535    4.016769    0.598908
     80          1           0       -0.337983    5.312689    1.546831
     81          1           0       -0.250665    5.449343   -0.179025
     82          1           0       -2.035836    7.205346    1.269588
     83          1           0       -2.515196    8.316272   -0.061992
     84          1           0       -1.368353    7.033529   -0.360191
     85          1           0       -8.189076    4.142440   -1.465927
     86          1           0       -9.524154    2.227684    0.354632
     87          1           0       -8.550265    5.609659    0.112078
     88          1           0       -7.651850    4.771865    1.275867
     89          1           0       -9.312503    4.258332    1.018375
     90          1           0       -9.365659    1.282066   -2.550777
     91          1           0       -9.634613    2.975406   -2.568947
     92          1           0      -11.567031    2.245648   -0.774145
     93          1           0      -11.583566    0.813168   -1.864782
     94          1           0      -11.881103    2.513506   -2.434330
     95          1           0       -8.604754   -4.383857   -0.070635
     96          1           0       -9.405996   -2.891620   -0.281201
     97          1           0       -8.993618   -3.286648    1.416941
     98          1           0       -3.401968   -4.588321   -0.428747
     99          1           0       -1.426862   -5.694653    3.215142
    100          1           0       -0.550935   -6.540942    1.961119
    101          1           0       -2.152255   -7.147949    2.591997
    102          1           0        3.913768   -4.733128   -1.116210
    103          1           0        4.075735   -4.498302    0.550167
    104          1           0        3.950310   -1.798960   -0.621382
    105          1           0        7.315616   -3.674072   -1.889891
    106          1           0        6.537438   -4.734975   -0.711491
    107          1           0        7.614428   -3.423711   -0.248544
    108          1           0        7.377605   -1.132620   -0.690965
    109          1           0        5.762162   -0.503753   -0.597573
    110          1           0        5.982820    0.194819   -2.763734
    111          1           0        5.889408   -1.423582   -3.338515
    112          1           0        8.341716   -1.596628   -3.576019
    113          1           0        8.601779   -0.458587   -2.242469
    114          1           0        7.300364    1.178214   -4.152539
    115          1           0        7.654150    0.582911   -6.384038
    116          1           0        7.516998   -1.075877   -5.595060
    117          1           0        9.059487   -0.361934   -5.925501
    118          1           0        9.700924    1.597814   -4.934305
    119          1           0       10.196824    0.353333   -3.761595
    120          1           0        8.443720    2.499251   -2.528815
    121          1           0        9.835490    3.116310   -3.452124
    122          1           0       10.912515    2.874062   -1.477222
    123          1           0       11.180202    1.225628   -1.869314
    124          1           0        8.648540    1.553893   -0.508957
    125          1           0       11.273319    0.155554    0.315451
    126          1           0       10.235376   -0.556629   -0.811305
    127          1           0        9.608612   -0.320224    0.825131
    128          1           0        9.715505    3.581640    0.507901
    129          1           0       11.202307    2.645630    0.934321
    130          1           0        8.969971    1.383928    2.080371
    131          1           0        8.686831    3.044836    2.290764
    132          1           0       10.677856    3.324636    3.342526
    133          1           0       11.242948    1.606270    3.172873
    134          1           0        8.482269    2.127750    4.547061
    135          1           0       10.262284    3.817012    5.464184
    136          1           0       11.051858    2.380826    6.107406
    137          1           0        9.382664    3.064983    6.621689
    138          1           0        8.684073   -0.045390    5.052539
    139          1           0       10.123351    0.450766    6.068824
    140          1           0       10.326273    0.001098    4.338015
 ---------------------------------------------------------------------
 Rotational constants (GHZ):           0.0373223           0.0123639           0.0106634
 Leave Link  202 at Thu May  5 00:22:39 2022, MaxMem= 10066329600 cpu:               0.4 elap:               0.0
 (Enter /sw/apps/gaussian-16.0/g16/l301.exe)
 Standard basis: def2SVP (5D, 7F)
 Ernie: Thresh=  0.10000D-02 Tol=  0.10000D-05 Strict=F.
 There are  1364 symmetry adapted cartesian basis functions of A   symmetry.
 There are  1298 symmetry adapted basis functions of A   symmetry.
  1298 basis functions,  2180 primitive gaussians,  1364 cartesian basis functions
   246 alpha electrons      246 beta electrons
       nuclear repulsion energy      9644.7540100668 Hartrees.
 IExCor= 4639 DFT=T Ex+Corr=wB97XD ExCW=0 ScaHFX=  1.000000
 ScaDFX=  1.000000  1.000000  1.000000  1.000000 ScalE2=  1.000000  1.000000
 IRadAn=      5 IRanWt=     -1 IRanGd=            0 ICorTp=0 IEmpDi=121
 HFx  wShort=  0.000000 wLong=  0.200000 cFull=  0.222036 cShort=  0.000000 cLong=  0.777964
 DFx  wShort=  0.000000 wLong=  0.200000 cFull=  0.000000 cShort=  0.000000 cLong=  1.000000
 NAtoms=  140 NActive=  140 NUniq=  140 SFac= 1.00D+00 NAtFMM=   60 NAOKFM=T Big=T
 Integral buffers will be    131072 words long.
 Raffenetti 1 integral format.
 Two-electron integral symmetry is turned on.
 R6Disp:  Grimme-D2 Dispersion energy=       -0.1340641701 Hartrees.
 Nuclear repulsion after empirical dispersion term =     9644.6199458967 Hartrees.
 Leave Link  301 at Thu May  5 00:22:39 2022, MaxMem= 10066329600 cpu:               1.8 elap:               0.1
 (Enter /sw/apps/gaussian-16.0/g16/l302.exe)
 NPDir=0 NMtPBC=     1 NCelOv=     1 NCel=       1 NClECP=     1 NCelD=      1
         NCelK=      1 NCelE2=     1 NClLst=     1 CellRange=     0.0.
 One-electron integrals computed using PRISM.
 One-electron integral symmetry used in STVInt
   1 Symmetry operations used in ECPInt.
 ECPInt:  NShTT=  192510 NPrTT=  683786 LenC2=   98092 LenP2D=  212103.
 LDataN:  DoStor=T MaxTD1= 4 Len=   56
 NBasis=  1298 RedAO= T EigKep=  3.42D-04  NBF=  1298
 NBsUse=  1298 1.00D-06 EigRej= -1.00D+00 NBFU=  1298
 Precomputing XC quadrature grid using
 IXCGrd= 4 IRadAn=           5 IRanWt=          -1 IRanGd=           0 AccXCQ= 0.00D+00.
 Generated NRdTot=       0 NPtTot=           0 NUsed=           0 NTot=          32
 NSgBfM=  1174  1173  1173  1173  1174 MxSgAt=   140 MxSgA2=   140.
 Leave Link  302 at Thu May  5 00:22:43 2022, MaxMem= 10066329600 cpu:              94.1 elap:               3.9
 (Enter /sw/apps/gaussian-16.0/g16/l303.exe)
 DipDrv:  MaxL=1.
 Leave Link  303 at Thu May  5 00:22:44 2022, MaxMem= 10066329600 cpu:               7.5 elap:               0.4
 (Enter /sw/apps/gaussian-16.0/g16/l308.exe)
 Leave Link  308 at Thu May  5 00:22:44 2022, MaxMem= 10066329600 cpu:              10.4 elap:               0.5
 (Enter /sw/apps/gaussian-16.0/g16/l401.exe)
 ExpMin= 3.36D-02 ExpMax= 4.95D+03 ExpMxC= 7.45D+02 IAcc=3 IRadAn=         5 AccDes= 0.00D+00
 Harris functional with IExCor= 4639 and IRadAn=       5 diagonalized for initial guess.
 HarFok:  IExCor= 4639 AccDes= 0.00D+00 IRadAn=         5 IDoV= 1 UseB2=F ITyADJ=14
 ICtDFT=  3500011 ScaDFX=  1.000000  1.000000  1.000000  1.000000
 FoFCou: FMM=F IPFlag=           0 FMFlag=      100000 FMFlg1=        2001
         NFxFlg=           0 DoJE=T BraDBF=F KetDBF=T FulRan=T
         wScrn=  0.000000 ICntrl=       500 IOpCl=  0 I1Cent=   200000004 NGrid=           0
         NMat0=    1 NMatS0=      1 NMatT0=    0 NMatD0=    1 NMtDS0=    0 NMtDT0=    0
 Petite list used in FoFCou.
 Harris En= -2878.08217947668    
 JPrj=0 DoOrth=F DoCkMO=F.
 Leave Link  401 at Thu May  5 00:22:51 2022, MaxMem= 10066329600 cpu:             146.8 elap:               6.1
 (Enter /sw/apps/gaussian-16.0/g16/l502.exe)
 Integral symmetry usage will be decided dynamically.
 Closed shell SCF:
 Using DIIS extrapolation, IDIIS=  1040.
 NGot= 10066329600 LenX= 10062561258 LenY= 10060699398
 Requested convergence on RMS density matrix=1.00D-08 within 128 cycles.
 Requested convergence on MAX density matrix=1.00D-06.
 Requested convergence on             energy=1.00D-06.
 No special actions if energy rises.
 Fock matrices will be formed incrementally for  20 cycles.

 Cycle   1  Pass 1  IDiag  1:
 FoFJK:  IHMeth= 1 ICntrl=       0 DoSepK=T KAlg= 0 I1Cent=           0 FoldK=F
 IRaf=         1 NMat=       1 IRICut=       1 DoRegI=T DoRafI=F ISym2E= 0 IDoP0=0 IntGTp=1.
 FoFCou: FMM=T IPFlag=           0 FMFlag=      100000 FMFlg1=        2001
         NFxFlg=           0 DoJE=T BraDBF=F KetDBF=F FulRan=T
         wScrn=  0.000000 ICntrl=       500 IOpCl=  0 I1Cent=           0 NGrid=           0
         NMat0=    1 NMatS0=      1 NMatT0=    0 NMatD0=    1 NMtDS0=    0 NMtDT0=    0
 Symmetry not used in FoFCou.
 FMM levels:  10  Number of levels for PrismC:   9
 E= -3007.18818191540    
 DIIS: error= 3.82D-02 at cycle   1 NSaved=   1.
 NSaved= 1 IEnMin= 1 EnMin= -3007.18818191540     IErMin= 1 ErrMin= 3.82D-02
 ErrMax= 3.82D-02  0.00D+00 EMaxC= 1.00D-01 BMatC= 1.50D+00 BMatP= 1.50D+00
 IDIUse=3 WtCom= 6.18D-01 WtEn= 3.82D-01
 Coeff-Com:  0.100D+01
 Coeff-En:   0.100D+01
 Coeff:      0.100D+01
 Gap=     0.152 Goal=   None    Shift=    0.000
 GapD=    0.152 DampG=1.000 DampE=0.500 DampFc=0.5000 IDamp=-1.
 Damping current iteration by 5.00D-01
 RMSDP=1.54D-03 MaxDP=2.24D-01              OVMax= 1.82D-01

 Cycle   2  Pass 1  IDiag  1:
 RMSU=  7.61D-04    CP:  9.87D-01
 E= -3007.51323042059     Delta-E=       -0.325048505199 Rises=F Damp=T
 DIIS: error= 1.57D-02 at cycle   2 NSaved=   2.
 NSaved= 2 IEnMin= 2 EnMin= -3007.51323042059     IErMin= 2 ErrMin= 1.57D-02
 ErrMax= 1.57D-02  0.00D+00 EMaxC= 1.00D-01 BMatC= 2.89D-01 BMatP= 1.50D+00
 IDIUse=3 WtCom= 8.43D-01 WtEn= 1.57D-01
 Coeff-Com: -0.347D+00 0.135D+01
 Coeff-En:   0.000D+00 0.100D+01
 Coeff:     -0.293D+00 0.129D+01
 Gap=     0.177 Goal=   None    Shift=    0.000
 RMSDP=6.82D-04 MaxDP=1.00D-01 DE=-3.25D-01 OVMax= 1.57D-01

 Cycle   3  Pass 1  IDiag  1:
 RMSU=  6.38D-04    CP:  9.79D-01  1.31D+00
 E= -3007.75351237917     Delta-E=       -0.240281958573 Rises=F Damp=F
 DIIS: error= 1.19D-02 at cycle   3 NSaved=   3.
 NSaved= 3 IEnMin= 3 EnMin= -3007.75351237917     IErMin= 3 ErrMin= 1.19D-02
 ErrMax= 1.19D-02  0.00D+00 EMaxC= 1.00D-01 BMatC= 1.37D-01 BMatP= 2.89D-01
 IDIUse=3 WtCom= 8.81D-01 WtEn= 1.19D-01
 Coeff-Com: -0.304D+00 0.681D+00 0.624D+00
 Coeff-En:   0.000D+00 0.000D+00 0.100D+01
 Coeff:     -0.268D+00 0.600D+00 0.668D+00
 Gap=     0.159 Goal=   None    Shift=    0.000
 RMSDP=4.14D-04 MaxDP=4.48D-02 DE=-2.40D-01 OVMax= 9.74D-02

 Cycle   4  Pass 1  IDiag  1:
 RMSU=  2.20D-04    CP:  9.75D-01  1.60D+00  5.81D-01
 E= -3007.85379031205     Delta-E=       -0.100277932883 Rises=F Damp=F
 DIIS: error= 3.90D-03 at cycle   4 NSaved=   4.
 NSaved= 4 IEnMin= 4 EnMin= -3007.85379031205     IErMin= 4 ErrMin= 3.90D-03
 ErrMax= 3.90D-03  0.00D+00 EMaxC= 1.00D-01 BMatC= 2.03D-02 BMatP= 1.37D-01
 IDIUse=3 WtCom= 9.61D-01 WtEn= 3.90D-02
 Coeff-Com: -0.116D+00 0.234D+00 0.369D+00 0.513D+00
 Coeff-En:   0.000D+00 0.000D+00 0.986D-01 0.901D+00
 Coeff:     -0.112D+00 0.225D+00 0.359D+00 0.528D+00
 Gap=     0.157 Goal=   None    Shift=    0.000
 RMSDP=1.27D-04 MaxDP=1.57D-02 DE=-1.00D-01 OVMax= 2.89D-02

 Cycle   5  Pass 1  IDiag  1:
 RMSU=  6.09D-05    CP:  9.76D-01  1.57D+00  7.06D-01  6.61D-01
 E= -3007.87068879878     Delta-E=       -0.016898486730 Rises=F Damp=F
 DIIS: error= 6.45D-04 at cycle   5 NSaved=   5.
 NSaved= 5 IEnMin= 5 EnMin= -3007.87068879878     IErMin= 5 ErrMin= 6.45D-04
 ErrMax= 6.45D-04  0.00D+00 EMaxC= 1.00D-01 BMatC= 4.68D-04 BMatP= 2.03D-02
 IDIUse=3 WtCom= 9.94D-01 WtEn= 6.45D-03
 Coeff-Com: -0.310D-01 0.590D-01 0.123D+00 0.232D+00 0.618D+00
 Coeff-En:   0.000D+00 0.000D+00 0.000D+00 0.000D+00 0.100D+01
 Coeff:     -0.308D-01 0.586D-01 0.122D+00 0.230D+00 0.620D+00
 Gap=     0.157 Goal=   None    Shift=    0.000
 RMSDP=2.53D-05 MaxDP=5.10D-03 DE=-1.69D-02 OVMax= 5.26D-03

 Cycle   6  Pass 1  IDiag  1:
 RMSU=  2.13D-05    CP:  9.75D-01  1.57D+00  7.08D-01  7.13D-01  8.99D-01
 E= -3007.87107185705     Delta-E=       -0.000383058266 Rises=F Damp=F
 DIIS: error= 2.37D-04 at cycle   6 NSaved=   6.
 NSaved= 6 IEnMin= 6 EnMin= -3007.87107185705     IErMin= 6 ErrMin= 2.37D-04
 ErrMax= 2.37D-04  0.00D+00 EMaxC= 1.00D-01 BMatC= 6.47D-05 BMatP= 4.68D-04
 IDIUse=3 WtCom= 9.98D-01 WtEn= 2.37D-03
 Coeff-Com:  0.930D-02-0.202D-01-0.149D-01 0.532D-03 0.273D+00 0.752D+00
 Coeff-En:   0.000D+00 0.000D+00 0.000D+00 0.000D+00 0.000D+00 0.100D+01
 Coeff:      0.928D-02-0.201D-01-0.148D-01 0.530D-03 0.272D+00 0.753D+00
 Gap=     0.157 Goal=   None    Shift=    0.000
 RMSDP=1.17D-05 MaxDP=1.21D-03 DE=-3.83D-04 OVMax= 4.36D-03

 Cycle   7  Pass 1  IDiag  1:
 RMSU=  8.02D-06    CP:  9.75D-01  1.57D+00  7.13D-01  7.30D-01  1.00D+00
                    CP:  9.49D-01
 E= -3007.87114922734     Delta-E=       -0.000077370289 Rises=F Damp=F
 DIIS: error= 6.62D-05 at cycle   7 NSaved=   7.
 NSaved= 7 IEnMin= 7 EnMin= -3007.87114922734     IErMin= 7 ErrMin= 6.62D-05
 ErrMax= 6.62D-05  0.00D+00 EMaxC= 1.00D-01 BMatC= 7.30D-06 BMatP= 6.47D-05
 IDIUse=1 WtCom= 1.00D+00 WtEn= 0.00D+00
 Coeff-Com:  0.677D-02-0.137D-01-0.172D-01-0.231D-01 0.462D-01 0.305D+00
 Coeff-Com:  0.697D+00
 Coeff:      0.677D-02-0.137D-01-0.172D-01-0.231D-01 0.462D-01 0.305D+00
 Coeff:      0.697D+00
 Gap=     0.158 Goal=   None    Shift=    0.000
 RMSDP=4.78D-06 MaxDP=1.12D-03 DE=-7.74D-05 OVMax= 1.33D-03

 Cycle   8  Pass 1  IDiag  1:
 RMSU=  3.27D-06    CP:  9.75D-01  1.57D+00  7.15D-01  7.35D-01  1.03D+00
                    CP:  1.07D+00  1.04D+00
 E= -3007.87116034770     Delta-E=       -0.000011120361 Rises=F Damp=F
 DIIS: error= 3.78D-05 at cycle   8 NSaved=   8.
 NSaved= 8 IEnMin= 8 EnMin= -3007.87116034770     IErMin= 8 ErrMin= 3.78D-05
 ErrMax= 3.78D-05  0.00D+00 EMaxC= 1.00D-01 BMatC= 1.39D-06 BMatP= 7.30D-06
 IDIUse=1 WtCom= 1.00D+00 WtEn= 0.00D+00
 Coeff-Com:  0.161D-02-0.301D-02-0.545D-02-0.116D-01-0.277D-01 0.825D-02
 Coeff-Com:  0.315D+00 0.723D+00
 Coeff:      0.161D-02-0.301D-02-0.545D-02-0.116D-01-0.277D-01 0.825D-02
 Coeff:      0.315D+00 0.723D+00
 Gap=     0.158 Goal=   None    Shift=    0.000
 RMSDP=2.37D-06 MaxDP=1.56D-04 DE=-1.11D-05 OVMax= 1.42D-03

 Cycle   9  Pass 1  IDiag  1:
 RMSU=  1.56D-06    CP:  9.75D-01  1.57D+00  7.15D-01  7.36D-01  1.04D+00
                    CP:  1.11D+00  1.21D+00  1.08D+00
 E= -3007.87116376923     Delta-E=       -0.000003421530 Rises=F Damp=F
 DIIS: error= 1.40D-05 at cycle   9 NSaved=   9.
 NSaved= 9 IEnMin= 9 EnMin= -3007.87116376923     IErMin= 9 ErrMin= 1.40D-05
 ErrMax= 1.40D-05  0.00D+00 EMaxC= 1.00D-01 BMatC= 2.96D-07 BMatP= 1.39D-06
 IDIUse=1 WtCom= 1.00D+00 WtEn= 0.00D+00
 Coeff-Com: -0.508D-03 0.111D-02 0.787D-03-0.739D-03-0.185D-01-0.479D-01
 Coeff-Com:  0.222D-02 0.299D+00 0.764D+00
 Coeff:     -0.508D-03 0.111D-02 0.787D-03-0.739D-03-0.185D-01-0.479D-01
 Coeff:      0.222D-02 0.299D+00 0.764D+00
 Gap=     0.158 Goal=   None    Shift=    0.000
 RMSDP=1.50D-06 MaxDP=1.98D-04 DE=-3.42D-06 OVMax= 7.31D-04

 Cycle  10  Pass 1  IDiag  1:
 RMSU=  7.99D-07    CP:  9.75D-01  1.57D+00  7.16D-01  7.37D-01  1.04D+00
                    CP:  1.13D+00  1.29D+00  1.35D+00  1.30D+00
 E= -3007.87116497881     Delta-E=       -0.000001209581 Rises=F Damp=F
 DIIS: error= 1.71D-05 at cycle  10 NSaved=  10.
 NSaved=10 IEnMin=10 EnMin= -3007.87116497881     IErMin= 9 ErrMin= 1.40D-05
 ErrMax= 1.71D-05  0.00D+00 EMaxC= 1.00D-01 BMatC= 7.54D-08 BMatP= 2.96D-07
 IDIUse=1 WtCom= 1.00D+00 WtEn= 0.00D+00
 Coeff-Com: -0.675D-03 0.133D-02 0.190D-02 0.310D-02 0.772D-03-0.223D-01
 Coeff-Com: -0.962D-01-0.713D-01 0.262D+00 0.921D+00
 Coeff:     -0.675D-03 0.133D-02 0.190D-02 0.310D-02 0.772D-03-0.223D-01
 Coeff:     -0.962D-01-0.713D-01 0.262D+00 0.921D+00
 Gap=     0.158 Goal=   None    Shift=    0.000
 RMSDP=1.22D-06 MaxDP=8.70D-05 DE=-1.21D-06 OVMax= 8.24D-04

 Cycle  11  Pass 1  IDiag  1:
 RMSU=  5.18D-07    CP:  9.75D-01  1.57D+00  7.16D-01  7.37D-01  1.04D+00
                    CP:  1.14D+00  1.35D+00  1.50D+00  1.78D+00  1.44D+00
 E= -3007.87116565985     Delta-E=       -0.000000681039 Rises=F Damp=F
 DIIS: error= 7.29D-06 at cycle  11 NSaved=  11.
 NSaved=11 IEnMin=11 EnMin= -3007.87116565985     IErMin=11 ErrMin= 7.29D-06
 ErrMax= 7.29D-06  0.00D+00 EMaxC= 1.00D-01 BMatC= 4.63D-08 BMatP= 7.54D-08
 IDIUse=1 WtCom= 1.00D+00 WtEn= 0.00D+00
 Coeff-Com: -0.177D-03 0.323D-03 0.658D-03 0.171D-02 0.544D-02 0.308D-02
 Coeff-Com: -0.495D-01-0.105D+00-0.135D+00 0.500D+00 0.779D+00
 Coeff:     -0.177D-03 0.323D-03 0.658D-03 0.171D-02 0.544D-02 0.308D-02
 Coeff:     -0.495D-01-0.105D+00-0.135D+00 0.500D+00 0.779D+00
 Gap=     0.158 Goal=   None    Shift=    0.000
 RMSDP=8.48D-07 MaxDP=6.00D-05 DE=-6.81D-07 OVMax= 5.32D-04

 Cycle  12  Pass 1  IDiag  1:
 RMSU=  2.58D-07    CP:  9.75D-01  1.57D+00  7.16D-01  7.38D-01  1.04D+00
                    CP:  1.14D+00  1.38D+00  1.61D+00  2.06D+00  2.02D+00
                    CP:  1.39D+00
 E= -3007.87116597763     Delta-E=       -0.000000317781 Rises=F Damp=F
 DIIS: error= 6.66D-06 at cycle  12 NSaved=  12.
 NSaved=12 IEnMin=12 EnMin= -3007.87116597763     IErMin=12 ErrMin= 6.66D-06
 ErrMax= 6.66D-06  0.00D+00 EMaxC= 1.00D-01 BMatC= 1.33D-08 BMatP= 4.63D-08
 IDIUse=1 WtCom= 1.00D+00 WtEn= 0.00D+00
 Coeff-Com:  0.279D-03-0.557D-03-0.757D-03-0.909D-03 0.113D-02 0.123D-01
 Coeff-Com:  0.294D-01 0.212D-01-0.196D+00-0.272D+00 0.143D+00 0.126D+01
 Coeff:      0.279D-03-0.557D-03-0.757D-03-0.909D-03 0.113D-02 0.123D-01
 Coeff:      0.294D-01 0.212D-01-0.196D+00-0.272D+00 0.143D+00 0.126D+01
 Gap=     0.158 Goal=   None    Shift=    0.000
 RMSDP=9.15D-07 MaxDP=6.98D-05 DE=-3.18D-07 OVMax= 6.18D-04

 Cycle  13  Pass 1  IDiag  1:
 RMSU=  1.69D-07    CP:  9.75D-01  1.57D+00  7.16D-01  7.38D-01  1.04D+00
                    CP:  1.14D+00  1.40D+00  1.69D+00  2.37D+00  2.63D+00
                    CP:  2.25D+00  1.85D+00
 E= -3007.87116618208     Delta-E=       -0.000000204449 Rises=F Damp=F
 DIIS: error= 3.20D-06 at cycle  13 NSaved=  13.
 NSaved=13 IEnMin=13 EnMin= -3007.87116618208     IErMin=13 ErrMin= 3.20D-06
 ErrMax= 3.20D-06  0.00D+00 EMaxC= 1.00D-01 BMatC= 5.70D-09 BMatP= 1.33D-08
 IDIUse=1 WtCom= 1.00D+00 WtEn= 0.00D+00
 Coeff-Com:  0.220D-03-0.431D-03-0.682D-03-0.114D-02-0.160D-02 0.533D-02
 Coeff-Com:  0.338D-01 0.581D-01-0.578D-01-0.339D+00-0.248D+00 0.692D+00
 Coeff-Com:  0.859D+00
 Coeff:      0.220D-03-0.431D-03-0.682D-03-0.114D-02-0.160D-02 0.533D-02
 Coeff:      0.338D-01 0.581D-01-0.578D-01-0.339D+00-0.248D+00 0.692D+00
 Coeff:      0.859D+00
 Gap=     0.158 Goal=   None    Shift=    0.000
 RMSDP=5.45D-07 MaxDP=4.15D-05 DE=-2.04D-07 OVMax= 3.76D-04

 Cycle  14  Pass 1  IDiag  1:
 RMSU=  8.86D-08    CP:  9.75D-01  1.57D+00  7.15D-01  7.38D-01  1.04D+00
                    CP:  1.14D+00  1.41D+00  1.73D+00  2.54D+00  2.98D+00
                    CP:  2.77D+00  2.56D+00  1.29D+00
 E= -3007.87116623793     Delta-E=       -0.000000055852 Rises=F Damp=F
 DIIS: error= 1.07D-06 at cycle  14 NSaved=  14.
 NSaved=14 IEnMin=14 EnMin= -3007.87116623793     IErMin=14 ErrMin= 1.07D-06
 ErrMax= 1.07D-06  0.00D+00 EMaxC= 1.00D-01 BMatC= 1.26D-09 BMatP= 5.70D-09
 IDIUse=1 WtCom= 1.00D+00 WtEn= 0.00D+00
 Coeff-Com:  0.362D-04-0.674D-04-0.139D-03-0.300D-03-0.100D-02-0.579D-03
 Coeff-Com:  0.738D-02 0.235D-01 0.247D-01-0.867D-01-0.153D+00-0.591D-03
 Coeff-Com:  0.375D+00 0.812D+00
 Coeff:      0.362D-04-0.674D-04-0.139D-03-0.300D-03-0.100D-02-0.579D-03
 Coeff:      0.738D-02 0.235D-01 0.247D-01-0.867D-01-0.153D+00-0.591D-03
 Coeff:      0.375D+00 0.812D+00
 Gap=     0.158 Goal=   None    Shift=    0.000
 RMSDP=2.05D-07 MaxDP=2.69D-05 DE=-5.59D-08 OVMax= 1.36D-04

 Cycle  15  Pass 1  IDiag  1:
 RMSU=  9.65D-08    CP:  9.75D-01  1.57D+00  7.15D-01  7.38D-01  1.04D+00
                    CP:  1.14D+00  1.41D+00  1.74D+00  2.59D+00  3.00D+00
                    CP:  2.98D+00  2.86D+00  1.64D+00  1.27D+00
 E= -3007.87116624626     Delta-E=       -0.000000008331 Rises=F Damp=F
 DIIS: error= 5.75D-07 at cycle  15 NSaved=  15.
 NSaved=15 IEnMin=15 EnMin= -3007.87116624626     IErMin=15 ErrMin= 5.75D-07
 ErrMax= 5.75D-07  0.00D+00 EMaxC= 1.00D-01 BMatC= 3.13D-10 BMatP= 1.26D-09
 IDIUse=1 WtCom= 1.00D+00 WtEn= 0.00D+00
 Coeff-Com: -0.551D-04 0.110D-03 0.154D-03 0.227D-03 0.169D-04-0.192D-02
 Coeff-Com: -0.784D-02-0.729D-02 0.268D-01 0.613D-01 0.138D-01-0.201D+00
 Coeff-Com: -0.101D+00 0.373D+00 0.844D+00
 Coeff:     -0.551D-04 0.110D-03 0.154D-03 0.227D-03 0.169D-04-0.192D-02
 Coeff:     -0.784D-02-0.729D-02 0.268D-01 0.613D-01 0.138D-01-0.201D+00
 Coeff:     -0.101D+00 0.373D+00 0.844D+00
 Gap=     0.158 Goal=   None    Shift=    0.000
 RMSDP=9.06D-08 MaxDP=7.08D-06 DE=-8.33D-09 OVMax= 6.44D-05

 Cycle  16  Pass 1  IDiag  1:
 RMSU=  4.33D-08    CP:  9.75D-01  1.57D+00  7.15D-01  7.38D-01  1.04D+00
                    CP:  1.14D+00  1.41D+00  1.74D+00  2.61D+00  3.00D+00
                    CP:  3.00D+00  3.00D+00  1.82D+00  1.62D+00  1.36D+00
 E= -3007.87116624829     Delta-E=       -0.000000002032 Rises=F Damp=F
 DIIS: error= 3.01D-07 at cycle  16 NSaved=  16.
 NSaved=16 IEnMin=16 EnMin= -3007.87116624829     IErMin=16 ErrMin= 3.01D-07
 ErrMax= 3.01D-07  0.00D+00 EMaxC= 1.00D-01 BMatC= 6.60D-11 BMatP= 3.13D-10
 IDIUse=1 WtCom= 1.00D+00 WtEn= 0.00D+00
 Coeff-Com: -0.215D-04 0.418D-04 0.663D-04 0.113D-03 0.167D-03-0.373D-03
 Coeff-Com: -0.369D-02-0.564D-02 0.520D-02 0.313D-01 0.305D-01-0.578D-01
 Coeff-Com: -0.102D+00-0.466D-01 0.262D+00 0.886D+00
 Coeff:     -0.215D-04 0.418D-04 0.663D-04 0.113D-03 0.167D-03-0.373D-03
 Coeff:     -0.369D-02-0.564D-02 0.520D-02 0.313D-01 0.305D-01-0.578D-01
 Coeff:     -0.102D+00-0.466D-01 0.262D+00 0.886D+00
 Gap=     0.158 Goal=   None    Shift=    0.000
 RMSDP=3.79D-08 MaxDP=3.89D-06 DE=-2.03D-09 OVMax= 2.46D-05

 Cycle  17  Pass 1  IDiag  1:
 RMSU=  2.11D-08    CP:  9.75D-01  1.57D+00  7.15D-01  7.38D-01  1.04D+00
                    CP:  1.14D+00  1.41D+00  1.74D+00  2.62D+00  3.00D+00
                    CP:  3.00D+00  3.00D+00  1.89D+00  1.79D+00  1.51D+00
                    CP:  1.42D+00
 E= -3007.87116624880     Delta-E=       -0.000000000506 Rises=F Damp=F
 DIIS: error= 1.78D-07 at cycle  17 NSaved=  17.
 NSaved=17 IEnMin=17 EnMin= -3007.87116624880     IErMin=17 ErrMin= 1.78D-07
 ErrMax= 1.78D-07  0.00D+00 EMaxC= 1.00D-01 BMatC= 2.09D-11 BMatP= 6.60D-11
 IDIUse=1 WtCom= 1.00D+00 WtEn= 0.00D+00
 Coeff-Com:  0.979D-05-0.198D-04-0.272D-04-0.354D-04 0.453D-04 0.521D-03
 Coeff-Com:  0.111D-02 0.648D-03-0.661D-02-0.111D-01 0.556D-02 0.481D-01
 Coeff-Com: -0.209D-02-0.133D+00-0.159D+00 0.245D+00 0.101D+01
 Coeff:      0.979D-05-0.198D-04-0.272D-04-0.354D-04 0.453D-04 0.521D-03
 Coeff:      0.111D-02 0.648D-03-0.661D-02-0.111D-01 0.556D-02 0.481D-01
 Coeff:     -0.209D-02-0.133D+00-0.159D+00 0.245D+00 0.101D+01
 Gap=     0.158 Goal=   None    Shift=    0.000
 RMSDP=2.56D-08 MaxDP=1.88D-06 DE=-5.06D-10 OVMax= 1.54D-05

 Cycle  18  Pass 1  IDiag  1:
 RMSU=  1.11D-08    CP:  9.75D-01  1.57D+00  7.15D-01  7.38D-01  1.04D+00
                    CP:  1.14D+00  1.41D+00  1.74D+00  2.62D+00  3.00D+00
                    CP:  3.00D+00  3.00D+00  1.93D+00  1.90D+00  1.60D+00
                    CP:  1.70D+00  1.60D+00
 E= -3007.87116624901     Delta-E=       -0.000000000216 Rises=F Damp=F
 DIIS: error= 1.57D-07 at cycle  18 NSaved=  18.
 NSaved=18 IEnMin=18 EnMin= -3007.87116624901     IErMin=18 ErrMin= 1.57D-07
 ErrMax= 1.57D-07  0.00D+00 EMaxC= 1.00D-01 BMatC= 8.42D-12 BMatP= 2.09D-11
 IDIUse=1 WtCom= 1.00D+00 WtEn= 0.00D+00
 Coeff-Com:  0.111D-04-0.218D-04-0.347D-04-0.537D-04-0.438D-04 0.345D-03
 Coeff-Com:  0.169D-02 0.249D-02-0.425D-02-0.163D-01-0.851D-02 0.418D-01
 Coeff-Com:  0.371D-01-0.385D-01-0.150D+00-0.253D+00 0.393D+00 0.995D+00
 Coeff:      0.111D-04-0.218D-04-0.347D-04-0.537D-04-0.438D-04 0.345D-03
 Coeff:      0.169D-02 0.249D-02-0.425D-02-0.163D-01-0.851D-02 0.418D-01
 Coeff:      0.371D-01-0.385D-01-0.150D+00-0.253D+00 0.393D+00 0.995D+00
 Gap=     0.158 Goal=   None    Shift=    0.000
 RMSDP=1.85D-08 MaxDP=1.27D-06 DE=-2.16D-10 OVMax= 1.15D-05

 Cycle  19  Pass 1  IDiag  1:
 RMSU=  6.16D-09    CP:  9.75D-01  1.57D+00  7.15D-01  7.38D-01  1.04D+00
                    CP:  1.14D+00  1.41D+00  1.74D+00  2.62D+00  3.00D+00
                    CP:  3.00D+00  3.00D+00  1.95D+00  1.96D+00  1.63D+00
                    CP:  1.88D+00  2.12D+00  1.74D+00
 E= -3007.87116624891     Delta-E=        0.000000000100 Rises=F Damp=F
 DIIS: error= 5.57D-08 at cycle  19 NSaved=  19.
 NSaved=19 IEnMin=18 EnMin= -3007.87116624901     IErMin=19 ErrMin= 5.57D-08
 ErrMax= 5.57D-08  0.00D+00 EMaxC= 1.00D-01 BMatC= 2.60D-12 BMatP= 8.42D-12
 IDIUse=1 WtCom= 1.00D+00 WtEn= 0.00D+00
 Coeff-Com:  0.474D-06-0.714D-06-0.360D-05-0.689D-05-0.344D-04-0.560D-04
 Coeff-Com:  0.178D-03 0.769D-03 0.777D-03-0.258D-02-0.546D-02-0.198D-02
 Coeff-Com:  0.137D-01 0.298D-01 0.755D-02-0.186D+00-0.207D+00 0.401D+00
 Coeff-Com:  0.950D+00
 Coeff:      0.474D-06-0.714D-06-0.360D-05-0.689D-05-0.344D-04-0.560D-04
 Coeff:      0.178D-03 0.769D-03 0.777D-03-0.258D-02-0.546D-02-0.198D-02
 Coeff:      0.137D-01 0.298D-01 0.755D-02-0.186D+00-0.207D+00 0.401D+00
 Coeff:      0.950D+00
 Gap=     0.158 Goal=   None    Shift=    0.000
 RMSDP=1.10D-08 MaxDP=8.33D-07 DE= 1.00D-10 OVMax= 6.88D-06

 Cycle  20  Pass 1  IDiag  1:
 RMSU=  2.73D-09    CP:  9.75D-01  1.57D+00  7.15D-01  7.38D-01  1.04D+00
                    CP:  1.14D+00  1.41D+00  1.74D+00  2.62D+00  3.00D+00
                    CP:  3.00D+00  3.00D+00  1.96D+00  1.99D+00  1.67D+00
                    CP:  2.00D+00  2.39D+00  2.17D+00  1.19D+00
 E= -3007.87116624925     Delta-E=       -0.000000000338 Rises=F Damp=F
 DIIS: error= 2.82D-08 at cycle  20 NSaved=  20.
 NSaved=20 IEnMin=20 EnMin= -3007.87116624925     IErMin=20 ErrMin= 2.82D-08
 ErrMax= 2.82D-08  0.00D+00 EMaxC= 1.00D-01 BMatC= 5.53D-13 BMatP= 2.60D-12
 IDIUse=1 WtCom= 1.00D+00 WtEn= 0.00D+00
 Coeff-Com: -0.299D-05 0.595D-05 0.838D-05 0.132D-04-0.206D-05-0.119D-03
 Coeff-Com: -0.429D-03-0.359D-03 0.149D-02 0.360D-02 0.499D-03-0.119D-01
 Coeff-Com: -0.453D-02 0.210D-01 0.463D-01-0.139D-01-0.202D+00-0.104D+00
 Coeff-Com:  0.378D+00 0.887D+00
 Coeff:     -0.299D-05 0.595D-05 0.838D-05 0.132D-04-0.206D-05-0.119D-03
 Coeff:     -0.429D-03-0.359D-03 0.149D-02 0.360D-02 0.499D-03-0.119D-01
 Coeff:     -0.453D-02 0.210D-01 0.463D-01-0.139D-01-0.202D+00-0.104D+00
 Coeff:      0.378D+00 0.887D+00
 Gap=     0.158 Goal=   None    Shift=    0.000
 RMSDP=4.83D-09 MaxDP=3.39D-07 DE=-3.38D-10 OVMax= 2.94D-06

 SCF Done:  E(RwB97XD) =  -3007.87116625     A.U. after   20 cycles
            NFock= 20  Conv=0.48D-08     -V/T= 2.0113
 KE= 2.974225018968D+03 PE=-2.628032665469D+04 EE= 1.065361052358D+04
 Leave Link  502 at Thu May  5 00:31:19 2022, MaxMem= 10066329600 cpu:           11731.6 elap:             508.2
 (Enter /sw/apps/gaussian-16.0/g16/l801.exe)
 DoSCS=F DFT=T ScalE2(SS,OS)=  1.000000  1.000000
 ExpMin= 3.36D-02 ExpMax= 4.95D+03 ExpMxC= 7.45D+02 IAcc=3 IRadAn=         5 AccDes= 0.00D+00
 HarFok:  IExCor=  205 AccDes= 0.00D+00 IRadAn=         5 IDoV=-2 UseB2=F ITyADJ=14
 ICtDFT= 12500011 ScaDFX=  1.000000  1.000000  1.000000  1.000000
 GSVD:  LWork=       -5460 too small for GESVD, short by       25550 words or       25550 for optimal perf.
 Largest valence mixing into a core orbital is  1.81D-04
 Largest core mixing into a valence orbital is  5.58D-05
 Range of M.O.s used for correlation:    71  1298
 NBasis=  1298 NAE=   246 NBE=   246 NFC=    70 NFV=     0
 NROrb=   1228 NOA=   176 NOB=   176 NVA=  1052 NVB=  1052
 Leave Link  801 at Thu May  5 00:31:19 2022, MaxMem= 10066329600 cpu:               7.9 elap:               0.4
 (Enter /sw/apps/gaussian-16.0/g16/l914.exe)
 RHF ground state
 Two-electron integrals replicated using symmetry.
 MDV= 10066329600 DFT=T DoStab=F Mixed=T DoRPA=T DoScal=F NonHer=T
 Making orbital integer symmetry assigments:
 Orbital symmetries:
       Occupied  (A) (A) (A) (A) (A) (A) (A) (A) (A) (A) (A) (A)
                 (A) (A) (A) (A) (A) (A) (A) (A) (A) (A) (A) (A)
                 (A) (A) (A) (A) (A) (A) (A) (A) (A) (A) (A) (A)
                 (A) (A) (A) (A) (A) (A) (A) (A) (A) (A) (A) (A)
                 (A) (A) (A) (A) (A) (A) (A) (A) (A) (A) (A) (A)
                 (A) (A) (A) (A) (A) (A) (A) (A) (A) (A) (A) (A)
                 (A) (A) (A) (A) (A) (A) (A) (A) (A) (A) (A) (A)
                 (A) (A) (A) (A) (A) (A) (A) (A) (A) (A) (A) (A)
                 (A) (A) (A) (A) (A) (A) (A) (A) (A) (A) (A) (A)
                 (A) (A) (A) (A) (A) (A) (A) (A) (A) (A) (A) (A)
                 (A) (A) (A) (A) (A) (A) (A) (A) (A) (A) (A) (A)
                 (A) (A) (A) (A) (A) (A) (A) (A) (A) (A) (A) (A)
                 (A) (A) (A) (A) (A) (A) (A) (A) (A) (A) (A) (A)
                 (A) (A) (A) (A) (A) (A) (A) (A) (A) (A) (A) (A)
                 (A) (A) (A) (A) (A) (A) (A) (A) (A) (A) (A) (A)
                 (A) (A) (A) (A) (A) (A) (A) (A) (A) (A) (A) (A)
                 (A) (A) (A) (A) (A) (A) (A) (A) (A) (A) (A) (A)
                 (A) (A) (A) (A) (A) (A) (A) (A) (A) (A) (A) (A)
                 (A) (A) (A) (A) (A) (A) (A) (A) (A) (A) (A) (A)
                 (A) (A) (A) (A) (A) (A) (A) (A) (A) (A) (A) (A)
                 (A) (A) (A) (A) (A) (A)
       Virtual   (A) (A) (A) (A) (A) (A) (A) (A) (A) (A) (A) (A)
                 (A) (A) (A) (A) (A) (A) (A) (A) (A) (A) (A) (A)
                 (A) (A) (A) (A) (A) (A) (A) (A) (A) (A) (A) (A)
                 (A) (A) (A) (A) (A) (A) (A) (A) (A) (A) (A) (A)
                 (A) (A) (A) (A) (A) (A) (A) (A) (A) (A) (A) (A)
                 (A) (A) (A) (A) (A) (A) (A) (A) (A) (A) (A) (A)
                 (A) (A) (A) (A) (A) (A) (A) (A) (A) (A) (A) (A)
                 (A) (A) (A) (A) (A) (A) (A) (A) (A) (A) (A) (A)
                 (A) (A) (A) (A) (A) (A) (A) (A) (A) (A) (A) (A)
                 (A) (A) (A) (A) (A) (A) (A) (A) (A) (A) (A) (A)
                 (A) (A) (A) (A) (A) (A) (A) (A) (A) (A) (A) (A)
                 (A) (A) (A) (A) (A) (A) (A) (A) (A) (A) (A) (A)
                 (A) (A) (A) (A) (A) (A) (A) (A) (A) (A) (A) (A)
                 (A) (A) (A) (A) (A) (A) (A) (A) (A) (A) (A) (A)
                 (A) (A) (A) (A) (A) (A) (A) (A) (A) (A) (A) (A)
                 (A) (A) (A) (A) (A) (A) (A) (A) (A) (A) (A) (A)
                 (A) (A) (A) (A) (A) (A) (A) (A) (A) (A) (A) (A)
                 (A) (A) (A) (A) (A) (A) (A) (A) (A) (A) (A) (A)
                 (A) (A) (A) (A) (A) (A) (A) (A) (A) (A) (A) (A)
                 (A) (A) (A) (A) (A) (A) (A) (A) (A) (A) (A) (A)
                 (A) (A) (A) (A) (A) (A) (A) (A) (A) (A) (A) (A)
                 (A) (A) (A) (A) (A) (A) (A) (A) (A) (A) (A) (A)
                 (A) (A) (A) (A) (A) (A) (A) (A) (A) (A) (A) (A)
                 (A) (A) (A) (A) (A) (A) (A) (A) (A) (A) (A) (A)
                 (A) (A) (A) (A) (A) (A) (A) (A) (A) (A) (A) (A)
                 (A) (A) (A) (A) (A) (A) (A) (A) (A) (A) (A) (A)
                 (A) (A) (A) (A) (A) (A) (A) (A) (A) (A) (A) (A)
                 (A) (A) (A) (A) (A) (A) (A) (A) (A) (A) (A) (A)
                 (A) (A) (A) (A) (A) (A) (A) (A) (A) (A) (A) (A)
                 (A) (A) (A) (A) (A) (A) (A) (A) (A) (A) (A) (A)
                 (A) (A) (A) (A) (A) (A) (A) (A) (A) (A) (A) (A)
                 (A) (A) (A) (A) (A) (A) (A) (A) (A) (A) (A) (A)
                 (A) (A) (A) (A) (A) (A) (A) (A) (A) (A) (A) (A)
                 (A) (A) (A) (A) (A) (A) (A) (A) (A) (A) (A) (A)
                 (A) (A) (A) (A) (A) (A) (A) (A) (A) (A) (A) (A)
                 (A) (A) (A) (A) (A) (A) (A) (A) (A) (A) (A) (A)
                 (A) (A) (A) (A) (A) (A) (A) (A) (A) (A) (A) (A)
                 (A) (A) (A) (A) (A) (A) (A) (A) (A) (A) (A) (A)
                 (A) (A) (A) (A) (A) (A) (A) (A) (A) (A) (A) (A)
                 (A) (A) (A) (A) (A) (A) (A) (A) (A) (A) (A) (A)
                 (A) (A) (A) (A) (A) (A) (A) (A) (A) (A) (A) (A)
                 (A) (A) (A) (A) (A) (A) (A) (A) (A) (A) (A) (A)
                 (A) (A) (A) (A) (A) (A) (A) (A) (A) (A) (A) (A)
                 (A) (A) (A) (A) (A) (A) (A) (A) (A) (A) (A) (A)
                 (A) (A) (A) (A) (A) (A) (A) (A) (A) (A) (A) (A)
                 (A) (A) (A) (A) (A) (A) (A) (A) (A) (A) (A) (A)
                 (A) (A) (A) (A) (A) (A) (A) (A) (A) (A) (A) (A)
                 (A) (A) (A) (A) (A) (A) (A) (A) (A) (A) (A) (A)
                 (A) (A) (A) (A) (A) (A) (A) (A) (A) (A) (A) (A)
                 (A) (A) (A) (A) (A) (A) (A) (A) (A) (A) (A) (A)
                 (A) (A) (A) (A) (A) (A) (A) (A) (A) (A) (A) (A)
                 (A) (A) (A) (A) (A) (A) (A) (A) (A) (A) (A) (A)
                 (A) (A) (A) (A) (A) (A) (A) (A) (A) (A) (A) (A)
                 (A) (A) (A) (A) (A) (A) (A) (A) (A) (A) (A) (A)
                 (A) (A) (A) (A) (A) (A) (A) (A) (A) (A) (A) (A)
                 (A) (A) (A) (A) (A) (A) (A) (A) (A) (A) (A) (A)
                 (A) (A) (A) (A) (A) (A) (A) (A) (A) (A) (A) (A)
                 (A) (A) (A) (A) (A) (A) (A) (A) (A) (A) (A) (A)
                 (A) (A) (A) (A) (A) (A) (A) (A) (A) (A) (A) (A)
                 (A) (A) (A) (A) (A) (A) (A) (A) (A) (A) (A) (A)
                 (A) (A) (A) (A) (A) (A) (A) (A) (A) (A) (A) (A)
                 (A) (A) (A) (A) (A) (A) (A) (A) (A) (A) (A) (A)
                 (A) (A) (A) (A) (A) (A) (A) (A) (A) (A) (A) (A)
                 (A) (A) (A) (A) (A) (A) (A) (A) (A) (A) (A) (A)
                 (A) (A) (A) (A) (A) (A) (A) (A) (A) (A) (A) (A)
                 (A) (A) (A) (A) (A) (A) (A) (A) (A) (A) (A) (A)
                 (A) (A) (A) (A) (A) (A) (A) (A) (A) (A) (A) (A)
                 (A) (A) (A) (A) (A) (A) (A) (A) (A) (A) (A) (A)
                 (A) (A) (A) (A) (A) (A) (A) (A) (A) (A) (A) (A)
                 (A) (A) (A) (A) (A) (A) (A) (A) (A) (A) (A) (A)
                 (A) (A) (A) (A) (A) (A) (A) (A) (A) (A) (A) (A)
                 (A) (A) (A) (A) (A) (A) (A) (A) (A) (A) (A) (A)
                 (A) (A) (A) (A) (A) (A) (A) (A) (A) (A) (A) (A)
                 (A) (A) (A) (A) (A) (A) (A) (A) (A) (A) (A) (A)
                 (A) (A) (A) (A) (A) (A) (A) (A) (A) (A) (A) (A)
                 (A) (A) (A) (A) (A) (A) (A) (A) (A) (A) (A) (A)
                 (A) (A) (A) (A) (A) (A) (A) (A) (A) (A) (A) (A)
                 (A) (A) (A) (A) (A) (A) (A) (A) (A) (A) (A) (A)
                 (A) (A) (A) (A) (A) (A) (A) (A) (A) (A) (A) (A)
                 (A) (A) (A) (A) (A) (A) (A) (A) (A) (A) (A) (A)
                 (A) (A) (A) (A) (A) (A) (A) (A) (A) (A) (A) (A)
                 (A) (A) (A) (A) (A) (A) (A) (A) (A) (A) (A) (A)
                 (A) (A) (A) (A) (A) (A) (A) (A) (A) (A) (A) (A)
                 (A) (A) (A) (A) (A) (A) (A) (A) (A) (A) (A) (A)
                 (A) (A) (A) (A) (A) (A) (A) (A) (A) (A) (A) (A)
                 (A) (A) (A) (A) (A) (A) (A) (A) (A) (A) (A) (A)
                 (A) (A) (A) (A) (A) (A) (A) (A) (A) (A) (A) (A)
                 (A) (A) (A) (A) (A) (A) (A) (A)
    20 initial guesses have been made.
 Convergence on wavefunction:    0.001000000000000
 Davidson Disk Diagonalization:  ConvIn= 1.00D-03 SkipCon=T Conv= 1.00D-03.
 Max sub-space:  2000 roots to seek:    20 dimension of matrix:       370304
 Iteration     1 Dimension    20 NMult     0 NNew     20
 CISAX will form    20 AO SS matrices at one time.
 NMat=    20 NSing=    20 JSym2X= 0.
 FoFJK:  IHMeth= 1 ICntrl=       0 DoSepK=T KAlg= 0 I1Cent=           0 FoldK=F
 IRaf=         1 NMat=      40 IRICut=       1 DoRegI=T DoRafI=F ISym2E= 0 IDoP0=3 IntGTp=3.
 FoFCou: FMM=T IPFlag=           0 FMFlag=      100000 FMFlg1=        2001
         NFxFlg=           0 DoJE=F BraDBF=F KetDBF=F FulRan=T
         wScrn=  0.000000 ICntrl=       500 IOpCl=  0 I1Cent=           0 NGrid=           0
         NMat0=   20 NMatS0=     20 NMatT0=    0 NMatD0=   20 NMtDS0=    0 NMtDT0=    0
 Symmetry not used in FoFCou.
 FMM levels:  10  Number of levels for PrismC:   9
 New state      3 was old state      5
 New state      4 was old state      6
 New state      5 was old state      7
 Excitation Energies [eV] at current iteration:
 Root      1 :     2.153413167835481
 Root      2 :     2.576338701913651
 Root      3 :     3.742572848564617
 Root      4 :     4.089482511591309
 Root      5 :     4.172206026717222
 Root      6 :     4.200940743934480
 Root      7 :     4.337272864220131
 Root      8 :     4.512356865533302
 Root      9 :     4.576397541168528
 Root     10 :     4.668032608088765
 Root     11 :     4.811896468523402
 Root     12 :     4.944472399242311
 Root     13 :     5.101434037450098
 Root     14 :     5.199380823485774
 Root     15 :     5.214818385990203
 Root     16 :     5.542377836351036
 Root     17 :     5.998602925891344
 Root     18 :     6.034557117172927
 Root     19 :     6.722723697184710
 Root     20 :     6.812843839478032
 Iteration     2 Dimension    30 NMult    20 NNew     10
 CISAX will form    10 AO SS matrices at one time.
 NMat=    10 NSing=    10 JSym2X= 0.
 Root      1 not converged, maximum delta is    0.077586702704482
 Root      2 not converged, maximum delta is    0.064964198439660
 Root      3 not converged, maximum delta is    0.086118995953003
 Root      4 not converged, maximum delta is    0.093755276684726
 Root      5 not converged, maximum delta is    0.178616919050721
 Excitation Energies [eV] at current iteration:
 Root      1 :     1.657409935753798   Change is   -0.496003232081683
 Root      2 :     2.143935949813878   Change is   -0.432402752099772
 Root      3 :     3.387099530111717   Change is   -0.355473318452899
 Root      4 :     3.613054169976565   Change is   -0.476428341614744
 Root      5 :     3.740240447855638   Change is   -0.431965578861584
 Iteration     3 Dimension    40 NMult    30 NNew     10
 CISAX will form    10 AO SS matrices at one time.
 NMat=    10 NSing=    10 JSym2X= 0.
 Root      1 not converged, maximum delta is    0.016787131420470
 Root      2 not converged, maximum delta is    0.012796815974454
 Root      3 not converged, maximum delta is    0.071965626050863
 Root      4 not converged, maximum delta is    0.389005494001663
 Root      5 not converged, maximum delta is    0.326633671712275
 Excitation Energies [eV] at current iteration:
 Root      1 :     1.619946473696687   Change is   -0.037463462057111
 Root      2 :     2.122245993869275   Change is   -0.021689955944603
 Root      3 :     3.361046206712922   Change is   -0.026053323398795
 Root      4 :     3.553303020368987   Change is   -0.059751149607577
 Root      5 :     3.577180898675761   Change is   -0.163059549179878
 Iteration     4 Dimension    50 NMult    40 NNew     10
 CISAX will form    10 AO SS matrices at one time.
 NMat=    10 NSing=    10 JSym2X= 0.
 Root      1 not converged, maximum delta is    0.003317670761028
 Root      2 not converged, maximum delta is    0.004118329914619
 Root      3 not converged, maximum delta is    0.023837537975014
 Root      4 not converged, maximum delta is    0.097534484305114
 Root      5 not converged, maximum delta is    0.134073016435327
 Excitation Energies [eV] at current iteration:
 Root      1 :     1.615728963892867   Change is   -0.004217509803819
 Root      2 :     2.119310193626208   Change is   -0.002935800243067
 Root      3 :     3.353237632277148   Change is   -0.007808574435774
 Root      4 :     3.529591234280834   Change is   -0.023711786088154
 Root      5 :     3.548476412648428   Change is   -0.028704486027333
 Iteration     5 Dimension    60 NMult    50 NNew     10
 CISAX will form    10 AO SS matrices at one time.
 NMat=    10 NSing=    10 JSym2X= 0.
 Root      1 not converged, maximum delta is    0.001296527914661
 Root      2 not converged, maximum delta is    0.001415024699267
 Root      3 not converged, maximum delta is    0.005061536855438
 Root      4 not converged, maximum delta is    0.024904292675240
 Root      5 not converged, maximum delta is    0.056409929155348
 Excitation Energies [eV] at current iteration:
 Root      1 :     1.615349880038508   Change is   -0.000379083854359
 Root      2 :     2.119045039596465   Change is   -0.000265154029743
 Root      3 :     3.352209810963578   Change is   -0.001027821313570
 Root      4 :     3.527164934739361   Change is   -0.002426299541473
 Root      5 :     3.541478301473686   Change is   -0.006998111174742
 Iteration     6 Dimension    70 NMult    60 NNew     10
 CISAX will form    10 AO SS matrices at one time.
 NMat=    10 NSing=    10 JSym2X= 0.
 Root      1 has converged.
 Root      2 has converged.
 Root      3 not converged, maximum delta is    0.006275614144155
 Root      4 not converged, maximum delta is    0.042917246129382
 Root      5 not converged, maximum delta is    0.044646291492276
 Excitation Energies [eV] at current iteration:
 Root      1 :     1.615319227119630   Change is   -0.000030652918878
 Root      2 :     2.119011826616625   Change is   -0.000033212979840
 Root      3 :     3.351969864180797   Change is   -0.000239946782781
 Root      4 :     3.526214978238901   Change is   -0.000949956500461
 Root      5 :     3.538771936318909   Change is   -0.002706365154777
 Iteration     7 Dimension    76 NMult    70 NNew      6
 CISAX will form     6 AO SS matrices at one time.
 NMat=     6 NSing=     6 JSym2X= 0.
 Root      1 has converged.
 Root      2 has converged.
 Root      3 not converged, maximum delta is    0.006748007623081
 Root      4 not converged, maximum delta is    0.104850107457871
 Root      5 not converged, maximum delta is    0.105063509846747
 Excitation Energies [eV] at current iteration:
 Root      1 :     1.615319070823482   Change is   -0.000000156296147
 Root      2 :     2.119010610256297   Change is   -0.000001216360328
 Root      3 :     3.351846858800430   Change is   -0.000123005380368
 Root      4 :     3.524183493858750   Change is   -0.002031484380151
 Root      5 :     3.536341590176922   Change is   -0.002430346141987
 Iteration     8 Dimension    82 NMult    76 NNew      6
 CISAX will form     6 AO SS matrices at one time.
 NMat=     6 NSing=     6 JSym2X= 0.
 Root      1 has converged.
 Root      2 has converged.
 Root      3 not converged, maximum delta is    0.002861204028762
 Root      4 not converged, maximum delta is    0.210556541124383
 Root      5 not converged, maximum delta is    0.276418564101637
 Excitation Energies [eV] at current iteration:
 Root      1 :     1.615318955989846   Change is   -0.000000114833636
 Root      2 :     2.119010343726262   Change is   -0.000000266530036
 Root      3 :     3.351808073444472   Change is   -0.000038785355957
 Root      4 :     3.518071785007653   Change is   -0.006111708851097
 Root      5 :     3.532492213920987   Change is   -0.003849376255935
 Iteration     9 Dimension    88 NMult    82 NNew      6
 CISAX will form     6 AO SS matrices at one time.
 NMat=     6 NSing=     6 JSym2X= 0.
 Root      1 has converged.
 Root      2 has converged.
 Root      3 has converged.
 Root      4 not converged, maximum delta is    0.045300086889820
 Root      5 not converged, maximum delta is    0.072859299708313
 Excitation Energies [eV] at current iteration:
 Root      1 :     1.615318865350467   Change is   -0.000000090639379
 Root      2 :     2.119010164685637   Change is   -0.000000179040624
 Root      3 :     3.351802727990501   Change is   -0.000005345453971
 Root      4 :     3.515578762170263   Change is   -0.002493022837389
 Root      5 :     3.531593942157178   Change is   -0.000898271763809
 Iteration    10 Dimension    92 NMult    88 NNew      4
 CISAX will form     4 AO SS matrices at one time.
 NMat=     4 NSing=     4 JSym2X= 0.
 Root      1 has converged.
 Root      2 has converged.
 Root      3 has converged.
 Root      4 not converged, maximum delta is    0.006263285182590
 Root      5 not converged, maximum delta is    0.009360379342220
 Excitation Energies [eV] at current iteration:
 Root      1 :     1.615318751882158   Change is   -0.000000113468309
 Root      2 :     2.119010055217677   Change is   -0.000000109467960
 Root      3 :     3.351802315702583   Change is   -0.000000412287918
 Root      4 :     3.515214092849270   Change is   -0.000364669320993
 Root      5 :     3.531478682897302   Change is   -0.000115259259876
 Iteration    11 Dimension    96 NMult    92 NNew      4
 CISAX will form     4 AO SS matrices at one time.
 NMat=     4 NSing=     4 JSym2X= 0.
 Root      1 has converged.
 Root      2 has converged.
 Root      3 has converged.
 Root      4 has converged.
 Root      5 not converged, maximum delta is    0.001076924998957
 Excitation Energies [eV] at current iteration:
 Root      1 :     1.615318745057430   Change is   -0.000000006824727
 Root      2 :     2.119010040617707   Change is   -0.000000014599970
 Root      3 :     3.351802280152579   Change is   -0.000000035550005
 Root      4 :     3.515172504002548   Change is   -0.000041588846722
 Root      5 :     3.531465464774453   Change is   -0.000013218122849
 Iteration    12 Dimension    98 NMult    96 NNew      2
 CISAX will form     2 AO SS matrices at one time.
 NMat=     2 NSing=     2 JSym2X= 0.
 Root      1 has converged.
 Root      2 has converged.
 Root      3 has converged.
 Root      4 has converged.
 Root      5 has converged.
 Excitation Energies [eV] at current iteration:
 Root      1 :     1.615318739712095   Change is   -0.000000005345335
 Root      2 :     2.119010012607151   Change is   -0.000000028010556
 Root      3 :     3.351802278834581   Change is   -0.000000001317998
 Root      4 :     3.515169216530718   Change is   -0.000003287471830
 Root      5 :     3.531463947154840   Change is   -0.000001517619612
 Convergence achieved on expansion vectors.
 ***********************************************************************
 Excited states from <AA,BB:AA,BB> singles matrix:
 ***********************************************************************
 
 1PDM for each excited state written to RWF  633
[...]
 Alpha virt. eigenvalues --    1.22622   1.23081   1.23177   1.24127   1.24383
 Alpha virt. eigenvalues --    1.24754   1.25259   1.25738   1.26056   1.26526
 Alpha virt. eigenvalues --    1.26826   1.27288   1.27766   1.28124   1.28226
 Alpha virt. eigenvalues --    1.29018   1.29107   1.29642   1.29759   1.30354
 Alpha virt. eigenvalues --    1.30756   1.30971   1.31310   1.31584   1.32511
 Alpha virt. eigenvalues --    1.32871   1.33311   1.34630   1.35251   1.35648
 Alpha virt. eigenvalues --    1.35858   1.35884   1.36363   1.36752   1.37644
 Alpha virt. eigenvalues --    1.38254   1.38415   1.38737   1.39138   1.39298
 Alpha virt. eigenvalues --    1.39657   1.39941   1.40171   1.40225   1.40679
 Alpha virt. eigenvalues --    1.41965   1.42162   1.42342   1.42746   1.43289
 Alpha virt. eigenvalues --    1.43784   1.43884   1.44047   1.44448   1.44817
 Alpha virt. eigenvalues --    1.45335   1.45447   1.45842   1.46341   1.46661
 Alpha virt. eigenvalues --    1.47251   1.47642   1.48197   1.48303   1.48721
 Alpha virt. eigenvalues --    1.49032   1.49301   1.49658   1.50419   1.50556
 Alpha virt. eigenvalues --    1.51077   1.51985   1.52649   1.52973   1.52978
 Alpha virt. eigenvalues --    1.53225   1.53254   1.54237   1.55085   1.55376
 Alpha virt. eigenvalues --    1.55866   1.56530   1.56844   1.57102   1.57411
 Alpha virt. eigenvalues --    1.57691   1.58169   1.58366   1.58706   1.59232
 Alpha virt. eigenvalues --    1.59389   1.60144   1.60423   1.60524   1.60676
 Alpha virt. eigenvalues --    1.60927   1.61512   1.61831   1.62296   1.62454
 Alpha virt. eigenvalues --    1.62575   1.62651   1.63012   1.63080   1.63459
 Alpha virt. eigenvalues --    1.63680   1.63785   1.64177   1.64295   1.64576
 Alpha virt. eigenvalues --    1.64770   1.65030   1.65128   1.65833   1.66010
 Alpha virt. eigenvalues --    1.66118   1.66199   1.66407   1.67034   1.67314
 Alpha virt. eigenvalues --    1.67907   1.68405   1.68634   1.68936   1.69001
 Alpha virt. eigenvalues --    1.69840   1.70046   1.70512   1.71335   1.71939
 Alpha virt. eigenvalues --    1.72431   1.73486   1.74130   1.74332   1.75034
 Alpha virt. eigenvalues --    1.75227   1.76262   1.76479   1.76675   1.76767
 Alpha virt. eigenvalues --    1.77006   1.77181   1.77763   1.78252   1.78562
 Alpha virt. eigenvalues --    1.79118   1.79362   1.79753   1.79954   1.80022
 Alpha virt. eigenvalues --    1.80379   1.80516   1.80774   1.81058   1.81343
 Alpha virt. eigenvalues --    1.81549   1.82022   1.82185   1.82437   1.82648
 Alpha virt. eigenvalues --    1.82727   1.82850   1.83090   1.83314   1.83461
 Alpha virt. eigenvalues --    1.83748   1.83901   1.84232   1.84262   1.84594
 Alpha virt. eigenvalues --    1.84723   1.84967   1.85288   1.85373   1.85721
 Alpha virt. eigenvalues --    1.86051   1.86110   1.86322   1.86651   1.86872
 Alpha virt. eigenvalues --    1.86939   1.87018   1.87238   1.87483   1.87551
 Alpha virt. eigenvalues --    1.87762   1.88097   1.88131   1.88239   1.88596
 Alpha virt. eigenvalues --    1.88913   1.89093   1.89282   1.89382   1.89588
 Alpha virt. eigenvalues --    1.89709   1.89980   1.90076   1.90385   1.90432
 Alpha virt. eigenvalues --    1.90689   1.90904   1.91132   1.91371   1.91479
 Alpha virt. eigenvalues --    1.91753   1.91972   1.92137   1.92517   1.92729
 Alpha virt. eigenvalues --    1.93266   1.93371   1.93698   1.93785   1.94120
 Alpha virt. eigenvalues --    1.94447   1.94791   1.94803   1.94892   1.95267
 Alpha virt. eigenvalues --    1.95550   1.95664   1.95906   1.96129   1.96515
 Alpha virt. eigenvalues --    1.96621   1.96854   1.97092   1.97248   1.97412
 Alpha virt. eigenvalues --    1.97531   1.98095   1.98235   1.98424   1.98564
 Alpha virt. eigenvalues --    1.99021   1.99120   1.99402   1.99720   1.99834
 Alpha virt. eigenvalues --    1.99922   2.00427   2.00582   2.01059   2.01092
 Alpha virt. eigenvalues --    2.01165   2.01721   2.02220   2.02388   2.02603
 Alpha virt. eigenvalues --    2.02772   2.02961   2.03659   2.04053   2.04306
 Alpha virt. eigenvalues --    2.04431   2.04630   2.04863   2.04939   2.05038
 Alpha virt. eigenvalues --    2.05101   2.05626   2.05715   2.05999   2.06321
 Alpha virt. eigenvalues --    2.06810   2.06870   2.07631   2.07933   2.08172
 Alpha virt. eigenvalues --    2.08360   2.08682   2.09500   2.09620   2.09829
 Alpha virt. eigenvalues --    2.09990   2.10159   2.10424   2.10502   2.10763
 Alpha virt. eigenvalues --    2.11056   2.11345   2.11775   2.12425   2.12638
 Alpha virt. eigenvalues --    2.13269   2.13374   2.13696   2.13926   2.14093
 Alpha virt. eigenvalues --    2.14467   2.14553   2.14820   2.15238   2.15549
 Alpha virt. eigenvalues --    2.15663   2.15843   2.16270   2.16465   2.17115
 Alpha virt. eigenvalues --    2.17485   2.17601   2.17859   2.18234   2.18667
 Alpha virt. eigenvalues --    2.18939   2.18991   2.19196   2.19777   2.19934
 Alpha virt. eigenvalues --    2.20104   2.20589   2.20882   2.21334   2.21410
 Alpha virt. eigenvalues --    2.21781   2.22136   2.22637   2.22705   2.22868
 Alpha virt. eigenvalues --    2.23493   2.23832   2.24078   2.24697   2.24811
 Alpha virt. eigenvalues --    2.25319   2.25924   2.26645   2.27160   2.27262
 Alpha virt. eigenvalues --    2.27983   2.28312   2.28650   2.29513   2.30007
 Alpha virt. eigenvalues --    2.30322   2.30743   2.31145   2.31325   2.31935
 Alpha virt. eigenvalues --    2.32357   2.33019   2.33132   2.33756   2.33994
 Alpha virt. eigenvalues --    2.34163   2.34557   2.35206   2.35537   2.36178
 Alpha virt. eigenvalues --    2.36653   2.37360   2.37448   2.37853   2.38214
 Alpha virt. eigenvalues --    2.38498   2.38831   2.38838   2.39120   2.39777
 Alpha virt. eigenvalues --    2.39982   2.40364   2.40749   2.40989   2.41317
 Alpha virt. eigenvalues --    2.41653   2.42000   2.42657   2.42863   2.43267
 Alpha virt. eigenvalues --    2.43540   2.44002   2.44135   2.44285   2.44809
 Alpha virt. eigenvalues --    2.45047   2.45692   2.45987   2.46269   2.46339
 Alpha virt. eigenvalues --    2.47115   2.47475   2.47930   2.48099   2.48316
 Alpha virt. eigenvalues --    2.48788   2.49021   2.49267   2.49702   2.50155
 Alpha virt. eigenvalues --    2.50529   2.50652   2.50880   2.50975   2.51324
 Alpha virt. eigenvalues --    2.51801   2.52210   2.52560   2.52784   2.53720
 Alpha virt. eigenvalues --    2.53833   2.54632   2.54913   2.55240   2.55669
 Alpha virt. eigenvalues --    2.55682   2.56670   2.57478   2.57685   2.59123
 Alpha virt. eigenvalues --    2.59392   2.59562   2.59762   2.60384   2.60469
 Alpha virt. eigenvalues --    2.61692   2.62082   2.62441   2.62635   2.62894
 Alpha virt. eigenvalues --    2.63385   2.63766   2.64271   2.64402   2.64769
 Alpha virt. eigenvalues --    2.65314   2.65620   2.65698   2.66072   2.66432
 Alpha virt. eigenvalues --    2.67303   2.67347   2.67759   2.68438   2.68720
 Alpha virt. eigenvalues --    2.69301   2.69460   2.69899   2.70085   2.70211
 Alpha virt. eigenvalues --    2.70706   2.71008   2.71342   2.71575   2.72389
 Alpha virt. eigenvalues --    2.72426   2.72911   2.73028   2.73627   2.73764
 Alpha virt. eigenvalues --    2.74222   2.74485   2.74655   2.75041   2.75452
 Alpha virt. eigenvalues --    2.75651   2.75975   2.76437   2.77529   2.78434
 Alpha virt. eigenvalues --    2.78642   2.78931   2.79097   2.79147   2.79373
 Alpha virt. eigenvalues --    2.79678   2.80775   2.80841   2.81090   2.81166
 Alpha virt. eigenvalues --    2.81282   2.81802   2.82160   2.82216   2.83124
 Alpha virt. eigenvalues --    2.83425   2.84488   2.85154   2.85838   2.86440
 Alpha virt. eigenvalues --    2.86973   2.87697   2.88090   2.88692   2.89016
 Alpha virt. eigenvalues --    2.89186   2.90482   2.90921   2.91717   2.92437
 Alpha virt. eigenvalues --    2.93381   2.93511   2.94585   2.94702   2.94843
 Alpha virt. eigenvalues --    2.95786   2.96372   2.96663   2.96991   2.97221
 Alpha virt. eigenvalues --    2.97504   2.97865   2.98411   2.98881   2.99131
 Alpha virt. eigenvalues --    2.99283   2.99361   2.99683   3.00298   3.00548
 Alpha virt. eigenvalues --    3.00714   3.00966   3.01303   3.01358   3.01833
 Alpha virt. eigenvalues --    3.01944   3.02337   3.02622   3.02913   3.03629
 Alpha virt. eigenvalues --    3.03903   3.04033   3.04576   3.04709   3.04929
 Alpha virt. eigenvalues --    3.05070   3.05410   3.05471   3.05821   3.05891
 Alpha virt. eigenvalues --    3.06250   3.06525   3.06790   3.07053   3.07674
 Alpha virt. eigenvalues --    3.08040   3.08237   3.08437   3.08661   3.09373
 Alpha virt. eigenvalues --    3.09662   3.09733   3.10069   3.10783   3.10897
 Alpha virt. eigenvalues --    3.10967   3.11784   3.11975   3.12265   3.12485
 Alpha virt. eigenvalues --    3.12886   3.13085   3.13337   3.13717   3.15176
 Alpha virt. eigenvalues --    3.16055   3.16182   3.17850   3.17930   3.18199
 Alpha virt. eigenvalues --    3.18647   3.19917   3.20418   3.20516   3.20824
 Alpha virt. eigenvalues --    3.21502   3.21800   3.22095   3.22905   3.23308
 Alpha virt. eigenvalues --    3.24709   3.25385   3.25614   3.27427   3.29590
 Alpha virt. eigenvalues --    3.32227   3.33220   3.42583   3.43760   3.45691
 Alpha virt. eigenvalues --    3.45795   3.47271   3.49632   3.52676   3.54919
 Alpha virt. eigenvalues --    3.57473   3.63062   3.69018   3.70209   3.72111
 Alpha virt. eigenvalues --    3.72716   3.76964
          Condensed to atoms (all electrons):
 Mulliken charges:
               1
     1  Mg   0.991031
     2  C   -0.018400
     3  C   -0.078094
     4  C   -0.086293
     5  C   -0.079602
     6  N   -0.297553
     7  C   -0.015166
     8  C   -0.053220
     9  C   -0.102810
    10  C    0.009172
    11  C    0.018436
    12  C    0.054293
    13  C   -0.023361
    14  C    0.209478
    15  O   -0.264603
    16  O   -0.369041
    17  N   -0.512308
    18  C    0.177325
    19  C   -0.130191
    20  C   -0.070847
    21  C    0.182058
    22  C    0.070309
    23  C    0.029684
    24  O   -0.236559
    25  C   -0.016451
    26  N   -0.420832
    27  C    0.094014
    28  C   -0.078848
    29  C   -0.074253
    30  C    0.102105
    31  C    0.012609
    32  C   -0.031891
    33  C   -0.079637
    34  N   -0.424297
    35  C    0.112338
    36  C   -0.186183
    37  C   -0.110721
    38  C    0.145483
    39  C    0.092583
    40  C    0.194027
    41  O   -0.247355
    42  C   -0.088529
    43  C    0.237754
    44  O   -0.214563
    45  O   -0.373130
    46  C    0.134121
    47  C    0.242181
    48  C   -0.152630
    49  C   -0.178369
    50  C    0.050798
    51  C    0.009347
    52  C   -0.015180
    53  C    0.014748
    54  C   -0.221216
    55  C    0.009486
    56  C   -0.008955
    57  C   -0.001342
    58  C    0.014806
    59  C   -0.196290
    60  C   -0.014390
    61  C    0.049957
    62  C   -0.073369
    63  C    0.017564
    64  C   -0.231095
    65  C   -0.023334
    66  C    0.033251
    67  H   -0.004527
    68  H    0.020982
    69  H   -0.003176
    70  H    0.042257
    71  H    0.043119
    72  H    0.046513
    73  H    0.035816
    74  H    0.042410
    75  H    0.046142
    76  H    0.049136
    77  H    0.050952
    78  H    0.067047
    79  H    0.046799
    80  H    0.062830
    81  H    0.044747
    82  H    0.052717
    83  H    0.053709
    84  H    0.038383
    85  H    0.046361
    86  H    0.048432
    87  H    0.040284
    88  H    0.042028
    89  H    0.029194
    90  H    0.043258
    91  H    0.034741
    92  H    0.027454
    93  H    0.052047
    94  H    0.040986
    95  H    0.064165
    96  H    0.026601
    97  H    0.068648
    98  H    0.069084
    99  H    0.050818
   100  H    0.050758
   101  H    0.077231
   102  H    0.054102
   103  H    0.048987
   104  H    0.011424
   105  H    0.025805
   106  H    0.037671
   107  H    0.034005
   108  H    0.017588
   109  H    0.023375
   110  H    0.021199
   111  H    0.038354
   112  H    0.024603
   113  H    0.008504
   114  H    0.018164
   115  H    0.039986
   116  H    0.023588
   117  H    0.017043
   118  H    0.010814
   119  H    0.017513
   120  H    0.022013
   121  H    0.026116
   122  H    0.008336
   123  H    0.012019
   124  H    0.013405
   125  H    0.024956
   126  H    0.034374
   127  H    0.039502
   128  H    0.022948
   129  H    0.016460
   130  H   -0.005129
   131  H    0.013437
   132  H    0.023321
   133  H    0.027772
   134  H    0.023915
   135  H    0.012052
   136  H    0.034471
   137  H    0.033164
   138  H    0.036702
   139  H    0.031906
   140  H    0.019542
 Sum of Mulliken charges =  -0.00000
 Mulliken charges with hydrogens summed into heavy atoms:
               1
     1  Mg   0.991031
     2  C   -0.018400
     3  C   -0.082620
     4  C   -0.065311
     5  C   -0.082778
     6  N   -0.297553
     7  C   -0.015166
     8  C   -0.010963
     9  C   -0.059690
    10  C    0.009172
    11  C    0.143175
    12  C    0.149572
    13  C    0.094638
    14  C    0.209478
    15  O   -0.264603
    16  O   -0.369041
    17  N   -0.512308
    18  C    0.177325
    19  C   -0.130191
    20  C   -0.070847
    21  C    0.182058
    22  C    0.224685
    23  C    0.029684
    24  O   -0.236559
    25  C    0.128358
    26  N   -0.420832
    27  C    0.094014
    28  C   -0.032487
    29  C   -0.025821
    30  C    0.102105
    31  C    0.124114
    32  C    0.046108
    33  C    0.040851
    34  N   -0.424297
    35  C    0.112338
    36  C   -0.186183
    37  C   -0.110721
    38  C    0.145483
    39  C    0.251997
    40  C    0.194027
    41  O   -0.247355
    42  C   -0.019445
    43  C    0.237754
    44  O   -0.214563
    45  O   -0.373130
    46  C    0.312927
    47  C    0.345270
    48  C   -0.141207
    49  C   -0.178369
    50  C    0.148279
    51  C    0.050311
    52  C    0.044372
    53  C    0.047856
    54  C   -0.203052
    55  C    0.090103
    56  C    0.019371
    57  C    0.046786
    58  C    0.035161
    59  C   -0.182886
    60  C    0.084443
    61  C    0.089364
    62  C   -0.065061
    63  C    0.068657
    64  C   -0.207179
    65  C    0.056353
    66  C    0.121400
 Electronic spatial extent (au):  <R**2>=         102202.4061
 Charge=             -0.0000 electrons
 Dipole moment (field-independent basis, Debye):
    X=              4.5320    Y=              4.2698    Z=              0.9511  Tot=              6.2988
 Quadrupole moment (field-independent basis, Debye-Ang):
   XX=           -375.9249   YY=           -426.3351   ZZ=           -415.3915
   XY=            -21.6758   XZ=             13.2411   YZ=              0.6382
 Traceless Quadrupole moment (field-independent basis, Debye-Ang):
   XX=             29.9589   YY=            -20.4513   ZZ=             -9.5077
   XY=            -21.6758   XZ=             13.2411   YZ=              0.6382
 Octapole moment (field-independent basis, Debye-Ang**2):
  XXX=           -256.7513  YYY=            -43.3624  ZZZ=              1.8367  XYY=            278.9395
  XXY=            114.3299  XXZ=           -122.4129  XZZ=            -22.6638  YZZ=             23.8695
  YYZ=            107.7284  XYZ=            -96.9195
 Hexadecapole moment (field-independent basis, Debye-Ang**3):
 XXXX=         -98372.5718 YYYY=         -27133.5639 ZZZZ=         -10669.2048 XXXY=          -1964.9073
 XXXZ=            158.5522 YYYX=           -285.9725 YYYZ=           -155.5954 ZZZX=            -57.1180
 ZZZY=           -199.5357 XXYY=         -22934.6889 XXZZ=         -19498.6634 YYZZ=          -6260.4667
 XXYZ=            210.9356 YYXZ=            121.9036 ZZXY=            -15.9607
 N-N= 9.644619945897D+03 E-N=-2.628032666008D+04  KE= 2.974225018968D+03
 Leave Link  601 at Thu May  5 00:59:34 2022, MaxMem= 10066329600 cpu:              11.3 elap:               0.6
 (Enter /sw/apps/gaussian-16.0/g16/l9999.exe)
 1\1\GINC-BP1-COMPUTE183\SP\RwB97XD TD-FC\def2SVP\C55H74Mg1N4O6\OF15641
 \05-May-2022\0\\#p wB97XD/Def2SVP td=(nstates=5)\\step_501_chromophore
 _27 TDDFT with wB97XD functional\\0,1\Mg,0,-5.098,24.633,26.684\C,0,-3
 .702,26.367,29.522\C,0,-6.113,22.143,28.935\C,0,-6.48,23.096,24.133\C,
 0,-3.729,27.067,24.581\N,0,-4.871,24.33,29.015\C,0,-4.476,25.238,29.94
 6\C,0,-4.87,24.819,31.353\C,0,-5.343,23.269,31.183\C,0,-5.428,23.221,2
 9.63\C,0,-4.42,22.225,31.86\C,0,-5.972,25.743,31.973\C,0,-5.564,26.394
 ,33.32\C,0,-6.482,25.916,34.587\O,0,-7.289,26.617,35.221\O,0,-6.011,24
 .68,35.008\N,0,-6.124,22.921,26.559\C,0,-6.454,21.955,27.569\C,0,-7.23
 8,20.808,27.053\C,0,-7.372,21.152,25.668\C,0,-6.657,22.414,25.414\C,0,
 -7.704,19.615,27.89\C,0,-8.01,20.371,24.583\O,0,-8.306,20.8,23.473\C,0
 ,-8.472,18.936,24.904\N,0,-5.236,25.127,24.715\C,0,-5.843,24.308,23.82
 6\C,0,-5.574,24.69,22.397\C,0,-4.734,25.987,22.498\C,0,-4.583,26.133,2
 4.029\C,0,-4.979,23.587,21.547\C,0,-5.554,27.258,21.863\C,0,-4.768,28.
 103,20.72\N,0,-3.719,26.233,26.928\C,0,-3.333,27.18,25.949\C,0,-2.554,
 28.225,26.623\C,0,-2.813,27.99,27.999\C,0,-3.404,26.732,28.126\C,0,-1.
 719,29.358,26.034\C,0,-2.392,28.463,29.348\O,0,-1.66,29.393,29.787\C,0
 ,-3.081,27.468,30.36\C,0,-2.035,26.949,31.302\O,0,-0.946,26.579,30.965
 \O,0,-2.475,27.079,32.59\C,0,-1.384,26.911,33.583\C,0,-6.374,24.226,36
 .343\C,0,-7.414,23.062,36.258\C,0,-8.208,22.565,37.211\C,0,-8.073,22.8
 38,38.65\C,0,-9.155,21.415,36.826\C,0,-10.633,21.906,36.573\C,0,-11.57
 ,21.341,37.717\C,0,-12.97,21.084,37.103\C,0,-13.945,22.283,37.314\C,0,
 -13.551,19.827,37.804\C,0,-13.081,18.451,37.169\C,0,-12.248,17.597,38.
 17\C,0,-10.705,17.457,37.927\C,0,-10.011,18.026,39.187\C,0,-10.375,15.
 95,37.678\C,0,-8.891,15.706,37.398\C,0,-8.148,14.665,38.216\C,0,-6.622
 ,14.648,37.801\C,0,-6.179,13.124,37.758\C,0,-5.693,15.376,38.778\H,0,-
 6.286,21.338,29.652\H,0,-6.914,22.633,23.244\H,0,-3.324,27.859,23.948\
 H,0,-3.949,24.825,31.936\H,0,-6.361,23.102,31.536\H,0,-3.941,21.589,31
 .115\H,0,-4.988,21.612,32.561\H,0,-3.647,22.627,32.515\H,0,-6.895,25.1
 96,32.167\H,0,-6.221,26.572,31.31\H,0,-5.77,27.464,33.358\H,0,-4.505,2
 6.326,33.567\H,0,-7.713,19.742,28.973\H,0,-7.2,18.671,27.683\H,0,-8.74
 2,19.458,27.595\H,0,-7.62,18.317,25.185\H,0,-9.032,18.487,24.083\H,0,-
 9.156,18.989,25.751\H,0,-6.535,24.861,21.91\H,0,-3.751,25.858,22.046\H
 ,0,-5.68,23.169,20.824\H,0,-4.667,22.698,22.095\H,0,-4.097,23.989,21.0
 48\H,0,-5.869,27.995,22.601\H,0,-6.485,26.956,21.384\H,0,-4.001,27.429
 ,20.338\H,0,-4.328,29.017,21.121\H,0,-5.402,28.282,19.852\H,0,-1.719,3
 0.243,26.67\H,0,-2.23,29.702,25.134\H,0,-0.779,28.87,25.776\H,0,-3.744
 ,28.083,30.968\H,0,-0.903,25.955,33.377\H,0,-1.918,26.795,34.526\H,0,-
 0.581,27.647,33.622\H,0,-6.805,25.045,36.919\H,0,-5.552,23.912,36.986\
 H,0,-7.603,22.722,35.239\H,0,-9.073,23.092,39.001\H,0,-7.374,23.572,39
 .053\H,0,-7.895,21.896,39.168\H,0,-9.125,20.653,37.605\H,0,-8.743,20.9
 4,35.936\H,0,-10.933,21.508,35.604\H,0,-10.722,22.986,36.458\H,0,-11.7
 03,22.058,38.526\H,0,-11.135,20.428,38.124\H,0,-12.965,20.936,36.023\H
 ,0,-14.726,22.375,36.559\H,0,-13.333,23.172,37.463\H,0,-14.44,22.113,3
 8.27\H,0,-14.63,19.912,37.675\H,0,-13.303,19.912,38.862\H,0,-12.534,18
 .6,36.238\H,0,-14.049,17.998,36.954\H,0,-12.658,16.593,38.054\H,0,-12.
 406,17.821,39.225\H,0,-10.514,18.078,37.052\H,0,-10.157,17.351,40.03\H
 ,0,-10.455,18.947,39.563\H,0,-8.954,18.207,38.992\H,0,-10.858,15.612,3
 6.761\H,0,-10.631,15.322,38.531\H,0,-8.372,16.656,37.528\H,0,-8.777,15
 .524,36.329\H,0,-8.696,13.812,37.816\H,0,-8.331,14.827,39.278\H,0,-6.4
 27,15.052,36.807\H,0,-6.964,12.533,37.286\H,0,-6.107,12.809,38.799\H,0
 ,-5.374,12.858,37.073\H,0,-5.18,16.196,38.275\H,0,-5.026,14.617,39.188
 \H,0,-6.372,15.759,39.539\\Version=ES64L-G16RevA.03\State=1-A\HF=-3007
 .8711662\RMSD=4.831e-09\PG=C01 [X(C55H74Mg1N4O6)]\\@


 I WANT IT ALL - RICH, THIN, AND CHOCOLATE.
 Job cpu time:       0 days 14 hours 32 minutes  6.2 seconds.
 Elapsed time:       0 days  0 hours 36 minutes 54.2 seconds.
 File lengths (MBytes):  RWF=   8929 Int=      0 D2E=      0 Chk=    390 Scr=      1
 Normal termination of Gaussian 16 at Thu May  5 00:59:35 2022.
