 Entering Gaussian System, Link 0=g16
 Initial command:
 /sw/apps/gaussian-16.0/g16/l1.exe "/tmp/Gau-240425.inp" -scrdir="/tmp/"
 Entering Link 1 = /sw/apps/gaussian-16.0/g16/l1.exe PID=    240427.
  
 Copyright (c) 1988,1990,1992,1993,1995,1998,2003,2009,2016,
            Gaussian, Inc.  All Rights Reserved.
  
 This is part of the Gaussian(R) 16 program.  It is based on
 the Gaussian(R) 09 system (copyright 2009, Gaussian, Inc.),
 the Gaussian(R) 03 system (copyright 2003, Gaussian, Inc.),
 the Gaussian(R) 98 system (copyright 1998, Gaussian, Inc.),
 the Gaussian(R) 94 system (copyright 1995, Gaussian, Inc.),
 the Gaussian 92(TM) system (copyright 1992, Gaussian, Inc.),
 the Gaussian 90(TM) system (copyright 1990, Gaussian, Inc.),
 the Gaussian 88(TM) system (copyright 1988, Gaussian, Inc.),
 the Gaussian 86(TM) system (copyright 1986, Carnegie Mellon
 University), and the Gaussian 82(TM) system (copyright 1983,
 Carnegie Mellon University). Gaussian is a federally registered
 trademark of Gaussian, Inc.
  
 This software contains proprietary and confidential information,
 including trade secrets, belonging to Gaussian, Inc.
  
 This software is provided under written license and may be
 used, copied, transmitted, or stored only in accord with that
 written license.
  
 The following legend is applicable only to US Government
 contracts under FAR:
  
                    RESTRICTED RIGHTS LEGEND
  
 Use, reproduction and disclosure by the US Government is
 subject to restrictions as set forth in subparagraphs (a)
 and (c) of the Commercial Computer Software - Restricted
 Rights clause in FAR 52.227-19.
  
 Gaussian, Inc.
 340 Quinnipiac St., Bldg. 40, Wallingford CT 06492
  
  
 ---------------------------------------------------------------
 Warning -- This program may not be used in any manner that
 competes with the business of Gaussian, Inc. or will provide
 assistance to any competitor of Gaussian, Inc.  The licensee
 of this program is prohibited from giving any competitor of
 Gaussian, Inc. access to this program.  By using this program,
 the user acknowledges that Gaussian, Inc. is engaged in the
 business of creating and licensing software in the field of
 computational chemistry and represents and warrants to the
 licensee that it is not a competitor of Gaussian, Inc. and that
 it will not use this program in any manner prohibited above.
 ---------------------------------------------------------------
  

 Cite this work as:
 Gaussian 16, Revision A.03,
 M. J. Frisch, G. W. Trucks, H. B. Schlegel, G. E. Scuseria, 
 M. A. Robb, J. R. Cheeseman, G. Scalmani, V. Barone, 
 G. A. Petersson, H. Nakatsuji, X. Li, M. Caricato, A. V. Marenich, 
 J. Bloino, B. G. Janesko, R. Gomperts, B. Mennucci, H. P. Hratchian, 
 J. V. Ortiz, A. F. Izmaylov, J. L. Sonnenberg, D. Williams-Young, 
 F. Ding, F. Lipparini, F. Egidi, J. Goings, B. Peng, A. Petrone, 
 T. Henderson, D. Ranasinghe, V. G. Zakrzewski, J. Gao, N. Rega, 
 G. Zheng, W. Liang, M. Hada, M. Ehara, K. Toyota, R. Fukuda, 
 J. Hasegawa, M. Ishida, T. Nakajima, Y. Honda, O. Kitao, H. Nakai, 
 T. Vreven, K. Throssell, J. A. Montgomery, Jr., J. E. Peralta, 
 F. Ogliaro, M. J. Bearpark, J. J. Heyd, E. N. Brothers, K. N. Kudin, 
 V. N. Staroverov, T. A. Keith, R. Kobayashi, J. Normand, 
 K. Raghavachari, A. P. Rendell, J. C. Burant, S. S. Iyengar, 
 J. Tomasi, M. Cossi, J. M. Millam, M. Klene, C. Adamo, R. Cammi, 
 J. W. Ochterski, R. L. Martin, K. Morokuma, O. Farkas, 
 J. B. Foresman, and D. J. Fox, Gaussian, Inc., Wallingford CT, 2016.
 
 ******************************************
 Gaussian 16:  ES64L-G16RevA.03 25-Dec-2016
                 4-May-2022 
 ******************************************
 %nproc=24
 Will use up to   24 processors via shared memory.
 %mem=75GB
 ---------------------------------
 #p PBE1PBE/Def2SVP td=(nstates=5)
 ---------------------------------
 1/38=1,172=1/1;
 2/12=2,17=6,18=5,40=1/2;
 3/5=43,7=101,11=9,25=1,30=1,74=-13/1,2,3,8;
 4//1;
 5/5=2,38=5/2;
 8/6=1,10=1,108=5/1;
 9/41=5,42=1,70=2/14;
 6/7=2,8=2,9=2,10=2/1;
 99/5=1,9=1/99;
 Leave Link    1 at Wed May  4 21:53:06 2022, MaxMem= 10066329600 cpu:               0.7 elap:               0.0
 (Enter /sw/apps/gaussian-16.0/g16/l101.exe)
 -----------------------------------------------------
 step_451_chromophore_27 TDDFT with PBE1PBE functional
 -----------------------------------------------------
 Symbolic Z-matrix:
 Charge =  0 Multiplicity = 1
 Mg                   -6.029     24.614    27.109 
 C                    -4.398     26.639    29.645 
 C                    -7.171     22.573    29.651 
 C                    -7.196     22.757    24.713 
 C                    -4.455     26.782    24.8 
 N                    -5.843     24.714    29.443 
 C                    -5.143     25.566    30.251 
 C                    -5.342     25.217    31.688 
 C                    -5.929     23.723    31.582 
 C                    -6.341     23.655    30.134 
 C                    -5.092     22.494    32.03 
 C                    -6.221     26.19     32.562 
 C                    -5.81      26.334    34.025 
 C                    -5.976     25.099    34.988 
 O                    -5.468     24.034    34.875 
 O                    -6.856     25.35     36.024 
 N                    -7.058     22.927    27.195 
 C                    -7.442     22.224    28.321 
 C                    -8.04      20.949    27.859 
 C                    -8.109     20.987    26.397 
 C                    -7.394     22.198    26.044 
 C                    -8.532     19.789    28.804 
 C                    -8.711     20.002    25.401 
 O                    -8.403     20.147    24.246 
 C                    -9.666     18.787    25.839 
 N                    -5.904     24.803    25.096 
 C                    -6.432     23.812    24.321 
 C                    -6.349     24.257    22.86 
 C                    -5.544     25.548    22.853 
 C                    -5.303     25.744    24.401 
 C                    -5.805     23.179    21.912 
 C                    -6.226     26.778    22.268 
 C                    -5.317     27.672    21.404 
 N                    -4.704     26.39     27.168 
 C                    -4.191     27.128    26.125 
 C                    -3.312     28.194    26.661 
 C                    -3.413     28.074    28.047 
 C                    -4.239     26.928    28.301 
 C                    -2.714     29.323    25.924 
 C                    -2.808     28.561    29.359 
 O                    -1.983     29.446    29.598 
 C                    -3.453     27.63     30.394 
 C                    -2.351     27.004    31.091 
 O                    -1.613     26.168    30.588 
 O                    -2.307     27.512    32.393 
 C                    -1.455     26.848    33.365 
 C                    -7.158     24.311    37.006 
 C                    -8.324     23.348    36.711 
 C                    -8.913     22.494    37.547 
 C                    -8.426     22.312    38.988 
 C                    -10.141    21.638    37.054 
 C                    -11.487    22.033    37.686 
 C                    -11.942    20.961    38.602 
 C                    -12.847    19.971    37.892 
 C                    -14.29     20.446    38.168 
 C                    -12.536    18.484    38.405 
 C                    -11.318    17.892    37.737 
 C                    -10.787    16.612    38.428 
 C                    -9.234     16.626    38.555 
 C                    -8.724     17.799    39.417 
 C                    -8.691     15.296    39.076 
 C                    -7.559     14.803    38.147 
 C                    -6.107     15.427    38.454 
 C                    -5.055     14.268    38.527 
 C                    -5.111     13.499    39.875 
 C                    -3.598     14.757    38.137 
 H                    -7.484     21.82     30.377 
 H                    -7.518     22.091    23.91 
 H                    -4.153     27.4      23.951 
 H                    -4.363     25.122    32.158 
 H                    -6.821     23.681    32.207 
 H                    -4.512     22.223    31.148 
 H                    -5.794     21.723    32.348 
 H                    -4.415     22.866    32.798 
 H                    -7.193     25.698    32.605 
 H                    -6.314     27.155    32.064 
 H                    -6.484     27.14     34.315 
 H                    -4.779     26.682    34.087 
 H                    -9.618     19.868    28.842 
 H                    -8.094     19.709    29.799 
 H                    -8.247     18.87     28.29 
 H                    -9.119     17.849    25.742 
 H                    -10.603    18.737    25.284 
 H                    -9.972     18.836    26.884 
 H                    -7.354     24.418    22.47 
 H                    -4.603     25.339    22.345 
 H                    -6.011     22.173    22.277 
 H                    -4.729     23.346    21.867 
 H                    -6.207     23.229    20.9 
 H                    -6.629     27.402    23.065 
 H                    -7.127     26.408    21.779 
 H                    -4.255     27.424    21.427 
 H                    -5.47      28.693    21.753 
 H                    -5.87      27.819    20.476 
 H                    -3.37      29.784    25.186 
 H                    -1.764     28.979    25.516 
 H                    -2.577     30.236    26.504 
 H                    -4.104     28.084    31.141 
 H                    -0.47      27.268    33.572 
 H                    -1.385     25.783    33.147 
 H                    -1.898     26.886    34.36 
 H                    -7.498     24.825    37.905 
 H                    -6.278     23.688    37.168 
 H                    -8.725     23.391    35.698 
 H                    -7.593     22.982    39.201 
 H                    -8.204     21.263    39.183 
 H                    -9.173     22.709    39.676 
 H                    -9.819     20.611    37.224 
 H                    -10.369    21.767    35.996 
 H                    -12.215    22.251    36.905 
 H                    -11.533    22.97     38.242 
 H                    -12.456    21.399    39.457 
 H                    -11.036    20.501    38.996 
 H                    -12.642    19.925    36.822 
 H                    -14.824    19.745    38.809 
 H                    -14.82     20.43     37.215 
 H                    -14.414    21.471    38.517 
 H                    -13.263    17.883    37.859 
 H                    -12.523    18.213    39.461 
 H                    -10.643    18.743    37.648 
 H                    -11.605    17.706    36.702 
 H                    -10.986    15.849    37.675 
 H                    -11.299    16.196    39.295 
 H                    -8.845     16.841    37.559 
 H                    -9.64      18.187    39.865 
 H                    -8.294     18.523    38.725 
 H                    -7.991     17.546    40.183 
 H                    -9.525     14.603    39.192 
 H                    -8.362     15.413    40.109 
 H                    -7.819     14.889    37.092 
 H                    -7.493     13.741    38.384 
 H                    -6.186     15.887    39.439 
 H                    -5.841     16.168    37.7 
 H                    -5.357     13.526    37.787 
 H                    -4.12      13.48     40.329 
 H                    -5.469     12.47     39.835 
 H                    -5.817     14.061    40.486 
 H                    -3.679     15.722    37.637 
 H                    -3.202     13.964    37.504 
 H                    -3.085     14.813    39.097 
 
 ITRead=  0  0  0  0  0  0  0  0  0  0  0  0  0  0  0  0  0  0  0  0
 ITRead=  0  0  0  0  0  0  0  0  0  0  0  0  0  0  0  0  0  0  0  0
 ITRead=  0  0  0  0  0  0  0  0  0  0  0  0  0  0  0  0  0  0  0  0
 ITRead=  0  0  0  0  0  0  0  0  0  0  0  0  0  0  0  0  0  0  0  0
 ITRead=  0  0  0  0  0  0  0  0  0  0  0  0  0  0  0  0  0  0  0  0
 ITRead=  0  0  0  0  0  0  0  0  0  0  0  0  0  0  0  0  0  0  0  0
 ITRead=  0  0  0  0  0  0  0  0  0  0  0  0  0  0  0  0  0  0  0  0
 MicOpt= -1 -1 -1 -1 -1 -1 -1 -1 -1 -1 -1 -1 -1 -1 -1 -1 -1 -1 -1 -1
 MicOpt= -1 -1 -1 -1 -1 -1 -1 -1 -1 -1 -1 -1 -1 -1 -1 -1 -1 -1 -1 -1
 MicOpt= -1 -1 -1 -1 -1 -1 -1 -1 -1 -1 -1 -1 -1 -1 -1 -1 -1 -1 -1 -1
 MicOpt= -1 -1 -1 -1 -1 -1 -1 -1 -1 -1 -1 -1 -1 -1 -1 -1 -1 -1 -1 -1
 MicOpt= -1 -1 -1 -1 -1 -1 -1 -1 -1 -1 -1 -1 -1 -1 -1 -1 -1 -1 -1 -1
 MicOpt= -1 -1 -1 -1 -1 -1 -1 -1 -1 -1 -1 -1 -1 -1 -1 -1 -1 -1 -1 -1
 MicOpt= -1 -1 -1 -1 -1 -1 -1 -1 -1 -1 -1 -1 -1 -1 -1 -1 -1 -1 -1 -1
 NAtoms=    140 NQM=      140 NQMF=       0 NMMI=      0 NMMIF=      0
                NMic=       0 NMicF=      0.
                    Isotopes and Nuclear Properties:
 (Nuclear quadrupole moments (NQMom) in fm**2, nuclear magnetic moments (NMagM)
  in nuclear magnetons)

  Atom         1           2           3           4           5           6           7           8           9          10
 IAtWgt=          24          12          12          12          12          14          12          12          12          12
 AtmWgt=  23.9850450  12.0000000  12.0000000  12.0000000  12.0000000  14.0030740  12.0000000  12.0000000  12.0000000  12.0000000
 NucSpn=           0           0           0           0           0           2           0           0           0           0
 AtZEff=  -0.0000000  -0.0000000  -0.0000000  -0.0000000  -0.0000000  -0.0000000  -0.0000000  -0.0000000  -0.0000000  -0.0000000
 NQMom=    0.0000000   0.0000000   0.0000000   0.0000000   0.0000000   2.0440000   0.0000000   0.0000000   0.0000000   0.0000000
 NMagM=    0.0000000   0.0000000   0.0000000   0.0000000   0.0000000   0.4037610   0.0000000   0.0000000   0.0000000   0.0000000
 AtZNuc=  12.0000000   6.0000000   6.0000000   6.0000000   6.0000000   7.0000000   6.0000000   6.0000000   6.0000000   6.0000000

  Atom        11          12          13          14          15          16          17          18          19          20
 IAtWgt=          12          12          12          12          16          16          14          12          12          12
 AtmWgt=  12.0000000  12.0000000  12.0000000  12.0000000  15.9949146  15.9949146  14.0030740  12.0000000  12.0000000  12.0000000
 NucSpn=           0           0           0           0           0           0           2           0           0           0
 AtZEff=  -0.0000000  -0.0000000  -0.0000000  -0.0000000  -0.0000000  -0.0000000  -0.0000000  -0.0000000  -0.0000000  -0.0000000
 NQMom=    0.0000000   0.0000000   0.0000000   0.0000000   0.0000000   0.0000000   2.0440000   0.0000000   0.0000000   0.0000000
 NMagM=    0.0000000   0.0000000   0.0000000   0.0000000   0.0000000   0.0000000   0.4037610   0.0000000   0.0000000   0.0000000
 AtZNuc=   6.0000000   6.0000000   6.0000000   6.0000000   8.0000000   8.0000000   7.0000000   6.0000000   6.0000000   6.0000000

  Atom        21          22          23          24          25          26          27          28          29          30
 IAtWgt=          12          12          12          16          12          14          12          12          12          12
 AtmWgt=  12.0000000  12.0000000  12.0000000  15.9949146  12.0000000  14.0030740  12.0000000  12.0000000  12.0000000  12.0000000
 NucSpn=           0           0           0           0           0           2           0           0           0           0
 AtZEff=  -0.0000000  -0.0000000  -0.0000000  -0.0000000  -0.0000000  -0.0000000  -0.0000000  -0.0000000  -0.0000000  -0.0000000
 NQMom=    0.0000000   0.0000000   0.0000000   0.0000000   0.0000000   2.0440000   0.0000000   0.0000000   0.0000000   0.0000000
 NMagM=    0.0000000   0.0000000   0.0000000   0.0000000   0.0000000   0.4037610   0.0000000   0.0000000   0.0000000   0.0000000
 AtZNuc=   6.0000000   6.0000000   6.0000000   8.0000000   6.0000000   7.0000000   6.0000000   6.0000000   6.0000000   6.0000000

  Atom        31          32          33          34          35          36          37          38          39          40
 IAtWgt=          12          12          12          14          12          12          12          12          12          12
 AtmWgt=  12.0000000  12.0000000  12.0000000  14.0030740  12.0000000  12.0000000  12.0000000  12.0000000  12.0000000  12.0000000
 NucSpn=           0           0           0           2           0           0           0           0           0           0
 AtZEff=  -0.0000000  -0.0000000  -0.0000000  -0.0000000  -0.0000000  -0.0000000  -0.0000000  -0.0000000  -0.0000000  -0.0000000
 NQMom=    0.0000000   0.0000000   0.0000000   2.0440000   0.0000000   0.0000000   0.0000000   0.0000000   0.0000000   0.0000000
 NMagM=    0.0000000   0.0000000   0.0000000   0.4037610   0.0000000   0.0000000   0.0000000   0.0000000   0.0000000   0.0000000
 AtZNuc=   6.0000000   6.0000000   6.0000000   7.0000000   6.0000000   6.0000000   6.0000000   6.0000000   6.0000000   6.0000000

  Atom        41          42          43          44          45          46          47          48          49          50
 IAtWgt=          16          12          12          16          16          12          12          12          12          12
 AtmWgt=  15.9949146  12.0000000  12.0000000  15.9949146  15.9949146  12.0000000  12.0000000  12.0000000  12.0000000  12.0000000
 NucSpn=           0           0           0           0           0           0           0           0           0           0
 AtZEff=  -0.0000000  -0.0000000  -0.0000000  -0.0000000  -0.0000000  -0.0000000  -0.0000000  -0.0000000  -0.0000000  -0.0000000
 NQMom=    0.0000000   0.0000000   0.0000000   0.0000000   0.0000000   0.0000000   0.0000000   0.0000000   0.0000000   0.0000000
 NMagM=    0.0000000   0.0000000   0.0000000   0.0000000   0.0000000   0.0000000   0.0000000   0.0000000   0.0000000   0.0000000
 AtZNuc=   8.0000000   6.0000000   6.0000000   8.0000000   8.0000000   6.0000000   6.0000000   6.0000000   6.0000000   6.0000000

  Atom        51          52          53          54          55          56          57          58          59          60
 IAtWgt=          12          12          12          12          12          12          12          12          12          12
 AtmWgt=  12.0000000  12.0000000  12.0000000  12.0000000  12.0000000  12.0000000  12.0000000  12.0000000  12.0000000  12.0000000
 NucSpn=           0           0           0           0           0           0           0           0           0           0
 AtZEff=  -0.0000000  -0.0000000  -0.0000000  -0.0000000  -0.0000000  -0.0000000  -0.0000000  -0.0000000  -0.0000000  -0.0000000
 NQMom=    0.0000000   0.0000000   0.0000000   0.0000000   0.0000000   0.0000000   0.0000000   0.0000000   0.0000000   0.0000000
 NMagM=    0.0000000   0.0000000   0.0000000   0.0000000   0.0000000   0.0000000   0.0000000   0.0000000   0.0000000   0.0000000
 AtZNuc=   6.0000000   6.0000000   6.0000000   6.0000000   6.0000000   6.0000000   6.0000000   6.0000000   6.0000000   6.0000000

  Atom        61          62          63          64          65          66          67          68          69          70
 IAtWgt=          12          12          12          12          12          12           1           1           1           1
 AtmWgt=  12.0000000  12.0000000  12.0000000  12.0000000  12.0000000  12.0000000   1.0078250   1.0078250   1.0078250   1.0078250
 NucSpn=           0           0           0           0           0           0           1           1           1           1
 AtZEff=  -0.0000000  -0.0000000  -0.0000000  -0.0000000  -0.0000000  -0.0000000  -0.0000000  -0.0000000  -0.0000000  -0.0000000
 NQMom=    0.0000000   0.0000000   0.0000000   0.0000000   0.0000000   0.0000000   0.0000000   0.0000000   0.0000000   0.0000000
 NMagM=    0.0000000   0.0000000   0.0000000   0.0000000   0.0000000   0.0000000   2.7928460   2.7928460   2.7928460   2.7928460
 AtZNuc=   6.0000000   6.0000000   6.0000000   6.0000000   6.0000000   6.0000000   1.0000000   1.0000000   1.0000000   1.0000000

  Atom        71          72          73          74          75          76          77          78          79          80
 IAtWgt=           1           1           1           1           1           1           1           1           1           1
 AtmWgt=   1.0078250   1.0078250   1.0078250   1.0078250   1.0078250   1.0078250   1.0078250   1.0078250   1.0078250   1.0078250
 NucSpn=           1           1           1           1           1           1           1           1           1           1
 AtZEff=  -0.0000000  -0.0000000  -0.0000000  -0.0000000  -0.0000000  -0.0000000  -0.0000000  -0.0000000  -0.0000000  -0.0000000
 NQMom=    0.0000000   0.0000000   0.0000000   0.0000000   0.0000000   0.0000000   0.0000000   0.0000000   0.0000000   0.0000000
 NMagM=    2.7928460   2.7928460   2.7928460   2.7928460   2.7928460   2.7928460   2.7928460   2.7928460   2.7928460   2.7928460
 AtZNuc=   1.0000000   1.0000000   1.0000000   1.0000000   1.0000000   1.0000000   1.0000000   1.0000000   1.0000000   1.0000000

  Atom        81          82          83          84          85          86          87          88          89          90
 IAtWgt=           1           1           1           1           1           1           1           1           1           1
 AtmWgt=   1.0078250   1.0078250   1.0078250   1.0078250   1.0078250   1.0078250   1.0078250   1.0078250   1.0078250   1.0078250
 NucSpn=           1           1           1           1           1           1           1           1           1           1
 AtZEff=  -0.0000000  -0.0000000  -0.0000000  -0.0000000  -0.0000000  -0.0000000  -0.0000000  -0.0000000  -0.0000000  -0.0000000
 NQMom=    0.0000000   0.0000000   0.0000000   0.0000000   0.0000000   0.0000000   0.0000000   0.0000000   0.0000000   0.0000000
 NMagM=    2.7928460   2.7928460   2.7928460   2.7928460   2.7928460   2.7928460   2.7928460   2.7928460   2.7928460   2.7928460
 AtZNuc=   1.0000000   1.0000000   1.0000000   1.0000000   1.0000000   1.0000000   1.0000000   1.0000000   1.0000000   1.0000000

  Atom        91          92          93          94          95          96          97          98          99         100
 IAtWgt=           1           1           1           1           1           1           1           1           1           1
 AtmWgt=   1.0078250   1.0078250   1.0078250   1.0078250   1.0078250   1.0078250   1.0078250   1.0078250   1.0078250   1.0078250
 NucSpn=           1           1           1           1           1           1           1           1           1           1
 AtZEff=  -0.0000000  -0.0000000  -0.0000000  -0.0000000  -0.0000000  -0.0000000  -0.0000000  -0.0000000  -0.0000000  -0.0000000
 NQMom=    0.0000000   0.0000000   0.0000000   0.0000000   0.0000000   0.0000000   0.0000000   0.0000000   0.0000000   0.0000000
 NMagM=    2.7928460   2.7928460   2.7928460   2.7928460   2.7928460   2.7928460   2.7928460   2.7928460   2.7928460   2.7928460
 AtZNuc=   1.0000000   1.0000000   1.0000000   1.0000000   1.0000000   1.0000000   1.0000000   1.0000000   1.0000000   1.0000000

  Atom       101         102         103         104         105         106         107         108         109         110
 IAtWgt=           1           1           1           1           1           1           1           1           1           1
 AtmWgt=   1.0078250   1.0078250   1.0078250   1.0078250   1.0078250   1.0078250   1.0078250   1.0078250   1.0078250   1.0078250
 NucSpn=           1           1           1           1           1           1           1           1           1           1
 AtZEff=  -0.0000000  -0.0000000  -0.0000000  -0.0000000  -0.0000000  -0.0000000  -0.0000000  -0.0000000  -0.0000000  -0.0000000
 NQMom=    0.0000000   0.0000000   0.0000000   0.0000000   0.0000000   0.0000000   0.0000000   0.0000000   0.0000000   0.0000000
 NMagM=    2.7928460   2.7928460   2.7928460   2.7928460   2.7928460   2.7928460   2.7928460   2.7928460   2.7928460   2.7928460
 AtZNuc=   1.0000000   1.0000000   1.0000000   1.0000000   1.0000000   1.0000000   1.0000000   1.0000000   1.0000000   1.0000000

  Atom       111         112         113         114         115         116         117         118         119         120
 IAtWgt=           1           1           1           1           1           1           1           1           1           1
 AtmWgt=   1.0078250   1.0078250   1.0078250   1.0078250   1.0078250   1.0078250   1.0078250   1.0078250   1.0078250   1.0078250
 NucSpn=           1           1           1           1           1           1           1           1           1           1
 AtZEff=  -0.0000000  -0.0000000  -0.0000000  -0.0000000  -0.0000000  -0.0000000  -0.0000000  -0.0000000  -0.0000000  -0.0000000
 NQMom=    0.0000000   0.0000000   0.0000000   0.0000000   0.0000000   0.0000000   0.0000000   0.0000000   0.0000000   0.0000000
 NMagM=    2.7928460   2.7928460   2.7928460   2.7928460   2.7928460   2.7928460   2.7928460   2.7928460   2.7928460   2.7928460
 AtZNuc=   1.0000000   1.0000000   1.0000000   1.0000000   1.0000000   1.0000000   1.0000000   1.0000000   1.0000000   1.0000000

  Atom       121         122         123         124         125         126         127         128         129         130
 IAtWgt=           1           1           1           1           1           1           1           1           1           1
 AtmWgt=   1.0078250   1.0078250   1.0078250   1.0078250   1.0078250   1.0078250   1.0078250   1.0078250   1.0078250   1.0078250
 NucSpn=           1           1           1           1           1           1           1           1           1           1
 AtZEff=  -0.0000000  -0.0000000  -0.0000000  -0.0000000  -0.0000000  -0.0000000  -0.0000000  -0.0000000  -0.0000000  -0.0000000
 NQMom=    0.0000000   0.0000000   0.0000000   0.0000000   0.0000000   0.0000000   0.0000000   0.0000000   0.0000000   0.0000000
 NMagM=    2.7928460   2.7928460   2.7928460   2.7928460   2.7928460   2.7928460   2.7928460   2.7928460   2.7928460   2.7928460
 AtZNuc=   1.0000000   1.0000000   1.0000000   1.0000000   1.0000000   1.0000000   1.0000000   1.0000000   1.0000000   1.0000000

  Atom       131         132         133         134         135         136         137         138         139         140
 IAtWgt=           1           1           1           1           1           1           1           1           1           1
 AtmWgt=   1.0078250   1.0078250   1.0078250   1.0078250   1.0078250   1.0078250   1.0078250   1.0078250   1.0078250   1.0078250
 NucSpn=           1           1           1           1           1           1           1           1           1           1
 AtZEff=  -0.0000000  -0.0000000  -0.0000000  -0.0000000  -0.0000000  -0.0000000  -0.0000000  -0.0000000  -0.0000000  -0.0000000
 NQMom=    0.0000000   0.0000000   0.0000000   0.0000000   0.0000000   0.0000000   0.0000000   0.0000000   0.0000000   0.0000000
 NMagM=    2.7928460   2.7928460   2.7928460   2.7928460   2.7928460   2.7928460   2.7928460   2.7928460   2.7928460   2.7928460
 AtZNuc=   1.0000000   1.0000000   1.0000000   1.0000000   1.0000000   1.0000000   1.0000000   1.0000000   1.0000000   1.0000000
 Leave Link  101 at Wed May  4 21:53:07 2022, MaxMem= 10066329600 cpu:               4.1 elap:               0.2
 (Enter /sw/apps/gaussian-16.0/g16/l202.exe)
 Stoichiometry    C55H74MgN4O6
 Framework group  C1[X(C55H74MgN4O6)]
 Deg. of freedom   414
 Full point group                 C1      NOp   1
 Largest Abelian subgroup         C1      NOp   1
 Largest concise Abelian subgroup C1      NOp   1
                         Standard orientation:                         
 ---------------------------------------------------------------------
 Center     Atomic      Atomic             Coordinates (Angstroms)
 Number     Number       Type             X           Y           Z
 ---------------------------------------------------------------------
      1         12           0       -4.647655    0.955853   -0.161681
      2          6           0       -4.005652   -2.611650    0.068174
      3          6           0       -1.228211    1.440864   -0.223154
      4          6           0       -5.378142    4.120027   -0.087208
      5          6           0       -8.050079    0.057575    0.192983
      6          7           0       -2.825537   -0.517890   -0.172561
      7          6           0       -2.772030   -1.878438   -0.050846
      8          6           0       -1.361683   -2.361237   -0.115647
      9          6           0       -0.540329   -1.004375    0.152946
     10          6           0       -1.592085    0.046892   -0.091426
     11          6           0        0.239058   -0.782282    1.477689
     12          6           0       -0.912622   -3.135708   -1.412484
     13          6           0        0.113127   -4.247616   -1.208711
     14          6           0        1.575096   -3.863693   -0.766670
     15          8           0        1.893515   -3.290182    0.220625
     16          8           0        2.524432   -4.229743   -1.702334
     17          7           0       -3.457568    2.535556   -0.182667
     18          6           0       -2.076111    2.556658   -0.208596
     19          6           0       -1.656096    3.968407   -0.043598
     20          6           0       -2.860692    4.800622   -0.047685
     21          6           0       -3.948598    3.842121   -0.038047
     22          6           0       -0.163889    4.456618    0.081529
     23          6           0       -3.026319    6.315748   -0.007623
     24          8           0       -4.128824    6.731278    0.240835
     25          6           0       -1.805236    7.336388   -0.225211
     26          7           0       -6.431775    1.908589   -0.048872
     27          6           0       -6.431395    3.269622    0.046415
     28          6           0       -7.880665    3.751520   -0.036202
     29          6           0       -8.747480    2.501482   -0.008106
     30          6           0       -7.634850    1.381606    0.018982
     31          6           0       -8.251838    4.790584    1.031179
     32          6           0       -9.679626    2.286831   -1.193551
     33          6           0      -11.076430    1.750099   -0.829035
     34          7           0       -5.839139   -0.900093    0.059926
     35          6           0       -7.202984   -1.050177    0.174220
     36          6           0       -7.527621   -2.485023    0.353443
     37          6           0       -6.300548   -3.141328    0.257777
     38          6           0       -5.298803   -2.122057    0.124728
     39          6           0       -8.859980   -3.116998    0.324448
     40          6           0       -5.622737   -4.492026    0.459583
     41          8           0       -6.086029   -5.609296    0.700500
     42          6           0       -4.133777   -4.144725    0.331562
     43          6           0       -3.523392   -4.599592    1.561446
     44          8           0       -3.700832   -4.066803    2.648276
     45          8           0       -2.721398   -5.707910    1.272241
     46          6           0       -1.801689   -6.180184    2.293356
     47          6           0        3.937164   -3.931313   -1.478328
     48          6           0        4.480969   -2.575639   -1.968608
     49          6           0        5.752804   -2.194057   -2.077985
     50          6           0        6.906657   -3.101933   -1.640769
     51          6           0        6.095163   -0.772583   -2.666179
     52          6           0        6.757806   -0.800889   -4.054440
     53          6           0        8.172018   -0.373736   -3.941259
     54          6           0        8.321521    1.118655   -4.172870
     55          6           0        8.675361    1.279951   -5.667136
     56          6           0        9.419588    1.718085   -3.169879
     57          6           0        8.860034    1.960436   -1.788438
     58          6           0        9.943302    2.217314   -0.712155
     59          6           0        9.644603    1.440197    0.605040
     60          6           0        9.627950   -0.087981    0.396551
     61          6           0       10.610336    1.822538    1.725917
     62          6           0        9.807687    2.182637    2.996191
     63          6           0        9.373004    0.926694    3.904810
     64          6           0        9.753462    1.216331    5.397015
     65          6           0       11.267444    1.010540    5.674699
     66          6           0        8.812604    0.446137    6.414688
     67          1           0       -0.168574    1.691204   -0.142204
     68          1           0       -5.618418    5.179726    0.019358
     69          1           0       -9.139540   -0.024780    0.178114
     70          1           0       -1.176413   -3.000009    0.748073
     71          1           0        0.222734   -0.929612   -0.621779
     72          1           0       -0.496900   -0.355208    2.158673
     73          1           0        1.071358   -0.114304    1.255316
     74          1           0        0.509330   -1.777689    1.827909
     75          1           0       -0.379437   -2.384223   -1.995305
     76          1           0       -1.788803   -3.480001   -1.961708
     77          1           0        0.114232   -4.667731   -2.214452
     78          1           0       -0.275571   -4.985305   -0.506830
     79          1           0        0.104225    4.866815   -0.891576
     80          1           0        0.583696    3.752568    0.447180
     81          1           0       -0.192686    5.255959    0.823288
     82          1           0       -1.548108    7.795482    0.729556
     83          1           0       -1.997503    8.104817   -0.974240
     84          1           0       -0.892286    6.847968   -0.565843
     85          1           0       -8.027006    4.310973   -0.960130
     86          1           0       -9.299283    2.512253    0.931374
     87          1           0       -7.388003    5.372452    1.351982
     88          1           0       -8.648114    4.218577    1.869907
     89          1           0       -9.007353    5.508896    0.712631
     90          1           0       -9.238048    1.584299   -1.899562
     91          1           0       -9.664232    3.223239   -1.750977
     92          1           0      -11.202392    1.433081    0.207068
     93          1           0      -11.268865    0.914451   -1.501576
     94          1           0      -11.773590    2.421357   -1.331013
     95          1           0       -9.534038   -2.724477   -0.436522
     96          1           0       -9.263231   -3.073436    1.335779
     97          1           0       -8.881460   -4.138548   -0.055964
     98          1           0       -3.583738   -4.590229   -0.497238
     99          1           0       -2.095925   -7.029183    2.911500
    100          1           0       -1.457953   -5.351069    2.910659
    101          1           0       -0.889349   -6.571329    1.843512
    102          1           0        4.502470   -4.643672   -2.079136
    103          1           0        4.162461   -3.985976   -0.412952
    104          1           0        3.727931   -1.852363   -2.282657
    105          1           0        6.529140   -4.059271   -1.281405
    106          1           0        7.543305   -2.585758   -0.922470
    107          1           0        7.461589   -3.431595   -2.519595
    108          1           0        6.674563   -0.302268   -1.872193
    109          1           0        5.217297   -0.160834   -2.873788
    110          1           0        6.190162   -0.183606   -4.750292
    111          1           0        6.751062   -1.743503   -4.602759
    112          1           0        8.784103   -0.930661   -4.649956
    113          1           0        8.498773   -0.684183   -2.949027
    114          1           0        7.412237    1.664385   -3.919055
    115          1           0        9.695014    1.641398   -5.797909
    116          1           0        8.034559    2.067868   -6.064533
    117          1           0        8.473498    0.428546   -6.316878
    118          1           0        9.461040    2.768701   -3.456817
    119          1           0       10.422770    1.302034   -3.073586
    120          1           0        8.182400    1.119551   -1.641906
    121          1           0        8.176139    2.803593   -1.886227
    122          1           0        9.762065    3.260752   -0.452985
    123          1           0       10.998529    2.243732   -0.981762
    124          1           0        8.616705    1.680998    0.878905
    125          1           0       10.033091   -0.199866   -0.610249
    126          1           0        8.581178   -0.389898    0.429004
    127          1           0       10.199756   -0.674790    1.115403
    128          1           0       11.270483    2.610001    1.360720
    129          1           0       11.316922    1.009456    1.895188
    130          1           0        8.962291    2.836779    2.783060
    131          1           0       10.525281    2.753901    3.585331
    132          1           0        9.969931    0.086131    3.550977
    133          1           0        8.308412    0.721559    3.791165
    134          1           0        9.598523    2.284006    5.556486
    135          1           0       11.397887    0.322854    6.510540
    136          1           0       11.848506    1.905665    5.897687
    137          1           0       11.664757    0.591911    4.750310
    138          1           0        7.931717    0.097602    5.875849
    139          1           0        8.593587    1.175928    7.193014
    140          1           0        9.443183   -0.365812    6.776644
 ---------------------------------------------------------------------
 Rotational constants (GHZ):           0.0371253           0.0122522           0.0107890
 Leave Link  202 at Wed May  4 21:53:07 2022, MaxMem= 10066329600 cpu:               0.9 elap:               0.1
 (Enter /sw/apps/gaussian-16.0/g16/l301.exe)
 Standard basis: def2SVP (5D, 7F)
 Ernie: Thresh=  0.10000D-02 Tol=  0.10000D-05 Strict=F.
 There are  1364 symmetry adapted cartesian basis functions of A   symmetry.
 There are  1298 symmetry adapted basis functions of A   symmetry.
  1298 basis functions,  2180 primitive gaussians,  1364 cartesian basis functions
   246 alpha electrons      246 beta electrons
       nuclear repulsion energy      9672.6186739473 Hartrees.
 IExCor= 1009 DFT=T Ex+Corr=PBE1PBE ExCW=0 ScaHFX=  0.250000
 ScaDFX=  0.750000  0.750000  1.000000  1.000000 ScalE2=  1.000000  1.000000
 IRadAn=      5 IRanWt=     -1 IRanGd=            0 ICorTp=0 IEmpDi=  4
 NAtoms=  140 NActive=  140 NUniq=  140 SFac= 1.00D+00 NAtFMM=   60 NAOKFM=T Big=T
 Integral buffers will be    131072 words long.
 Regular integral format.
 Two-electron integral symmetry is turned on.
 Leave Link  301 at Wed May  4 21:53:07 2022, MaxMem= 10066329600 cpu:               1.7 elap:               0.1
 (Enter /sw/apps/gaussian-16.0/g16/l302.exe)
 NPDir=0 NMtPBC=     1 NCelOv=     1 NCel=       1 NClECP=     1 NCelD=      1
         NCelK=      1 NCelE2=     1 NClLst=     1 CellRange=     0.0.
 One-electron integrals computed using PRISM.
 One-electron integral symmetry used in STVInt
   1 Symmetry operations used in ECPInt.
 ECPInt:  NShTT=  192510 NPrTT=  683786 LenC2=   98059 LenP2D=  212197.
 LDataN:  DoStor=T MaxTD1= 4 Len=   56
 NBasis=  1298 RedAO= T EigKep=  2.80D-04  NBF=  1298
 NBsUse=  1298 1.00D-06 EigRej= -1.00D+00 NBFU=  1298
 Precomputing XC quadrature grid using
 IXCGrd= 4 IRadAn=           5 IRanWt=          -1 IRanGd=           0 AccXCQ= 0.00D+00.
 Generated NRdTot=       0 NPtTot=           0 NUsed=           0 NTot=          32
 NSgBfM=  1197  1197  1197  1197  1197 MxSgAt=   140 MxSgA2=   140.
 Leave Link  302 at Wed May  4 21:53:11 2022, MaxMem= 10066329600 cpu:             101.7 elap:               4.3
 (Enter /sw/apps/gaussian-16.0/g16/l303.exe)
 DipDrv:  MaxL=1.
 Leave Link  303 at Wed May  4 21:53:11 2022, MaxMem= 10066329600 cpu:               7.5 elap:               0.4
 (Enter /sw/apps/gaussian-16.0/g16/l308.exe)
 Leave Link  308 at Wed May  4 21:53:12 2022, MaxMem= 10066329600 cpu:              13.5 elap:               0.6
 (Enter /sw/apps/gaussian-16.0/g16/l401.exe)
 ExpMin= 3.36D-02 ExpMax= 4.95D+03 ExpMxC= 7.45D+02 IAcc=3 IRadAn=         5 AccDes= 0.00D+00
 Harris functional with IExCor= 1009 and IRadAn=       5 diagonalized for initial guess.
 HarFok:  IExCor= 1009 AccDes= 0.00D+00 IRadAn=         5 IDoV= 1 UseB2=F ITyADJ=14
 ICtDFT=  3500011 ScaDFX=  1.000000  1.000000  1.000000  1.000000
 FoFCou: FMM=F IPFlag=           0 FMFlag=      100000 FMFlg1=        2001
         NFxFlg=           0 DoJE=T BraDBF=F KetDBF=T FulRan=T
         wScrn=  0.000000 ICntrl=       500 IOpCl=  0 I1Cent=   200000004 NGrid=           0
         NMat0=    1 NMatS0=      1 NMatT0=    0 NMatD0=    1 NMtDS0=    0 NMtDT0=    0
 Petite list used in FoFCou.
 Harris En= -3006.13978259148    
 JPrj=0 DoOrth=F DoCkMO=F.
 Leave Link  401 at Wed May  4 21:53:19 2022, MaxMem= 10066329600 cpu:             162.5 elap:               6.8
 (Enter /sw/apps/gaussian-16.0/g16/l502.exe)
 Integral symmetry usage will be decided dynamically.
 Closed shell SCF:
 Using DIIS extrapolation, IDIIS=  1040.
 NGot= 10066329600 LenX= 10062561258 LenY= 10060699398
 Requested convergence on RMS density matrix=1.00D-08 within 128 cycles.
 Requested convergence on MAX density matrix=1.00D-06.
 Requested convergence on             energy=1.00D-06.
 No special actions if energy rises.
 Fock matrices will be formed incrementally for  20 cycles.

 Cycle   1  Pass 1  IDiag  1:
 FoFJK:  IHMeth= 1 ICntrl=       0 DoSepK=F KAlg= 0 I1Cent=           0 FoldK=F
 IRaf= 520000000 NMat=       1 IRICut=       1 DoRegI=T DoRafI=F ISym2E= 0 IDoP0=0 IntGTp=1.
 FoFCou: FMM=T IPFlag=           0 FMFlag=      100000 FMFlg1=        2001
         NFxFlg=           0 DoJE=F BraDBF=F KetDBF=F FulRan=T
         wScrn=  0.000000 ICntrl=         0 IOpCl=  0 I1Cent=           0 NGrid=           0
         NMat0=    1 NMatS0=      1 NMatT0=    0 NMatD0=    1 NMtDS0=    0 NMtDT0=    0
 Symmetry not used in FoFCou.
 FMM levels:  10  Number of levels for PrismC:   9
 E= -3003.81570073946    
 DIIS: error= 1.93D-02 at cycle   1 NSaved=   1.
 NSaved= 1 IEnMin= 1 EnMin= -3003.81570073946     IErMin= 1 ErrMin= 1.93D-02
 ErrMax= 1.93D-02  0.00D+00 EMaxC= 1.00D-01 BMatC= 1.46D+00 BMatP= 1.46D+00
 IDIUse=3 WtCom= 8.07D-01 WtEn= 1.93D-01
 Coeff-Com:  0.100D+01
 Coeff-En:   0.100D+01
 Coeff:      0.100D+01
 Gap=     0.084 Goal=   None    Shift=    0.000
 GapD=    0.084 DampG=0.500 DampE=0.500 DampFc=0.2500 IDamp=-1.
 Damping current iteration by 2.50D-01
 RMSDP=2.58D-03 MaxDP=5.48D-01              OVMax= 2.28D-01

 Cycle   2  Pass 1  IDiag  1:
 RMSU=  6.38D-04    CP:  9.89D-01
 E= -3004.36343019327     Delta-E=       -0.547729453809 Rises=F Damp=T
 DIIS: error= 1.01D-02 at cycle   2 NSaved=   2.
 NSaved= 2 IEnMin= 2 EnMin= -3004.36343019327     IErMin= 2 ErrMin= 1.01D-02
 ErrMax= 1.01D-02  0.00D+00 EMaxC= 1.00D-01 BMatC= 3.65D-01 BMatP= 1.46D+00
 IDIUse=3 WtCom= 8.99D-01 WtEn= 1.01D-01
 Coeff-Com: -0.778D+00 0.178D+01
 Coeff-En:   0.000D+00 0.100D+01
 Coeff:     -0.700D+00 0.170D+01
 Gap=     0.104 Goal=   None    Shift=    0.000
 RMSDP=9.68D-04 MaxDP=6.96D-02 DE=-5.48D-01 OVMax= 2.93D-01

 Cycle   3  Pass 1  IDiag  1:
 RMSU=  7.99D-04    CP:  9.65D-01  1.78D+00
 E= -3005.18581482358     Delta-E=       -0.822384630317 Rises=F Damp=F
 DIIS: error= 1.56D-02 at cycle   3 NSaved=   3.
 NSaved= 3 IEnMin= 3 EnMin= -3005.18581482358     IErMin= 2 ErrMin= 1.01D-02
 ErrMax= 1.56D-02  0.00D+00 EMaxC= 1.00D-01 BMatC= 1.68D-01 BMatP= 3.65D-01
 IDIUse=3 WtCom= 8.44D-01 WtEn= 1.56D-01
 Coeff-Com: -0.497D+00 0.106D+01 0.440D+00
 Coeff-En:   0.000D+00 0.000D+00 0.100D+01
 Coeff:     -0.419D+00 0.892D+00 0.527D+00
 Gap=     0.076 Goal=   None    Shift=    0.000
 RMSDP=6.29D-04 MaxDP=8.95D-02 DE=-8.22D-01 OVMax= 2.47D-01

 Cycle   4  Pass 1  IDiag  1:
 RMSU=  4.23D-04    CP:  9.70D-01  2.01D+00  4.51D-01
 E= -3005.27997028351     Delta-E=       -0.094155459932 Rises=F Damp=F
 DIIS: error= 8.96D-03 at cycle   4 NSaved=   4.
 NSaved= 4 IEnMin= 4 EnMin= -3005.27997028351     IErMin= 4 ErrMin= 8.96D-03
 ErrMax= 8.96D-03  0.00D+00 EMaxC= 1.00D-01 BMatC= 6.26D-02 BMatP= 1.68D-01
 IDIUse=3 WtCom= 9.10D-01 WtEn= 8.96D-02
 Coeff-Com: -0.118D+00 0.262D+00 0.367D+00 0.489D+00
 Coeff-En:   0.000D+00 0.000D+00 0.336D+00 0.664D+00
 Coeff:     -0.108D+00 0.239D+00 0.365D+00 0.504D+00
 Gap=     0.073 Goal=   None    Shift=    0.000
 RMSDP=3.59D-04 MaxDP=4.29D-02 DE=-9.42D-02 OVMax= 1.89D-01

 Cycle   5  Pass 1  IDiag  1:
 RMSU=  1.65D-04    CP:  9.69D-01  1.87D+00  6.91D-01  4.33D-01
 E= -3005.33384159652     Delta-E=       -0.053871313004 Rises=F Damp=F
 DIIS: error= 2.38D-03 at cycle   5 NSaved=   5.
 NSaved= 5 IEnMin= 5 EnMin= -3005.33384159652     IErMin= 5 ErrMin= 2.38D-03
 ErrMax= 2.38D-03  0.00D+00 EMaxC= 1.00D-01 BMatC= 9.74D-03 BMatP= 6.26D-02
 IDIUse=3 WtCom= 9.76D-01 WtEn= 2.38D-02
 Coeff-Com: -0.245D-01 0.610D-01 0.219D+00 0.376D+00 0.368D+00
 Coeff-En:   0.000D+00 0.000D+00 0.000D+00 0.187D+00 0.813D+00
 Coeff:     -0.239D-01 0.595D-01 0.214D+00 0.372D+00 0.379D+00
 Gap=     0.075 Goal=   None    Shift=    0.000
 RMSDP=1.54D-04 MaxDP=1.38D-02 DE=-5.39D-02 OVMax= 1.05D-01

 Cycle   6  Pass 1  IDiag  1:
 RMSU=  6.12D-05    CP:  9.68D-01  1.89D+00  6.47D-01  6.03D-01  2.91D-01
 E= -3005.34613070760     Delta-E=       -0.012289111080 Rises=F Damp=F
 DIIS: error= 6.30D-04 at cycle   6 NSaved=   6.
 NSaved= 6 IEnMin= 6 EnMin= -3005.34613070760     IErMin= 6 ErrMin= 6.30D-04
 ErrMax= 6.30D-04  0.00D+00 EMaxC= 1.00D-01 BMatC= 8.96D-04 BMatP= 9.74D-03
 IDIUse=3 WtCom= 9.94D-01 WtEn= 6.30D-03
 Coeff-Com:  0.229D-02-0.990D-03 0.793D-01 0.158D+00 0.258D+00 0.504D+00
 Coeff-En:   0.000D+00 0.000D+00 0.000D+00 0.000D+00 0.108D+00 0.892D+00
 Coeff:      0.228D-02-0.983D-03 0.788D-01 0.157D+00 0.257D+00 0.506D+00
 Gap=     0.075 Goal=   None    Shift=    0.000
 RMSDP=5.21D-05 MaxDP=4.94D-03 DE=-1.23D-02 OVMax= 3.82D-02

 Cycle   7  Pass 1  IDiag  1:
 RMSU=  2.88D-05    CP:  9.68D-01  1.89D+00  6.58D-01  5.77D-01  4.46D-01
                    CP:  4.71D-01
 E= -3005.34706874434     Delta-E=       -0.000938036745 Rises=F Damp=F
 DIIS: error= 3.26D-04 at cycle   7 NSaved=   7.
 NSaved= 7 IEnMin= 7 EnMin= -3005.34706874434     IErMin= 7 ErrMin= 3.26D-04
 ErrMax= 3.26D-04  0.00D+00 EMaxC= 1.00D-01 BMatC= 2.07D-04 BMatP= 8.96D-04
 IDIUse=3 WtCom= 9.97D-01 WtEn= 3.26D-03
 Coeff-Com:  0.432D-02-0.774D-02 0.261D-01 0.580D-01 0.132D+00 0.373D+00
 Coeff-Com:  0.414D+00
 Coeff-En:   0.000D+00 0.000D+00 0.000D+00 0.000D+00 0.000D+00 0.215D+00
 Coeff-En:   0.785D+00
 Coeff:      0.430D-02-0.771D-02 0.260D-01 0.578D-01 0.132D+00 0.372D+00
 Coeff:      0.416D+00
 Gap=     0.076 Goal=   None    Shift=    0.000
 RMSDP=2.45D-05 MaxDP=2.16D-03 DE=-9.38D-04 OVMax= 1.67D-02

 Cycle   8  Pass 1  IDiag  1:
 RMSU=  1.11D-05    CP:  9.68D-01  1.89D+00  6.59D-01  5.79D-01  4.20D-01
                    CP:  6.46D-01  3.59D-01
 E= -3005.34731099357     Delta-E=       -0.000242249222 Rises=F Damp=F
 DIIS: error= 1.06D-04 at cycle   8 NSaved=   8.
 NSaved= 8 IEnMin= 8 EnMin= -3005.34731099357     IErMin= 8 ErrMin= 1.06D-04
 ErrMax= 1.06D-04  0.00D+00 EMaxC= 1.00D-01 BMatC= 2.99D-05 BMatP= 2.07D-04
 IDIUse=3 WtCom= 9.99D-01 WtEn= 1.06D-03
 Coeff-Com:  0.214D-02-0.432D-02 0.444D-02 0.119D-01 0.462D-01 0.172D+00
 Coeff-Com:  0.305D+00 0.462D+00
 Coeff-En:   0.000D+00 0.000D+00 0.000D+00 0.000D+00 0.000D+00 0.000D+00
 Coeff-En:   0.160D+00 0.840D+00
 Coeff:      0.214D-02-0.431D-02 0.443D-02 0.119D-01 0.462D-01 0.172D+00
 Coeff:      0.305D+00 0.463D+00
 Gap=     0.076 Goal=   None    Shift=    0.000
 RMSDP=7.76D-06 MaxDP=7.50D-04 DE=-2.42D-04 OVMax= 4.24D-03

 Cycle   9  Pass 1  IDiag  1:
 RMSU=  3.08D-06    CP:  9.68D-01  1.89D+00  6.59D-01  5.81D-01  4.24D-01
                    CP:  6.22D-01  5.02D-01  5.13D-01
 E= -3005.34734787734     Delta-E=       -0.000036883779 Rises=F Damp=F
 DIIS: error= 7.02D-05 at cycle   9 NSaved=   9.
 NSaved= 9 IEnMin= 9 EnMin= -3005.34734787734     IErMin= 9 ErrMin= 7.02D-05
 ErrMax= 7.02D-05  0.00D+00 EMaxC= 1.00D-01 BMatC= 2.07D-06 BMatP= 2.99D-05
 IDIUse=1 WtCom= 1.00D+00 WtEn= 0.00D+00
 Coeff-Com:  0.687D-03-0.147D-02-0.764D-04 0.508D-03 0.135D-01 0.627D-01
 Coeff-Com:  0.144D+00 0.275D+00 0.505D+00
 Coeff:      0.687D-03-0.147D-02-0.764D-04 0.508D-03 0.135D-01 0.627D-01
 Coeff:      0.144D+00 0.275D+00 0.505D+00
 Gap=     0.076 Goal=   None    Shift=    0.000
 RMSDP=2.03D-06 MaxDP=1.79D-04 DE=-3.69D-05 OVMax= 7.57D-04

 Cycle  10  Pass 1  IDiag  1:
 RMSU=  1.43D-06    CP:  9.68D-01  1.89D+00  6.59D-01  5.80D-01  4.26D-01
                    CP:  6.30D-01  5.00D-01  5.69D-01  6.42D-01
 E= -3005.34734973629     Delta-E=       -0.000001858949 Rises=F Damp=F
 DIIS: error= 2.33D-05 at cycle  10 NSaved=  10.
 NSaved=10 IEnMin=10 EnMin= -3005.34734973629     IErMin=10 ErrMin= 2.33D-05
 ErrMax= 2.33D-05  0.00D+00 EMaxC= 1.00D-01 BMatC= 3.01D-07 BMatP= 2.07D-06
 IDIUse=1 WtCom= 1.00D+00 WtEn= 0.00D+00
 Coeff-Com:  0.847D-04-0.209D-03-0.576D-03-0.144D-02 0.179D-02 0.128D-01
 Coeff-Com:  0.456D-01 0.970D-01 0.308D+00 0.537D+00
 Coeff:      0.847D-04-0.209D-03-0.576D-03-0.144D-02 0.179D-02 0.128D-01
 Coeff:      0.456D-01 0.970D-01 0.308D+00 0.537D+00
 Gap=     0.076 Goal=   None    Shift=    0.000
 RMSDP=6.95D-07 MaxDP=6.33D-05 DE=-1.86D-06 OVMax= 2.46D-04

 Cycle  11  Pass 1  IDiag  1:
 RMSU=  4.52D-07    CP:  9.68D-01  1.89D+00  6.59D-01  5.80D-01  4.26D-01
                    CP:  6.30D-01  5.04D-01  5.66D-01  7.43D-01  7.12D-01
 E= -3005.34735003163     Delta-E=       -0.000000295337 Rises=F Damp=F
 DIIS: error= 5.29D-06 at cycle  11 NSaved=  11.
 NSaved=11 IEnMin=11 EnMin= -3005.34735003163     IErMin=11 ErrMin= 5.29D-06
 ErrMax= 5.29D-06  0.00D+00 EMaxC= 1.00D-01 BMatC= 4.65D-08 BMatP= 3.01D-07
 IDIUse=1 WtCom= 1.00D+00 WtEn= 0.00D+00
 Coeff-Com: -0.341D-04 0.579D-04-0.362D-03-0.107D-02-0.679D-03-0.100D-02
 Coeff-Com:  0.994D-02 0.221D-01 0.126D+00 0.334D+00 0.511D+00
 Coeff:     -0.341D-04 0.579D-04-0.362D-03-0.107D-02-0.679D-03-0.100D-02
 Coeff:      0.994D-02 0.221D-01 0.126D+00 0.334D+00 0.511D+00
 Gap=     0.076 Goal=   None    Shift=    0.000
 RMSDP=2.60D-07 MaxDP=2.43D-05 DE=-2.95D-07 OVMax= 8.97D-05

 Cycle  12  Pass 1  IDiag  1:
 RMSU=  1.75D-07    CP:  9.68D-01  1.89D+00  6.59D-01  5.80D-01  4.26D-01
                    CP:  6.30D-01  5.05D-01  5.74D-01  7.45D-01  8.00D-01
                    CP:  7.95D-01
 E= -3005.34735007676     Delta-E=       -0.000000045131 Rises=F Damp=F
 DIIS: error= 1.67D-06 at cycle  12 NSaved=  12.
 NSaved=12 IEnMin=12 EnMin= -3005.34735007676     IErMin=12 ErrMin= 1.67D-06
 ErrMax= 1.67D-06  0.00D+00 EMaxC= 1.00D-01 BMatC= 4.82D-09 BMatP= 4.65D-08
 IDIUse=1 WtCom= 1.00D+00 WtEn= 0.00D+00
 Coeff-Com: -0.181D-04 0.398D-04-0.926D-04-0.343D-03-0.450D-03-0.240D-02
 Coeff-Com: -0.369D-03-0.348D-02 0.207D-01 0.886D-01 0.241D+00 0.656D+00
 Coeff:     -0.181D-04 0.398D-04-0.926D-04-0.343D-03-0.450D-03-0.240D-02
 Coeff:     -0.369D-03-0.348D-02 0.207D-01 0.886D-01 0.241D+00 0.656D+00
 Gap=     0.076 Goal=   None    Shift=    0.000
 RMSDP=1.07D-07 MaxDP=1.66D-05 DE=-4.51D-08 OVMax= 4.50D-05

 Cycle  13  Pass 1  IDiag  1:
 RMSU=  7.46D-08    CP:  9.68D-01  1.89D+00  6.59D-01  5.80D-01  4.26D-01
                    CP:  6.30D-01  5.06D-01  5.73D-01  7.59D-01  8.16D-01
                    CP:  9.05D-01  9.31D-01
 E= -3005.34735008262     Delta-E=       -0.000000005855 Rises=F Damp=F
 DIIS: error= 7.50D-07 at cycle  13 NSaved=  13.
 NSaved=13 IEnMin=13 EnMin= -3005.34735008262     IErMin=13 ErrMin= 7.50D-07
 ErrMax= 7.50D-07  0.00D+00 EMaxC= 1.00D-01 BMatC= 1.36D-09 BMatP= 4.82D-09
 IDIUse=1 WtCom= 1.00D+00 WtEn= 0.00D+00
 Coeff-Com: -0.285D-05 0.107D-04 0.158D-04-0.826D-05-0.118D-03-0.148D-02
 Coeff-Com: -0.204D-02-0.749D-02-0.132D-01-0.149D-01 0.434D-01 0.399D+00
 Coeff-Com:  0.597D+00
 Coeff:     -0.285D-05 0.107D-04 0.158D-04-0.826D-05-0.118D-03-0.148D-02
 Coeff:     -0.204D-02-0.749D-02-0.132D-01-0.149D-01 0.434D-01 0.399D+00
 Coeff:      0.597D+00
 Gap=     0.076 Goal=   None    Shift=    0.000
 RMSDP=5.74D-08 MaxDP=4.71D-06 DE=-5.86D-09 OVMax= 2.61D-05

 Cycle  14  Pass 1  IDiag  1:
 RMSU=  3.47D-08    CP:  9.68D-01  1.89D+00  6.59D-01  5.80D-01  4.26D-01
                    CP:  6.30D-01  5.06D-01  5.74D-01  7.63D-01  8.34D-01
                    CP:  9.37D-01  1.08D+00  7.99D-01
 E= -3005.34735008413     Delta-E=       -0.000000001517 Rises=F Damp=F
 DIIS: error= 4.02D-07 at cycle  14 NSaved=  14.
 NSaved=14 IEnMin=14 EnMin= -3005.34735008413     IErMin=14 ErrMin= 4.02D-07
 ErrMax= 4.02D-07  0.00D+00 EMaxC= 1.00D-01 BMatC= 3.06D-10 BMatP= 1.36D-09
 IDIUse=1 WtCom= 1.00D+00 WtEn= 0.00D+00
 Coeff-Com:  0.259D-05-0.233D-05 0.272D-04 0.527D-04 0.226D-04-0.579D-03
 Coeff-Com: -0.108D-02-0.443D-02-0.117D-01-0.250D-01-0.131D-01 0.128D+00
 Coeff-Com:  0.384D+00 0.544D+00
 Coeff:      0.259D-05-0.233D-05 0.272D-04 0.527D-04 0.226D-04-0.579D-03
 Coeff:     -0.108D-02-0.443D-02-0.117D-01-0.250D-01-0.131D-01 0.128D+00
 Coeff:      0.384D+00 0.544D+00
 Gap=     0.076 Goal=   None    Shift=    0.000
 RMSDP=2.43D-08 MaxDP=2.02D-06 DE=-1.52D-09 OVMax= 1.20D-05

 Cycle  15  Pass 1  IDiag  1:
 RMSU=  1.36D-08    CP:  9.68D-01  1.89D+00  6.59D-01  5.80D-01  4.26D-01
                    CP:  6.30D-01  5.06D-01  5.74D-01  7.64D-01  8.36D-01
                    CP:  9.60D-01  1.11D+00  9.55D-01  8.63D-01
 E= -3005.34735008469     Delta-E=       -0.000000000558 Rises=F Damp=F
 DIIS: error= 1.48D-07 at cycle  15 NSaved=  15.
 NSaved=15 IEnMin=15 EnMin= -3005.34735008469     IErMin=15 ErrMin= 1.48D-07
 ErrMax= 1.48D-07  0.00D+00 EMaxC= 1.00D-01 BMatC= 4.16D-11 BMatP= 3.06D-10
 IDIUse=1 WtCom= 1.00D+00 WtEn= 0.00D+00
 Coeff-Com:  0.197D-05-0.323D-05 0.121D-04 0.280D-04 0.460D-04-0.415D-04
 Coeff-Com: -0.769D-04-0.989D-03-0.340D-02-0.108D-01-0.145D-01-0.163D-01
 Coeff-Com:  0.980D-01 0.291D+00 0.657D+00
 Coeff:      0.197D-05-0.323D-05 0.121D-04 0.280D-04 0.460D-04-0.415D-04
 Coeff:     -0.769D-04-0.989D-03-0.340D-02-0.108D-01-0.145D-01-0.163D-01
 Coeff:      0.980D-01 0.291D+00 0.657D+00
 Gap=     0.076 Goal=   None    Shift=    0.000
 RMSDP=1.04D-08 MaxDP=8.15D-07 DE=-5.58D-10 OVMax= 5.67D-06

 Cycle  16  Pass 1  IDiag  1:
 RMSU=  5.45D-09    CP:  9.68D-01  1.89D+00  6.59D-01  5.80D-01  4.26D-01
                    CP:  6.30D-01  5.06D-01  5.74D-01  7.65D-01  8.38D-01
                    CP:  9.67D-01  1.14D+00  9.97D-01  9.98D-01  9.28D-01
 E= -3005.34735008472     Delta-E=       -0.000000000024 Rises=F Damp=F
 DIIS: error= 5.42D-08 at cycle  16 NSaved=  16.
 NSaved=16 IEnMin=16 EnMin= -3005.34735008472     IErMin=16 ErrMin= 5.42D-08
 ErrMax= 5.42D-08  0.00D+00 EMaxC= 1.00D-01 BMatC= 6.11D-12 BMatP= 4.16D-11
 IDIUse=1 WtCom= 1.00D+00 WtEn= 0.00D+00
 Coeff-Com:  0.630D-06-0.133D-05 0.267D-05 0.699D-05 0.263D-04 0.643D-04
 Coeff-Com:  0.159D-03 0.135D-03 0.116D-03-0.209D-02-0.516D-02-0.306D-01
 Coeff-Com: -0.440D-02 0.681D-01 0.347D+00 0.626D+00
 Coeff:      0.630D-06-0.133D-05 0.267D-05 0.699D-05 0.263D-04 0.643D-04
 Coeff:      0.159D-03 0.135D-03 0.116D-03-0.209D-02-0.516D-02-0.306D-01
 Coeff:     -0.440D-02 0.681D-01 0.347D+00 0.626D+00
 Gap=     0.076 Goal=   None    Shift=    0.000
 RMSDP=4.18D-09 MaxDP=3.56D-07 DE=-2.36D-11 OVMax= 1.95D-06

 SCF Done:  E(RPBE1PBE) =  -3005.34735008     A.U. after   16 cycles
            NFock= 16  Conv=0.42D-08     -V/T= 2.0103
 KE= 2.974738943340D+03 PE=-2.633608496598D+04 EE= 1.068337999860D+04
 Leave Link  502 at Wed May  4 21:59:37 2022, MaxMem= 10066329600 cpu:            9034.7 elap:             378.1
 (Enter /sw/apps/gaussian-16.0/g16/l801.exe)
 DoSCS=F DFT=T ScalE2(SS,OS)=  1.000000  1.000000
 ExpMin= 3.36D-02 ExpMax= 4.95D+03 ExpMxC= 7.45D+02 IAcc=3 IRadAn=         5 AccDes= 0.00D+00
 HarFok:  IExCor=  205 AccDes= 0.00D+00 IRadAn=         5 IDoV=-2 UseB2=F ITyADJ=14
 ICtDFT= 12500011 ScaDFX=  1.000000  1.000000  1.000000  1.000000
 GSVD:  LWork=       -5460 too small for GESVD, short by       25550 words or       25550 for optimal perf.
 Largest valence mixing into a core orbital is  1.73D-04
 Largest core mixing into a valence orbital is  5.73D-05
 Range of M.O.s used for correlation:    71  1298
 NBasis=  1298 NAE=   246 NBE=   246 NFC=    70 NFV=     0
 NROrb=   1228 NOA=   176 NOB=   176 NVA=  1052 NVB=  1052

 **** Warning!!: The smallest alpha delta epsilon is  0.75971019D-01

 Leave Link  801 at Wed May  4 21:59:38 2022, MaxMem= 10066329600 cpu:               8.0 elap:               0.4
 (Enter /sw/apps/gaussian-16.0/g16/l914.exe)
 RHF ground state
 Two-electron integrals replicated using symmetry.
 MDV= 10066329600 DFT=T DoStab=F Mixed=T DoRPA=T DoScal=F NonHer=T
 Making orbital integer symmetry assigments:
 Orbital symmetries:
       Occupied  (A) (A) (A) (A) (A) (A) (A) (A) (A) (A) (A) (A)
                 (A) (A) (A) (A) (A) (A) (A) (A) (A) (A) (A) (A)
                 (A) (A) (A) (A) (A) (A) (A) (A) (A) (A) (A) (A)
                 (A) (A) (A) (A) (A) (A) (A) (A) (A) (A) (A) (A)
                 (A) (A) (A) (A) (A) (A) (A) (A) (A) (A) (A) (A)
                 (A) (A) (A) (A) (A) (A) (A) (A) (A) (A) (A) (A)
                 (A) (A) (A) (A) (A) (A) (A) (A) (A) (A) (A) (A)
                 (A) (A) (A) (A) (A) (A) (A) (A) (A) (A) (A) (A)
                 (A) (A) (A) (A) (A) (A) (A) (A) (A) (A) (A) (A)
                 (A) (A) (A) (A) (A) (A) (A) (A) (A) (A) (A) (A)
                 (A) (A) (A) (A) (A) (A) (A) (A) (A) (A) (A) (A)
                 (A) (A) (A) (A) (A) (A) (A) (A) (A) (A) (A) (A)
                 (A) (A) (A) (A) (A) (A) (A) (A) (A) (A) (A) (A)
                 (A) (A) (A) (A) (A) (A) (A) (A) (A) (A) (A) (A)
                 (A) (A) (A) (A) (A) (A) (A) (A) (A) (A) (A) (A)
                 (A) (A) (A) (A) (A) (A) (A) (A) (A) (A) (A) (A)
                 (A) (A) (A) (A) (A) (A) (A) (A) (A) (A) (A) (A)
                 (A) (A) (A) (A) (A) (A) (A) (A) (A) (A) (A) (A)
                 (A) (A) (A) (A) (A) (A) (A) (A) (A) (A) (A) (A)
                 (A) (A) (A) (A) (A) (A) (A) (A) (A) (A) (A) (A)
                 (A) (A) (A) (A) (A) (A)
       Virtual   (A) (A) (A) (A) (A) (A) (A) (A) (A) (A) (A) (A)
                 (A) (A) (A) (A) (A) (A) (A) (A) (A) (A) (A) (A)
                 (A) (A) (A) (A) (A) (A) (A) (A) (A) (A) (A) (A)
                 (A) (A) (A) (A) (A) (A) (A) (A) (A) (A) (A) (A)
                 (A) (A) (A) (A) (A) (A) (A) (A) (A) (A) (A) (A)
                 (A) (A) (A) (A) (A) (A) (A) (A) (A) (A) (A) (A)
                 (A) (A) (A) (A) (A) (A) (A) (A) (A) (A) (A) (A)
                 (A) (A) (A) (A) (A) (A) (A) (A) (A) (A) (A) (A)
                 (A) (A) (A) (A) (A) (A) (A) (A) (A) (A) (A) (A)
                 (A) (A) (A) (A) (A) (A) (A) (A) (A) (A) (A) (A)
                 (A) (A) (A) (A) (A) (A) (A) (A) (A) (A) (A) (A)
                 (A) (A) (A) (A) (A) (A) (A) (A) (A) (A) (A) (A)
                 (A) (A) (A) (A) (A) (A) (A) (A) (A) (A) (A) (A)
                 (A) (A) (A) (A) (A) (A) (A) (A) (A) (A) (A) (A)
                 (A) (A) (A) (A) (A) (A) (A) (A) (A) (A) (A) (A)
                 (A) (A) (A) (A) (A) (A) (A) (A) (A) (A) (A) (A)
                 (A) (A) (A) (A) (A) (A) (A) (A) (A) (A) (A) (A)
                 (A) (A) (A) (A) (A) (A) (A) (A) (A) (A) (A) (A)
                 (A) (A) (A) (A) (A) (A) (A) (A) (A) (A) (A) (A)
                 (A) (A) (A) (A) (A) (A) (A) (A) (A) (A) (A) (A)
                 (A) (A) (A) (A) (A) (A) (A) (A) (A) (A) (A) (A)
                 (A) (A) (A) (A) (A) (A) (A) (A) (A) (A) (A) (A)
                 (A) (A) (A) (A) (A) (A) (A) (A) (A) (A) (A) (A)
                 (A) (A) (A) (A) (A) (A) (A) (A) (A) (A) (A) (A)
                 (A) (A) (A) (A) (A) (A) (A) (A) (A) (A) (A) (A)
                 (A) (A) (A) (A) (A) (A) (A) (A) (A) (A) (A) (A)
                 (A) (A) (A) (A) (A) (A) (A) (A) (A) (A) (A) (A)
                 (A) (A) (A) (A) (A) (A) (A) (A) (A) (A) (A) (A)
                 (A) (A) (A) (A) (A) (A) (A) (A) (A) (A) (A) (A)
                 (A) (A) (A) (A) (A) (A) (A) (A) (A) (A) (A) (A)
                 (A) (A) (A) (A) (A) (A) (A) (A) (A) (A) (A) (A)
                 (A) (A) (A) (A) (A) (A) (A) (A) (A) (A) (A) (A)
                 (A) (A) (A) (A) (A) (A) (A) (A) (A) (A) (A) (A)
                 (A) (A) (A) (A) (A) (A) (A) (A) (A) (A) (A) (A)
                 (A) (A) (A) (A) (A) (A) (A) (A) (A) (A) (A) (A)
                 (A) (A) (A) (A) (A) (A) (A) (A) (A) (A) (A) (A)
                 (A) (A) (A) (A) (A) (A) (A) (A) (A) (A) (A) (A)
                 (A) (A) (A) (A) (A) (A) (A) (A) (A) (A) (A) (A)
                 (A) (A) (A) (A) (A) (A) (A) (A) (A) (A) (A) (A)
                 (A) (A) (A) (A) (A) (A) (A) (A) (A) (A) (A) (A)
                 (A) (A) (A) (A) (A) (A) (A) (A) (A) (A) (A) (A)
                 (A) (A) (A) (A) (A) (A) (A) (A) (A) (A) (A) (A)
                 (A) (A) (A) (A) (A) (A) (A) (A) (A) (A) (A) (A)
                 (A) (A) (A) (A) (A) (A) (A) (A) (A) (A) (A) (A)
                 (A) (A) (A) (A) (A) (A) (A) (A) (A) (A) (A) (A)
                 (A) (A) (A) (A) (A) (A) (A) (A) (A) (A) (A) (A)
                 (A) (A) (A) (A) (A) (A) (A) (A) (A) (A) (A) (A)
                 (A) (A) (A) (A) (A) (A) (A) (A) (A) (A) (A) (A)
                 (A) (A) (A) (A) (A) (A) (A) (A) (A) (A) (A) (A)
                 (A) (A) (A) (A) (A) (A) (A) (A) (A) (A) (A) (A)
                 (A) (A) (A) (A) (A) (A) (A) (A) (A) (A) (A) (A)
                 (A) (A) (A) (A) (A) (A) (A) (A) (A) (A) (A) (A)
                 (A) (A) (A) (A) (A) (A) (A) (A) (A) (A) (A) (A)
                 (A) (A) (A) (A) (A) (A) (A) (A) (A) (A) (A) (A)
                 (A) (A) (A) (A) (A) (A) (A) (A) (A) (A) (A) (A)
                 (A) (A) (A) (A) (A) (A) (A) (A) (A) (A) (A) (A)
                 (A) (A) (A) (A) (A) (A) (A) (A) (A) (A) (A) (A)
                 (A) (A) (A) (A) (A) (A) (A) (A) (A) (A) (A) (A)
                 (A) (A) (A) (A) (A) (A) (A) (A) (A) (A) (A) (A)
                 (A) (A) (A) (A) (A) (A) (A) (A) (A) (A) (A) (A)
                 (A) (A) (A) (A) (A) (A) (A) (A) (A) (A) (A) (A)
                 (A) (A) (A) (A) (A) (A) (A) (A) (A) (A) (A) (A)
                 (A) (A) (A) (A) (A) (A) (A) (A) (A) (A) (A) (A)
                 (A) (A) (A) (A) (A) (A) (A) (A) (A) (A) (A) (A)
                 (A) (A) (A) (A) (A) (A) (A) (A) (A) (A) (A) (A)
                 (A) (A) (A) (A) (A) (A) (A) (A) (A) (A) (A) (A)
                 (A) (A) (A) (A) (A) (A) (A) (A) (A) (A) (A) (A)
                 (A) (A) (A) (A) (A) (A) (A) (A) (A) (A) (A) (A)
                 (A) (A) (A) (A) (A) (A) (A) (A) (A) (A) (A) (A)
                 (A) (A) (A) (A) (A) (A) (A) (A) (A) (A) (A) (A)
                 (A) (A) (A) (A) (A) (A) (A) (A) (A) (A) (A) (A)
                 (A) (A) (A) (A) (A) (A) (A) (A) (A) (A) (A) (A)
                 (A) (A) (A) (A) (A) (A) (A) (A) (A) (A) (A) (A)
                 (A) (A) (A) (A) (A) (A) (A) (A) (A) (A) (A) (A)
                 (A) (A) (A) (A) (A) (A) (A) (A) (A) (A) (A) (A)
                 (A) (A) (A) (A) (A) (A) (A) (A) (A) (A) (A) (A)
                 (A) (A) (A) (A) (A) (A) (A) (A) (A) (A) (A) (A)
                 (A) (A) (A) (A) (A) (A) (A) (A) (A) (A) (A) (A)
                 (A) (A) (A) (A) (A) (A) (A) (A) (A) (A) (A) (A)
                 (A) (A) (A) (A) (A) (A) (A) (A) (A) (A) (A) (A)
                 (A) (A) (A) (A) (A) (A) (A) (A) (A) (A) (A) (A)
                 (A) (A) (A) (A) (A) (A) (A) (A) (A) (A) (A) (A)
                 (A) (A) (A) (A) (A) (A) (A) (A) (A) (A) (A) (A)
                 (A) (A) (A) (A) (A) (A) (A) (A) (A) (A) (A) (A)
                 (A) (A) (A) (A) (A) (A) (A) (A) (A) (A) (A) (A)
                 (A) (A) (A) (A) (A) (A) (A) (A) (A) (A) (A) (A)
                 (A) (A) (A) (A) (A) (A) (A) (A) (A) (A) (A) (A)
                 (A) (A) (A) (A) (A) (A) (A) (A)
    20 initial guesses have been made.
 Convergence on wavefunction:    0.001000000000000
 Davidson Disk Diagonalization:  ConvIn= 1.00D-03 SkipCon=T Conv= 1.00D-03.
 Max sub-space:  2000 roots to seek:    20 dimension of matrix:       370304
 Iteration     1 Dimension    20 NMult     0 NNew     20
 CISAX will form    20 AO SS matrices at one time.
 NMat=    20 NSing=    20 JSym2X= 0.
 FoFJK:  IHMeth= 1 ICntrl=       0 DoSepK=F KAlg= 0 I1Cent=           0 FoldK=F
 IRaf= 520000000 NMat=      40 IRICut=       1 DoRegI=T DoRafI=F ISym2E= 0 IDoP0=3 IntGTp=3.
 FoFCou: FMM=T IPFlag=           0 FMFlag=      100000 FMFlg1=        2001
         NFxFlg=           0 DoJE=F BraDBF=F KetDBF=F FulRan=T
         wScrn=  0.000000 ICntrl=         0 IOpCl=  0 I1Cent=           0 NGrid=           0
         NMat0=   40 NMatS0=     20 NMatT0=    0 NMatD0=   40 NMtDS0=    0 NMtDT0=    0
 Symmetry not used in FoFCou.
 FMM levels:  10  Number of levels for PrismC:   9
 New state      3 was old state      5
 New state      4 was old state     10
 New state      5 was old state      4
 Excitation Energies [eV] at current iteration:
 Root      1 :     2.230292676619694
 Root      2 :     2.529598977388658
 Root      3 :     3.372875460762721
 Root      4 :     3.443895640309779
 Root      5 :     3.501927953899290
 Root      6 :     3.513177011187961
 Root      7 :     3.616957195728256
 Root      8 :     3.753916706912869
 Root      9 :     3.811997323895393
 Root     10 :     3.900720285270757
 Root     11 :     3.978373175210431
 Root     12 :     4.038290613409841
 Root     13 :     4.329661654262444
 Root     14 :     4.342954927751713
 Root     15 :     4.425467728810344
 Root     16 :     4.565201840006276
 Root     17 :     4.644331484731858
 Root     18 :     4.703571285340788
 Root     19 :     4.892426689279979
 Root     20 :     4.949626030001737
 Iteration     2 Dimension    30 NMult    20 NNew     10
 CISAX will form    10 AO SS matrices at one time.
 NMat=    10 NSing=    10 JSym2X= 0.
 Root      1 not converged, maximum delta is    0.068521505435261
 Root      2 not converged, maximum delta is    0.057357104988254
 Root      3 not converged, maximum delta is    0.170903322872566
 New state      4 was old state      5
 Root      4 not converged, maximum delta is    0.351991428503258
 New state      5 was old state      4
 Root      5 not converged, maximum delta is    0.305457889090712
 Excitation Energies [eV] at current iteration:
 Root      1 :     1.894907733389988   Change is   -0.335384943229707
 Root      2 :     2.280038301206063   Change is   -0.249560676182595
 Root      3 :     3.144215227874268   Change is   -0.228660232888454
 Root      4 :     3.242729980862053   Change is   -0.259197973037237
 Root      5 :     3.286339352434122   Change is   -0.157556287875657
 Iteration     3 Dimension    40 NMult    30 NNew     10
 CISAX will form    10 AO SS matrices at one time.
 NMat=    10 NSing=    10 JSym2X= 0.
 Root      1 not converged, maximum delta is    0.025024625528928
 Root      2 not converged, maximum delta is    0.014870403278138
 Root      3 not converged, maximum delta is    0.011207479325117
 Root      4 not converged, maximum delta is    0.075617747455335
 Root      5 not converged, maximum delta is    0.032483543988850
 Excitation Energies [eV] at current iteration:
 Root      1 :     1.864906279657139   Change is   -0.030001453732849
 Root      2 :     2.264929957061458   Change is   -0.015108344144605
 Root      3 :     3.132862694709391   Change is   -0.011352533164877
 Root      4 :     3.208401508049227   Change is   -0.034328472812826
 Root      5 :     3.262072688468259   Change is   -0.024266663965863
 Iteration     4 Dimension    50 NMult    40 NNew     10
 CISAX will form    10 AO SS matrices at one time.
 NMat=    10 NSing=    10 JSym2X= 0.
 Root      1 not converged, maximum delta is    0.003904662177056
 Root      2 not converged, maximum delta is    0.003713922457464
 Root      3 not converged, maximum delta is    0.013741498471689
 Root      4 not converged, maximum delta is    0.049786551657827
 Root      5 not converged, maximum delta is    0.029611692027323
 Excitation Energies [eV] at current iteration:
 Root      1 :     1.861658162753865   Change is   -0.003248116903273
 Root      2 :     2.262900068631920   Change is   -0.002029888429538
 Root      3 :     3.130683293992278   Change is   -0.002179400717114
 Root      4 :     3.196547100607440   Change is   -0.011854407441787
 Root      5 :     3.258742709807853   Change is   -0.003329978660406
 Iteration     5 Dimension    60 NMult    50 NNew     10
 CISAX will form    10 AO SS matrices at one time.
 NMat=    10 NSing=    10 JSym2X= 0.
 Root      1 has converged.
 Root      2 has converged.
 Root      3 not converged, maximum delta is    0.002154733826858
 Root      4 not converged, maximum delta is    0.032441800549283
 Root      5 not converged, maximum delta is    0.024138031050206
 Excitation Energies [eV] at current iteration:
 Root      1 :     1.861326370096813   Change is   -0.000331792657052
 Root      2 :     2.262699469976758   Change is   -0.000200598655161
 Root      3 :     3.130436528215712   Change is   -0.000246765776566
 Root      4 :     3.193114578227052   Change is   -0.003432522380387
 Root      5 :     3.257782584259268   Change is   -0.000960125548585
 Iteration     6 Dimension    66 NMult    60 NNew      6
 CISAX will form     6 AO SS matrices at one time.
 NMat=     6 NSing=     6 JSym2X= 0.
 Root      1 has converged.
 Root      2 has converged.
 Root      3 has converged.
 Root      4 not converged, maximum delta is    0.020039522753804
 Root      5 not converged, maximum delta is    0.021093358624700
 Excitation Energies [eV] at current iteration:
 Root      1 :     1.861324672662660   Change is   -0.000001697434153
 Root      2 :     2.262691442902490   Change is   -0.000008027074268
 Root      3 :     3.130411428703771   Change is   -0.000025099511941
 Root      4 :     3.192264316642828   Change is   -0.000850261584224
 Root      5 :     3.257485781849171   Change is   -0.000296802410097
 Iteration     7 Dimension    70 NMult    66 NNew      4
 CISAX will form     4 AO SS matrices at one time.
 NMat=     4 NSing=     4 JSym2X= 0.
 Root      1 has converged.
 Root      2 has converged.
 Root      3 has converged.
 Root      4 not converged, maximum delta is    0.005392130923676
 Root      5 not converged, maximum delta is    0.010012534389975
 Excitation Energies [eV] at current iteration:
 Root      1 :     1.861324056662685   Change is   -0.000000615999976
 Root      2 :     2.262689387591625   Change is   -0.000002055310865
 Root      3 :     3.130411239368394   Change is   -0.000000189335377
 Root      4 :     3.192128660555766   Change is   -0.000135656087062
 Root      5 :     3.257397976067599   Change is   -0.000087805781572
 Iteration     8 Dimension    74 NMult    70 NNew      4
 CISAX will form     4 AO SS matrices at one time.
 NMat=     4 NSing=     4 JSym2X= 0.
 Root      1 has converged.
 Root      2 has converged.
 Root      3 has converged.
 Root      4 not converged, maximum delta is    0.001146369686934
 Root      5 not converged, maximum delta is    0.003212166754343
 Excitation Energies [eV] at current iteration:
 Root      1 :     1.861323925318604   Change is   -0.000000131344081
 Root      2 :     2.262689089359890   Change is   -0.000000298231735
 Root      3 :     3.130411205840931   Change is   -0.000000033527463
 Root      4 :     3.192111603123718   Change is   -0.000017057432049
 Root      5 :     3.257379245988988   Change is   -0.000018730078611
 Iteration     9 Dimension    78 NMult    74 NNew      4
 CISAX will form     4 AO SS matrices at one time.
 NMat=     4 NSing=     4 JSym2X= 0.
 Root      1 has converged.
 Root      2 has converged.
 Root      3 has converged.
 Root      4 has converged.
 Root      5 not converged, maximum delta is    0.001310354244826
 Excitation Energies [eV] at current iteration:
 Root      1 :     1.861323333968137   Change is   -0.000000591350467
 Root      2 :     2.262688589833613   Change is   -0.000000499526277
 Root      3 :     3.130411182090019   Change is   -0.000000023750912
 Root      4 :     3.192108681708999   Change is   -0.000002921414719
 Root      5 :     3.257374866028357   Change is   -0.000004379960630
 Convergence on energies, max DE= 4.38D-06.
 Convergence on expansion vectors.
 ***********************************************************************
 Excited states from <AA,BB:AA,BB> singles matrix:
 ***********************************************************************
 
 1PDM for each excited state written to RWF  633
 Ground to excited state transition densities written to RWF  633
 Ground to excited state transition electric dipole moments (Au):
       state          X           Y           Z        Dip. S.      Osc.
         1        -1.6889     -2.2966      0.0912      8.1349      0.3710
         2        -0.8248      0.7958     -0.0044      1.3137      0.0728
         3        -0.0797      0.0883     -0.0042      0.0142      0.0011
         4         1.2828     -1.2223      0.0019      3.1397      0.2455
         5        -0.1419      0.0560     -0.0447      0.0253      0.0020
 Ground to excited state transition velocity dipole moments (Au):
       state          X           Y           Z        Dip. S.      Osc.
         1         0.1115      0.1535     -0.0046      0.0360      0.3511
         2         0.0644     -0.0628      0.0014      0.0081      0.0649
         3         0.0107     -0.0105      0.0010      0.0002      0.0013
         4        -0.1462      0.1384     -0.0018      0.0405      0.2303
         5         0.0148     -0.0071      0.0035      0.0003      0.0016
 Ground to excited state transition magnetic dipole moments (Au):
       state          X           Y           Z
         1         0.0701     -0.0470     -1.3010
         2         0.0066      0.0556      0.5978
         3        -0.0557      0.0129      0.9924
         4         0.0210     -0.1705     -0.7875
         5        -0.1607     -0.4912      0.2970
 Ground to excited state transition velocity quadrupole moments (Au):
       state          XX          YY          ZZ          XY          XZ          YZ
         1        -1.9185      0.4559     -0.0105     -1.1042      0.0562      0.0745
         2        -1.1014     -0.1156      0.0251      0.6403     -0.0311     -0.0269
         3        -0.3664      0.3795     -0.0062      0.1148      0.0030     -0.0184
         4         2.2246      0.0230     -0.0509     -1.6174      0.1347      0.0161
         5        -0.2440      0.2192      0.0162      0.3739     -0.0276     -0.0317
 <0|del|b> * <b|rxdel|0> + <0|del|b> * <b|delr+rdel|0>
 Rotatory Strengths (R) in cgs (10**-40 erg-esu-cm/Gauss)
       state          XX          YY          ZZ    R(velocity)    E-M Angle
         1       -24.1166     88.0724      4.7208     22.8922       88.46
         2       -15.9518     -5.8015      2.6137     -6.3799       92.39
         3         3.1248      0.2945     -1.7403      0.5597       88.95
         4      -114.0633    -20.8706    -17.1160    -50.6833       98.94
         5        16.5971     -9.2001      5.1868      4.1946       77.69
 1/2[<0|r|b>*<b|rxdel|0> + (<0|rxdel|b>*<b|r|0>)*]
 Rotatory Strengths (R) in cgs (10**-40 erg-esu-cm/Gauss)
       state          XX          YY          ZZ     R(length)
         1        83.7567    -76.3807     83.9002     30.4254
         2         3.8453    -31.2955      1.8433     -8.5356
         3        -3.1388     -0.8063      2.9815     -0.3212
         4       -19.0131   -147.4026      1.0778    -55.1126
         5       -16.1337     19.4696      9.3909      4.2423
  1/2[<0|del|b>*<b|r|0> + (<0|r|b>*<b|del|0>)*] (Au)
       state          X           Y           Z        Dip. S.   Osc.(frdel)
         1        -0.1883     -0.3526     -0.0004      0.5413      0.3609
         2        -0.0531     -0.0500     -0.0000      0.1031      0.0688
         3        -0.0009     -0.0009     -0.0000      0.0018      0.0012
         4        -0.1875     -0.1691     -0.0000      0.3566      0.2378
         5        -0.0021     -0.0004     -0.0002      0.0027      0.0018

 Excitation energies and oscillator strengths:
 
 Excited State   1:      Singlet-A      1.8613 eV  666.11 nm  f=0.3710  <S**2>=0.000
     245 -> 248       -0.17914
     246 -> 247        0.69092
     246 <- 247       -0.10719
 This state for optimization and/or second-order correction.
 Total Energy, E(TD-HF/TD-DFT) =  -3005.27894771    
 Copying the excited state density for this state as the 1-particle RhoCI density.
 
 Excited State   2:      Singlet-A      2.2627 eV  547.95 nm  f=0.0728  <S**2>=0.000
     245 -> 247        0.63215
     246 -> 248        0.30579
 
 Excited State   3:      Singlet-A      3.1304 eV  396.06 nm  f=0.0011  <S**2>=0.000
     244 -> 247        0.68521
     246 -> 249        0.10410
 
 Excited State   4:      Singlet-A      3.1921 eV  388.41 nm  f=0.2455  <S**2>=0.000
     240 -> 247        0.15923
     243 -> 247       -0.33084
     245 -> 247       -0.21019
     246 -> 248        0.51306
     246 -> 249       -0.15052
     246 -> 250       -0.10851
 
 Excited State   5:      Singlet-A      3.2574 eV  380.63 nm  f=0.0020  <S**2>=0.000
     239 -> 247        0.25376
     240 -> 247        0.55818
     240 -> 249       -0.18016
     243 -> 247        0.15158
     246 -> 249        0.18631
 SavETr:  write IOETrn=   770 NScale= 10 NData=  16 NLR=1 NState=    5 LETran=     100.
 Leave Link  914 at Wed May  4 22:22:49 2022, MaxMem= 10066329600 cpu:           33352.0 elap:            1392.0
 (Enter /sw/apps/gaussian-16.0/g16/l601.exe)
 Copying SCF densities to generalized density rwf, IOpCl= 0 IROHF=0.
 Hyperfine terms turned off by default for NAtoms > 100.

 **********************************************************************

            Population analysis using the SCF density.

 **********************************************************************

 Orbital symmetries:
       Occupied  (A) (A) (A) (A) (A) (A) (A) (A) (A) (A) (A) (A)
                 (A) (A) (A) (A) (A) (A) (A) (A) (A) (A) (A) (A)
                 (A) (A) (A) (A) (A) (A) (A) (A) (A) (A) (A) (A)
                 (A) (A) (A) (A) (A) (A) (A) (A) (A) (A) (A) (A)
                 (A) (A) (A) (A) (A) (A) (A) (A) (A) (A) (A) (A)
                 (A) (A) (A) (A) (A) (A) (A) (A) (A) (A) (A) (A)
                 (A) (A) (A) (A) (A) (A) (A) (A) (A) (A) (A) (A)
                 (A) (A) (A) (A) (A) (A) (A) (A) (A) (A) (A) (A)
                 (A) (A) (A) (A) (A) (A) (A) (A) (A) (A) (A) (A)
                 (A) (A) (A) (A) (A) (A) (A) (A) (A) (A) (A) (A)
                 (A) (A) (A) (A) (A) (A) (A) (A) (A) (A) (A) (A)
                 (A) (A) (A) (A) (A) (A) (A) (A) (A) (A) (A) (A)
                 (A) (A) (A) (A) (A) (A) (A) (A) (A) (A) (A) (A)
                 (A) (A) (A) (A) (A) (A) (A) (A) (A) (A) (A) (A)
                 (A) (A) (A) (A) (A) (A) (A) (A) (A) (A) (A) (A)
                 (A) (A) (A) (A) (A) (A) (A) (A) (A) (A) (A) (A)
                 (A) (A) (A) (A) (A) (A) (A) (A) (A) (A) (A) (A)
                 (A) (A) (A) (A) (A) (A) (A) (A) (A) (A) (A) (A)
                 (A) (A) (A) (A) (A) (A) (A) (A) (A) (A) (A) (A)
                 (A) (A) (A) (A) (A) (A) (A) (A) (A) (A) (A) (A)
                 (A) (A) (A) (A) (A) (A)
       Virtual   (A) (A) (A) (A) (A) (A) (A) (A) (A) (A) (A) (A)
                 (A) (A) (A) (A) (A) (A) (A) (A) (A) (A) (A) (A)
                 (A) (A) (A) (A) (A) (A) (A) (A) (A) (A) (A) (A)
                 (A) (A) (A) (A) (A) (A) (A) (A) (A) (A) (A) (A)
                 (A) (A) (A) (A) (A) (A) (A) (A) (A) (A) (A) (A)
[...]
 Alpha virt. eigenvalues --    1.17291   1.17574   1.18039   1.18302   1.19073
 Alpha virt. eigenvalues --    1.19979   1.20135   1.20328   1.20529   1.21386
 Alpha virt. eigenvalues --    1.21601   1.22349   1.22840   1.22883   1.23270
 Alpha virt. eigenvalues --    1.23603   1.24615   1.25042   1.25368   1.26203
 Alpha virt. eigenvalues --    1.26691   1.26867   1.27403   1.27832   1.28252
 Alpha virt. eigenvalues --    1.28327   1.29013   1.29589   1.30119   1.30298
 Alpha virt. eigenvalues --    1.30433   1.31083   1.31746   1.31986   1.32358
 Alpha virt. eigenvalues --    1.32718   1.32786   1.33043   1.33244   1.34402
 Alpha virt. eigenvalues --    1.34699   1.34927   1.35483   1.36290   1.36441
 Alpha virt. eigenvalues --    1.36694   1.36945   1.37370   1.38278   1.38515
 Alpha virt. eigenvalues --    1.38797   1.39862   1.40256   1.40280   1.40681
 Alpha virt. eigenvalues --    1.40838   1.41497   1.42307   1.42333   1.42690
 Alpha virt. eigenvalues --    1.43288   1.43523   1.43782   1.44629   1.44945
 Alpha virt. eigenvalues --    1.45557   1.46206   1.46526   1.46893   1.47114
 Alpha virt. eigenvalues --    1.47481   1.48137   1.48450   1.49169   1.49502
 Alpha virt. eigenvalues --    1.49529   1.50031   1.50347   1.50642   1.50967
 Alpha virt. eigenvalues --    1.51086   1.51186   1.51766   1.52272   1.52465
 Alpha virt. eigenvalues --    1.52710   1.52884   1.52998   1.53565   1.53707
 Alpha virt. eigenvalues --    1.54027   1.54374   1.54507   1.54868   1.54950
 Alpha virt. eigenvalues --    1.55097   1.55367   1.55631   1.55975   1.56193
 Alpha virt. eigenvalues --    1.56288   1.56390   1.56706   1.56831   1.57129
 Alpha virt. eigenvalues --    1.57474   1.57706   1.57985   1.58258   1.58492
 Alpha virt. eigenvalues --    1.58892   1.59400   1.59830   1.60358   1.60455
 Alpha virt. eigenvalues --    1.61358   1.61471   1.62040   1.62705   1.63200
 Alpha virt. eigenvalues --    1.63600   1.64786   1.65336   1.65615   1.65993
 Alpha virt. eigenvalues --    1.66340   1.66961   1.67262   1.67576   1.68091
 Alpha virt. eigenvalues --    1.68403   1.68448   1.68567   1.68708   1.69143
 Alpha virt. eigenvalues --    1.69256   1.69702   1.70008   1.70356   1.70628
 Alpha virt. eigenvalues --    1.71283   1.71463   1.71733   1.71963   1.72215
 Alpha virt. eigenvalues --    1.72398   1.72569   1.73058   1.73495   1.73586
 Alpha virt. eigenvalues --    1.73751   1.74241   1.74379   1.74421   1.74540
 Alpha virt. eigenvalues --    1.74979   1.75215   1.75514   1.75715   1.75730
 Alpha virt. eigenvalues --    1.76331   1.76528   1.76802   1.77056   1.77260
 Alpha virt. eigenvalues --    1.77586   1.77686   1.77906   1.78073   1.78184
 Alpha virt. eigenvalues --    1.78403   1.78465   1.78639   1.78998   1.79111
 Alpha virt. eigenvalues --    1.79395   1.79551   1.80007   1.80434   1.80766
 Alpha virt. eigenvalues --    1.80913   1.81214   1.81231   1.81496   1.81528
 Alpha virt. eigenvalues --    1.81839   1.82180   1.82257   1.82383   1.82563
 Alpha virt. eigenvalues --    1.82662   1.82904   1.82964   1.83257   1.83433
 Alpha virt. eigenvalues --    1.83549   1.83783   1.83962   1.84406   1.84529
 Alpha virt. eigenvalues --    1.84808   1.85180   1.85241   1.85414   1.85843
 Alpha virt. eigenvalues --    1.86005   1.86155   1.86304   1.86366   1.86641
 Alpha virt. eigenvalues --    1.86987   1.87178   1.87349   1.87372   1.87705
 Alpha virt. eigenvalues --    1.88221   1.88336   1.88594   1.88945   1.89092
 Alpha virt. eigenvalues --    1.89929   1.90063   1.90434   1.90662   1.90788
 Alpha virt. eigenvalues --    1.90958   1.91298   1.91549   1.91726   1.91972
 Alpha virt. eigenvalues --    1.92214   1.92503   1.92681   1.93004   1.93165
 Alpha virt. eigenvalues --    1.93199   1.93537   1.93758   1.94039   1.94250
 Alpha virt. eigenvalues --    1.94427   1.94934   1.95027   1.95516   1.95548
 Alpha virt. eigenvalues --    1.95970   1.96050   1.96152   1.96459   1.96943
 Alpha virt. eigenvalues --    1.96998   1.97273   1.97377   1.97587   1.97784
 Alpha virt. eigenvalues --    1.98296   1.98573   1.98974   1.99082   1.99310
 Alpha virt. eigenvalues --    1.99559   1.99666   2.00229   2.00756   2.00832
 Alpha virt. eigenvalues --    2.01295   2.01588   2.02322   2.02740   2.02904
 Alpha virt. eigenvalues --    2.03038   2.03675   2.03766   2.03952   2.04484
 Alpha virt. eigenvalues --    2.04660   2.04862   2.05139   2.05486   2.05842
 Alpha virt. eigenvalues --    2.06156   2.06352   2.07072   2.07192   2.07235
 Alpha virt. eigenvalues --    2.07670   2.08059   2.08080   2.08407   2.08550
 Alpha virt. eigenvalues --    2.08910   2.09128   2.09565   2.09878   2.10207
 Alpha virt. eigenvalues --    2.10467   2.10732   2.10774   2.10960   2.11477
 Alpha virt. eigenvalues --    2.11688   2.11977   2.12138   2.12539   2.13168
 Alpha virt. eigenvalues --    2.13810   2.14109   2.14482   2.14722   2.14868
 Alpha virt. eigenvalues --    2.15246   2.15544   2.15766   2.16180   2.16530
 Alpha virt. eigenvalues --    2.16883   2.17808   2.17961   2.18192   2.18545
 Alpha virt. eigenvalues --    2.19110   2.19689   2.20381   2.20568   2.21032
 Alpha virt. eigenvalues --    2.21776   2.21911   2.22513   2.22672   2.23251
 Alpha virt. eigenvalues --    2.23604   2.23835   2.24372   2.25109   2.25189
 Alpha virt. eigenvalues --    2.26159   2.26664   2.27113   2.27220   2.27350
 Alpha virt. eigenvalues --    2.27743   2.28122   2.28396   2.28844   2.29053
 Alpha virt. eigenvalues --    2.29645   2.29784   2.30266   2.30326   2.30704
 Alpha virt. eigenvalues --    2.31069   2.31213   2.31512   2.31654   2.32368
 Alpha virt. eigenvalues --    2.32570   2.33257   2.33444   2.33604   2.33673
 Alpha virt. eigenvalues --    2.33700   2.33891   2.35481   2.35655   2.35727
 Alpha virt. eigenvalues --    2.36006   2.36746   2.37632   2.38013   2.38343
 Alpha virt. eigenvalues --    2.38650   2.38788   2.39507   2.39605   2.39928
 Alpha virt. eigenvalues --    2.40100   2.40582   2.40706   2.40937   2.41092
 Alpha virt. eigenvalues --    2.41898   2.42017   2.42539   2.42901   2.43626
 Alpha virt. eigenvalues --    2.43930   2.44471   2.44600   2.44931   2.45260
 Alpha virt. eigenvalues --    2.45346   2.45893   2.46225   2.46256   2.46984
 Alpha virt. eigenvalues --    2.47138   2.47934   2.48278   2.48826   2.48952
 Alpha virt. eigenvalues --    2.49630   2.50487   2.50781   2.51247   2.51567
 Alpha virt. eigenvalues --    2.51681   2.52122   2.52780   2.53258   2.54249
 Alpha virt. eigenvalues --    2.54495   2.54720   2.55945   2.55992   2.56232
 Alpha virt. eigenvalues --    2.56867   2.57008   2.57458   2.57568   2.58519
 Alpha virt. eigenvalues --    2.58765   2.58890   2.59603   2.60131   2.60419
 Alpha virt. eigenvalues --    2.60731   2.61270   2.61553   2.61794   2.62305
 Alpha virt. eigenvalues --    2.62725   2.62762   2.62919   2.63091   2.63278
 Alpha virt. eigenvalues --    2.63818   2.64649   2.65003   2.65370   2.65810
 Alpha virt. eigenvalues --    2.66245   2.66524   2.67443   2.67481   2.68396
 Alpha virt. eigenvalues --    2.68850   2.69062   2.69605   2.69945   2.70184
 Alpha virt. eigenvalues --    2.70638   2.71010   2.71418   2.71939   2.72009
 Alpha virt. eigenvalues --    2.72356   2.72417   2.72460   2.72894   2.73112
 Alpha virt. eigenvalues --    2.73509   2.73841   2.74062   2.74718   2.74977
 Alpha virt. eigenvalues --    2.75427   2.75803   2.76289   2.77191   2.78074
 Alpha virt. eigenvalues --    2.78220   2.79430   2.79538   2.80250   2.81399
 Alpha virt. eigenvalues --    2.81694   2.82363   2.83122   2.83389   2.84058
 Alpha virt. eigenvalues --    2.85086   2.85202   2.85425   2.86150   2.86578
 Alpha virt. eigenvalues --    2.86860   2.87522   2.87768   2.88105   2.88777
 Alpha virt. eigenvalues --    2.89593   2.89889   2.90021   2.90378   2.90606
 Alpha virt. eigenvalues --    2.90840   2.90914   2.91462   2.91734   2.92408
 Alpha virt. eigenvalues --    2.92673   2.92796   2.93498   2.93548   2.93933
 Alpha virt. eigenvalues --    2.94009   2.94254   2.95045   2.95169   2.95233
 Alpha virt. eigenvalues --    2.95451   2.95650   2.95893   2.96031   2.96537
 Alpha virt. eigenvalues --    2.96882   2.96936   2.97235   2.97959   2.98321
 Alpha virt. eigenvalues --    2.98603   2.98890   2.99122   2.99543   2.99822
 Alpha virt. eigenvalues --    3.00053   3.00342   3.00505   3.00581   3.01457
 Alpha virt. eigenvalues --    3.01532   3.02390   3.02758   3.02840   3.02993
 Alpha virt. eigenvalues --    3.03497   3.03539   3.04013   3.04409   3.05595
 Alpha virt. eigenvalues --    3.05815   3.06006   3.06062   3.06286   3.06790
 Alpha virt. eigenvalues --    3.07162   3.07818   3.08280   3.08818   3.09030
 Alpha virt. eigenvalues --    3.09184   3.09375   3.09971   3.10153   3.12099
 Alpha virt. eigenvalues --    3.12723   3.13694   3.14454   3.14483   3.16011
 Alpha virt. eigenvalues --    3.16124   3.16807   3.17848   3.17896   3.18297
 Alpha virt. eigenvalues --    3.19279   3.20029   3.21156   3.22182   3.22647
 Alpha virt. eigenvalues --    3.23286   3.26949   3.36960   3.38304   3.38932
 Alpha virt. eigenvalues --    3.42902   3.45139   3.45689   3.48680   3.51689
 Alpha virt. eigenvalues --    3.55632   3.60216   3.61314   3.63386   3.67179
 Alpha virt. eigenvalues --    3.68539   3.68670
          Condensed to atoms (all electrons):
 Mulliken charges:
               1
     1  Mg   0.992081
     2  C   -0.048771
     3  C   -0.049384
     4  C   -0.056687
     5  C   -0.060678
     6  N   -0.341881
     7  C    0.016358
     8  C   -0.061885
     9  C   -0.185996
    10  C    0.076792
    11  C    0.043883
    12  C    0.006657
    13  C   -0.028299
    14  C    0.219282
    15  O   -0.222266
    16  O   -0.373806
    17  N   -0.571162
    18  C    0.176272
    19  C   -0.192445
    20  C   -0.082366
    21  C    0.145160
    22  C    0.023823
    23  C    0.070647
    24  O   -0.225782
    25  C   -0.038356
    26  N   -0.434433
    27  C    0.127212
    28  C   -0.131454
    29  C   -0.122141
    30  C    0.063452
    31  C    0.001574
    32  C   -0.022751
    33  C   -0.041489
    34  N   -0.410016
    35  C    0.153984
    36  C   -0.176381
    37  C   -0.077035
    38  C    0.164434
    39  C    0.042005
    40  C    0.213467
    41  O   -0.211200
    42  C   -0.105330
    43  C    0.294707
    44  O   -0.241568
    45  O   -0.382091
    46  C    0.124596
    47  C    0.228271
    48  C   -0.129442
    49  C   -0.224935
    50  C    0.018214
    51  C    0.004030
    52  C   -0.029025
    53  C   -0.019673
    54  C   -0.214484
    55  C    0.018065
    56  C   -0.027946
    57  C   -0.056781
    58  C    0.012223
    59  C   -0.243114
    60  C   -0.014394
    61  C    0.020866
    62  C   -0.070453
    63  C   -0.002546
    64  C   -0.289872
    65  C   -0.014325
    66  C   -0.000712
    67  H   -0.000588
    68  H    0.041527
    69  H   -0.001293
    70  H    0.045298
    71  H    0.038891
    72  H    0.043878
    73  H    0.048400
    74  H    0.059809
    75  H    0.045158
    76  H    0.055653
    77  H    0.062476
    78  H    0.074319
    79  H    0.075568
    80  H    0.051405
    81  H    0.056408
    82  H    0.069839
    83  H    0.066165
    84  H    0.021001
    85  H    0.049072
    86  H    0.043781
    87  H    0.053266
    88  H    0.028392
    89  H    0.039344
    90  H    0.042321
    91  H    0.030252
    92  H    0.064191
    93  H    0.026386
    94  H    0.037458
    95  H    0.043030
    96  H    0.064148
    97  H    0.050922
    98  H    0.068087
    99  H    0.062832
   100  H    0.057430
   101  H    0.040235
   102  H    0.065181
   103  H    0.070611
   104  H    0.017616
   105  H    0.028191
   106  H    0.064974
   107  H    0.047303
   108  H    0.060201
   109  H    0.025498
   110  H    0.020163
   111  H    0.026783
   112  H    0.019765
   113  H    0.027250
   114  H    0.027233
   115  H    0.039577
   116  H    0.022478
   117  H    0.036639
   118  H    0.020049
   119  H    0.035609
   120  H    0.011548
   121  H    0.021293
   122  H    0.024192
   123  H    0.033120
   124  H    0.030726
   125  H    0.040681
   126  H    0.038589
   127  H    0.039917
   128  H    0.014043
   129  H    0.016947
   130  H    0.039394
   131  H    0.029001
   132  H    0.030174
   133  H    0.032072
   134  H    0.041176
   135  H    0.033355
   136  H    0.040651
   137  H    0.029863
   138  H    0.038095
   139  H    0.044827
   140  H    0.035453
 Sum of Mulliken charges =  -0.00000
 Mulliken charges with hydrogens summed into heavy atoms:
               1
     1  Mg   0.992081
     2  C   -0.048771
     3  C   -0.049971
     4  C   -0.015160
     5  C   -0.061971
     6  N   -0.341881
     7  C    0.016358
     8  C   -0.016587
     9  C   -0.147104
    10  C    0.076792
    11  C    0.195970
    12  C    0.107468
    13  C    0.108496
    14  C    0.219282
    15  O   -0.222266
    16  O   -0.373806
    17  N   -0.571162
    18  C    0.176272
    19  C   -0.192445
    20  C   -0.082366
    21  C    0.145160
    22  C    0.207204
    23  C    0.070647
    24  O   -0.225782
    25  C    0.118649
    26  N   -0.434433
    27  C    0.127212
    28  C   -0.082382
    29  C   -0.078360
    30  C    0.063452
    31  C    0.122577
    32  C    0.049821
    33  C    0.086547
    34  N   -0.410016
    35  C    0.153984
    36  C   -0.176381
    37  C   -0.077035
    38  C    0.164434
    39  C    0.200105
    40  C    0.213467
    41  O   -0.211200
    42  C   -0.037243
    43  C    0.294707
    44  O   -0.241568
    45  O   -0.382091
    46  C    0.285093
    47  C    0.364064
    48  C   -0.111826
    49  C   -0.224935
    50  C    0.158681
    51  C    0.089729
    52  C    0.017921
    53  C    0.027343
    54  C   -0.187251
    55  C    0.116758
    56  C    0.027712
    57  C   -0.023940
    58  C    0.069535
    59  C   -0.212388
    60  C    0.104793
    61  C    0.051855
    62  C   -0.002057
    63  C    0.059700
    64  C   -0.248696
    65  C    0.089543
    66  C    0.117663
 Electronic spatial extent (au):  <R**2>=         102078.2263
 Charge=             -0.0000 electrons
 Dipole moment (field-independent basis, Debye):
    X=              4.9694    Y=              1.8021    Z=             -3.6716  Tot=              6.4361
 Quadrupole moment (field-independent basis, Debye-Ang):
   XX=           -375.6955   YY=           -415.8083   ZZ=           -405.7855
   XY=            -17.9249   XZ=             14.4318   YZ=              4.7094
 Traceless Quadrupole moment (field-independent basis, Debye-Ang):
   XX=             23.4009   YY=            -16.7119   ZZ=             -6.6890
   XY=            -17.9249   XZ=             14.4318   YZ=              4.7094
 Octapole moment (field-independent basis, Debye-Ang**2):
  XXX=           -223.3880  YYY=            -63.7882  ZZZ=            -16.5081  XYY=            287.1830
  XXY=            130.7085  XXZ=           -108.2685  XZZ=             18.7255  YZZ=            -11.9296
  YYZ=            -21.4698  XYZ=             -9.0772
 Hexadecapole moment (field-independent basis, Debye-Ang**3):
 XXXX=         -97969.1257 YYYY=         -25747.5193 ZZZZ=         -11969.1875 XXXY=          -1213.1489
 XXXZ=            830.8438 YYYX=           -369.9147 YYYZ=           -370.6002 ZZZX=             32.2646
 ZZZY=             50.4991 XXYY=         -22677.4034 XXZZ=         -19179.2596 YYZZ=          -6071.9708
 XXYZ=            322.7247 YYXZ=            300.5747 ZZXY=            -59.1989
 N-N= 9.672618673947D+03 E-N=-2.633608494839D+04  KE= 2.974738943340D+03
 Leave Link  601 at Wed May  4 22:22:51 2022, MaxMem= 10066329600 cpu:              12.6 elap:               0.6
 (Enter /sw/apps/gaussian-16.0/g16/l9999.exe)
 1\1\GINC-BP1-COMPUTE183\SP\RPBE1PBE TD-FC\def2SVP\C55H74Mg1N4O6\OF1564
 1\04-May-2022\0\\#p PBE1PBE/Def2SVP td=(nstates=5)\\step_451_chromopho
 re_27 TDDFT with PBE1PBE functional\\0,1\Mg,0,-6.029,24.614,27.109\C,0
 ,-4.398,26.639,29.645\C,0,-7.171,22.573,29.651\C,0,-7.196,22.757,24.71
 3\C,0,-4.455,26.782,24.8\N,0,-5.843,24.714,29.443\C,0,-5.143,25.566,30
 .251\C,0,-5.342,25.217,31.688\C,0,-5.929,23.723,31.582\C,0,-6.341,23.6
 55,30.134\C,0,-5.092,22.494,32.03\C,0,-6.221,26.19,32.562\C,0,-5.81,26
 .334,34.025\C,0,-5.976,25.099,34.988\O,0,-5.468,24.034,34.875\O,0,-6.8
 56,25.35,36.024\N,0,-7.058,22.927,27.195\C,0,-7.442,22.224,28.321\C,0,
 -8.04,20.949,27.859\C,0,-8.109,20.987,26.397\C,0,-7.394,22.198,26.044\
 C,0,-8.532,19.789,28.804\C,0,-8.711,20.002,25.401\O,0,-8.403,20.147,24
 .246\C,0,-9.666,18.787,25.839\N,0,-5.904,24.803,25.096\C,0,-6.432,23.8
 12,24.321\C,0,-6.349,24.257,22.86\C,0,-5.544,25.548,22.853\C,0,-5.303,
 25.744,24.401\C,0,-5.805,23.179,21.912\C,0,-6.226,26.778,22.268\C,0,-5
 .317,27.672,21.404\N,0,-4.704,26.39,27.168\C,0,-4.191,27.128,26.125\C,
 0,-3.312,28.194,26.661\C,0,-3.413,28.074,28.047\C,0,-4.239,26.928,28.3
 01\C,0,-2.714,29.323,25.924\C,0,-2.808,28.561,29.359\O,0,-1.983,29.446
 ,29.598\C,0,-3.453,27.63,30.394\C,0,-2.351,27.004,31.091\O,0,-1.613,26
 .168,30.588\O,0,-2.307,27.512,32.393\C,0,-1.455,26.848,33.365\C,0,-7.1
 58,24.311,37.006\C,0,-8.324,23.348,36.711\C,0,-8.913,22.494,37.547\C,0
 ,-8.426,22.312,38.988\C,0,-10.141,21.638,37.054\C,0,-11.487,22.033,37.
 686\C,0,-11.942,20.961,38.602\C,0,-12.847,19.971,37.892\C,0,-14.29,20.
 446,38.168\C,0,-12.536,18.484,38.405\C,0,-11.318,17.892,37.737\C,0,-10
 .787,16.612,38.428\C,0,-9.234,16.626,38.555\C,0,-8.724,17.799,39.417\C
 ,0,-8.691,15.296,39.076\C,0,-7.559,14.803,38.147\C,0,-6.107,15.427,38.
 454\C,0,-5.055,14.268,38.527\C,0,-5.111,13.499,39.875\C,0,-3.598,14.75
 7,38.137\H,0,-7.484,21.82,30.377\H,0,-7.518,22.091,23.91\H,0,-4.153,27
 .4,23.951\H,0,-4.363,25.122,32.158\H,0,-6.821,23.681,32.207\H,0,-4.512
 ,22.223,31.148\H,0,-5.794,21.723,32.348\H,0,-4.415,22.866,32.798\H,0,-
 7.193,25.698,32.605\H,0,-6.314,27.155,32.064\H,0,-6.484,27.14,34.315\H
 ,0,-4.779,26.682,34.087\H,0,-9.618,19.868,28.842\H,0,-8.094,19.709,29.
 799\H,0,-8.247,18.87,28.29\H,0,-9.119,17.849,25.742\H,0,-10.603,18.737
 ,25.284\H,0,-9.972,18.836,26.884\H,0,-7.354,24.418,22.47\H,0,-4.603,25
 .339,22.345\H,0,-6.011,22.173,22.277\H,0,-4.729,23.346,21.867\H,0,-6.2
 07,23.229,20.9\H,0,-6.629,27.402,23.065\H,0,-7.127,26.408,21.779\H,0,-
 4.255,27.424,21.427\H,0,-5.47,28.693,21.753\H,0,-5.87,27.819,20.476\H,
 0,-3.37,29.784,25.186\H,0,-1.764,28.979,25.516\H,0,-2.577,30.236,26.50
 4\H,0,-4.104,28.084,31.141\H,0,-0.47,27.268,33.572\H,0,-1.385,25.783,3
 3.147\H,0,-1.898,26.886,34.36\H,0,-7.498,24.825,37.905\H,0,-6.278,23.6
 88,37.168\H,0,-8.725,23.391,35.698\H,0,-7.593,22.982,39.201\H,0,-8.204
 ,21.263,39.183\H,0,-9.173,22.709,39.676\H,0,-9.819,20.611,37.224\H,0,-
 10.369,21.767,35.996\H,0,-12.215,22.251,36.905\H,0,-11.533,22.97,38.24
 2\H,0,-12.456,21.399,39.457\H,0,-11.036,20.501,38.996\H,0,-12.642,19.9
 25,36.822\H,0,-14.824,19.745,38.809\H,0,-14.82,20.43,37.215\H,0,-14.41
 4,21.471,38.517\H,0,-13.263,17.883,37.859\H,0,-12.523,18.213,39.461\H,
 0,-10.643,18.743,37.648\H,0,-11.605,17.706,36.702\H,0,-10.986,15.849,3
 7.675\H,0,-11.299,16.196,39.295\H,0,-8.845,16.841,37.559\H,0,-9.64,18.
 187,39.865\H,0,-8.294,18.523,38.725\H,0,-7.991,17.546,40.183\H,0,-9.52
 5,14.603,39.192\H,0,-8.362,15.413,40.109\H,0,-7.819,14.889,37.092\H,0,
 -7.493,13.741,38.384\H,0,-6.186,15.887,39.439\H,0,-5.841,16.168,37.7\H
 ,0,-5.357,13.526,37.787\H,0,-4.12,13.48,40.329\H,0,-5.469,12.47,39.835
 \H,0,-5.817,14.061,40.486\H,0,-3.679,15.722,37.637\H,0,-3.202,13.964,3
 7.504\H,0,-3.085,14.813,39.097\\Version=ES64L-G16RevA.03\State=1-A\HF=
 -3005.3473501\RMSD=4.177e-09\PG=C01 [X(C55H74Mg1N4O6)]\\@


 STEINBACH'S GUIDELINES FOR SYSTEMS PROGRAMMING:
 NEVER TEST FOR AN ERROR CONDITION YOU DON'T KNOW HOW
 TO HANDLE.
 Job cpu time:       0 days 11 hours 51 minutes 48.8 seconds.
 Elapsed time:       0 days  0 hours 29 minutes 43.9 seconds.
 File lengths (MBytes):  RWF=   8929 Int=      0 D2E=      0 Chk=    390 Scr=      1
 Normal termination of Gaussian 16 at Wed May  4 22:22:52 2022.
