 Entering Gaussian System, Link 0=g16
 Initial command:
 /sw/apps/gaussian-16.0/g16/l1.exe "/tmp/Gau-279164.inp" -scrdir="/tmp/"
 Entering Link 1 = /sw/apps/gaussian-16.0/g16/l1.exe PID=    279165.
  
 Copyright (c) 1988,1990,1992,1993,1995,1998,2003,2009,2016,
            Gaussian, Inc.  All Rights Reserved.
  
 This is part of the Gaussian(R) 16 program.  It is based on
 the Gaussian(R) 09 system (copyright 2009, Gaussian, Inc.),
 the Gaussian(R) 03 system (copyright 2003, Gaussian, Inc.),
 the Gaussian(R) 98 system (copyright 1998, Gaussian, Inc.),
 the Gaussian(R) 94 system (copyright 1995, Gaussian, Inc.),
 the Gaussian 92(TM) system (copyright 1992, Gaussian, Inc.),
 the Gaussian 90(TM) system (copyright 1990, Gaussian, Inc.),
 the Gaussian 88(TM) system (copyright 1988, Gaussian, Inc.),
 the Gaussian 86(TM) system (copyright 1986, Carnegie Mellon
 University), and the Gaussian 82(TM) system (copyright 1983,
 Carnegie Mellon University). Gaussian is a federally registered
 trademark of Gaussian, Inc.
  
 This software contains proprietary and confidential information,
 including trade secrets, belonging to Gaussian, Inc.
  
 This software is provided under written license and may be
 used, copied, transmitted, or stored only in accord with that
 written license.
  
 The following legend is applicable only to US Government
 contracts under FAR:
  
                    RESTRICTED RIGHTS LEGEND
  
 Use, reproduction and disclosure by the US Government is
 subject to restrictions as set forth in subparagraphs (a)
 and (c) of the Commercial Computer Software - Restricted
 Rights clause in FAR 52.227-19.
  
 Gaussian, Inc.
 340 Quinnipiac St., Bldg. 40, Wallingford CT 06492
  
  
 ---------------------------------------------------------------
 Warning -- This program may not be used in any manner that
 competes with the business of Gaussian, Inc. or will provide
 assistance to any competitor of Gaussian, Inc.  The licensee
 of this program is prohibited from giving any competitor of
 Gaussian, Inc. access to this program.  By using this program,
 the user acknowledges that Gaussian, Inc. is engaged in the
 business of creating and licensing software in the field of
 computational chemistry and represents and warrants to the
 licensee that it is not a competitor of Gaussian, Inc. and that
 it will not use this program in any manner prohibited above.
 ---------------------------------------------------------------
  

 Cite this work as:
 Gaussian 16, Revision A.03,
 M. J. Frisch, G. W. Trucks, H. B. Schlegel, G. E. Scuseria, 
 M. A. Robb, J. R. Cheeseman, G. Scalmani, V. Barone, 
 G. A. Petersson, H. Nakatsuji, X. Li, M. Caricato, A. V. Marenich, 
 J. Bloino, B. G. Janesko, R. Gomperts, B. Mennucci, H. P. Hratchian, 
 J. V. Ortiz, A. F. Izmaylov, J. L. Sonnenberg, D. Williams-Young, 
 F. Ding, F. Lipparini, F. Egidi, J. Goings, B. Peng, A. Petrone, 
 T. Henderson, D. Ranasinghe, V. G. Zakrzewski, J. Gao, N. Rega, 
 G. Zheng, W. Liang, M. Hada, M. Ehara, K. Toyota, R. Fukuda, 
 J. Hasegawa, M. Ishida, T. Nakajima, Y. Honda, O. Kitao, H. Nakai, 
 T. Vreven, K. Throssell, J. A. Montgomery, Jr., J. E. Peralta, 
 F. Ogliaro, M. J. Bearpark, J. J. Heyd, E. N. Brothers, K. N. Kudin, 
 V. N. Staroverov, T. A. Keith, R. Kobayashi, J. Normand, 
 K. Raghavachari, A. P. Rendell, J. C. Burant, S. S. Iyengar, 
 J. Tomasi, M. Cossi, J. M. Millam, M. Klene, C. Adamo, R. Cammi, 
 J. W. Ochterski, R. L. Martin, K. Morokuma, O. Farkas, 
 J. B. Foresman, and D. J. Fox, Gaussian, Inc., Wallingford CT, 2016.
 
 ******************************************
 Gaussian 16:  ES64L-G16RevA.03 25-Dec-2016
                27-Apr-2022 
 ******************************************
 %nproc=24
 Will use up to   24 processors via shared memory.
 %mem=75GB
 ---------------------------------
 #p PBE1PBE/Def2SVP td=(nstates=5)
 ---------------------------------
 1/38=1,172=1/1;
 2/12=2,17=6,18=5,40=1/2;
 3/5=43,7=101,11=9,25=1,30=1,74=-13/1,2,3,8;
 4//1;
 5/5=2,38=5/2;
 8/6=1,10=1,108=5/1;
 9/41=5,42=1,70=2/14;
 6/7=2,8=2,9=2,10=2/1;
 99/5=1,9=1/99;
 Leave Link    1 at Wed Apr 27 12:07:42 2022, MaxMem= 10066329600 cpu:               1.4 elap:               0.1
 (Enter /sw/apps/gaussian-16.0/g16/l101.exe)
 -----------------------------------------------------
 step_1151_chromophore_3 TDDFT with PBE1PBE functional
 -----------------------------------------------------
 Symbolic Z-matrix:
 Charge =  0 Multiplicity = 1
 Mg                    1.995     7.595     26.669 
 C                     2.47      9.693     29.417 
 C                     2.452     4.937     28.686 
 C                     1.805     5.612     23.871 
 C                     1.856     10.319    24.583 
 N                     2.319     7.394     28.765 
 C                     2.412     8.329     29.736 
 C                     2.261     7.759     31.079 
 C                     2.554     6.224     30.859 
 C                     2.513     6.181     29.33 
 C                     3.852     5.629     31.563 
 C                     0.873     7.99      31.768 
 C                     0.879     8.308     33.324 
 C                     1.879     7.538     34.268 
 O                     3.067     7.839     34.541 
 O                     1.306     6.456     34.835 
 N                     2.107     5.589     26.344 
 C                     2.273     4.629     27.307 
 C                     2.176     3.323     26.76 
 C                     2.163     3.419     25.344 
 C                     2.053     4.919     25.113 
 C                     2.214     2.026     27.511 
 C                     2.2       2.31      24.274 
 O                     2.397     2.545     23.075 
 C                     1.921     0.947     24.648 
 N                     1.878     7.937     24.457 
 C                     1.675     6.962     23.58 
 C                     1.27      7.504     22.235 
 C                     1.332     9.039     22.429 
 C                     1.637     9.154     23.948 
 C                     2.292     6.968     21.228 
 C                     0.123     9.815     21.962 
 C                     0.195     10.894    20.785 
 N                     2.238     9.603     26.874 
 C                     2.142     10.58     25.943 
 C                     2.295     11.933    26.604 
 C                     2.413     11.622    27.988 
 C                     2.368     10.176    28.093 
 C                     2.137     13.263    25.956 
 C                     2.662     12.126    29.32 
 O                     3.01      13.236    29.768 
 C                     2.547     10.954    30.261 
 C                     3.728     11.005    31.228 
 O                     4.872     10.555    31.132 
 O                     3.232     11.647    32.344 
 C                     4.195     11.615    33.464 
 C                     2.057     5.88      35.913 
 C                     1.262     4.762     36.607 
 C                     1.562     4.292     37.804 
 C                     2.816     4.635     38.52 
 C                     0.58      3.337     38.496 
 C                     0.572     1.81      38.22 
 C                     0.764     0.906     39.46 
 C                     2.05      0.019     39.515 
 C                     3.141     0.791     40.269 
 C                     1.817    -1.455     39.935 
 C                     2.916    -2.41      39.269 
 C                     3.582    -3.364     40.331 
 C                     5.137    -3.374     40.213 
 C                     5.655    -4.852     40.319 
 C                     5.794    -2.445     41.305 
 C                     6.402    -1.132     40.813 
 C                     7.906    -1.172     40.521 
 C                     8.701    -0.246     41.461 
 C                     9.792     0.641     40.78 
 C                     9.372    -1.134     42.63 
 H                     2.537     4.019     29.273 
 H                     1.542     4.823     23.164 
 H                     1.899     11.212    23.956 
 H                     3.041     8.274     31.64 
 H                     1.775     5.524     31.162 
 H                     3.654     4.694     32.086 
 H                     4.112     6.292     32.389 
 H                     4.627     5.338     30.855 
 H                     0.178     7.152     31.706 
 H                     0.376     8.827     31.276 
 H                    -0.069     8.012     33.775 
 H                     1.009     9.377     33.491 
 H                     3.152     1.586     27.172 
 H                     1.352     1.394     27.301 
 H                     2.302     2.25      28.574 
 H                     1.941     0.28      23.786 
 H                     0.97      0.916     25.18 
 H                     2.776     0.688     25.272 
 H                     0.305     7.051     22.006 
 H                     2.265     9.438     22.03 
 H                     3.17      6.57      21.735 
 H                     2.553     7.62      20.395 
 H                     1.919     6.075     20.727 
 H                    -0.381     10.247    22.827 
 H                    -0.67      9.117     21.695 
 H                     0.449     10.468    19.814 
 H                     0.921     11.681    20.992 
 H                    -0.788     11.366    20.793 
 H                     1.716     13.142    24.958 
 H                     3.131     13.711    25.952 
 H                     1.472     13.95     26.479 
 H                     1.599     11.041    30.79 
 H                     5.135     12.017    33.085 
 H                     4.259     10.624    33.914 
 H                     3.874     12.31     34.24 
 H                     2.13      6.741     36.578 
 H                     3.052     5.512     35.661 
 H                     0.488     4.358     35.954 
 H                     3.35      5.493     38.111 
 H                     3.433     3.798     38.845 
 H                     2.466     5.087     39.448 
 H                    -0.423     3.714     38.697 
 H                     0.945     3.405     39.521 
 H                     1.366     1.584     37.508 
 H                    -0.28      1.491     37.621 
 H                    -0.12      0.272     39.525 
 H                     0.744     1.532     40.352 
 H                     2.475     0.058     38.512 
 H                     2.686     1.49      40.97 
 H                     3.761     1.185     39.463 
 H                     3.769     0.08      40.805 
 H                     0.845    -1.786     39.568 
 H                     1.877    -1.546     41.019 
 H                     3.541    -1.781     38.636 
 H                     2.399    -3.117     38.62 
 H                     3.13     -4.346     40.471 
 H                     3.391    -2.943     41.318 
 H                     5.364    -3.075     39.19 
 H                     4.808    -5.483     40.588 
 H                     6.335    -5.03      41.152 
 H                     6.142    -5.216     39.414 
 H                     6.509    -3.122     41.771 
 H                     5.112    -2.089     42.077 
 H                     6.041    -0.308     41.429 
 H                     5.973    -0.857     39.85 
 H                     8.032    -0.905     39.472 
 H                     8.301    -2.188     40.503 
 H                     8.013     0.492     41.873 
 H                     9.533     1.681     40.979 
 H                     9.826     0.495     39.7 
 H                     10.763    0.379     41.201 
 H                     8.629    -1.837     43.008 
 H                     9.724    -0.535     43.47 
 H                     10.188   -1.68      42.158 
 
 ITRead=  0  0  0  0  0  0  0  0  0  0  0  0  0  0  0  0  0  0  0  0
 ITRead=  0  0  0  0  0  0  0  0  0  0  0  0  0  0  0  0  0  0  0  0
 ITRead=  0  0  0  0  0  0  0  0  0  0  0  0  0  0  0  0  0  0  0  0
 ITRead=  0  0  0  0  0  0  0  0  0  0  0  0  0  0  0  0  0  0  0  0
 ITRead=  0  0  0  0  0  0  0  0  0  0  0  0  0  0  0  0  0  0  0  0
 ITRead=  0  0  0  0  0  0  0  0  0  0  0  0  0  0  0  0  0  0  0  0
 ITRead=  0  0  0  0  0  0  0  0  0  0  0  0  0  0  0  0  0  0  0  0
 MicOpt= -1 -1 -1 -1 -1 -1 -1 -1 -1 -1 -1 -1 -1 -1 -1 -1 -1 -1 -1 -1
 MicOpt= -1 -1 -1 -1 -1 -1 -1 -1 -1 -1 -1 -1 -1 -1 -1 -1 -1 -1 -1 -1
 MicOpt= -1 -1 -1 -1 -1 -1 -1 -1 -1 -1 -1 -1 -1 -1 -1 -1 -1 -1 -1 -1
 MicOpt= -1 -1 -1 -1 -1 -1 -1 -1 -1 -1 -1 -1 -1 -1 -1 -1 -1 -1 -1 -1
 MicOpt= -1 -1 -1 -1 -1 -1 -1 -1 -1 -1 -1 -1 -1 -1 -1 -1 -1 -1 -1 -1
 MicOpt= -1 -1 -1 -1 -1 -1 -1 -1 -1 -1 -1 -1 -1 -1 -1 -1 -1 -1 -1 -1
 MicOpt= -1 -1 -1 -1 -1 -1 -1 -1 -1 -1 -1 -1 -1 -1 -1 -1 -1 -1 -1 -1
 NAtoms=    140 NQM=      140 NQMF=       0 NMMI=      0 NMMIF=      0
                NMic=       0 NMicF=      0.
                    Isotopes and Nuclear Properties:
 (Nuclear quadrupole moments (NQMom) in fm**2, nuclear magnetic moments (NMagM)
  in nuclear magnetons)

  Atom         1           2           3           4           5           6           7           8           9          10
 IAtWgt=          24          12          12          12          12          14          12          12          12          12
 AtmWgt=  23.9850450  12.0000000  12.0000000  12.0000000  12.0000000  14.0030740  12.0000000  12.0000000  12.0000000  12.0000000
 NucSpn=           0           0           0           0           0           2           0           0           0           0
 AtZEff=  -0.0000000  -0.0000000  -0.0000000  -0.0000000  -0.0000000  -0.0000000  -0.0000000  -0.0000000  -0.0000000  -0.0000000
 NQMom=    0.0000000   0.0000000   0.0000000   0.0000000   0.0000000   2.0440000   0.0000000   0.0000000   0.0000000   0.0000000
 NMagM=    0.0000000   0.0000000   0.0000000   0.0000000   0.0000000   0.4037610   0.0000000   0.0000000   0.0000000   0.0000000
 AtZNuc=  12.0000000   6.0000000   6.0000000   6.0000000   6.0000000   7.0000000   6.0000000   6.0000000   6.0000000   6.0000000

  Atom        11          12          13          14          15          16          17          18          19          20
 IAtWgt=          12          12          12          12          16          16          14          12          12          12
 AtmWgt=  12.0000000  12.0000000  12.0000000  12.0000000  15.9949146  15.9949146  14.0030740  12.0000000  12.0000000  12.0000000
 NucSpn=           0           0           0           0           0           0           2           0           0           0
 AtZEff=  -0.0000000  -0.0000000  -0.0000000  -0.0000000  -0.0000000  -0.0000000  -0.0000000  -0.0000000  -0.0000000  -0.0000000
 NQMom=    0.0000000   0.0000000   0.0000000   0.0000000   0.0000000   0.0000000   2.0440000   0.0000000   0.0000000   0.0000000
 NMagM=    0.0000000   0.0000000   0.0000000   0.0000000   0.0000000   0.0000000   0.4037610   0.0000000   0.0000000   0.0000000
 AtZNuc=   6.0000000   6.0000000   6.0000000   6.0000000   8.0000000   8.0000000   7.0000000   6.0000000   6.0000000   6.0000000

  Atom        21          22          23          24          25          26          27          28          29          30
 IAtWgt=          12          12          12          16          12          14          12          12          12          12
 AtmWgt=  12.0000000  12.0000000  12.0000000  15.9949146  12.0000000  14.0030740  12.0000000  12.0000000  12.0000000  12.0000000
 NucSpn=           0           0           0           0           0           2           0           0           0           0
 AtZEff=  -0.0000000  -0.0000000  -0.0000000  -0.0000000  -0.0000000  -0.0000000  -0.0000000  -0.0000000  -0.0000000  -0.0000000
 NQMom=    0.0000000   0.0000000   0.0000000   0.0000000   0.0000000   2.0440000   0.0000000   0.0000000   0.0000000   0.0000000
 NMagM=    0.0000000   0.0000000   0.0000000   0.0000000   0.0000000   0.4037610   0.0000000   0.0000000   0.0000000   0.0000000
 AtZNuc=   6.0000000   6.0000000   6.0000000   8.0000000   6.0000000   7.0000000   6.0000000   6.0000000   6.0000000   6.0000000

  Atom        31          32          33          34          35          36          37          38          39          40
 IAtWgt=          12          12          12          14          12          12          12          12          12          12
 AtmWgt=  12.0000000  12.0000000  12.0000000  14.0030740  12.0000000  12.0000000  12.0000000  12.0000000  12.0000000  12.0000000
 NucSpn=           0           0           0           2           0           0           0           0           0           0
 AtZEff=  -0.0000000  -0.0000000  -0.0000000  -0.0000000  -0.0000000  -0.0000000  -0.0000000  -0.0000000  -0.0000000  -0.0000000
 NQMom=    0.0000000   0.0000000   0.0000000   2.0440000   0.0000000   0.0000000   0.0000000   0.0000000   0.0000000   0.0000000
 NMagM=    0.0000000   0.0000000   0.0000000   0.4037610   0.0000000   0.0000000   0.0000000   0.0000000   0.0000000   0.0000000
 AtZNuc=   6.0000000   6.0000000   6.0000000   7.0000000   6.0000000   6.0000000   6.0000000   6.0000000   6.0000000   6.0000000

  Atom        41          42          43          44          45          46          47          48          49          50
 IAtWgt=          16          12          12          16          16          12          12          12          12          12
 AtmWgt=  15.9949146  12.0000000  12.0000000  15.9949146  15.9949146  12.0000000  12.0000000  12.0000000  12.0000000  12.0000000
 NucSpn=           0           0           0           0           0           0           0           0           0           0
 AtZEff=  -0.0000000  -0.0000000  -0.0000000  -0.0000000  -0.0000000  -0.0000000  -0.0000000  -0.0000000  -0.0000000  -0.0000000
 NQMom=    0.0000000   0.0000000   0.0000000   0.0000000   0.0000000   0.0000000   0.0000000   0.0000000   0.0000000   0.0000000
 NMagM=    0.0000000   0.0000000   0.0000000   0.0000000   0.0000000   0.0000000   0.0000000   0.0000000   0.0000000   0.0000000
 AtZNuc=   8.0000000   6.0000000   6.0000000   8.0000000   8.0000000   6.0000000   6.0000000   6.0000000   6.0000000   6.0000000

  Atom        51          52          53          54          55          56          57          58          59          60
 IAtWgt=          12          12          12          12          12          12          12          12          12          12
 AtmWgt=  12.0000000  12.0000000  12.0000000  12.0000000  12.0000000  12.0000000  12.0000000  12.0000000  12.0000000  12.0000000
 NucSpn=           0           0           0           0           0           0           0           0           0           0
 AtZEff=  -0.0000000  -0.0000000  -0.0000000  -0.0000000  -0.0000000  -0.0000000  -0.0000000  -0.0000000  -0.0000000  -0.0000000
 NQMom=    0.0000000   0.0000000   0.0000000   0.0000000   0.0000000   0.0000000   0.0000000   0.0000000   0.0000000   0.0000000
 NMagM=    0.0000000   0.0000000   0.0000000   0.0000000   0.0000000   0.0000000   0.0000000   0.0000000   0.0000000   0.0000000
 AtZNuc=   6.0000000   6.0000000   6.0000000   6.0000000   6.0000000   6.0000000   6.0000000   6.0000000   6.0000000   6.0000000

  Atom        61          62          63          64          65          66          67          68          69          70
 IAtWgt=          12          12          12          12          12          12           1           1           1           1
 AtmWgt=  12.0000000  12.0000000  12.0000000  12.0000000  12.0000000  12.0000000   1.0078250   1.0078250   1.0078250   1.0078250
 NucSpn=           0           0           0           0           0           0           1           1           1           1
 AtZEff=  -0.0000000  -0.0000000  -0.0000000  -0.0000000  -0.0000000  -0.0000000  -0.0000000  -0.0000000  -0.0000000  -0.0000000
 NQMom=    0.0000000   0.0000000   0.0000000   0.0000000   0.0000000   0.0000000   0.0000000   0.0000000   0.0000000   0.0000000
 NMagM=    0.0000000   0.0000000   0.0000000   0.0000000   0.0000000   0.0000000   2.7928460   2.7928460   2.7928460   2.7928460
 AtZNuc=   6.0000000   6.0000000   6.0000000   6.0000000   6.0000000   6.0000000   1.0000000   1.0000000   1.0000000   1.0000000

  Atom        71          72          73          74          75          76          77          78          79          80
 IAtWgt=           1           1           1           1           1           1           1           1           1           1
 AtmWgt=   1.0078250   1.0078250   1.0078250   1.0078250   1.0078250   1.0078250   1.0078250   1.0078250   1.0078250   1.0078250
 NucSpn=           1           1           1           1           1           1           1           1           1           1
 AtZEff=  -0.0000000  -0.0000000  -0.0000000  -0.0000000  -0.0000000  -0.0000000  -0.0000000  -0.0000000  -0.0000000  -0.0000000
 NQMom=    0.0000000   0.0000000   0.0000000   0.0000000   0.0000000   0.0000000   0.0000000   0.0000000   0.0000000   0.0000000
 NMagM=    2.7928460   2.7928460   2.7928460   2.7928460   2.7928460   2.7928460   2.7928460   2.7928460   2.7928460   2.7928460
 AtZNuc=   1.0000000   1.0000000   1.0000000   1.0000000   1.0000000   1.0000000   1.0000000   1.0000000   1.0000000   1.0000000

  Atom        81          82          83          84          85          86          87          88          89          90
 IAtWgt=           1           1           1           1           1           1           1           1           1           1
 AtmWgt=   1.0078250   1.0078250   1.0078250   1.0078250   1.0078250   1.0078250   1.0078250   1.0078250   1.0078250   1.0078250
 NucSpn=           1           1           1           1           1           1           1           1           1           1
 AtZEff=  -0.0000000  -0.0000000  -0.0000000  -0.0000000  -0.0000000  -0.0000000  -0.0000000  -0.0000000  -0.0000000  -0.0000000
 NQMom=    0.0000000   0.0000000   0.0000000   0.0000000   0.0000000   0.0000000   0.0000000   0.0000000   0.0000000   0.0000000
 NMagM=    2.7928460   2.7928460   2.7928460   2.7928460   2.7928460   2.7928460   2.7928460   2.7928460   2.7928460   2.7928460
 AtZNuc=   1.0000000   1.0000000   1.0000000   1.0000000   1.0000000   1.0000000   1.0000000   1.0000000   1.0000000   1.0000000

  Atom        91          92          93          94          95          96          97          98          99         100
 IAtWgt=           1           1           1           1           1           1           1           1           1           1
 AtmWgt=   1.0078250   1.0078250   1.0078250   1.0078250   1.0078250   1.0078250   1.0078250   1.0078250   1.0078250   1.0078250
 NucSpn=           1           1           1           1           1           1           1           1           1           1
 AtZEff=  -0.0000000  -0.0000000  -0.0000000  -0.0000000  -0.0000000  -0.0000000  -0.0000000  -0.0000000  -0.0000000  -0.0000000
 NQMom=    0.0000000   0.0000000   0.0000000   0.0000000   0.0000000   0.0000000   0.0000000   0.0000000   0.0000000   0.0000000
 NMagM=    2.7928460   2.7928460   2.7928460   2.7928460   2.7928460   2.7928460   2.7928460   2.7928460   2.7928460   2.7928460
 AtZNuc=   1.0000000   1.0000000   1.0000000   1.0000000   1.0000000   1.0000000   1.0000000   1.0000000   1.0000000   1.0000000

  Atom       101         102         103         104         105         106         107         108         109         110
 IAtWgt=           1           1           1           1           1           1           1           1           1           1
 AtmWgt=   1.0078250   1.0078250   1.0078250   1.0078250   1.0078250   1.0078250   1.0078250   1.0078250   1.0078250   1.0078250
 NucSpn=           1           1           1           1           1           1           1           1           1           1
 AtZEff=  -0.0000000  -0.0000000  -0.0000000  -0.0000000  -0.0000000  -0.0000000  -0.0000000  -0.0000000  -0.0000000  -0.0000000
 NQMom=    0.0000000   0.0000000   0.0000000   0.0000000   0.0000000   0.0000000   0.0000000   0.0000000   0.0000000   0.0000000
 NMagM=    2.7928460   2.7928460   2.7928460   2.7928460   2.7928460   2.7928460   2.7928460   2.7928460   2.7928460   2.7928460
 AtZNuc=   1.0000000   1.0000000   1.0000000   1.0000000   1.0000000   1.0000000   1.0000000   1.0000000   1.0000000   1.0000000

  Atom       111         112         113         114         115         116         117         118         119         120
 IAtWgt=           1           1           1           1           1           1           1           1           1           1
 AtmWgt=   1.0078250   1.0078250   1.0078250   1.0078250   1.0078250   1.0078250   1.0078250   1.0078250   1.0078250   1.0078250
 NucSpn=           1           1           1           1           1           1           1           1           1           1
 AtZEff=  -0.0000000  -0.0000000  -0.0000000  -0.0000000  -0.0000000  -0.0000000  -0.0000000  -0.0000000  -0.0000000  -0.0000000
 NQMom=    0.0000000   0.0000000   0.0000000   0.0000000   0.0000000   0.0000000   0.0000000   0.0000000   0.0000000   0.0000000
 NMagM=    2.7928460   2.7928460   2.7928460   2.7928460   2.7928460   2.7928460   2.7928460   2.7928460   2.7928460   2.7928460
 AtZNuc=   1.0000000   1.0000000   1.0000000   1.0000000   1.0000000   1.0000000   1.0000000   1.0000000   1.0000000   1.0000000

  Atom       121         122         123         124         125         126         127         128         129         130
 IAtWgt=           1           1           1           1           1           1           1           1           1           1
 AtmWgt=   1.0078250   1.0078250   1.0078250   1.0078250   1.0078250   1.0078250   1.0078250   1.0078250   1.0078250   1.0078250
 NucSpn=           1           1           1           1           1           1           1           1           1           1
 AtZEff=  -0.0000000  -0.0000000  -0.0000000  -0.0000000  -0.0000000  -0.0000000  -0.0000000  -0.0000000  -0.0000000  -0.0000000
 NQMom=    0.0000000   0.0000000   0.0000000   0.0000000   0.0000000   0.0000000   0.0000000   0.0000000   0.0000000   0.0000000
 NMagM=    2.7928460   2.7928460   2.7928460   2.7928460   2.7928460   2.7928460   2.7928460   2.7928460   2.7928460   2.7928460
 AtZNuc=   1.0000000   1.0000000   1.0000000   1.0000000   1.0000000   1.0000000   1.0000000   1.0000000   1.0000000   1.0000000

  Atom       131         132         133         134         135         136         137         138         139         140
 IAtWgt=           1           1           1           1           1           1           1           1           1           1
 AtmWgt=   1.0078250   1.0078250   1.0078250   1.0078250   1.0078250   1.0078250   1.0078250   1.0078250   1.0078250   1.0078250
 NucSpn=           1           1           1           1           1           1           1           1           1           1
 AtZEff=  -0.0000000  -0.0000000  -0.0000000  -0.0000000  -0.0000000  -0.0000000  -0.0000000  -0.0000000  -0.0000000  -0.0000000
 NQMom=    0.0000000   0.0000000   0.0000000   0.0000000   0.0000000   0.0000000   0.0000000   0.0000000   0.0000000   0.0000000
 NMagM=    2.7928460   2.7928460   2.7928460   2.7928460   2.7928460   2.7928460   2.7928460   2.7928460   2.7928460   2.7928460
 AtZNuc=   1.0000000   1.0000000   1.0000000   1.0000000   1.0000000   1.0000000   1.0000000   1.0000000   1.0000000   1.0000000
 Leave Link  101 at Wed Apr 27 12:07:43 2022, MaxMem= 10066329600 cpu:               5.8 elap:               0.3
 (Enter /sw/apps/gaussian-16.0/g16/l202.exe)
 Stoichiometry    C55H74MgN4O6
 Framework group  C1[X(C55H74MgN4O6)]
 Deg. of freedom   414
 Full point group                 C1      NOp   1
 Largest Abelian subgroup         C1      NOp   1
 Largest concise Abelian subgroup C1      NOp   1
                         Standard orientation:                         
 ---------------------------------------------------------------------
 Center     Atomic      Atomic             Coordinates (Angstroms)
 Number     Number       Type             X           Y           Z
 ---------------------------------------------------------------------
      1         12           0       -5.380473    0.716394    0.054806
      2          6           0       -4.080274   -2.518077    0.217319
      3          6           0       -2.236115    1.922397    0.028955
      4          6           0       -6.735049    3.869897    0.187990
      5          6           0       -8.564353   -0.519890    0.408928
      6          7           0       -3.463091   -0.211916    0.032902
      7          6           0       -3.116252   -1.517824    0.028175
      8          6           0       -1.718679   -1.724932   -0.365835
      9          6           0       -1.060710   -0.309280   -0.134577
     10          6           0       -2.329003    0.523743    0.062592
     11          6           0        0.052791   -0.207530    0.998651
     12          6           0       -1.489134   -2.237519   -1.828432
     13          6           0       -0.346249   -3.318246   -2.047839
     14          6           0        1.010053   -3.182706   -1.256569
     15          8           0        1.279884   -3.618290   -0.110300
     16          8           0        1.951260   -2.536223   -1.975409
     17          7           0       -4.596872    2.594289    0.095866
     18          6           0       -3.264157    2.907895    0.050624
     19          6           0       -3.063696    4.310147   -0.037458
     20          6           0       -4.304407    4.964894    0.177906
     21          6           0       -5.292682    3.807979    0.195782
     22          6           0       -1.755762    5.025611   -0.195804
     23          6           0       -4.622847    6.466795    0.315889
     24          8           0       -5.718575    6.883569    0.712520
     25          6           0       -3.649693    7.444422   -0.099687
     26          7           0       -7.433993    1.578269    0.307445
     27          6           0       -7.699392    2.872840    0.186573
     28          6           0       -9.176058    3.122062    0.031134
     29          6           0       -9.797178    1.708965    0.153905
     30          6           0       -8.530900    0.811528    0.222868
     31          6           0       -9.575279    4.071660    1.164586
     32          6           0      -10.790636    1.326726   -0.917954
     33          6           0      -12.325263    1.015466   -0.597345
     34          7           0       -6.207184   -1.111774    0.382660
     35          6           0       -7.510258   -1.458692    0.492900
     36          6           0       -7.630066   -2.962072    0.621098
     37          6           0       -6.287620   -3.419895    0.501362
     38          6           0       -5.458697   -2.238770    0.353726
     39          6           0       -8.888430   -3.755557    0.646955
     40          6           0       -5.388885   -4.550424    0.567843
     41          8           0       -5.529564   -5.741640    0.907138
     42          6           0       -4.011392   -4.035733    0.236334
     43          6           0       -3.030671   -4.618563    1.251689
     44          8           0       -2.689340   -4.219847    2.367471
     45          8           0       -2.507837   -5.731568    0.625987
     46          6           0       -1.391741   -6.316372    1.397432
     47          6           0        3.278532   -2.628272   -1.438998
     48          6           0        4.308302   -2.010240   -2.398787
     49          6           0        5.606095   -2.240722   -2.319284
     50          6           0        6.237051   -2.944548   -1.175018
     51          6           0        6.518937   -1.755016   -3.453314
     52          6           0        7.075995   -0.307777   -3.509493
     53          6           0        8.616604   -0.186812   -3.569254
     54          6           0        9.334304    0.502033   -2.363439
     55          6           0        9.748246   -0.582721   -1.360074
     56          6           0       10.411118    1.549071   -2.747558
     57          6           0       10.527734    2.676644   -1.616911
     58          6           0       12.023111    2.918208   -1.184463
     59          6           0       12.186235    2.940078    0.366331
     60          6           0       13.125614    4.130611    0.771600
     61          6           0       12.730995    1.558955    0.898207
     62          6           0       11.739018    0.675207    1.653633
     63          6           0       11.763144    0.814738    3.179683
     64          6           0       12.204644   -0.489049    3.871290
     65          6           0       11.354240   -0.925795    5.106958
     66          6           0       13.756535   -0.359616    4.295821
     67          1           0       -1.254214    2.398166   -0.034553
     68          1           0       -6.963874    4.919151   -0.007567
     69          1           0       -9.545746   -0.957472    0.603396
     70          1           0       -1.385207   -2.480345    0.345849
     71          1           0       -0.572868    0.154757   -0.992090
     72          1           0        0.942977    0.324768    0.665205
     73          1           0        0.446230   -1.211014    1.164997
     74          1           0       -0.262983    0.385085    1.856360
     75          1           0       -1.222460   -1.468483   -2.554092
     76          1           0       -2.417459   -2.680818   -2.190841
     77          1           0        0.028880   -3.270809   -3.070946
     78          1           0       -0.737678   -4.321617   -1.881763
     79          1           0       -1.657680    5.548508    0.755681
     80          1           0       -1.747544    5.700916   -1.050475
     81          1           0       -0.964614    4.278942   -0.262583
     82          1           0       -4.025007    8.461392    0.015394
     83          1           0       -3.344170    7.223624   -1.122570
     84          1           0       -2.850439    7.314635    0.629580
     85          1           0       -9.293438    3.657630   -0.911344
     86          1           0      -10.184423    1.547029    1.160239
     87          1           0       -8.798536    4.120654    1.926561
     88          1           0      -10.568898    3.940184    1.591844
     89          1           0       -9.595514    5.105972    0.821996
     90          1           0      -10.371207    0.523744   -1.524720
     91          1           0      -10.784721    2.085878   -1.699616
     92          1           0      -12.878118    1.876165   -0.220010
     93          1           0      -12.438680    0.213610    0.133037
     94          1           0      -12.725252    0.638756   -1.539277
     95          1           0       -9.733340   -3.120326    0.381447
     96          1           0       -8.959299   -4.166597    1.654318
     97          1           0       -8.914704   -4.593406   -0.049495
     98          1           0       -3.768948   -4.355791   -0.776039
     99          1           0       -1.762589   -6.491484    2.407706
    100          1           0       -0.490566   -5.706404    1.330361
    101          1           0       -1.152874   -7.303229    1.000825
    102          1           0        3.403433   -3.711280   -1.419817
    103          1           0        3.421826   -2.213834   -0.440669
    104          1           0        3.841144   -1.301927   -3.083444
    105          1           0        5.537961   -3.480773   -0.532884
    106          1           0        7.044996   -2.418118   -0.668087
    107          1           0        6.724482   -3.802118   -1.638672
    108          1           0        6.326843   -2.150370   -4.450978
    109          1           0        7.404684   -2.357315   -3.250430
    110          1           0        6.726370    0.230846   -2.628526
    111          1           0        6.597301    0.302309   -4.274420
    112          1           0        8.853113    0.347885   -4.488928
    113          1           0        9.038321   -1.184384   -3.691509
    114          1           0        8.542242    0.977157   -1.784605
    115          1           0        9.899925   -1.529856   -1.876753
    116          1           0        8.970132   -0.519090   -0.598654
    117          1           0       10.669971   -0.273903   -0.867880
    118          1           0       10.113589    2.052471   -3.667938
    119          1           0       11.378260    1.061237   -2.864142
    120          1           0        9.774103    2.449563   -0.863632
    121          1           0       10.263194    3.633587   -2.067041
    122          1           0       12.574061    3.697624   -1.710954
    123          1           0       12.602399    2.051511   -1.502508
    124          1           0       11.210123    3.209776    0.768730
    125          1           0       13.537967    4.555528   -0.143464
    126          1           0       14.029509    3.828410    1.300392
    127          1           0       12.634605    4.896871    1.371972
    128          1           0       13.590735    1.872462    1.489199
    129          1           0       13.082243    0.874704    0.126023
    130          1           0       11.770188   -0.337335    1.250470
    131          1           0       10.717270    0.954453    1.398508
    132          1           0       10.765064    1.128390    3.484684
    133          1           0       12.339027    1.679175    3.510909
    134          1           0       12.054983   -1.312004    3.172664
    135          1           0       10.940387   -1.909037    4.882806
    136          1           0       10.528624   -0.240637    5.301351
    137          1           0       12.003778   -0.951047    5.982280
    138          1           0       14.314851    0.066872    3.461834
    139          1           0       14.210051   -1.318589    4.546817
    140          1           0       13.777631    0.326690    5.141572
 ---------------------------------------------------------------------
 Rotational constants (GHZ):           0.0422126           0.0097518           0.0086080
 Leave Link  202 at Wed Apr 27 12:07:43 2022, MaxMem= 10066329600 cpu:               0.2 elap:               0.0
 (Enter /sw/apps/gaussian-16.0/g16/l301.exe)
 Standard basis: def2SVP (5D, 7F)
 Ernie: Thresh=  0.10000D-02 Tol=  0.10000D-05 Strict=F.
 There are  1364 symmetry adapted cartesian basis functions of A   symmetry.
 There are  1298 symmetry adapted basis functions of A   symmetry.
  1298 basis functions,  2180 primitive gaussians,  1364 cartesian basis functions
   246 alpha electrons      246 beta electrons
       nuclear repulsion energy      9466.0656193634 Hartrees.
 IExCor= 1009 DFT=T Ex+Corr=PBE1PBE ExCW=0 ScaHFX=  0.250000
 ScaDFX=  0.750000  0.750000  1.000000  1.000000 ScalE2=  1.000000  1.000000
 IRadAn=      5 IRanWt=     -1 IRanGd=            0 ICorTp=0 IEmpDi=  4
 NAtoms=  140 NActive=  140 NUniq=  140 SFac= 1.00D+00 NAtFMM=   60 NAOKFM=T Big=T
 Integral buffers will be    131072 words long.
 Regular integral format.
 Two-electron integral symmetry is turned on.
 Leave Link  301 at Wed Apr 27 12:07:43 2022, MaxMem= 10066329600 cpu:               1.4 elap:               0.1
 (Enter /sw/apps/gaussian-16.0/g16/l302.exe)
 NPDir=0 NMtPBC=     1 NCelOv=     1 NCel=       1 NClECP=     1 NCelD=      1
         NCelK=      1 NCelE2=     1 NClLst=     1 CellRange=     0.0.
 One-electron integrals computed using PRISM.
 One-electron integral symmetry used in STVInt
   1 Symmetry operations used in ECPInt.
 ECPInt:  NShTT=  192510 NPrTT=  683786 LenC2=   91944 LenP2D=  202495.
 LDataN:  DoStor=T MaxTD1= 4 Len=   56
 NBasis=  1298 RedAO= T EigKep=  2.64D-04  NBF=  1298
 NBsUse=  1298 1.00D-06 EigRej= -1.00D+00 NBFU=  1298
 Precomputing XC quadrature grid using
 IXCGrd= 4 IRadAn=           5 IRanWt=          -1 IRanGd=           0 AccXCQ= 0.00D+00.
 Generated NRdTot=       0 NPtTot=           0 NUsed=           0 NTot=          32
 NSgBfM=  1049  1036  1038  1049  1049 MxSgAt=   140 MxSgA2=   140.
 Leave Link  302 at Wed Apr 27 12:07:46 2022, MaxMem= 10066329600 cpu:              74.5 elap:               3.1
 (Enter /sw/apps/gaussian-16.0/g16/l303.exe)
 DipDrv:  MaxL=1.
 Leave Link  303 at Wed Apr 27 12:07:46 2022, MaxMem= 10066329600 cpu:               7.4 elap:               0.3
 (Enter /sw/apps/gaussian-16.0/g16/l308.exe)
 Leave Link  308 at Wed Apr 27 12:07:47 2022, MaxMem= 10066329600 cpu:               8.3 elap:               0.4
 (Enter /sw/apps/gaussian-16.0/g16/l401.exe)
 ExpMin= 3.36D-02 ExpMax= 4.95D+03 ExpMxC= 7.45D+02 IAcc=3 IRadAn=         5 AccDes= 0.00D+00
 Harris functional with IExCor= 1009 and IRadAn=       5 diagonalized for initial guess.
 HarFok:  IExCor= 1009 AccDes= 0.00D+00 IRadAn=         5 IDoV= 1 UseB2=F ITyADJ=14
 ICtDFT=  3500011 ScaDFX=  1.000000  1.000000  1.000000  1.000000
 FoFCou: FMM=F IPFlag=           0 FMFlag=      100000 FMFlg1=        2001
         NFxFlg=           0 DoJE=T BraDBF=F KetDBF=T FulRan=T
         wScrn=  0.000000 ICntrl=       500 IOpCl=  0 I1Cent=   200000004 NGrid=           0
         NMat0=    1 NMatS0=      1 NMatT0=    0 NMatD0=    1 NMtDS0=    0 NMtDT0=    0
 Petite list used in FoFCou.
 Harris En= -3006.14359475501    
 JPrj=0 DoOrth=F DoCkMO=F.
 Leave Link  401 at Wed Apr 27 12:07:52 2022, MaxMem= 10066329600 cpu:             135.1 elap:               5.7
 (Enter /sw/apps/gaussian-16.0/g16/l502.exe)
 Integral symmetry usage will be decided dynamically.
 Closed shell SCF:
 Using DIIS extrapolation, IDIIS=  1040.
 NGot= 10066329600 LenX= 10062561258 LenY= 10060699398
 Requested convergence on RMS density matrix=1.00D-08 within 128 cycles.
 Requested convergence on MAX density matrix=1.00D-06.
 Requested convergence on             energy=1.00D-06.
 No special actions if energy rises.
 Fock matrices will be formed incrementally for  20 cycles.

 Cycle   1  Pass 1  IDiag  1:
 FoFJK:  IHMeth= 1 ICntrl=       0 DoSepK=F KAlg= 0 I1Cent=           0 FoldK=F
 IRaf= 500000000 NMat=       1 IRICut=       1 DoRegI=T DoRafI=F ISym2E= 0 IDoP0=0 IntGTp=1.
 FoFCou: FMM=T IPFlag=           0 FMFlag=      100000 FMFlg1=        2001
         NFxFlg=           0 DoJE=F BraDBF=F KetDBF=F FulRan=T
         wScrn=  0.000000 ICntrl=         0 IOpCl=  0 I1Cent=           0 NGrid=           0
         NMat0=    1 NMatS0=      1 NMatT0=    0 NMatD0=    1 NMtDS0=    0 NMtDT0=    0
 Symmetry not used in FoFCou.
 FMM levels:  10  Number of levels for PrismC:   9
 E= -3003.83846650765    
 DIIS: error= 2.08D-02 at cycle   1 NSaved=   1.
 NSaved= 1 IEnMin= 1 EnMin= -3003.83846650765     IErMin= 1 ErrMin= 2.08D-02
 ErrMax= 2.08D-02  0.00D+00 EMaxC= 1.00D-01 BMatC= 1.44D+00 BMatP= 1.44D+00
 IDIUse=3 WtCom= 7.92D-01 WtEn= 2.08D-01
 Coeff-Com:  0.100D+01
 Coeff-En:   0.100D+01
 Coeff:      0.100D+01
 Gap=     0.085 Goal=   None    Shift=    0.000
 GapD=    0.085 DampG=0.500 DampE=0.500 DampFc=0.2500 IDamp=-1.
 Damping current iteration by 2.50D-01
 RMSDP=2.80D-03 MaxDP=8.39D-01              OVMax= 2.18D-01

 Cycle   2  Pass 1  IDiag  1:
 RMSU=  6.94D-04    CP:  9.90D-01
 E= -3004.37713606882     Delta-E=       -0.538669561174 Rises=F Damp=T
 DIIS: error= 9.90D-03 at cycle   2 NSaved=   2.
 NSaved= 2 IEnMin= 2 EnMin= -3004.37713606882     IErMin= 2 ErrMin= 9.90D-03
 ErrMax= 9.90D-03  0.00D+00 EMaxC= 1.00D-01 BMatC= 3.62D-01 BMatP= 1.44D+00
 IDIUse=3 WtCom= 9.01D-01 WtEn= 9.90D-02
 Coeff-Com: -0.775D+00 0.177D+01
 Coeff-En:   0.000D+00 0.100D+01
 Coeff:     -0.698D+00 0.170D+01
 Gap=     0.173 Goal=   None    Shift=    0.000
 RMSDP=9.87D-04 MaxDP=7.97D-02 DE=-5.39D-01 OVMax= 2.11D-01

 Cycle   3  Pass 1  IDiag  1:
 RMSU=  8.38D-04    CP:  9.64D-01  1.67D+00
 E= -3005.19302606080     Delta-E=       -0.815889991980 Rises=F Damp=F
 DIIS: error= 1.11D-02 at cycle   3 NSaved=   3.
 NSaved= 3 IEnMin= 3 EnMin= -3005.19302606080     IErMin= 2 ErrMin= 9.90D-03
 ErrMax= 1.11D-02  0.00D+00 EMaxC= 1.00D-01 BMatC= 1.74D-01 BMatP= 3.62D-01
 IDIUse=3 WtCom= 8.89D-01 WtEn= 1.11D-01
 Coeff-Com: -0.500D+00 0.106D+01 0.441D+00
 Coeff-En:   0.000D+00 0.000D+00 0.100D+01
 Coeff:     -0.444D+00 0.941D+00 0.503D+00
 Gap=     0.075 Goal=   None    Shift=    0.000
 RMSDP=5.62D-04 MaxDP=1.29D-01 DE=-8.16D-01 OVMax= 1.47D-01

 Cycle   4  Pass 1  IDiag  1:
 RMSU=  3.70D-04    CP:  9.70D-01  1.93D+00  5.52D-01
 E= -3005.31355375552     Delta-E=       -0.120527694711 Rises=F Damp=F
 DIIS: error= 6.20D-03 at cycle   4 NSaved=   4.
 NSaved= 4 IEnMin= 4 EnMin= -3005.31355375552     IErMin= 4 ErrMin= 6.20D-03
 ErrMax= 6.20D-03  0.00D+00 EMaxC= 1.00D-01 BMatC= 3.85D-02 BMatP= 1.74D-01
 IDIUse=3 WtCom= 9.38D-01 WtEn= 6.20D-02
 Coeff-Com: -0.995D-01 0.215D+00 0.321D+00 0.563D+00
 Coeff-En:   0.000D+00 0.000D+00 0.226D+00 0.774D+00
 Coeff:     -0.933D-01 0.202D+00 0.315D+00 0.576D+00
 Gap=     0.076 Goal=   None    Shift=    0.000
 RMSDP=2.57D-04 MaxDP=5.68D-02 DE=-1.21D-01 OVMax= 1.15D-01

 Cycle   5  Pass 1  IDiag  1:
 RMSU=  1.25D-04    CP:  9.69D-01  1.81D+00  7.02D-01  5.60D-01
 E= -3005.34305813058     Delta-E=       -0.029504375063 Rises=F Damp=F
 DIIS: error= 2.39D-03 at cycle   5 NSaved=   5.
 NSaved= 5 IEnMin= 5 EnMin= -3005.34305813058     IErMin= 5 ErrMin= 2.39D-03
 ErrMax= 2.39D-03  0.00D+00 EMaxC= 1.00D-01 BMatC= 4.76D-03 BMatP= 3.85D-02
 IDIUse=3 WtCom= 9.76D-01 WtEn= 2.39D-02
 Coeff-Com: -0.242D-01 0.549D-01 0.176D+00 0.389D+00 0.405D+00
 Coeff-En:   0.000D+00 0.000D+00 0.000D+00 0.141D+00 0.859D+00
 Coeff:     -0.237D-01 0.536D-01 0.172D+00 0.383D+00 0.415D+00
 Gap=     0.076 Goal=   None    Shift=    0.000
 RMSDP=1.09D-04 MaxDP=9.76D-03 DE=-2.95D-02 OVMax= 6.98D-02

 Cycle   6  Pass 1  IDiag  1:
 RMSU=  5.09D-05    CP:  9.68D-01  1.82D+00  6.84D-01  6.69D-01  3.07D-01
 E= -3005.34831596146     Delta-E=       -0.005257830884 Rises=F Damp=F
 DIIS: error= 9.72D-04 at cycle   6 NSaved=   6.
 NSaved= 6 IEnMin= 6 EnMin= -3005.34831596146     IErMin= 6 ErrMin= 9.72D-04
 ErrMax= 9.72D-04  0.00D+00 EMaxC= 1.00D-01 BMatC= 7.19D-04 BMatP= 4.76D-03
 IDIUse=3 WtCom= 9.90D-01 WtEn= 9.72D-03
 Coeff-Com: -0.112D-04 0.175D-02 0.644D-01 0.167D+00 0.298D+00 0.468D+00
 Coeff-En:   0.000D+00 0.000D+00 0.000D+00 0.000D+00 0.176D+00 0.824D+00
 Coeff:     -0.111D-04 0.173D-02 0.637D-01 0.166D+00 0.297D+00 0.472D+00
 Gap=     0.076 Goal=   None    Shift=    0.000
 RMSDP=3.88D-05 MaxDP=3.29D-03 DE=-5.26D-03 OVMax= 2.31D-02

 Cycle   7  Pass 1  IDiag  1:
 RMSU=  1.71D-05    CP:  9.68D-01  1.82D+00  6.92D-01  6.47D-01  4.74D-01
                    CP:  4.94D-01
 E= -3005.34921706004     Delta-E=       -0.000901098576 Rises=F Damp=F
 DIIS: error= 2.54D-04 at cycle   7 NSaved=   7.
 NSaved= 7 IEnMin= 7 EnMin= -3005.34921706004     IErMin= 7 ErrMin= 2.54D-04
 ErrMax= 2.54D-04  0.00D+00 EMaxC= 1.00D-01 BMatC= 5.88D-05 BMatP= 7.19D-04
 IDIUse=3 WtCom= 9.97D-01 WtEn= 2.54D-03
 Coeff-Com:  0.236D-02-0.445D-02 0.192D-01 0.558D-01 0.136D+00 0.295D+00
 Coeff-Com:  0.496D+00
 Coeff-En:   0.000D+00 0.000D+00 0.000D+00 0.000D+00 0.000D+00 0.344D-01
 Coeff-En:   0.966D+00
 Coeff:      0.235D-02-0.444D-02 0.192D-01 0.557D-01 0.136D+00 0.294D+00
 Coeff:      0.498D+00
 Gap=     0.076 Goal=   None    Shift=    0.000
 RMSDP=1.20D-05 MaxDP=9.99D-04 DE=-9.01D-04 OVMax= 7.47D-03

 Cycle   8  Pass 1  IDiag  1:
 RMSU=  7.45D-06    CP:  9.68D-01  1.82D+00  6.91D-01  6.51D-01  4.59D-01
                    CP:  5.67D-01  5.16D-01
 E= -3005.34926878072     Delta-E=       -0.000051720679 Rises=F Damp=F
 DIIS: error= 8.60D-05 at cycle   8 NSaved=   8.
 NSaved= 8 IEnMin= 8 EnMin= -3005.34926878072     IErMin= 8 ErrMin= 8.60D-05
 ErrMax= 8.60D-05  0.00D+00 EMaxC= 1.00D-01 BMatC= 1.11D-05 BMatP= 5.88D-05
 IDIUse=1 WtCom= 1.00D+00 WtEn= 0.00D+00
 Coeff-Com:  0.156D-02-0.313D-02 0.618D-02 0.196D-01 0.610D-01 0.152D+00
 Coeff-Com:  0.346D+00 0.416D+00
 Coeff:      0.156D-02-0.313D-02 0.618D-02 0.196D-01 0.610D-01 0.152D+00
 Coeff:      0.346D+00 0.416D+00
 Gap=     0.076 Goal=   None    Shift=    0.000
 RMSDP=5.96D-06 MaxDP=4.86D-04 DE=-5.17D-05 OVMax= 4.36D-03

 Cycle   9  Pass 1  IDiag  1:
 RMSU=  2.77D-06    CP:  9.68D-01  1.82D+00  6.91D-01  6.52D-01  4.63D-01
                    CP:  5.62D-01  6.26D-01  3.43D-01
 E= -3005.34928096199     Delta-E=       -0.000012181272 Rises=F Damp=F
 DIIS: error= 3.88D-05 at cycle   9 NSaved=   9.
 NSaved= 9 IEnMin= 9 EnMin= -3005.34928096199     IErMin= 9 ErrMin= 3.88D-05
 ErrMax= 3.88D-05  0.00D+00 EMaxC= 1.00D-01 BMatC= 2.11D-06 BMatP= 1.11D-05
 IDIUse=1 WtCom= 1.00D+00 WtEn= 0.00D+00
 Coeff-Com:  0.726D-03-0.149D-02 0.147D-02 0.508D-02 0.230D-01 0.653D-01
 Coeff-Com:  0.177D+00 0.311D+00 0.418D+00
 Coeff:      0.726D-03-0.149D-02 0.147D-02 0.508D-02 0.230D-01 0.653D-01
 Coeff:      0.177D+00 0.311D+00 0.418D+00
 Gap=     0.076 Goal=   None    Shift=    0.000
 RMSDP=2.34D-06 MaxDP=3.94D-04 DE=-1.22D-05 OVMax= 1.67D-03

 Cycle  10  Pass 1  IDiag  1:
 RMSU=  1.09D-06    CP:  9.68D-01  1.82D+00  6.92D-01  6.51D-01  4.64D-01
                    CP:  5.69D-01  6.06D-01  5.03D-01  4.48D-01
 E= -3005.34928357185     Delta-E=       -0.000002609861 Rises=F Damp=F
 DIIS: error= 8.68D-06 at cycle  10 NSaved=  10.
 NSaved=10 IEnMin=10 EnMin= -3005.34928357185     IErMin=10 ErrMin= 8.68D-06
 ErrMax= 8.68D-06  0.00D+00 EMaxC= 1.00D-01 BMatC= 2.14D-07 BMatP= 2.11D-06
 IDIUse=1 WtCom= 1.00D+00 WtEn= 0.00D+00
 Coeff-Com:  0.163D-03-0.341D-03-0.103D-03-0.376D-03 0.384D-02 0.142D-01
 Coeff-Com:  0.509D-01 0.123D+00 0.273D+00 0.535D+00
 Coeff:      0.163D-03-0.341D-03-0.103D-03-0.376D-03 0.384D-02 0.142D-01
 Coeff:      0.509D-01 0.123D+00 0.273D+00 0.535D+00
 Gap=     0.076 Goal=   None    Shift=    0.000
 RMSDP=6.56D-07 MaxDP=5.92D-05 DE=-2.61D-06 OVMax= 3.76D-04

 Cycle  11  Pass 1  IDiag  1:
 RMSU=  3.36D-07    CP:  9.68D-01  1.82D+00  6.92D-01  6.51D-01  4.64D-01
                    CP:  5.70D-01  6.10D-01  4.90D-01  5.78D-01  6.20D-01
 E= -3005.34928380044     Delta-E=       -0.000000228592 Rises=F Damp=F
 DIIS: error= 3.79D-06 at cycle  11 NSaved=  11.
 NSaved=11 IEnMin=11 EnMin= -3005.34928380044     IErMin=11 ErrMin= 3.79D-06
 ErrMax= 3.79D-06  0.00D+00 EMaxC= 1.00D-01 BMatC= 3.42D-08 BMatP= 2.14D-07
 IDIUse=1 WtCom= 1.00D+00 WtEn= 0.00D+00
 Coeff-Com:  0.527D-05-0.142D-04-0.301D-03-0.109D-02-0.939D-03-0.638D-03
 Coeff-Com:  0.708D-02 0.349D-01 0.117D+00 0.350D+00 0.494D+00
 Coeff:      0.527D-05-0.142D-04-0.301D-03-0.109D-02-0.939D-03-0.638D-03
 Coeff:      0.708D-02 0.349D-01 0.117D+00 0.350D+00 0.494D+00
 Gap=     0.076 Goal=   None    Shift=    0.000
 RMSDP=2.30D-07 MaxDP=2.18D-05 DE=-2.29D-07 OVMax= 8.64D-05

 Cycle  12  Pass 1  IDiag  1:
 RMSU=  1.18D-07    CP:  9.68D-01  1.82D+00  6.92D-01  6.51D-01  4.64D-01
                    CP:  5.70D-01  6.13D-01  4.96D-01  5.67D-01  7.24D-01
                    CP:  6.32D-01
 E= -3005.34928383423     Delta-E=       -0.000000033788 Rises=F Damp=F
 DIIS: error= 9.00D-07 at cycle  12 NSaved=  12.
 NSaved=12 IEnMin=12 EnMin= -3005.34928383423     IErMin=12 ErrMin= 9.00D-07
 ErrMax= 9.00D-07  0.00D+00 EMaxC= 1.00D-01 BMatC= 1.73D-09 BMatP= 3.42D-08
 IDIUse=1 WtCom= 1.00D+00 WtEn= 0.00D+00
 Coeff-Com: -0.804D-05 0.174D-04-0.129D-03-0.497D-03-0.696D-03-0.150D-02
 Coeff-Com: -0.440D-03 0.659D-02 0.342D-01 0.127D+00 0.244D+00 0.591D+00
 Coeff:     -0.804D-05 0.174D-04-0.129D-03-0.497D-03-0.696D-03-0.150D-02
 Coeff:     -0.440D-03 0.659D-02 0.342D-01 0.127D+00 0.244D+00 0.591D+00
 Gap=     0.076 Goal=   None    Shift=    0.000
 RMSDP=6.72D-08 MaxDP=1.64D-05 DE=-3.38D-08 OVMax= 2.33D-05

 Cycle  13  Pass 1  IDiag  1:
 RMSU=  4.87D-08    CP:  9.68D-01  1.82D+00  6.92D-01  6.51D-01  4.64D-01
                    CP:  5.70D-01  6.13D-01  4.96D-01  5.75D-01  7.26D-01
                    CP:  6.98D-01  7.85D-01
 E= -3005.34928383572     Delta-E=       -0.000000001492 Rises=F Damp=F
 DIIS: error= 3.63D-07 at cycle  13 NSaved=  13.
 NSaved=13 IEnMin=13 EnMin= -3005.34928383572     IErMin=13 ErrMin= 3.63D-07
 ErrMax= 3.63D-07  0.00D+00 EMaxC= 1.00D-01 BMatC= 3.99D-10 BMatP= 1.73D-09
 IDIUse=1 WtCom= 1.00D+00 WtEn= 0.00D+00
 Coeff-Com: -0.474D-05 0.112D-04-0.310D-04-0.133D-03-0.272D-03-0.902D-03
 Coeff-Com: -0.144D-02-0.190D-02 0.869D-03 0.195D-01 0.631D-01 0.355D+00
 Coeff-Com:  0.566D+00
 Coeff:     -0.474D-05 0.112D-04-0.310D-04-0.133D-03-0.272D-03-0.902D-03
 Coeff:     -0.144D-02-0.190D-02 0.869D-03 0.195D-01 0.631D-01 0.355D+00
 Coeff:      0.566D+00
 Gap=     0.076 Goal=   None    Shift=    0.000
 RMSDP=2.72D-08 MaxDP=2.50D-06 DE=-1.49D-09 OVMax= 9.96D-06

 Cycle  14  Pass 1  IDiag  1:
 RMSU=  1.84D-08    CP:  9.68D-01  1.82D+00  6.92D-01  6.51D-01  4.64D-01
                    CP:  5.70D-01  6.13D-01  4.97D-01  5.75D-01  7.36D-01
                    CP:  7.04D-01  8.85D-01  7.73D-01
 E= -3005.34928383610     Delta-E=       -0.000000000382 Rises=F Damp=F
 DIIS: error= 1.66D-07 at cycle  14 NSaved=  14.
 NSaved=14 IEnMin=14 EnMin= -3005.34928383610     IErMin=14 ErrMin= 1.66D-07
 ErrMax= 1.66D-07  0.00D+00 EMaxC= 1.00D-01 BMatC= 6.71D-11 BMatP= 3.99D-10
 IDIUse=1 WtCom= 1.00D+00 WtEn= 0.00D+00
 Coeff-Com: -0.609D-06 0.246D-05 0.280D-05-0.318D-06-0.477D-04-0.343D-03
 Coeff-Com: -0.818D-03-0.248D-02-0.559D-02-0.998D-02-0.276D-02 0.126D+00
 Coeff-Com:  0.340D+00 0.555D+00
 Coeff:     -0.609D-06 0.246D-05 0.280D-05-0.318D-06-0.477D-04-0.343D-03
 Coeff:     -0.818D-03-0.248D-02-0.559D-02-0.998D-02-0.276D-02 0.126D+00
 Coeff:      0.340D+00 0.555D+00
 Gap=     0.076 Goal=   None    Shift=    0.000
 RMSDP=1.32D-08 MaxDP=3.56D-06 DE=-3.82D-10 OVMax= 4.41D-06

 Cycle  15  Pass 1  IDiag  1:
 RMSU=  7.89D-09    CP:  9.68D-01  1.82D+00  6.92D-01  6.51D-01  4.64D-01
                    CP:  5.70D-01  6.13D-01  4.97D-01  5.76D-01  7.37D-01
                    CP:  7.15D-01  9.06D-01  8.85D-01  7.90D-01
 E= -3005.34928383618     Delta-E=       -0.000000000075 Rises=F Damp=F
 DIIS: error= 9.22D-08 at cycle  15 NSaved=  15.
 NSaved=15 IEnMin=15 EnMin= -3005.34928383618     IErMin=15 ErrMin= 9.22D-08
 ErrMax= 9.22D-08  0.00D+00 EMaxC= 1.00D-01 BMatC= 1.16D-11 BMatP= 6.71D-11
 IDIUse=1 WtCom= 1.00D+00 WtEn= 0.00D+00
 Coeff-Com:  0.799D-06-0.986D-06 0.717D-05 0.207D-04 0.249D-04-0.427D-04
 Coeff-Com: -0.148D-03-0.941D-03-0.303D-02-0.821D-02-0.111D-01 0.100D-01
 Coeff-Com:  0.799D-01 0.329D+00 0.605D+00
 Coeff:      0.799D-06-0.986D-06 0.717D-05 0.207D-04 0.249D-04-0.427D-04
 Coeff:     -0.148D-03-0.941D-03-0.303D-02-0.821D-02-0.111D-01 0.100D-01
 Coeff:      0.799D-01 0.329D+00 0.605D+00
 Gap=     0.076 Goal=   None    Shift=    0.000
 RMSDP=4.85D-09 MaxDP=5.13D-07 DE=-7.46D-11 OVMax= 2.60D-06

 SCF Done:  E(RPBE1PBE) =  -3005.34928384     A.U. after   15 cycles
            NFock= 15  Conv=0.49D-08     -V/T= 2.0102
 KE= 2.974992731201D+03 PE=-2.592309589922D+04 EE= 1.047668826482D+04
 Leave Link  502 at Wed Apr 27 12:11:52 2022, MaxMem= 10066329600 cpu:            5727.3 elap:             240.2
 (Enter /sw/apps/gaussian-16.0/g16/l801.exe)
 DoSCS=F DFT=T ScalE2(SS,OS)=  1.000000  1.000000
 ExpMin= 3.36D-02 ExpMax= 4.95D+03 ExpMxC= 7.45D+02 IAcc=3 IRadAn=         5 AccDes= 0.00D+00
 HarFok:  IExCor=  205 AccDes= 0.00D+00 IRadAn=         5 IDoV=-2 UseB2=F ITyADJ=14
 ICtDFT= 12500011 ScaDFX=  1.000000  1.000000  1.000000  1.000000
 GSVD:  LWork=       -5460 too small for GESVD, short by       25550 words or       25550 for optimal perf.
 Largest valence mixing into a core orbital is  1.90D-04
 Largest core mixing into a valence orbital is  6.03D-05
 Range of M.O.s used for correlation:    71  1298
 NBasis=  1298 NAE=   246 NBE=   246 NFC=    70 NFV=     0
 NROrb=   1228 NOA=   176 NOB=   176 NVA=  1052 NVB=  1052

 **** Warning!!: The smallest alpha delta epsilon is  0.75903154D-01

 Leave Link  801 at Wed Apr 27 12:11:53 2022, MaxMem= 10066329600 cpu:               5.9 elap:               0.3
 (Enter /sw/apps/gaussian-16.0/g16/l914.exe)
 RHF ground state
 Two-electron integrals replicated using symmetry.
 MDV= 10066329600 DFT=T DoStab=F Mixed=T DoRPA=T DoScal=F NonHer=T
 Making orbital integer symmetry assigments:
 Orbital symmetries:
       Occupied  (A) (A) (A) (A) (A) (A) (A) (A) (A) (A) (A) (A)
                 (A) (A) (A) (A) (A) (A) (A) (A) (A) (A) (A) (A)
                 (A) (A) (A) (A) (A) (A) (A) (A) (A) (A) (A) (A)
                 (A) (A) (A) (A) (A) (A) (A) (A) (A) (A) (A) (A)
                 (A) (A) (A) (A) (A) (A) (A) (A) (A) (A) (A) (A)
                 (A) (A) (A) (A) (A) (A) (A) (A) (A) (A) (A) (A)
                 (A) (A) (A) (A) (A) (A) (A) (A) (A) (A) (A) (A)
                 (A) (A) (A) (A) (A) (A) (A) (A) (A) (A) (A) (A)
                 (A) (A) (A) (A) (A) (A) (A) (A) (A) (A) (A) (A)
                 (A) (A) (A) (A) (A) (A) (A) (A) (A) (A) (A) (A)
                 (A) (A) (A) (A) (A) (A) (A) (A) (A) (A) (A) (A)
                 (A) (A) (A) (A) (A) (A) (A) (A) (A) (A) (A) (A)
                 (A) (A) (A) (A) (A) (A) (A) (A) (A) (A) (A) (A)
                 (A) (A) (A) (A) (A) (A) (A) (A) (A) (A) (A) (A)
                 (A) (A) (A) (A) (A) (A) (A) (A) (A) (A) (A) (A)
                 (A) (A) (A) (A) (A) (A) (A) (A) (A) (A) (A) (A)
                 (A) (A) (A) (A) (A) (A) (A) (A) (A) (A) (A) (A)
                 (A) (A) (A) (A) (A) (A) (A) (A) (A) (A) (A) (A)
                 (A) (A) (A) (A) (A) (A) (A) (A) (A) (A) (A) (A)
                 (A) (A) (A) (A) (A) (A) (A) (A) (A) (A) (A) (A)
                 (A) (A) (A) (A) (A) (A)
       Virtual   (A) (A) (A) (A) (A) (A) (A) (A) (A) (A) (A) (A)
                 (A) (A) (A) (A) (A) (A) (A) (A) (A) (A) (A) (A)
                 (A) (A) (A) (A) (A) (A) (A) (A) (A) (A) (A) (A)
                 (A) (A) (A) (A) (A) (A) (A) (A) (A) (A) (A) (A)
                 (A) (A) (A) (A) (A) (A) (A) (A) (A) (A) (A) (A)
                 (A) (A) (A) (A) (A) (A) (A) (A) (A) (A) (A) (A)
                 (A) (A) (A) (A) (A) (A) (A) (A) (A) (A) (A) (A)
                 (A) (A) (A) (A) (A) (A) (A) (A) (A) (A) (A) (A)
                 (A) (A) (A) (A) (A) (A) (A) (A) (A) (A) (A) (A)
                 (A) (A) (A) (A) (A) (A) (A) (A) (A) (A) (A) (A)
                 (A) (A) (A) (A) (A) (A) (A) (A) (A) (A) (A) (A)
                 (A) (A) (A) (A) (A) (A) (A) (A) (A) (A) (A) (A)
                 (A) (A) (A) (A) (A) (A) (A) (A) (A) (A) (A) (A)
                 (A) (A) (A) (A) (A) (A) (A) (A) (A) (A) (A) (A)
                 (A) (A) (A) (A) (A) (A) (A) (A) (A) (A) (A) (A)
                 (A) (A) (A) (A) (A) (A) (A) (A) (A) (A) (A) (A)
                 (A) (A) (A) (A) (A) (A) (A) (A) (A) (A) (A) (A)
                 (A) (A) (A) (A) (A) (A) (A) (A) (A) (A) (A) (A)
                 (A) (A) (A) (A) (A) (A) (A) (A) (A) (A) (A) (A)
                 (A) (A) (A) (A) (A) (A) (A) (A) (A) (A) (A) (A)
                 (A) (A) (A) (A) (A) (A) (A) (A) (A) (A) (A) (A)
                 (A) (A) (A) (A) (A) (A) (A) (A) (A) (A) (A) (A)
                 (A) (A) (A) (A) (A) (A) (A) (A) (A) (A) (A) (A)
                 (A) (A) (A) (A) (A) (A) (A) (A) (A) (A) (A) (A)
                 (A) (A) (A) (A) (A) (A) (A) (A) (A) (A) (A) (A)
                 (A) (A) (A) (A) (A) (A) (A) (A) (A) (A) (A) (A)
                 (A) (A) (A) (A) (A) (A) (A) (A) (A) (A) (A) (A)
                 (A) (A) (A) (A) (A) (A) (A) (A) (A) (A) (A) (A)
                 (A) (A) (A) (A) (A) (A) (A) (A) (A) (A) (A) (A)
                 (A) (A) (A) (A) (A) (A) (A) (A) (A) (A) (A) (A)
                 (A) (A) (A) (A) (A) (A) (A) (A) (A) (A) (A) (A)
                 (A) (A) (A) (A) (A) (A) (A) (A) (A) (A) (A) (A)
                 (A) (A) (A) (A) (A) (A) (A) (A) (A) (A) (A) (A)
                 (A) (A) (A) (A) (A) (A) (A) (A) (A) (A) (A) (A)
                 (A) (A) (A) (A) (A) (A) (A) (A) (A) (A) (A) (A)
                 (A) (A) (A) (A) (A) (A) (A) (A) (A) (A) (A) (A)
                 (A) (A) (A) (A) (A) (A) (A) (A) (A) (A) (A) (A)
                 (A) (A) (A) (A) (A) (A) (A) (A) (A) (A) (A) (A)
                 (A) (A) (A) (A) (A) (A) (A) (A) (A) (A) (A) (A)
                 (A) (A) (A) (A) (A) (A) (A) (A) (A) (A) (A) (A)
                 (A) (A) (A) (A) (A) (A) (A) (A) (A) (A) (A) (A)
                 (A) (A) (A) (A) (A) (A) (A) (A) (A) (A) (A) (A)
                 (A) (A) (A) (A) (A) (A) (A) (A) (A) (A) (A) (A)
                 (A) (A) (A) (A) (A) (A) (A) (A) (A) (A) (A) (A)
                 (A) (A) (A) (A) (A) (A) (A) (A) (A) (A) (A) (A)
                 (A) (A) (A) (A) (A) (A) (A) (A) (A) (A) (A) (A)
                 (A) (A) (A) (A) (A) (A) (A) (A) (A) (A) (A) (A)
                 (A) (A) (A) (A) (A) (A) (A) (A) (A) (A) (A) (A)
                 (A) (A) (A) (A) (A) (A) (A) (A) (A) (A) (A) (A)
                 (A) (A) (A) (A) (A) (A) (A) (A) (A) (A) (A) (A)
                 (A) (A) (A) (A) (A) (A) (A) (A) (A) (A) (A) (A)
                 (A) (A) (A) (A) (A) (A) (A) (A) (A) (A) (A) (A)
                 (A) (A) (A) (A) (A) (A) (A) (A) (A) (A) (A) (A)
                 (A) (A) (A) (A) (A) (A) (A) (A) (A) (A) (A) (A)
                 (A) (A) (A) (A) (A) (A) (A) (A) (A) (A) (A) (A)
                 (A) (A) (A) (A) (A) (A) (A) (A) (A) (A) (A) (A)
                 (A) (A) (A) (A) (A) (A) (A) (A) (A) (A) (A) (A)
                 (A) (A) (A) (A) (A) (A) (A) (A) (A) (A) (A) (A)
                 (A) (A) (A) (A) (A) (A) (A) (A) (A) (A) (A) (A)
                 (A) (A) (A) (A) (A) (A) (A) (A) (A) (A) (A) (A)
                 (A) (A) (A) (A) (A) (A) (A) (A) (A) (A) (A) (A)
                 (A) (A) (A) (A) (A) (A) (A) (A) (A) (A) (A) (A)
                 (A) (A) (A) (A) (A) (A) (A) (A) (A) (A) (A) (A)
                 (A) (A) (A) (A) (A) (A) (A) (A) (A) (A) (A) (A)
                 (A) (A) (A) (A) (A) (A) (A) (A) (A) (A) (A) (A)
                 (A) (A) (A) (A) (A) (A) (A) (A) (A) (A) (A) (A)
                 (A) (A) (A) (A) (A) (A) (A) (A) (A) (A) (A) (A)
                 (A) (A) (A) (A) (A) (A) (A) (A) (A) (A) (A) (A)
                 (A) (A) (A) (A) (A) (A) (A) (A) (A) (A) (A) (A)
                 (A) (A) (A) (A) (A) (A) (A) (A) (A) (A) (A) (A)
                 (A) (A) (A) (A) (A) (A) (A) (A) (A) (A) (A) (A)
                 (A) (A) (A) (A) (A) (A) (A) (A) (A) (A) (A) (A)
                 (A) (A) (A) (A) (A) (A) (A) (A) (A) (A) (A) (A)
                 (A) (A) (A) (A) (A) (A) (A) (A) (A) (A) (A) (A)
                 (A) (A) (A) (A) (A) (A) (A) (A) (A) (A) (A) (A)
                 (A) (A) (A) (A) (A) (A) (A) (A) (A) (A) (A) (A)
                 (A) (A) (A) (A) (A) (A) (A) (A) (A) (A) (A) (A)
                 (A) (A) (A) (A) (A) (A) (A) (A) (A) (A) (A) (A)
                 (A) (A) (A) (A) (A) (A) (A) (A) (A) (A) (A) (A)
                 (A) (A) (A) (A) (A) (A) (A) (A) (A) (A) (A) (A)
                 (A) (A) (A) (A) (A) (A) (A) (A) (A) (A) (A) (A)
                 (A) (A) (A) (A) (A) (A) (A) (A) (A) (A) (A) (A)
                 (A) (A) (A) (A) (A) (A) (A) (A) (A) (A) (A) (A)
                 (A) (A) (A) (A) (A) (A) (A) (A) (A) (A) (A) (A)
                 (A) (A) (A) (A) (A) (A) (A) (A) (A) (A) (A) (A)
                 (A) (A) (A) (A) (A) (A) (A) (A) (A) (A) (A) (A)
                 (A) (A) (A) (A) (A) (A) (A) (A) (A) (A) (A) (A)
                 (A) (A) (A) (A) (A) (A) (A) (A)
    20 initial guesses have been made.
 Convergence on wavefunction:    0.001000000000000
 Davidson Disk Diagonalization:  ConvIn= 1.00D-03 SkipCon=T Conv= 1.00D-03.
 Max sub-space:  2000 roots to seek:    20 dimension of matrix:       370304
 Iteration     1 Dimension    20 NMult     0 NNew     20
 CISAX will form    20 AO SS matrices at one time.
 NMat=    20 NSing=    20 JSym2X= 0.
 FoFJK:  IHMeth= 1 ICntrl=       0 DoSepK=F KAlg= 0 I1Cent=           0 FoldK=F
 IRaf= 500000000 NMat=      40 IRICut=       1 DoRegI=T DoRafI=F ISym2E= 0 IDoP0=3 IntGTp=3.
 FoFCou: FMM=T IPFlag=           0 FMFlag=      100000 FMFlg1=        2001
         NFxFlg=           0 DoJE=F BraDBF=F KetDBF=F FulRan=T
         wScrn=  0.000000 ICntrl=         0 IOpCl=  0 I1Cent=           0 NGrid=           0
         NMat0=   40 NMatS0=     20 NMatT0=    0 NMatD0=   40 NMtDS0=    0 NMtDT0=    0
 Symmetry not used in FoFCou.
 FMM levels:  10  Number of levels for PrismC:   9
 New state      3 was old state      4
 New state      4 was old state      9
 New state      5 was old state      7
 Excitation Energies [eV] at current iteration:
 Root      1 :     2.228537757354806
 Root      2 :     2.554749094904766
 Root      3 :     3.190138689340516
 Root      4 :     3.315924626446298
 Root      5 :     3.504027115283342
 Root      6 :     3.641232163944962
 Root      7 :     3.650212991238395
 Root      8 :     3.740553457104685
 Root      9 :     3.849974514125861
 Root     10 :     3.984866857425274
 Root     11 :     4.075314478674837
 Root     12 :     4.111637835925486
 Root     13 :     4.178943390412438
 Root     14 :     4.209409671300852
 Root     15 :     4.324310888396223
 Root     16 :     4.472271278820794
 Root     17 :     4.599868509864692
 Root     18 :     4.701515102842681
 Root     19 :     4.739683735456232
 Root     20 :     4.829155163329570
 Iteration     2 Dimension    30 NMult    20 NNew     10
 CISAX will form    10 AO SS matrices at one time.
 NMat=    10 NSing=    10 JSym2X= 0.
 Root      1 not converged, maximum delta is    0.054273016707646
 Root      2 not converged, maximum delta is    0.055068330347560
 Root      3 not converged, maximum delta is    0.152034675427377
 Root      4 not converged, maximum delta is    0.110094517686013
 Root      5 not converged, maximum delta is    0.059051601251298
 Excitation Energies [eV] at current iteration:
 Root      1 :     1.891934313132090   Change is   -0.336603444222716
 Root      2 :     2.272696236227329   Change is   -0.282052858677437
 Root      3 :     3.038416142865963   Change is   -0.151722546474553
 Root      4 :     3.198132864105003   Change is   -0.117791762341296
 Root      5 :     3.237589824882240   Change is   -0.266437290401102
 Iteration     3 Dimension    40 NMult    30 NNew     10
 CISAX will form    10 AO SS matrices at one time.
 NMat=    10 NSing=    10 JSym2X= 0.
 Root      1 not converged, maximum delta is    0.024375164780047
 Root      2 not converged, maximum delta is    0.024435373852450
 Root      3 not converged, maximum delta is    0.019603831837543
 Root      4 not converged, maximum delta is    0.028676565847910
 Root      5 not converged, maximum delta is    0.014872486908569
 Excitation Energies [eV] at current iteration:
 Root      1 :     1.859274733337209   Change is   -0.032659579794881
 Root      2 :     2.254417492771684   Change is   -0.018278743455645
 Root      3 :     3.023381263882810   Change is   -0.015034878983154
 Root      4 :     3.178417753618459   Change is   -0.019715110486544
 Root      5 :     3.225292087465284   Change is   -0.012297737416955
 Iteration     4 Dimension    50 NMult    40 NNew     10
 CISAX will form    10 AO SS matrices at one time.
 NMat=    10 NSing=    10 JSym2X= 0.
 Root      1 not converged, maximum delta is    0.003465768335817
 Root      2 not converged, maximum delta is    0.005224312589373
 Root      3 not converged, maximum delta is    0.008871735432606
 Root      4 not converged, maximum delta is    0.007608093214648
 Root      5 not converged, maximum delta is    0.010209740864498
 Excitation Energies [eV] at current iteration:
 Root      1 :     1.855727513435443   Change is   -0.003547219901766
 Root      2 :     2.252074312039738   Change is   -0.002343180731946
 Root      3 :     3.021700832702772   Change is   -0.001680431180038
 Root      4 :     3.176619833872856   Change is   -0.001797919745603
 Root      5 :     3.222859287080023   Change is   -0.002432800385261
 Iteration     5 Dimension    60 NMult    50 NNew     10
 CISAX will form    10 AO SS matrices at one time.
 NMat=    10 NSing=    10 JSym2X= 0.
 Root      1 has converged.
 Root      2 has converged.
 Root      3 has converged.
 Root      4 not converged, maximum delta is    0.002531097037364
 Root      5 not converged, maximum delta is    0.005151152837345
 Excitation Energies [eV] at current iteration:
 Root      1 :     1.855324920460599   Change is   -0.000402592974844
 Root      2 :     2.251846878431266   Change is   -0.000227433608472
 Root      3 :     3.021524929608199   Change is   -0.000175903094573
 Root      4 :     3.176387437502263   Change is   -0.000232396370593
 Root      5 :     3.222504610332311   Change is   -0.000354676747712
 Iteration     6 Dimension    64 NMult    60 NNew      4
 CISAX will form     4 AO SS matrices at one time.
 NMat=     4 NSing=     4 JSym2X= 0.
 Root      1 has converged.
 Root      2 has converged.
 Root      3 has converged.
 Root      4 not converged, maximum delta is    0.001299557627339
 Root      5 not converged, maximum delta is    0.003041186944616
 Excitation Energies [eV] at current iteration:
 Root      1 :     1.855322499641526   Change is   -0.000002420819073
 Root      2 :     2.251845764273906   Change is   -0.000001114157360
 Root      3 :     3.021524105357060   Change is   -0.000000824251139
 Root      4 :     3.176349809222470   Change is   -0.000037628279794
 Root      5 :     3.222440574151658   Change is   -0.000064036180654
 Iteration     7 Dimension    68 NMult    64 NNew      4
 CISAX will form     4 AO SS matrices at one time.
 NMat=     4 NSing=     4 JSym2X= 0.
 Root      1 has converged.
 Root      2 has converged.
 Root      3 has converged.
 Root      4 has converged.
 Root      5 not converged, maximum delta is    0.002146426701816
 Excitation Energies [eV] at current iteration:
 Root      1 :     1.855319243489455   Change is   -0.000003256152071
 Root      2 :     2.251845337157549   Change is   -0.000000427116357
 Root      3 :     3.021523794671160   Change is   -0.000000310685900
 Root      4 :     3.176344884791125   Change is   -0.000004924431345
 Root      5 :     3.222424786668977   Change is   -0.000015787482681
 Iteration     8 Dimension    70 NMult    68 NNew      2
 CISAX will form     2 AO SS matrices at one time.
 NMat=     2 NSing=     2 JSym2X= 0.
 Root      1 has converged.
 Root      2 has converged.
 Root      3 has converged.
 Root      4 has converged.
 Root      5 has converged.
 Excitation Energies [eV] at current iteration:
 Root      1 :     1.855318984761943   Change is   -0.000000258727512
 Root      2 :     2.251845292730315   Change is   -0.000000044427234
 Root      3 :     3.021523692518181   Change is   -0.000000102152980
 Root      4 :     3.176344287094634   Change is   -0.000000597696491
 Root      5 :     3.222420971292419   Change is   -0.000003815376559
 Convergence achieved on expansion vectors.
 ***********************************************************************
 Excited states from <AA,BB:AA,BB> singles matrix:
 ***********************************************************************
 
 1PDM for each excited state written to RWF  633
 Ground to excited state transition densities written to RWF  633
 Ground to excited state transition electric dipole moments (Au):
       state          X           Y           Z        Dip. S.      Osc.
         1         1.1241      2.6670     -0.1135      8.3895      0.3813
         2        -1.1871      0.8220      0.0405      2.0866      0.1151
         3        -0.0544      0.0008     -0.0069      0.0030      0.0002
         4        -0.1775      0.1302      0.0044      0.0485      0.0038
         5        -0.1686     -0.0180     -0.0248      0.0294      0.0023
 Ground to excited state transition velocity dipole moments (Au):
       state          X           Y           Z        Dip. S.      Osc.
         1        -0.0752     -0.1763      0.0065      0.0368      0.3595
         2         0.0934     -0.0648     -0.0022      0.0129      0.1041
         3         0.0047     -0.0005     -0.0008      0.0000      0.0001
         4         0.0243     -0.0121      0.0017      0.0007      0.0042
         5         0.0202      0.0021      0.0026      0.0004      0.0024
 Ground to excited state transition magnetic dipole moments (Au):
       state          X           Y           Z
         1         0.0455      0.0307      2.1152
         2        -0.0095      0.0150      0.2822
         3        -0.0094     -0.5440      0.0327
         4        -0.3132      0.2356      0.3918
         5         0.1079     -0.0744      0.8959
 Ground to excited state transition velocity quadrupole moments (Au):
       state          XX          YY          ZZ          XY          XZ          YZ
         1         1.5620     -0.4854      0.0261      1.6505     -0.1159     -0.1341
         2        -1.7782     -0.1031      0.0183      0.7190      0.0355     -0.0484
         3        -0.0883      0.0325      0.0029      0.0073      0.0161     -0.0025
         4        -0.4549      0.0801      0.0157      0.2532     -0.0277      0.0063
         5        -0.5101      0.3683     -0.0054     -0.2096      0.0309      0.0392
 <0|del|b> * <b|rxdel|0> + <0|del|b> * <b|delr+rdel|0>
 Rotatory Strengths (R) in cgs (10**-40 erg-esu-cm/Gauss)
       state          XX          YY          ZZ    R(velocity)    E-M Angle
         1        -7.0168     50.2326      7.7909     17.0022       89.31
         2        -3.7097    -19.0318      1.5612     -7.0601       94.42
         3         0.7163     -0.2458      0.6719      0.3808       86.07
         4        -6.2666    -21.8834    -31.1667    -19.7722      130.45
         5         4.6186     17.3907      3.8698      8.6264       76.49
 1/2[<0|r|b>*<b|rxdel|0> + (<0|rxdel|b>*<b|r|0>)*]
 Rotatory Strengths (R) in cgs (10**-40 erg-esu-cm/Gauss)
       state          XX          YY          ZZ     R(length)
         1       -36.1444    -57.9805    169.8215     25.2322
         2        -7.9726     -8.7328     -8.0814     -8.2623
         3        -0.3618      0.3028      0.1586      0.0332
         4       -39.3187    -21.6965     -1.2242    -20.7465
         5        12.8583     -0.9443     15.6942      9.2027
  1/2[<0|del|b>*<b|r|0> + (<0|r|b>*<b|del|0>)*] (Au)
       state          X           Y           Z        Dip. S.   Osc.(frdel)
         1        -0.0845     -0.4701     -0.0007      0.5554      0.3703
         2        -0.1109     -0.0532     -0.0001      0.1642      0.1095
         3        -0.0003     -0.0000      0.0000      0.0003      0.0002
         4        -0.0043     -0.0016      0.0000      0.0059      0.0039
         5        -0.0034     -0.0000     -0.0001      0.0035      0.0023

 Excitation energies and oscillator strengths:
 
 Excited State   1:      Singlet-A      1.8553 eV  668.26 nm  f=0.3813  <S**2>=0.000
     245 -> 248       -0.17339
     246 -> 247        0.69309
     246 <- 247       -0.10884
 This state for optimization and/or second-order correction.
 Total Energy, E(TD-HF/TD-DFT) =  -3005.28110212    
 Copying the excited state density for this state as the 1-particle RhoCI density.
 
 Excited State   2:      Singlet-A      2.2518 eV  550.59 nm  f=0.1151  <S**2>=0.000
     245 -> 247        0.65154
     246 -> 248        0.26391
 
 Excited State   3:      Singlet-A      3.0215 eV  410.34 nm  f=0.0002  <S**2>=0.000
     242 -> 247        0.23519
     244 -> 247        0.61550
     244 -> 249       -0.17665
 
 Excited State   4:      Singlet-A      3.1763 eV  390.34 nm  f=0.0038  <S**2>=0.000
     240 -> 247        0.55724
     240 -> 249        0.12056
     240 -> 250        0.10483
     241 -> 247        0.32193
     242 -> 247       -0.14613
 
 Excited State   5:      Singlet-A      3.2224 eV  384.75 nm  f=0.0023  <S**2>=0.000
     240 -> 247       -0.13639
     241 -> 247        0.42773
     242 -> 247        0.46988
     244 -> 247       -0.25455
 SavETr:  write IOETrn=   770 NScale= 10 NData=  16 NLR=1 NState=    5 LETran=     100.
 Leave Link  914 at Wed Apr 27 12:25:13 2022, MaxMem= 10066329600 cpu:           19150.3 elap:             799.8
 (Enter /sw/apps/gaussian-16.0/g16/l601.exe)
 Copying SCF densities to generalized density rwf, IOpCl= 0 IROHF=0.
 Hyperfine terms turned off by default for NAtoms > 100.

 **********************************************************************

            Population analysis using the SCF density.

 **********************************************************************

 Orbital symmetries:
       Occupied  (A) (A) (A) (A) (A) (A) (A) (A) (A) (A) (A) (A)
                 (A) (A) (A) (A) (A) (A) (A) (A) (A) (A) (A) (A)
                 (A) (A) (A) (A) (A) (A) (A) (A) (A) (A) (A) (A)
                 (A) (A) (A) (A) (A) (A) (A) (A) (A) (A) (A) (A)
                 (A) (A) (A) (A) (A) (A) (A) (A) (A) (A) (A) (A)
                 (A) (A) (A) (A) (A) (A) (A) (A) (A) (A) (A) (A)
                 (A) (A) (A) (A) (A) (A) (A) (A) (A) (A) (A) (A)
                 (A) (A) (A) (A) (A) (A) (A) (A) (A) (A) (A) (A)
                 (A) (A) (A) (A) (A) (A) (A) (A) (A) (A) (A) (A)
                 (A) (A) (A) (A) (A) (A) (A) (A) (A) (A) (A) (A)
                 (A) (A) (A) (A) (A) (A) (A) (A) (A) (A) (A) (A)
                 (A) (A) (A) (A) (A) (A) (A) (A) (A) (A) (A) (A)
                 (A) (A) (A) (A) (A) (A) (A) (A) (A) (A) (A) (A)
                 (A) (A) (A) (A) (A) (A) (A) (A) (A) (A) (A) (A)
                 (A) (A) (A) (A) (A) (A) (A) (A) (A) (A) (A) (A)
                 (A) (A) (A) (A) (A) (A) (A) (A) (A) (A) (A) (A)
                 (A) (A) (A) (A) (A) (A) (A) (A) (A) (A) (A) (A)
                 (A) (A) (A) (A) (A) (A) (A) (A) (A) (A) (A) (A)
                 (A) (A) (A) (A) (A) (A) (A) (A) (A) (A) (A) (A)
                 (A) (A) (A) (A) (A) (A) (A) (A) (A) (A) (A) (A)
                 (A) (A) (A) (A) (A) (A)
       Virtual   (A) (A) (A) (A) (A) (A) (A) (A) (A) (A) (A) (A)
                 (A) (A) (A) (A) (A) (A) (A) (A) (A) (A) (A) (A)
                 (A) (A) (A) (A) (A) (A) (A) (A) (A) (A) (A) (A)
                 (A) (A) (A) (A) (A) (A) (A) (A) (A) (A) (A) (A)
                 (A) (A) (A) (A) (A) (A) (A) (A) (A) (A) (A) (A)
                 (A) (A) (A) (A) (A) (A) (A) (A) (A) (A) (A) (A)
                 (A) (A) (A) (A) (A) (A) (A) (A) (A) (A) (A) (A)
                 (A) (A) (A) (A) (A) (A) (A) (A) (A) (A) (A) (A)
                 (A) (A) (A) (A) (A) (A) (A) (A) (A) (A) (A) (A)
                 (A) (A) (A) (A) (A) (A) (A) (A) (A) (A) (A) (A)
                 (A) (A) (A) (A) (A) (A) (A) (A) (A) (A) (A) (A)
                 (A) (A) (A) (A) (A) (A) (A) (A) (A) (A) (A) (A)
                 (A) (A) (A) (A) (A) (A) (A) (A) (A) (A) (A) (A)
                 (A) (A) (A) (A) (A) (A) (A) (A) (A) (A) (A) (A)
                 (A) (A) (A) (A) (A) (A) (A) (A) (A) (A) (A) (A)
                 (A) (A) (A) (A) (A) (A) (A) (A) (A) (A) (A) (A)
                 (A) (A) (A) (A) (A) (A) (A) (A) (A) (A) (A) (A)
                 (A) (A) (A) (A) (A) (A) (A) (A) (A) (A) (A) (A)
                 (A) (A) (A) (A) (A) (A) (A) (A) (A) (A) (A) (A)
                 (A) (A) (A) (A) (A) (A) (A) (A) (A) (A) (A) (A)
                 (A) (A) (A) (A) (A) (A) (A) (A) (A) (A) (A) (A)
                 (A) (A) (A) (A) (A) (A) (A) (A) (A) (A) (A) (A)
                 (A) (A) (A) (A) (A) (A) (A) (A) (A) (A) (A) (A)
                 (A) (A) (A) (A) (A) (A) (A) (A) (A) (A) (A) (A)
                 (A) (A) (A) (A) (A) (A) (A) (A) (A) (A) (A) (A)
                 (A) (A) (A) (A) (A) (A) (A) (A) (A) (A) (A) (A)
                 (A) (A) (A) (A) (A) (A) (A) (A) (A) (A) (A) (A)
                 (A) (A) (A) (A) (A) (A) (A) (A) (A) (A) (A) (A)
                 (A) (A) (A) (A) (A) (A) (A) (A) (A) (A) (A) (A)
                 (A) (A) (A) (A) (A) (A) (A) (A) (A) (A) (A) (A)
                 (A) (A) (A) (A) (A) (A) (A) (A) (A) (A) (A) (A)
                 (A) (A) (A) (A) (A) (A) (A) (A) (A) (A) (A) (A)
                 (A) (A) (A) (A) (A) (A) (A) (A) (A) (A) (A) (A)
                 (A) (A) (A) (A) (A) (A) (A) (A) (A) (A) (A) (A)
                 (A) (A) (A) (A) (A) (A) (A) (A) (A) (A) (A) (A)
                 (A) (A) (A) (A) (A) (A) (A) (A) (A) (A) (A) (A)
                 (A) (A) (A) (A) (A) (A) (A) (A) (A) (A) (A) (A)
                 (A) (A) (A) (A) (A) (A) (A) (A) (A) (A) (A) (A)
                 (A) (A) (A) (A) (A) (A) (A) (A) (A) (A) (A) (A)
[...]
 Alpha virt. eigenvalues --    1.13125   1.13268   1.13931   1.14267   1.14642
 Alpha virt. eigenvalues --    1.15300   1.16100   1.16361   1.16721   1.16991
 Alpha virt. eigenvalues --    1.17202   1.17823   1.18299   1.18557   1.18591
 Alpha virt. eigenvalues --    1.19362   1.20204   1.20882   1.21352   1.22053
 Alpha virt. eigenvalues --    1.22182   1.23004   1.23390   1.24745   1.25057
 Alpha virt. eigenvalues --    1.25828   1.26040   1.26180   1.26344   1.26552
 Alpha virt. eigenvalues --    1.26711   1.27123   1.27748   1.27873   1.29197
 Alpha virt. eigenvalues --    1.29692   1.29744   1.30286   1.30379   1.30696
 Alpha virt. eigenvalues --    1.30968   1.31139   1.31632   1.32062   1.32588
 Alpha virt. eigenvalues --    1.32722   1.33361   1.33665   1.33907   1.34528
 Alpha virt. eigenvalues --    1.34605   1.34731   1.35324   1.35506   1.36149
 Alpha virt. eigenvalues --    1.36586   1.36967   1.37338   1.37524   1.37900
 Alpha virt. eigenvalues --    1.38103   1.39055   1.39147   1.39465   1.39945
 Alpha virt. eigenvalues --    1.40157   1.40470   1.40680   1.41541   1.41658
 Alpha virt. eigenvalues --    1.42129   1.42225   1.42710   1.43260   1.44120
 Alpha virt. eigenvalues --    1.44723   1.44775   1.45064   1.45421   1.45979
 Alpha virt. eigenvalues --    1.46598   1.47079   1.47324   1.47414   1.48426
 Alpha virt. eigenvalues --    1.49320   1.49462   1.49658   1.49794   1.49916
 Alpha virt. eigenvalues --    1.50451   1.51500   1.52115   1.52355   1.52442
 Alpha virt. eigenvalues --    1.52719   1.52981   1.53294   1.53659   1.53771
 Alpha virt. eigenvalues --    1.53963   1.54060   1.54284   1.54324   1.54764
 Alpha virt. eigenvalues --    1.55092   1.55190   1.55261   1.55528   1.55628
 Alpha virt. eigenvalues --    1.55655   1.56056   1.56312   1.56540   1.56862
 Alpha virt. eigenvalues --    1.57035   1.57615   1.58255   1.58395   1.58968
 Alpha virt. eigenvalues --    1.59179   1.59571   1.59826   1.60384   1.60792
 Alpha virt. eigenvalues --    1.60977   1.61730   1.61869   1.61966   1.62189
 Alpha virt. eigenvalues --    1.62839   1.62890   1.63218   1.63380   1.64888
 Alpha virt. eigenvalues --    1.65254   1.65922   1.66789   1.67012   1.67519
 Alpha virt. eigenvalues --    1.67915   1.67980   1.68255   1.69545   1.70055
 Alpha virt. eigenvalues --    1.70585   1.70680   1.70986   1.71099   1.71223
 Alpha virt. eigenvalues --    1.71362   1.72231   1.72375   1.72383   1.72592
 Alpha virt. eigenvalues --    1.72869   1.72928   1.73401   1.73571   1.73830
 Alpha virt. eigenvalues --    1.74276   1.74542   1.74957   1.75135   1.75425
 Alpha virt. eigenvalues --    1.75579   1.75764   1.75837   1.75875   1.76374
 Alpha virt. eigenvalues --    1.76730   1.76947   1.77041   1.77063   1.77372
 Alpha virt. eigenvalues --    1.77801   1.77869   1.78153   1.78215   1.78504
 Alpha virt. eigenvalues --    1.78592   1.78909   1.79143   1.79246   1.79779
 Alpha virt. eigenvalues --    1.79996   1.80068   1.80407   1.80424   1.80524
 Alpha virt. eigenvalues --    1.80667   1.80806   1.81098   1.81221   1.81341
 Alpha virt. eigenvalues --    1.81770   1.82145   1.82241   1.82433   1.82593
 Alpha virt. eigenvalues --    1.82738   1.83189   1.83468   1.83813   1.84011
 Alpha virt. eigenvalues --    1.84042   1.84306   1.84445   1.84555   1.84982
 Alpha virt. eigenvalues --    1.85220   1.85757   1.85922   1.86237   1.86337
 Alpha virt. eigenvalues --    1.86516   1.86626   1.86679   1.87043   1.87198
 Alpha virt. eigenvalues --    1.87511   1.87564   1.88072   1.88089   1.88569
 Alpha virt. eigenvalues --    1.88788   1.88897   1.89117   1.89408   1.89544
 Alpha virt. eigenvalues --    1.89652   1.89967   1.90086   1.90420   1.90460
 Alpha virt. eigenvalues --    1.90626   1.90763   1.90876   1.91704   1.91754
 Alpha virt. eigenvalues --    1.92182   1.92299   1.92767   1.93254   1.93467
 Alpha virt. eigenvalues --    1.93519   1.94189   1.94237   1.94495   1.94689
 Alpha virt. eigenvalues --    1.94954   1.95222   1.95360   1.95789   1.95867
 Alpha virt. eigenvalues --    1.95937   1.96268   1.96292   1.96990   1.97215
 Alpha virt. eigenvalues --    1.97452   1.97528   1.97964   1.98121   1.98348
 Alpha virt. eigenvalues --    1.98569   1.98933   1.99243   1.99304   1.99605
 Alpha virt. eigenvalues --    1.99998   2.00510   2.00673   2.00770   2.00779
 Alpha virt. eigenvalues --    2.01443   2.01715   2.01876   2.02339   2.02488
 Alpha virt. eigenvalues --    2.02617   2.02866   2.03020   2.03131   2.04459
 Alpha virt. eigenvalues --    2.04512   2.05305   2.05341   2.05693   2.06111
 Alpha virt. eigenvalues --    2.06273   2.06443   2.06651   2.07152   2.07290
 Alpha virt. eigenvalues --    2.07723   2.07831   2.08294   2.08516   2.09027
 Alpha virt. eigenvalues --    2.09152   2.09295   2.09673   2.10007   2.10330
 Alpha virt. eigenvalues --    2.10480   2.10828   2.10970   2.11270   2.11458
 Alpha virt. eigenvalues --    2.11771   2.11913   2.12432   2.12851   2.13203
 Alpha virt. eigenvalues --    2.13913   2.13949   2.14343   2.14644   2.15076
 Alpha virt. eigenvalues --    2.15696   2.15856   2.16266   2.16517   2.16891
 Alpha virt. eigenvalues --    2.16925   2.17357   2.17820   2.18071   2.18281
 Alpha virt. eigenvalues --    2.18369   2.18887   2.19282   2.19707   2.20478
 Alpha virt. eigenvalues --    2.21418   2.21952   2.22225   2.22535   2.23023
 Alpha virt. eigenvalues --    2.23568   2.23960   2.24465   2.24630   2.25055
 Alpha virt. eigenvalues --    2.25694   2.25846   2.25973   2.26086   2.26507
 Alpha virt. eigenvalues --    2.26973   2.27590   2.27801   2.28475   2.29320
 Alpha virt. eigenvalues --    2.29428   2.30747   2.31073   2.31218   2.31313
 Alpha virt. eigenvalues --    2.31846   2.32277   2.33018   2.33309   2.33502
 Alpha virt. eigenvalues --    2.34138   2.34189   2.34516   2.34574   2.34712
 Alpha virt. eigenvalues --    2.35028   2.35129   2.35525   2.35677   2.36404
 Alpha virt. eigenvalues --    2.36820   2.37233   2.37296   2.37973   2.38090
 Alpha virt. eigenvalues --    2.38472   2.38595   2.38886   2.39037   2.39493
 Alpha virt. eigenvalues --    2.39806   2.40151   2.40663   2.40779   2.41375
 Alpha virt. eigenvalues --    2.41765   2.41921   2.42036   2.42587   2.43221
 Alpha virt. eigenvalues --    2.43644   2.43689   2.44277   2.44605   2.44881
 Alpha virt. eigenvalues --    2.45256   2.46088   2.46193   2.46778   2.46915
 Alpha virt. eigenvalues --    2.47512   2.47919   2.48302   2.48392   2.48728
 Alpha virt. eigenvalues --    2.49467   2.49778   2.50368   2.51041   2.51698
 Alpha virt. eigenvalues --    2.51901   2.52099   2.52538   2.52888   2.53132
 Alpha virt. eigenvalues --    2.53858   2.54318   2.54353   2.55576   2.55817
 Alpha virt. eigenvalues --    2.56104   2.56415   2.56569   2.56722   2.57524
 Alpha virt. eigenvalues --    2.57842   2.58543   2.58718   2.59363   2.59461
 Alpha virt. eigenvalues --    2.59913   2.60276   2.60629   2.61251   2.61893
 Alpha virt. eigenvalues --    2.62095   2.62464   2.62543   2.62860   2.62985
 Alpha virt. eigenvalues --    2.63374   2.64384   2.64489   2.64875   2.65341
 Alpha virt. eigenvalues --    2.65403   2.66028   2.66403   2.66731   2.67849
 Alpha virt. eigenvalues --    2.69068   2.69134   2.69276   2.69556   2.69716
 Alpha virt. eigenvalues --    2.70016   2.70268   2.70879   2.71599   2.71841
 Alpha virt. eigenvalues --    2.72437   2.72988   2.73263   2.73872   2.74016
 Alpha virt. eigenvalues --    2.74548   2.74933   2.75748   2.75851   2.76247
 Alpha virt. eigenvalues --    2.76505   2.77252   2.78070   2.78261   2.78516
 Alpha virt. eigenvalues --    2.79316   2.79636   2.80234   2.80311   2.80721
 Alpha virt. eigenvalues --    2.81933   2.82442   2.82531   2.82802   2.83247
 Alpha virt. eigenvalues --    2.83806   2.83884   2.84510   2.85268   2.86871
 Alpha virt. eigenvalues --    2.87298   2.87383   2.87981   2.88185   2.88757
 Alpha virt. eigenvalues --    2.89550   2.89951   2.90935   2.91616   2.91945
 Alpha virt. eigenvalues --    2.92045   2.92209   2.92387   2.92871   2.93231
 Alpha virt. eigenvalues --    2.93476   2.93710   2.94061   2.94139   2.94280
 Alpha virt. eigenvalues --    2.94623   2.94679   2.94990   2.95160   2.95760
 Alpha virt. eigenvalues --    2.95816   2.96268   2.96332   2.96387   2.96620
 Alpha virt. eigenvalues --    2.96767   2.97113   2.97336   2.97865   2.98418
 Alpha virt. eigenvalues --    2.98645   2.98973   2.99057   2.99486   2.99497
 Alpha virt. eigenvalues --    2.99522   3.00002   3.00345   3.00506   3.00613
 Alpha virt. eigenvalues --    3.01111   3.01662   3.02694   3.03209   3.03734
 Alpha virt. eigenvalues --    3.03862   3.04077   3.04767   3.05026   3.05079
 Alpha virt. eigenvalues --    3.05744   3.06679   3.07079   3.07310   3.07501
 Alpha virt. eigenvalues --    3.07634   3.08143   3.08306   3.08683   3.09734
 Alpha virt. eigenvalues --    3.10496   3.10563   3.11001   3.11530   3.11695
 Alpha virt. eigenvalues --    3.12662   3.12844   3.13219   3.13344   3.14912
 Alpha virt. eigenvalues --    3.15245   3.15403   3.15575   3.15875   3.17717
 Alpha virt. eigenvalues --    3.19490   3.19810   3.20694   3.21538   3.26073
 Alpha virt. eigenvalues --    3.26657   3.27846   3.37221   3.39805   3.40692
 Alpha virt. eigenvalues --    3.43998   3.45519   3.48168   3.49164   3.54232
 Alpha virt. eigenvalues --    3.55662   3.58828   3.62583   3.63140   3.63290
 Alpha virt. eigenvalues --    3.65212   3.68115
          Condensed to atoms (all electrons):
 Mulliken charges:
               1
     1  Mg   0.994444
     2  C   -0.024974
     3  C   -0.099056
     4  C   -0.035788
     5  C   -0.074244
     6  N   -0.399932
     7  C    0.020074
     8  C   -0.057592
     9  C   -0.160887
    10  C    0.151398
    11  C    0.003124
    12  C    0.031694
    13  C   -0.029978
    14  C    0.226945
    15  O   -0.307119
    16  O   -0.338530
    17  N   -0.518373
    18  C    0.172427
    19  C   -0.204315
    20  C   -0.094549
    21  C    0.104445
    22  C    0.067729
    23  C    0.044704
    24  O   -0.254860
    25  C    0.010659
    26  N   -0.341511
    27  C    0.062148
    28  C   -0.105809
    29  C   -0.035772
    30  C    0.047621
    31  C   -0.001356
    32  C   -0.017999
    33  C   -0.066581
    34  N   -0.479180
    35  C    0.131134
    36  C   -0.186859
    37  C   -0.021804
    38  C    0.116583
    39  C    0.063571
    40  C    0.133759
    41  O   -0.240255
    42  C   -0.079208
    43  C    0.296818
    44  O   -0.258850
    45  O   -0.371120
    46  C    0.114976
    47  C    0.193882
    48  C   -0.109626
    49  C   -0.223353
    50  C    0.027175
    51  C    0.020245
    52  C   -0.015454
    53  C   -0.013724
    54  C   -0.264767
    55  C    0.003108
    56  C    0.012304
    57  C   -0.055492
    58  C    0.006110
    59  C   -0.237694
    60  C   -0.015989
    61  C    0.019039
    62  C   -0.081498
    63  C    0.026481
    64  C   -0.245376
    65  C   -0.009627
    66  C   -0.043011
    67  H   -0.010060
    68  H    0.022850
    69  H    0.005103
    70  H    0.071618
    71  H    0.054449
    72  H    0.022543
    73  H    0.067450
    74  H    0.051832
    75  H    0.048923
    76  H    0.047931
    77  H    0.058616
    78  H    0.073215
    79  H    0.065539
    80  H    0.062199
    81  H    0.034707
    82  H    0.056759
    83  H    0.069306
    84  H    0.051879
    85  H    0.054309
    86  H    0.047874
    87  H    0.057485
    88  H    0.042400
    89  H    0.037711
    90  H    0.028250
    91  H    0.022291
    92  H    0.052620
    93  H    0.040604
    94  H    0.045852
    95  H    0.034310
    96  H    0.069733
    97  H    0.061099
    98  H    0.085602
    99  H    0.066443
   100  H    0.071707
   101  H    0.045938
   102  H    0.055772
   103  H    0.073059
   104  H    0.032309
   105  H    0.039170
   106  H    0.066025
   107  H    0.036722
   108  H    0.044709
   109  H    0.002116
   110  H    0.019240
   111  H    0.031578
   112  H    0.020647
   113  H    0.024071
   114  H    0.029627
   115  H    0.038552
   116  H    0.043230
   117  H    0.029411
   118  H    0.029014
   119  H    0.034633
   120  H    0.039153
   121  H    0.036659
   122  H    0.028462
   123  H    0.009809
   124  H    0.039484
   125  H    0.021893
   126  H    0.024641
   127  H    0.043458
   128  H    0.026028
   129  H    0.027457
   130  H    0.036536
   131  H    0.024392
   132  H    0.012124
   133  H    0.021504
   134  H    0.035362
   135  H    0.036894
   136  H    0.031332
   137  H    0.031588
   138  H    0.038107
   139  H    0.042239
   140  H    0.043422
 Sum of Mulliken charges =  -0.00000
 Mulliken charges with hydrogens summed into heavy atoms:
               1
     1  Mg   0.994444
     2  C   -0.024974
     3  C   -0.109116
     4  C   -0.012939
     5  C   -0.069141
     6  N   -0.399932
     7  C    0.020074
     8  C    0.014026
     9  C   -0.106438
    10  C    0.151398
    11  C    0.144949
    12  C    0.128548
    13  C    0.101852
    14  C    0.226945
    15  O   -0.307119
    16  O   -0.338530
    17  N   -0.518373
    18  C    0.172427
    19  C   -0.204315
    20  C   -0.094549
    21  C    0.104445
    22  C    0.230176
    23  C    0.044704
    24  O   -0.254860
    25  C    0.188602
    26  N   -0.341511
    27  C    0.062148
    28  C   -0.051500
    29  C    0.012102
    30  C    0.047621
    31  C    0.136239
    32  C    0.032542
    33  C    0.072495
    34  N   -0.479180
    35  C    0.131134
    36  C   -0.186859
    37  C   -0.021804
    38  C    0.116583
    39  C    0.228713
    40  C    0.133759
    41  O   -0.240255
    42  C    0.006394
    43  C    0.296818
    44  O   -0.258850
    45  O   -0.371120
    46  C    0.299064
    47  C    0.322714
    48  C   -0.077317
    49  C   -0.223353
    50  C    0.169091
    51  C    0.067070
    52  C    0.035363
    53  C    0.030993
    54  C   -0.235140
    55  C    0.114299
    56  C    0.075951
    57  C    0.020320
    58  C    0.044381
    59  C   -0.198210
    60  C    0.074004
    61  C    0.072524
    62  C   -0.020571
    63  C    0.060109
    64  C   -0.210014
    65  C    0.090187
    66  C    0.080757
 Electronic spatial extent (au):  <R**2>=         123001.3708
 Charge=             -0.0000 electrons
 Dipole moment (field-independent basis, Debye):
    X=              3.7799    Y=              3.3789    Z=             -6.1086  Tot=              7.9385
 Quadrupole moment (field-independent basis, Debye-Ang):
   XX=           -368.3338   YY=           -428.6294   ZZ=           -407.8187
   XY=            -10.7851   XZ=             14.5854   YZ=              7.4173
 Traceless Quadrupole moment (field-independent basis, Debye-Ang):
   XX=             33.2602   YY=            -27.0354   ZZ=             -6.2247
   XY=            -10.7851   XZ=             14.5854   YZ=              7.4173
 Octapole moment (field-independent basis, Debye-Ang**2):
  XXX=           -404.9744  YYY=              0.8036  ZZZ=            -34.5657  XYY=            298.5918
  XXY=            -37.6746  XXZ=           -153.8011  XZZ=             -4.8016  YZZ=             -1.8772
  YYZ=            -98.8565  XYZ=             12.2480
 Hexadecapole moment (field-independent basis, Debye-Ang**3):
 XXXX=        -131054.4190 YYYY=         -25737.9682 ZZZZ=          -7718.1118 XXXY=           -257.7923
 XXXZ=           -449.7562 YYYX=           -190.7580 YYYZ=           -239.7981 ZZZX=           -109.2128
 ZZZY=             50.2840 XXYY=         -28695.3855 XXZZ=         -24364.4324 YYZZ=          -5416.1920
 XXYZ=            -38.2985 YYXZ=            473.6626 ZZXY=             30.4563
 N-N= 9.466065619363D+03 E-N=-2.592309589531D+04  KE= 2.974992731201D+03
 Leave Link  601 at Wed Apr 27 12:25:13 2022, MaxMem= 10066329600 cpu:              10.2 elap:               0.5
 (Enter /sw/apps/gaussian-16.0/g16/l9999.exe)
 1\1\GINC-BP1-COMPUTE174\SP\RPBE1PBE TD-FC\def2SVP\C55H74Mg1N4O6\OF1564
 1\27-Apr-2022\0\\#p PBE1PBE/Def2SVP td=(nstates=5)\\step_1151_chromoph
 ore_3 TDDFT with PBE1PBE functional\\0,1\Mg,0,1.995,7.595,26.669\C,0,2
 .47,9.693,29.417\C,0,2.452,4.937,28.686\C,0,1.805,5.612,23.871\C,0,1.8
 56,10.319,24.583\N,0,2.319,7.394,28.765\C,0,2.412,8.329,29.736\C,0,2.2
 61,7.759,31.079\C,0,2.554,6.224,30.859\C,0,2.513,6.181,29.33\C,0,3.852
 ,5.629,31.563\C,0,0.873,7.99,31.768\C,0,0.879,8.308,33.324\C,0,1.879,7
 .538,34.268\O,0,3.067,7.839,34.541\O,0,1.306,6.456,34.835\N,0,2.107,5.
 589,26.344\C,0,2.273,4.629,27.307\C,0,2.176,3.323,26.76\C,0,2.163,3.41
 9,25.344\C,0,2.053,4.919,25.113\C,0,2.214,2.026,27.511\C,0,2.2,2.31,24
 .274\O,0,2.397,2.545,23.075\C,0,1.921,0.947,24.648\N,0,1.878,7.937,24.
 457\C,0,1.675,6.962,23.58\C,0,1.27,7.504,22.235\C,0,1.332,9.039,22.429
 \C,0,1.637,9.154,23.948\C,0,2.292,6.968,21.228\C,0,0.123,9.815,21.962\
 C,0,0.195,10.894,20.785\N,0,2.238,9.603,26.874\C,0,2.142,10.58,25.943\
 C,0,2.295,11.933,26.604\C,0,2.413,11.622,27.988\C,0,2.368,10.176,28.09
 3\C,0,2.137,13.263,25.956\C,0,2.662,12.126,29.32\O,0,3.01,13.236,29.76
 8\C,0,2.547,10.954,30.261\C,0,3.728,11.005,31.228\O,0,4.872,10.555,31.
 132\O,0,3.232,11.647,32.344\C,0,4.195,11.615,33.464\C,0,2.057,5.88,35.
 913\C,0,1.262,4.762,36.607\C,0,1.562,4.292,37.804\C,0,2.816,4.635,38.5
 2\C,0,0.58,3.337,38.496\C,0,0.572,1.81,38.22\C,0,0.764,0.906,39.46\C,0
 ,2.05,0.019,39.515\C,0,3.141,0.791,40.269\C,0,1.817,-1.455,39.935\C,0,
 2.916,-2.41,39.269\C,0,3.582,-3.364,40.331\C,0,5.137,-3.374,40.213\C,0
 ,5.655,-4.852,40.319\C,0,5.794,-2.445,41.305\C,0,6.402,-1.132,40.813\C
 ,0,7.906,-1.172,40.521\C,0,8.701,-0.246,41.461\C,0,9.792,0.641,40.78\C
 ,0,9.372,-1.134,42.63\H,0,2.537,4.019,29.273\H,0,1.542,4.823,23.164\H,
 0,1.899,11.212,23.956\H,0,3.041,8.274,31.64\H,0,1.775,5.524,31.162\H,0
 ,3.654,4.694,32.086\H,0,4.112,6.292,32.389\H,0,4.627,5.338,30.855\H,0,
 0.178,7.152,31.706\H,0,0.376,8.827,31.276\H,0,-0.069,8.012,33.775\H,0,
 1.009,9.377,33.491\H,0,3.152,1.586,27.172\H,0,1.352,1.394,27.301\H,0,2
 .302,2.25,28.574\H,0,1.941,0.28,23.786\H,0,0.97,0.916,25.18\H,0,2.776,
 0.688,25.272\H,0,0.305,7.051,22.006\H,0,2.265,9.438,22.03\H,0,3.17,6.5
 7,21.735\H,0,2.553,7.62,20.395\H,0,1.919,6.075,20.727\H,0,-0.381,10.24
 7,22.827\H,0,-0.67,9.117,21.695\H,0,0.449,10.468,19.814\H,0,0.921,11.6
 81,20.992\H,0,-0.788,11.366,20.793\H,0,1.716,13.142,24.958\H,0,3.131,1
 3.711,25.952\H,0,1.472,13.95,26.479\H,0,1.599,11.041,30.79\H,0,5.135,1
 2.017,33.085\H,0,4.259,10.624,33.914\H,0,3.874,12.31,34.24\H,0,2.13,6.
 741,36.578\H,0,3.052,5.512,35.661\H,0,0.488,4.358,35.954\H,0,3.35,5.49
 3,38.111\H,0,3.433,3.798,38.845\H,0,2.466,5.087,39.448\H,0,-0.423,3.71
 4,38.697\H,0,0.945,3.405,39.521\H,0,1.366,1.584,37.508\H,0,-0.28,1.491
 ,37.621\H,0,-0.12,0.272,39.525\H,0,0.744,1.532,40.352\H,0,2.475,0.058,
 38.512\H,0,2.686,1.49,40.97\H,0,3.761,1.185,39.463\H,0,3.769,0.08,40.8
 05\H,0,0.845,-1.786,39.568\H,0,1.877,-1.546,41.019\H,0,3.541,-1.781,38
 .636\H,0,2.399,-3.117,38.62\H,0,3.13,-4.346,40.471\H,0,3.391,-2.943,41
 .318\H,0,5.364,-3.075,39.19\H,0,4.808,-5.483,40.588\H,0,6.335,-5.03,41
 .152\H,0,6.142,-5.216,39.414\H,0,6.509,-3.122,41.771\H,0,5.112,-2.089,
 42.077\H,0,6.041,-0.308,41.429\H,0,5.973,-0.857,39.85\H,0,8.032,-0.905
 ,39.472\H,0,8.301,-2.188,40.503\H,0,8.013,0.492,41.873\H,0,9.533,1.681
 ,40.979\H,0,9.826,0.495,39.7\H,0,10.763,0.379,41.201\H,0,8.629,-1.837,
 43.008\H,0,9.724,-0.535,43.47\H,0,10.188,-1.68,42.158\\Version=ES64L-G
 16RevA.03\State=1-A\HF=-3005.3492838\RMSD=4.852e-09\PG=C01 [X(C55H74Mg
 1N4O6)]\\@


 THERE IS NOTHING NOBLE IN BEING SUPERIOR TO SOME OTHER MAN.
 TRUE NOBILITY IS BEING SUPERIOR TO YOUR FORMER SELF.

                                                   -- HINDU PROVERB
 Job cpu time:       0 days  6 hours 58 minutes 55.7 seconds.
 Elapsed time:       0 days  0 hours 17 minutes 31.1 seconds.
 File lengths (MBytes):  RWF=   8929 Int=      0 D2E=      0 Chk=    390 Scr=      1
 Normal termination of Gaussian 16 at Wed Apr 27 12:25:14 2022.
