 Entering Gaussian System, Link 0=g16
 Initial command:
 /sw/apps/gaussian-16.0/g16/l1.exe "/tmp/Gau-102974.inp" -scrdir="/tmp/"
 Entering Link 1 = /sw/apps/gaussian-16.0/g16/l1.exe PID=    102975.
  
 Copyright (c) 1988,1990,1992,1993,1995,1998,2003,2009,2016,
            Gaussian, Inc.  All Rights Reserved.
  
 This is part of the Gaussian(R) 16 program.  It is based on
 the Gaussian(R) 09 system (copyright 2009, Gaussian, Inc.),
 the Gaussian(R) 03 system (copyright 2003, Gaussian, Inc.),
 the Gaussian(R) 98 system (copyright 1998, Gaussian, Inc.),
 the Gaussian(R) 94 system (copyright 1995, Gaussian, Inc.),
 the Gaussian 92(TM) system (copyright 1992, Gaussian, Inc.),
 the Gaussian 90(TM) system (copyright 1990, Gaussian, Inc.),
 the Gaussian 88(TM) system (copyright 1988, Gaussian, Inc.),
 the Gaussian 86(TM) system (copyright 1986, Carnegie Mellon
 University), and the Gaussian 82(TM) system (copyright 1983,
 Carnegie Mellon University). Gaussian is a federally registered
 trademark of Gaussian, Inc.
  
 This software contains proprietary and confidential information,
 including trade secrets, belonging to Gaussian, Inc.
  
 This software is provided under written license and may be
 used, copied, transmitted, or stored only in accord with that
 written license.
  
 The following legend is applicable only to US Government
 contracts under FAR:
  
                    RESTRICTED RIGHTS LEGEND
  
 Use, reproduction and disclosure by the US Government is
 subject to restrictions as set forth in subparagraphs (a)
 and (c) of the Commercial Computer Software - Restricted
 Rights clause in FAR 52.227-19.
  
 Gaussian, Inc.
 340 Quinnipiac St., Bldg. 40, Wallingford CT 06492
  
  
 ---------------------------------------------------------------
 Warning -- This program may not be used in any manner that
 competes with the business of Gaussian, Inc. or will provide
 assistance to any competitor of Gaussian, Inc.  The licensee
 of this program is prohibited from giving any competitor of
 Gaussian, Inc. access to this program.  By using this program,
 the user acknowledges that Gaussian, Inc. is engaged in the
 business of creating and licensing software in the field of
 computational chemistry and represents and warrants to the
 licensee that it is not a competitor of Gaussian, Inc. and that
 it will not use this program in any manner prohibited above.
 ---------------------------------------------------------------
  

 Cite this work as:
 Gaussian 16, Revision A.03,
 M. J. Frisch, G. W. Trucks, H. B. Schlegel, G. E. Scuseria, 
 M. A. Robb, J. R. Cheeseman, G. Scalmani, V. Barone, 
 G. A. Petersson, H. Nakatsuji, X. Li, M. Caricato, A. V. Marenich, 
 J. Bloino, B. G. Janesko, R. Gomperts, B. Mennucci, H. P. Hratchian, 
 J. V. Ortiz, A. F. Izmaylov, J. L. Sonnenberg, D. Williams-Young, 
 F. Ding, F. Lipparini, F. Egidi, J. Goings, B. Peng, A. Petrone, 
 T. Henderson, D. Ranasinghe, V. G. Zakrzewski, J. Gao, N. Rega, 
 G. Zheng, W. Liang, M. Hada, M. Ehara, K. Toyota, R. Fukuda, 
 J. Hasegawa, M. Ishida, T. Nakajima, Y. Honda, O. Kitao, H. Nakai, 
 T. Vreven, K. Throssell, J. A. Montgomery, Jr., J. E. Peralta, 
 F. Ogliaro, M. J. Bearpark, J. J. Heyd, E. N. Brothers, K. N. Kudin, 
 V. N. Staroverov, T. A. Keith, R. Kobayashi, J. Normand, 
 K. Raghavachari, A. P. Rendell, J. C. Burant, S. S. Iyengar, 
 J. Tomasi, M. Cossi, J. M. Millam, M. Klene, C. Adamo, R. Cammi, 
 J. W. Ochterski, R. L. Martin, K. Morokuma, O. Farkas, 
 J. B. Foresman, and D. J. Fox, Gaussian, Inc., Wallingford CT, 2016.
 
 ******************************************
 Gaussian 16:  ES64L-G16RevA.03 25-Dec-2016
                 3-May-2022 
 ******************************************
 %nproc=24
 Will use up to   24 processors via shared memory.
 %mem=50gb
 --------------------
 #p ZINDO=(nstates=5)
 --------------------
 1/38=1,172=1/1;
 2/12=2,17=6,18=5,40=1/2;
 3/5=2,25=1,41=400000/1,2,3,8;
 4/5=3,35=1/1;
 5/5=2,35=1,38=5/2;
 8/6=1,108=5/1;
 9/41=5,42=1,49=10/14;
 6/7=2,8=2,9=2,10=2/1;
 99/5=1,9=1/99;
 Leave Link    1 at Tue May  3 16:53:21 2022, MaxMem=  6710886400 cpu:               1.0 elap:               0.0
 (Enter /sw/apps/gaussian-16.0/g16/l101.exe)
 ------------------------------
 step_1001_chromophore_21 ZINDO
 ------------------------------
 Symbolic Z-matrix:
 Charge =  0 Multiplicity = 1
 Mg                    15.466    51.725    25.084 
 C                     17.472    50.798    27.885 
 C                     12.857    52.187    27.278 
 C                     13.525    52.422    22.41 
 C                     17.854    50.43     23.007 
 N                     15.254    51.61     27.303 
 C                     16.242    51.304    28.277 
 C                     15.702    51.689    29.663 
 C                     14.141    51.832    29.401 
 C                     14.071    51.877    27.904 
 C                     13.267    50.741    29.969 
 C                     16.46     52.897    30.171 
 C                     16.471    53.249    31.695 
 C                     15.676    52.34     32.661 
 O                     16.087    51.28     33.179 
 O                     14.465    52.884    32.91 
 N                     13.49     52.345    24.866 
 C                     12.561    52.355    25.846 
 C                     11.268    52.681    25.382 
 C                     11.407    52.649    23.972 
 C                     12.85     52.486    23.693 
 C                     10.076    52.874    26.247 
 C                     10.369    52.702    22.854 
 O                     10.564    52.787    21.649 
 C                     8.889     52.665    23.282 
 N                     15.689    51.566    23.001 
 C                     14.795    52.051    22.116 
 C                     15.443    52.194    20.721 
 C                     16.801    51.365    20.894 
 C                     16.772    51.024    22.357 
 C                     14.706    51.664    19.457 
 C                     18.13     51.968    20.371 
 C                     18.77     51.37     19.18 
 N                     17.333    50.866    25.382 
 C                     18.167    50.365    24.436 
 C                     19.335    49.783    25.082 
 C                     19.112    49.897    26.448 
 C                     17.879    50.565    26.58 
 C                     20.462    49.07     24.342 
 C                     19.584    49.565    27.72 
 O                     20.61     49.018    28.066 
 C                     18.571    50.196    28.734 
 C                     18.105    49.099    29.489 
 O                     17.277    48.284    29.196 
 O                     18.749    49.168    30.717 
 C                     18.468    48.235    31.799 
 C                     13.626    52.098    33.885 
 C                     12.29     52.875    33.983 
 C                     11.251    52.677    34.767 
 C                     11.088    51.481    35.682 
 C                     10.049    53.582    34.533 
 C                     9.683     54.549    35.741 
 C                     9.79      56.093    35.517 
 C                     8.386     56.772    35.482 
 C                     8.424     57.942    34.497 
 C                     7.97      57.237    36.869 
 C                     6.492     56.824    37.282 
 C                     5.794     57.871    38.152 
 C                     4.385     58.135    37.592 
 C                     4.4       59.417    36.842 
 C                     3.222     57.96     38.676 
 C                     2.078     57.134    38.029 
 C                     0.709     57.59     38.564 
 C                    -0.51      57.679    37.535 
 C                    -0.511     56.398    36.585 
 C                    -0.617     59.122    36.976 
 H                     12.06     52.266    28.02 
 H                     13.017    52.725    21.492 
 H                     18.63     50.07     22.329 
 H                     15.901    50.925    30.415 
 H                     13.831    52.813    29.76 
 H                     12.729    51.211    30.792 
 H                     13.933    49.918    30.229 
 H                     12.629    50.428    29.143 
 H                     16.077    53.778    29.656 
 H                     17.483    52.689    29.856 
 H                     16.203    54.303    31.774 
 H                     17.518    53.067    31.937 
 H                     10.437    53.281    27.192 
 H                     9.5       51.958    26.382 
 H                     9.417     53.669    25.899 
 H                     8.919     51.752    23.876 
 H                     8.359     52.317    22.395 
 H                     8.67      53.56     23.863 
 H                     15.661    53.243    20.522 
 H                     16.699    50.361    20.481 
 H                     15.316    50.979    18.869 
 H                     14.48     52.505    18.801 
 H                     13.82     51.111    19.768 
 H                     18.831    52.207    21.171 
 H                     17.898    52.959    19.981 
 H                     18.832    52.062    18.341 
 H                     18.19     50.541    18.776 
 H                     19.767    50.96     19.347 
 H                     20.975    49.798    23.714 
 H                     20.032    48.292    23.712 
 H                     21.081    48.62     25.119 
 H                     19.163    50.897    29.323 
 H                     19.049    48.399    32.707 
 H                     18.648    47.222    31.44 
 H                     17.438    48.262    32.155 
 H                     14.234    52.008    34.784 
 H                     13.532    51.064    33.554 
 H                     12.244    53.659    33.227 
 H                     10.152    50.997    35.404 
 H                     11.051    51.711    36.746 
 H                     11.805    50.714    35.387 
 H                     9.173     52.948    34.393 
 H                     10.215    54.211    33.659 
 H                     10.233    54.273    36.64 
 H                     8.652     54.274    35.966 
 H                     10.266    56.196    34.541 
 H                     10.441    56.612    36.22 
 H                     7.68      56.035    35.101 
 H                     7.848     58.73     34.98 
 H                     7.963     57.725    33.533 
 H                     9.409     58.359    34.288 
 H                     8.036     58.322    36.948 
 H                     8.611     56.829    37.65 
 H                     6.574     55.981    37.968 
 H                     5.936     56.519    36.396 
 H                     6.446     58.743    38.169 
 H                     5.698     57.671    39.219 
 H                     4.069     57.545    36.733 
 H                     5.387     59.65     36.441 
 H                     4.012     60.19     37.505 
 H                     3.745     59.269    35.983 
 H                     2.719     58.875    38.99 
 H                     3.497     57.459    39.604 
 H                     2.237     56.097    38.324 
 H                     2.032     57.318    36.956 
 H                     0.789     58.589    38.993 
 H                     0.425     56.903    39.361 
 H                    -1.334     57.647    38.247 
 H                    -0.237     56.651    35.561 
 H                    -1.501     55.944    36.608 
 H                     0.124     55.625    37.017 
 H                    -1.129     59.643    37.785 
 H                    -1.191     59.257    36.059 
 H                     0.35      59.588    36.783 
 
 ITRead=  0  0  0  0  0  0  0  0  0  0  0  0  0  0  0  0  0  0  0  0
 ITRead=  0  0  0  0  0  0  0  0  0  0  0  0  0  0  0  0  0  0  0  0
 ITRead=  0  0  0  0  0  0  0  0  0  0  0  0  0  0  0  0  0  0  0  0
 ITRead=  0  0  0  0  0  0  0  0  0  0  0  0  0  0  0  0  0  0  0  0
 ITRead=  0  0  0  0  0  0  0  0  0  0  0  0  0  0  0  0  0  0  0  0
 ITRead=  0  0  0  0  0  0  0  0  0  0  0  0  0  0  0  0  0  0  0  0
 ITRead=  0  0  0  0  0  0  0  0  0  0  0  0  0  0  0  0  0  0  0  0
 MicOpt= -1 -1 -1 -1 -1 -1 -1 -1 -1 -1 -1 -1 -1 -1 -1 -1 -1 -1 -1 -1
 MicOpt= -1 -1 -1 -1 -1 -1 -1 -1 -1 -1 -1 -1 -1 -1 -1 -1 -1 -1 -1 -1
 MicOpt= -1 -1 -1 -1 -1 -1 -1 -1 -1 -1 -1 -1 -1 -1 -1 -1 -1 -1 -1 -1
 MicOpt= -1 -1 -1 -1 -1 -1 -1 -1 -1 -1 -1 -1 -1 -1 -1 -1 -1 -1 -1 -1
 MicOpt= -1 -1 -1 -1 -1 -1 -1 -1 -1 -1 -1 -1 -1 -1 -1 -1 -1 -1 -1 -1
 MicOpt= -1 -1 -1 -1 -1 -1 -1 -1 -1 -1 -1 -1 -1 -1 -1 -1 -1 -1 -1 -1
 MicOpt= -1 -1 -1 -1 -1 -1 -1 -1 -1 -1 -1 -1 -1 -1 -1 -1 -1 -1 -1 -1
 NAtoms=    140 NQM=      140 NQMF=       0 NMMI=      0 NMMIF=      0
                NMic=       0 NMicF=      0.
                    Isotopes and Nuclear Properties:
 (Nuclear quadrupole moments (NQMom) in fm**2, nuclear magnetic moments (NMagM)
  in nuclear magnetons)

  Atom         1           2           3           4           5           6           7           8           9          10
 IAtWgt=          24          12          12          12          12          14          12          12          12          12
 AtmWgt=  23.9850450  12.0000000  12.0000000  12.0000000  12.0000000  14.0030740  12.0000000  12.0000000  12.0000000  12.0000000
 NucSpn=           0           0           0           0           0           2           0           0           0           0
 AtZEff=  -0.0000000  -0.0000000  -0.0000000  -0.0000000  -0.0000000  -0.0000000  -0.0000000  -0.0000000  -0.0000000  -0.0000000
 NQMom=    0.0000000   0.0000000   0.0000000   0.0000000   0.0000000   2.0440000   0.0000000   0.0000000   0.0000000   0.0000000
 NMagM=    0.0000000   0.0000000   0.0000000   0.0000000   0.0000000   0.4037610   0.0000000   0.0000000   0.0000000   0.0000000
 AtZNuc=  12.0000000   6.0000000   6.0000000   6.0000000   6.0000000   7.0000000   6.0000000   6.0000000   6.0000000   6.0000000

  Atom        11          12          13          14          15          16          17          18          19          20
 IAtWgt=          12          12          12          12          16          16          14          12          12          12
 AtmWgt=  12.0000000  12.0000000  12.0000000  12.0000000  15.9949146  15.9949146  14.0030740  12.0000000  12.0000000  12.0000000
 NucSpn=           0           0           0           0           0           0           2           0           0           0
 AtZEff=  -0.0000000  -0.0000000  -0.0000000  -0.0000000  -0.0000000  -0.0000000  -0.0000000  -0.0000000  -0.0000000  -0.0000000
 NQMom=    0.0000000   0.0000000   0.0000000   0.0000000   0.0000000   0.0000000   2.0440000   0.0000000   0.0000000   0.0000000
 NMagM=    0.0000000   0.0000000   0.0000000   0.0000000   0.0000000   0.0000000   0.4037610   0.0000000   0.0000000   0.0000000
 AtZNuc=   6.0000000   6.0000000   6.0000000   6.0000000   8.0000000   8.0000000   7.0000000   6.0000000   6.0000000   6.0000000

  Atom        21          22          23          24          25          26          27          28          29          30
 IAtWgt=          12          12          12          16          12          14          12          12          12          12
 AtmWgt=  12.0000000  12.0000000  12.0000000  15.9949146  12.0000000  14.0030740  12.0000000  12.0000000  12.0000000  12.0000000
 NucSpn=           0           0           0           0           0           2           0           0           0           0
 AtZEff=  -0.0000000  -0.0000000  -0.0000000  -0.0000000  -0.0000000  -0.0000000  -0.0000000  -0.0000000  -0.0000000  -0.0000000
 NQMom=    0.0000000   0.0000000   0.0000000   0.0000000   0.0000000   2.0440000   0.0000000   0.0000000   0.0000000   0.0000000
 NMagM=    0.0000000   0.0000000   0.0000000   0.0000000   0.0000000   0.4037610   0.0000000   0.0000000   0.0000000   0.0000000
 AtZNuc=   6.0000000   6.0000000   6.0000000   8.0000000   6.0000000   7.0000000   6.0000000   6.0000000   6.0000000   6.0000000

  Atom        31          32          33          34          35          36          37          38          39          40
 IAtWgt=          12          12          12          14          12          12          12          12          12          12
 AtmWgt=  12.0000000  12.0000000  12.0000000  14.0030740  12.0000000  12.0000000  12.0000000  12.0000000  12.0000000  12.0000000
 NucSpn=           0           0           0           2           0           0           0           0           0           0
 AtZEff=  -0.0000000  -0.0000000  -0.0000000  -0.0000000  -0.0000000  -0.0000000  -0.0000000  -0.0000000  -0.0000000  -0.0000000
 NQMom=    0.0000000   0.0000000   0.0000000   2.0440000   0.0000000   0.0000000   0.0000000   0.0000000   0.0000000   0.0000000
 NMagM=    0.0000000   0.0000000   0.0000000   0.4037610   0.0000000   0.0000000   0.0000000   0.0000000   0.0000000   0.0000000
 AtZNuc=   6.0000000   6.0000000   6.0000000   7.0000000   6.0000000   6.0000000   6.0000000   6.0000000   6.0000000   6.0000000

  Atom        41          42          43          44          45          46          47          48          49          50
 IAtWgt=          16          12          12          16          16          12          12          12          12          12
 AtmWgt=  15.9949146  12.0000000  12.0000000  15.9949146  15.9949146  12.0000000  12.0000000  12.0000000  12.0000000  12.0000000
 NucSpn=           0           0           0           0           0           0           0           0           0           0
 AtZEff=  -0.0000000  -0.0000000  -0.0000000  -0.0000000  -0.0000000  -0.0000000  -0.0000000  -0.0000000  -0.0000000  -0.0000000
 NQMom=    0.0000000   0.0000000   0.0000000   0.0000000   0.0000000   0.0000000   0.0000000   0.0000000   0.0000000   0.0000000
 NMagM=    0.0000000   0.0000000   0.0000000   0.0000000   0.0000000   0.0000000   0.0000000   0.0000000   0.0000000   0.0000000
 AtZNuc=   8.0000000   6.0000000   6.0000000   8.0000000   8.0000000   6.0000000   6.0000000   6.0000000   6.0000000   6.0000000

  Atom        51          52          53          54          55          56          57          58          59          60
 IAtWgt=          12          12          12          12          12          12          12          12          12          12
 AtmWgt=  12.0000000  12.0000000  12.0000000  12.0000000  12.0000000  12.0000000  12.0000000  12.0000000  12.0000000  12.0000000
 NucSpn=           0           0           0           0           0           0           0           0           0           0
 AtZEff=  -0.0000000  -0.0000000  -0.0000000  -0.0000000  -0.0000000  -0.0000000  -0.0000000  -0.0000000  -0.0000000  -0.0000000
 NQMom=    0.0000000   0.0000000   0.0000000   0.0000000   0.0000000   0.0000000   0.0000000   0.0000000   0.0000000   0.0000000
 NMagM=    0.0000000   0.0000000   0.0000000   0.0000000   0.0000000   0.0000000   0.0000000   0.0000000   0.0000000   0.0000000
 AtZNuc=   6.0000000   6.0000000   6.0000000   6.0000000   6.0000000   6.0000000   6.0000000   6.0000000   6.0000000   6.0000000

  Atom        61          62          63          64          65          66          67          68          69          70
 IAtWgt=          12          12          12          12          12          12           1           1           1           1
 AtmWgt=  12.0000000  12.0000000  12.0000000  12.0000000  12.0000000  12.0000000   1.0078250   1.0078250   1.0078250   1.0078250
 NucSpn=           0           0           0           0           0           0           1           1           1           1
 AtZEff=  -0.0000000  -0.0000000  -0.0000000  -0.0000000  -0.0000000  -0.0000000  -0.0000000  -0.0000000  -0.0000000  -0.0000000
 NQMom=    0.0000000   0.0000000   0.0000000   0.0000000   0.0000000   0.0000000   0.0000000   0.0000000   0.0000000   0.0000000
 NMagM=    0.0000000   0.0000000   0.0000000   0.0000000   0.0000000   0.0000000   2.7928460   2.7928460   2.7928460   2.7928460
 AtZNuc=   6.0000000   6.0000000   6.0000000   6.0000000   6.0000000   6.0000000   1.0000000   1.0000000   1.0000000   1.0000000

  Atom        71          72          73          74          75          76          77          78          79          80
 IAtWgt=           1           1           1           1           1           1           1           1           1           1
 AtmWgt=   1.0078250   1.0078250   1.0078250   1.0078250   1.0078250   1.0078250   1.0078250   1.0078250   1.0078250   1.0078250
 NucSpn=           1           1           1           1           1           1           1           1           1           1
 AtZEff=  -0.0000000  -0.0000000  -0.0000000  -0.0000000  -0.0000000  -0.0000000  -0.0000000  -0.0000000  -0.0000000  -0.0000000
 NQMom=    0.0000000   0.0000000   0.0000000   0.0000000   0.0000000   0.0000000   0.0000000   0.0000000   0.0000000   0.0000000
 NMagM=    2.7928460   2.7928460   2.7928460   2.7928460   2.7928460   2.7928460   2.7928460   2.7928460   2.7928460   2.7928460
 AtZNuc=   1.0000000   1.0000000   1.0000000   1.0000000   1.0000000   1.0000000   1.0000000   1.0000000   1.0000000   1.0000000

  Atom        81          82          83          84          85          86          87          88          89          90
 IAtWgt=           1           1           1           1           1           1           1           1           1           1
 AtmWgt=   1.0078250   1.0078250   1.0078250   1.0078250   1.0078250   1.0078250   1.0078250   1.0078250   1.0078250   1.0078250
 NucSpn=           1           1           1           1           1           1           1           1           1           1
 AtZEff=  -0.0000000  -0.0000000  -0.0000000  -0.0000000  -0.0000000  -0.0000000  -0.0000000  -0.0000000  -0.0000000  -0.0000000
 NQMom=    0.0000000   0.0000000   0.0000000   0.0000000   0.0000000   0.0000000   0.0000000   0.0000000   0.0000000   0.0000000
 NMagM=    2.7928460   2.7928460   2.7928460   2.7928460   2.7928460   2.7928460   2.7928460   2.7928460   2.7928460   2.7928460
 AtZNuc=   1.0000000   1.0000000   1.0000000   1.0000000   1.0000000   1.0000000   1.0000000   1.0000000   1.0000000   1.0000000

  Atom        91          92          93          94          95          96          97          98          99         100
 IAtWgt=           1           1           1           1           1           1           1           1           1           1
 AtmWgt=   1.0078250   1.0078250   1.0078250   1.0078250   1.0078250   1.0078250   1.0078250   1.0078250   1.0078250   1.0078250
 NucSpn=           1           1           1           1           1           1           1           1           1           1
 AtZEff=  -0.0000000  -0.0000000  -0.0000000  -0.0000000  -0.0000000  -0.0000000  -0.0000000  -0.0000000  -0.0000000  -0.0000000
 NQMom=    0.0000000   0.0000000   0.0000000   0.0000000   0.0000000   0.0000000   0.0000000   0.0000000   0.0000000   0.0000000
 NMagM=    2.7928460   2.7928460   2.7928460   2.7928460   2.7928460   2.7928460   2.7928460   2.7928460   2.7928460   2.7928460
 AtZNuc=   1.0000000   1.0000000   1.0000000   1.0000000   1.0000000   1.0000000   1.0000000   1.0000000   1.0000000   1.0000000

  Atom       101         102         103         104         105         106         107         108         109         110
 IAtWgt=           1           1           1           1           1           1           1           1           1           1
 AtmWgt=   1.0078250   1.0078250   1.0078250   1.0078250   1.0078250   1.0078250   1.0078250   1.0078250   1.0078250   1.0078250
 NucSpn=           1           1           1           1           1           1           1           1           1           1
 AtZEff=  -0.0000000  -0.0000000  -0.0000000  -0.0000000  -0.0000000  -0.0000000  -0.0000000  -0.0000000  -0.0000000  -0.0000000
 NQMom=    0.0000000   0.0000000   0.0000000   0.0000000   0.0000000   0.0000000   0.0000000   0.0000000   0.0000000   0.0000000
 NMagM=    2.7928460   2.7928460   2.7928460   2.7928460   2.7928460   2.7928460   2.7928460   2.7928460   2.7928460   2.7928460
 AtZNuc=   1.0000000   1.0000000   1.0000000   1.0000000   1.0000000   1.0000000   1.0000000   1.0000000   1.0000000   1.0000000

  Atom       111         112         113         114         115         116         117         118         119         120
 IAtWgt=           1           1           1           1           1           1           1           1           1           1
 AtmWgt=   1.0078250   1.0078250   1.0078250   1.0078250   1.0078250   1.0078250   1.0078250   1.0078250   1.0078250   1.0078250
 NucSpn=           1           1           1           1           1           1           1           1           1           1
 AtZEff=  -0.0000000  -0.0000000  -0.0000000  -0.0000000  -0.0000000  -0.0000000  -0.0000000  -0.0000000  -0.0000000  -0.0000000
 NQMom=    0.0000000   0.0000000   0.0000000   0.0000000   0.0000000   0.0000000   0.0000000   0.0000000   0.0000000   0.0000000
 NMagM=    2.7928460   2.7928460   2.7928460   2.7928460   2.7928460   2.7928460   2.7928460   2.7928460   2.7928460   2.7928460
 AtZNuc=   1.0000000   1.0000000   1.0000000   1.0000000   1.0000000   1.0000000   1.0000000   1.0000000   1.0000000   1.0000000

  Atom       121         122         123         124         125         126         127         128         129         130
 IAtWgt=           1           1           1           1           1           1           1           1           1           1
 AtmWgt=   1.0078250   1.0078250   1.0078250   1.0078250   1.0078250   1.0078250   1.0078250   1.0078250   1.0078250   1.0078250
 NucSpn=           1           1           1           1           1           1           1           1           1           1
 AtZEff=  -0.0000000  -0.0000000  -0.0000000  -0.0000000  -0.0000000  -0.0000000  -0.0000000  -0.0000000  -0.0000000  -0.0000000
 NQMom=    0.0000000   0.0000000   0.0000000   0.0000000   0.0000000   0.0000000   0.0000000   0.0000000   0.0000000   0.0000000
 NMagM=    2.7928460   2.7928460   2.7928460   2.7928460   2.7928460   2.7928460   2.7928460   2.7928460   2.7928460   2.7928460
 AtZNuc=   1.0000000   1.0000000   1.0000000   1.0000000   1.0000000   1.0000000   1.0000000   1.0000000   1.0000000   1.0000000

  Atom       131         132         133         134         135         136         137         138         139         140
 IAtWgt=           1           1           1           1           1           1           1           1           1           1
 AtmWgt=   1.0078250   1.0078250   1.0078250   1.0078250   1.0078250   1.0078250   1.0078250   1.0078250   1.0078250   1.0078250
 NucSpn=           1           1           1           1           1           1           1           1           1           1
 AtZEff=  -0.0000000  -0.0000000  -0.0000000  -0.0000000  -0.0000000  -0.0000000  -0.0000000  -0.0000000  -0.0000000  -0.0000000
 NQMom=    0.0000000   0.0000000   0.0000000   0.0000000   0.0000000   0.0000000   0.0000000   0.0000000   0.0000000   0.0000000
 NMagM=    2.7928460   2.7928460   2.7928460   2.7928460   2.7928460   2.7928460   2.7928460   2.7928460   2.7928460   2.7928460
 AtZNuc=   1.0000000   1.0000000   1.0000000   1.0000000   1.0000000   1.0000000   1.0000000   1.0000000   1.0000000   1.0000000
 Leave Link  101 at Tue May  3 16:53:21 2022, MaxMem=  6710886400 cpu:               3.3 elap:               0.2
 (Enter /sw/apps/gaussian-16.0/g16/l202.exe)
 Stoichiometry    C55H74MgN4O6
 Framework group  C1[X(C55H74MgN4O6)]
 Deg. of freedom   414
 Full point group                 C1      NOp   1
 Largest Abelian subgroup         C1      NOp   1
 Largest concise Abelian subgroup C1      NOp   1
                         Standard orientation:                         
 ---------------------------------------------------------------------
 Center     Atomic      Atomic             Coordinates (Angstroms)
 Number     Number       Type             X           Y           Z
 ---------------------------------------------------------------------
      1         12           0        5.195765    1.196757    0.259218
      2          6           0        4.964167   -2.362262    0.165895
      3          6           0        1.837735    1.298830   -0.480493
      4          6           0        5.461559    4.561928    0.166780
      5          6           0        8.603005    0.929350    0.146485
      6          7           0        3.608121   -0.349865   -0.004363
      7          6           0        3.715686   -1.762712    0.099311
      8          6           0        2.301861   -2.358966    0.179329
      9          6           0        1.390056   -1.162880   -0.334289
     10          6           0        2.329960    0.003739   -0.275006
     11          6           0        0.787647   -1.326229   -1.708043
     12          6           0        2.068650   -2.892830    1.576646
     13          6           0        0.940461   -3.940572    1.852380
     14          6           0        0.064432   -4.401336    0.664218
     15          8           0        0.341286   -5.313601   -0.143228
     16          8           0       -1.088268   -3.697519    0.644627
     17          7           0        3.820763    2.739731    0.004072
     18          6           0        2.543041    2.588579   -0.405954
     19          6           0        1.884546    3.816308   -0.635055
     20          6           0        2.930878    4.769292   -0.561194
     21          6           0        4.132556    4.042734   -0.097792
     22          6           0        0.448197    3.960313   -0.985058
     23          6           0        2.969761    6.254676   -0.910910
     24          8           0        3.877686    7.051011   -0.713945
     25          6           0        1.709718    6.841819   -1.576123
     26          7           0        6.790122    2.564859    0.274247
     27          6           0        6.626615    3.899726    0.369539
     28          6           0        7.944288    4.572210    0.814377
     29          6           0        9.006616    3.390596    0.623112
     30          6           0        8.121115    2.234001    0.254778
     31          6           0        8.473610    5.829541    0.065577
     32          6           0       10.042962    3.113404    1.742276
     33          6           0       11.463206    3.448069    1.504385
     34          7           0        6.523456   -0.399962    0.249271
     35          6           0        7.877065   -0.342090    0.172673
     36          6           0        8.414965   -1.693815    0.111315
     37          6           0        7.315065   -2.541051    0.078243
     38          6           0        6.185082   -1.704744    0.165793
     39          6           0        9.895877   -2.024705   -0.042009
     40          6           0        6.888117   -3.863063   -0.066640
     41          8           0        7.520554   -4.895213   -0.145960
     42          6           0        5.326905   -3.827271    0.051102
     43          6           0        4.873188   -4.383162   -1.163688
     44          8           0        4.786349   -3.864275   -2.240198
     45          8           0        4.458017   -5.675280   -0.871206
     46          6           0        3.854722   -6.546007   -1.870228
     47          6           0       -2.040192   -4.106030   -0.450500
     48          6           0       -3.251993   -3.152691   -0.305894
     49          6           0       -4.403294   -3.143998   -0.944496
     50          6           0       -4.729539   -4.031502   -2.127759
     51          6           0       -5.345956   -1.993864   -0.617135
     52          6           0       -6.716723   -2.415225    0.069713
     53          6           0       -7.004769   -1.916465    1.523614
     54          6           0       -8.140586   -0.847629    1.555065
     55          6           0       -7.842215    0.162393    2.664750
     56          6           0       -9.498855   -1.500601    1.759476
     57          6           0      -10.623538   -1.000603    0.754133
     58          6           0      -12.015763   -0.945144    1.385756
     59          6           0      -12.666872    0.409557    1.054972
     60          6           0      -12.577953    1.288176    2.249279
     61          6           0      -14.109040    0.278016    0.375929
     62          6           0      -14.165966    1.252231   -0.831251
     63          6           0      -15.586214    1.818570   -1.005832
     64          6           0      -15.739315    3.358996   -1.401267
     65          6           0      -14.682069    3.734490   -2.534713
     66          6           0      -15.912528    4.212714   -0.117779
     67          1           0        0.784398    1.260671   -0.765167
     68          1           0        5.637290    5.635802    0.259029
     69          1           0        9.692207    0.860427    0.165180
     70          1           0        2.183346   -3.237608   -0.455293
     71          1           0        0.619893   -0.984722    0.415678
     72          1           0       -0.276272   -1.483667   -1.532083
     73          1           0        1.328804   -2.143291   -2.185582
     74          1           0        1.018373   -0.399344   -2.232390
     75          1           0        1.867470   -2.046297    2.233139
     76          1           0        3.029454   -3.344733    1.824954
     77          1           0        0.361503   -3.561583    2.695087
     78          1           0        1.536090   -4.814251    2.116592
     79          1           0       -0.077660    3.140484   -0.494803
     80          1           0        0.276243    3.979556   -2.061682
     81          1           0       -0.020198    4.831176   -0.527223
     82          1           0        1.633444    6.146490   -2.411590
     83          1           0        2.064737    7.738235   -2.085215
     84          1           0        0.880037    6.776679   -0.873320
     85          1           0        7.876701    4.856047    1.864327
     86          1           0        9.546020    3.501195   -0.318058
     87          1           0        9.499198    5.712470   -0.283038
     88          1           0        8.484529    6.673447    0.755792
     89          1           0        7.857703    6.003334   -0.816455
     90          1           0        9.896001    2.147798    2.226558
     91          1           0        9.822486    3.802189    2.557733
     92          1           0       11.837534    4.211455    2.185377
     93          1           0       11.620446    3.892529    0.522250
     94          1           0       12.150882    2.602136    1.543061
     95          1           0       10.417637   -1.687416    0.853279
     96          1           0       10.287403   -1.491933   -0.908003
     97          1           0        9.936887   -3.100399   -0.216910
     98          1           0        5.096119   -4.449575    0.916123
     99          1           0        3.580309   -7.537025   -1.507598
    100          1           0        4.548835   -6.652092   -2.703537
    101          1           0        2.921518   -6.166945   -2.287129
    102          1           0       -2.206837   -5.172610   -0.306964
    103          1           0       -1.540417   -4.069015   -1.418181
    104          1           0       -3.035472   -2.360461    0.410904
    105          1           0       -5.007514   -3.371581   -2.949264
    106          1           0       -5.541768   -4.739453   -1.968213
    107          1           0       -3.801623   -4.453454   -2.515483
    108          1           0       -5.626805   -1.512222   -1.554193
    109          1           0       -4.858158   -1.285012    0.051188
    110          1           0       -6.860669   -3.493974    0.020125
    111          1           0       -7.463374   -2.016209   -0.617680
    112          1           0       -6.068766   -1.459191    1.846971
    113          1           0       -7.212489   -2.706866    2.244370
    114          1           0       -8.113009   -0.318643    0.603130
    115          1           0       -8.808882    0.363017    3.124437
    116          1           0       -7.432922    1.107167    2.305881
    117          1           0       -7.183738   -0.183430    3.461374
    118          1           0       -9.865533   -1.320002    2.769799
    119          1           0       -9.459716   -2.582019    1.631774
    120          1           0      -10.749795   -1.778321    0.001018
    121          1           0      -10.300688   -0.077765    0.273201
    122          1           0      -11.880345   -1.135591    2.449320
    123          1           0      -12.727501   -1.729853    1.130091
    124          1           0      -12.108216    1.090476    0.414589
    125          1           0      -11.729033    1.036214    2.885761
    126          1           0      -13.534839    1.235080    2.768117
    127          1           0      -12.390891    2.292662    1.868719
    128          1           0      -14.955910    0.591819    0.986805
    129          1           0      -14.381386   -0.710412    0.006268
    130          1           0      -13.915404    0.667234   -1.715939
    131          1           0      -13.539535    2.125013   -0.649218
    132          1           0      -16.149328    1.708392   -0.078898
    133          1           0      -16.081988    1.224848   -1.773645
    134          1           0      -16.753967    3.331150   -1.797059
    135          1           0      -13.897992    4.390952   -2.157961
    136          1           0      -15.207256    4.211985   -3.361104
    137          1           0      -14.293107    2.821753   -2.985265
    138          1           0      -16.966580    4.062770    0.115796
    139          1           0      -15.726032    5.283266   -0.205680
    140          1           0      -15.292903    3.878780    0.715316
 ---------------------------------------------------------------------
 Rotational constants (GHZ):           0.0423261           0.0093277           0.0079147
 Leave Link  202 at Tue May  3 16:53:22 2022, MaxMem=  6710886400 cpu:               0.3 elap:               0.0
 (Enter /sw/apps/gaussian-16.0/g16/l301.exe)
 Standard basis: VSTO-6G (5D, 7F)
 Ernie: Thresh=  0.10000D-02 Tol=  0.10000D-05 Strict=F.
 There are   338 symmetry adapted cartesian basis functions of A   symmetry.
 There are   338 symmetry adapted basis functions of A   symmetry.
   338 basis functions,  2028 primitive gaussians,   338 cartesian basis functions
   176 alpha electrons      176 beta electrons
       nuclear repulsion energy      4748.9344162846 Hartrees.
 IExCor=    0 DFT=F Ex=HF Corr=None ExCW=0 ScaHFX=  1.000000
 ScaDFX=  1.000000  1.000000  1.000000  1.000000 ScalE2=  1.000000  1.000000
 IRadAn=      5 IRanWt=     -1 IRanGd=            0 ICorTp=0 IEmpDi=  4
 Integral buffers will be    131072 words long.
 Regular integral format.
 Two-electron integral symmetry is turned off.
 Leave Link  301 at Tue May  3 16:53:22 2022, MaxMem=  6710886400 cpu:               1.3 elap:               0.1
 (Enter /sw/apps/gaussian-16.0/g16/l302.exe)
 Do NDO integrals.
 NPDir=0 NMtPBC=     1 NCelOv=     1 NCel=       1 NClECP=     1 NCelD=      1
         NCelK=      1 NCelE2=     1 NClLst=     1 CellRange=     0.0.
 One-electron integrals computed using PRISM.
 Generate ZINDO/S integrals.
 NDO Nuclear repulsion=  4265.972184026590 Hartrees.
 NBasis=   338 RedAO= F EigKep=  0.00D+00  NBF=   338
 NBsUse=   338 1.00D-04 EigRej=  0.00D+00 NBFU=   338
 Leave Link  302 at Tue May  3 16:53:22 2022, MaxMem=  6710886400 cpu:              10.0 elap:               0.4
 (Enter /sw/apps/gaussian-16.0/g16/l303.exe)
 DipDrv:  MaxL=1.
 DipDrv:  will hold  3 matrices at once.
 Leave Link  303 at Tue May  3 16:53:22 2022, MaxMem=  6710886400 cpu:               0.6 elap:               0.0
 (Enter /sw/apps/gaussian-16.0/g16/l308.exe)
 Leave Link  308 at Tue May  3 16:53:22 2022, MaxMem=  6710886400 cpu:               6.4 elap:               0.3
 (Enter /sw/apps/gaussian-16.0/g16/l401.exe)
 Simple Huckel Guess.
 JPrj=0 DoOrth=F DoCkMO=F.
 Leave Link  401 at Tue May  3 16:53:23 2022, MaxMem=  6710886400 cpu:               2.7 elap:               0.1
 (Enter /sw/apps/gaussian-16.0/g16/l502.exe)
 Two-electron integral symmetry not used.
 Closed shell SCF:
 Using DIIS extrapolation, IDIIS=  1040.
 Overlap will be assumed to be unity.
 NGot=  6710886400 LenX=  6710643598 LenY=  6710528913
 Requested convergence on RMS density matrix=1.00D-08 within 128 cycles.
 Requested convergence on MAX density matrix=1.00D-06.
 Requested convergence on             energy=1.00D-06.
 No special actions if energy rises.
 Fock matrices will be formed incrementally for  20 cycles.

 Cycle   1  Pass 1  IDiag  1:
 E= -472.586154589193    
 DIIS: error= 5.36D-02 at cycle   1 NSaved=   1.
 NSaved= 1 IEnMin= 1 EnMin= -472.586154589193     IErMin= 1 ErrMin= 5.36D-02
 ErrMax= 5.36D-02  0.00D+00 EMaxC= 1.00D-01 BMatC= 8.28D-01 BMatP= 8.28D-01
 IDIUse=3 WtCom= 4.64D-01 WtEn= 5.36D-01
 Coeff-Com:  0.100D+01
 Coeff-En:   0.100D+01
 Coeff:      0.100D+01
 GapD=    2.000 DampG=2.000 DampE=0.500 DampFc=1.0000 IDamp=-1.
 RMSDP=3.98D-03 MaxDP=1.63D-01              OVMax= 0.00D+00

 Cycle   2  Pass 1  IDiag  1:
 RMSU=  3.97D-03    CP:  9.95D-01
 E= -474.409605955707     Delta-E=       -1.823451366514 Rises=F Damp=F
 DIIS: error= 1.83D-02 at cycle   2 NSaved=   2.
 NSaved= 2 IEnMin= 2 EnMin= -474.409605955707     IErMin= 2 ErrMin= 1.83D-02
 ErrMax= 1.83D-02  0.00D+00 EMaxC= 1.00D-01 BMatC= 5.07D-02 BMatP= 8.28D-01
 IDIUse=3 WtCom= 8.17D-01 WtEn= 1.83D-01
 Coeff-Com: -0.774D-01 0.108D+01
 Coeff-En:   0.000D+00 0.100D+01
 Coeff:     -0.632D-01 0.106D+01
 RMSDP=1.08D-03 MaxDP=5.41D-02 DE=-1.82D+00 OVMax= 0.00D+00

 Cycle   3  Pass 1  IDiag  1:
 RMSU=  1.01D-03    CP:  9.93D-01  1.10D+00
 E= -474.510364987026     Delta-E=       -0.100759031319 Rises=F Damp=F
 DIIS: error= 7.13D-03 at cycle   3 NSaved=   3.
 NSaved= 3 IEnMin= 3 EnMin= -474.510364987026     IErMin= 3 ErrMin= 7.13D-03
 ErrMax= 7.13D-03  0.00D+00 EMaxC= 1.00D-01 BMatC= 6.57D-03 BMatP= 5.07D-02
 IDIUse=3 WtCom= 9.29D-01 WtEn= 7.13D-02
 Coeff-Com: -0.664D-01 0.233D+00 0.833D+00
 Coeff-En:   0.000D+00 0.000D+00 0.100D+01
 Coeff:     -0.617D-01 0.217D+00 0.845D+00
 RMSDP=3.46D-04 MaxDP=1.65D-02 DE=-1.01D-01 OVMax= 0.00D+00

 Cycle   4  Pass 1  IDiag  1:
 RMSU=  2.20D-04    CP:  9.93D-01  1.17D+00  9.38D-01
 E= -474.522144535853     Delta-E=       -0.011779548827 Rises=F Damp=F
 DIIS: error= 1.35D-03 at cycle   4 NSaved=   4.
 NSaved= 4 IEnMin= 4 EnMin= -474.522144535853     IErMin= 4 ErrMin= 1.35D-03
 ErrMax= 1.35D-03  0.00D+00 EMaxC= 1.00D-01 BMatC= 2.53D-04 BMatP= 6.57D-03
 IDIUse=3 WtCom= 9.87D-01 WtEn= 1.35D-02
 Coeff-Com:  0.240D-02-0.412D-01-0.493D-02 0.104D+01
 Coeff-En:   0.000D+00 0.000D+00 0.000D+00 0.100D+01
 Coeff:      0.237D-02-0.407D-01-0.487D-02 0.104D+01
 RMSDP=1.22D-04 MaxDP=6.31D-03 DE=-1.18D-02 OVMax= 0.00D+00

 Cycle   5  Pass 1  IDiag  1:
 RMSU=  7.87D-05    CP:  9.93D-01  1.17D+00  1.03D+00  1.09D+00
 E= -474.523044325482     Delta-E=       -0.000899789629 Rises=F Damp=F
 DIIS: error= 5.35D-04 at cycle   5 NSaved=   5.
 NSaved= 5 IEnMin= 5 EnMin= -474.523044325482     IErMin= 5 ErrMin= 5.35D-04
 ErrMax= 5.35D-04  0.00D+00 EMaxC= 1.00D-01 BMatC= 4.88D-05 BMatP= 2.53D-04
 IDIUse=3 WtCom= 9.95D-01 WtEn= 5.35D-03
 Coeff-Com:  0.586D-02-0.236D-01-0.938D-01 0.197D+00 0.914D+00
 Coeff-En:   0.000D+00 0.000D+00 0.000D+00 0.000D+00 0.100D+01
 Coeff:      0.583D-02-0.235D-01-0.933D-01 0.196D+00 0.915D+00
 RMSDP=4.80D-05 MaxDP=2.64D-03 DE=-9.00D-04 OVMax= 0.00D+00

 Cycle   6  Pass 1  IDiag  1:
 RMSU=  2.71D-05    CP:  9.93D-01  1.17D+00  1.04D+00  1.25D+00  1.05D+00
 E= -474.523189486721     Delta-E=       -0.000145161239 Rises=F Damp=F
 DIIS: error= 1.61D-04 at cycle   6 NSaved=   6.
 NSaved= 6 IEnMin= 6 EnMin= -474.523189486721     IErMin= 6 ErrMin= 1.61D-04
 ErrMax= 1.61D-04  0.00D+00 EMaxC= 1.00D-01 BMatC= 5.15D-06 BMatP= 4.88D-05
 IDIUse=3 WtCom= 9.98D-01 WtEn= 1.61D-03
 Coeff-Com: -0.687D-04 0.491D-02-0.150D-01-0.930D-01 0.578D-01 0.105D+01
 Coeff-En:   0.000D+00 0.000D+00 0.000D+00 0.000D+00 0.000D+00 0.100D+01
 Coeff:     -0.686D-04 0.490D-02-0.150D-01-0.928D-01 0.577D-01 0.105D+01
 RMSDP=2.28D-05 MaxDP=1.30D-03 DE=-1.45D-04 OVMax= 0.00D+00

 Cycle   7  Pass 1  IDiag  1:
 RMSU=  1.18D-05    CP:  9.93D-01  1.17D+00  1.05D+00  1.28D+00  1.26D+00
                    CP:  1.15D+00
 E= -474.523211077132     Delta-E=       -0.000021590411 Rises=F Damp=F
 DIIS: error= 8.41D-05 at cycle   7 NSaved=   7.
 NSaved= 7 IEnMin= 7 EnMin= -474.523211077132     IErMin= 7 ErrMin= 8.41D-05
 ErrMax= 8.41D-05  0.00D+00 EMaxC= 1.00D-01 BMatC= 7.95D-07 BMatP= 5.15D-06
 IDIUse=1 WtCom= 1.00D+00 WtEn= 0.00D+00
 Coeff-Com: -0.609D-03 0.323D-02 0.574D-02-0.256D-01-0.105D+00 0.172D+00
 Coeff-Com:  0.951D+00
 Coeff:     -0.609D-03 0.323D-02 0.574D-02-0.256D-01-0.105D+00 0.172D+00
 Coeff:      0.951D+00
 RMSDP=9.36D-06 MaxDP=7.26D-04 DE=-2.16D-05 OVMax= 0.00D+00

 Cycle   8  Pass 1  IDiag  1:
 RMSU=  4.64D-06    CP:  9.93D-01  1.17D+00  1.05D+00  1.29D+00  1.31D+00
                    CP:  1.35D+00  1.33D+00
 E= -474.523215388577     Delta-E=       -0.000004311445 Rises=F Damp=F
 DIIS: error= 4.11D-05 at cycle   8 NSaved=   8.
 NSaved= 8 IEnMin= 8 EnMin= -474.523215388577     IErMin= 8 ErrMin= 4.11D-05
 ErrMax= 4.11D-05  0.00D+00 EMaxC= 1.00D-01 BMatC= 1.75D-07 BMatP= 7.95D-07
 IDIUse=1 WtCom= 1.00D+00 WtEn= 0.00D+00
 Coeff-Com: -0.659D-05-0.682D-03 0.239D-02 0.184D-01-0.337D-01-0.124D+00
 Coeff-Com: -0.709D-02 0.114D+01
 Coeff:     -0.659D-05-0.682D-03 0.239D-02 0.184D-01-0.337D-01-0.124D+00
 Coeff:     -0.709D-02 0.114D+01
 RMSDP=8.43D-06 MaxDP=4.91D-04 DE=-4.31D-06 OVMax= 0.00D+00

 Cycle   9  Pass 1  IDiag  1:
 RMSU=  3.00D-06    CP:  9.93D-01  1.17D+00  1.05D+00  1.28D+00  1.35D+00
                    CP:  1.42D+00  1.87D+00  1.47D+00
 E= -474.523217325733     Delta-E=       -0.000001937156 Rises=F Damp=F
 DIIS: error= 3.10D-05 at cycle   9 NSaved=   9.
 NSaved= 9 IEnMin= 9 EnMin= -474.523217325733     IErMin= 9 ErrMin= 3.10D-05
 ErrMax= 3.10D-05  0.00D+00 EMaxC= 1.00D-01 BMatC= 9.78D-08 BMatP= 1.75D-07
 IDIUse=1 WtCom= 1.00D+00 WtEn= 0.00D+00
 Coeff-Com:  0.163D-03-0.855D-03-0.166D-02 0.840D-02 0.165D-01-0.112D-01
 Coeff-Com: -0.385D+00 0.231D+00 0.114D+01
 Coeff:      0.163D-03-0.855D-03-0.166D-02 0.840D-02 0.165D-01-0.112D-01
 Coeff:     -0.385D+00 0.231D+00 0.114D+01
 RMSDP=6.85D-06 MaxDP=4.34D-04 DE=-1.94D-06 OVMax= 0.00D+00

 Cycle  10  Pass 1  IDiag  1:
 RMSU=  1.21D-06    CP:  9.93D-01  1.17D+00  1.05D+00  1.28D+00  1.38D+00
                    CP:  1.47D+00  2.26D+00  2.14D+00  1.93D+00
 E= -474.523218490051     Delta-E=       -0.000001164318 Rises=F Damp=F
 DIIS: error= 1.49D-05 at cycle  10 NSaved=  10.
 NSaved=10 IEnMin=10 EnMin= -474.523218490051     IErMin=10 ErrMin= 1.49D-05
 ErrMax= 1.49D-05  0.00D+00 EMaxC= 1.00D-01 BMatC= 3.99D-08 BMatP= 9.78D-08
 IDIUse=1 WtCom= 1.00D+00 WtEn= 0.00D+00
 Coeff-Com: -0.287D-04 0.328D-03-0.418D-03-0.548D-02 0.225D-02 0.600D-01
 Coeff-Com: -0.461D-01-0.147D-01-0.699D+00 0.170D+01
 Coeff:     -0.287D-04 0.328D-03-0.418D-03-0.548D-02 0.225D-02 0.600D-01
 Coeff:     -0.461D-01-0.147D-01-0.699D+00 0.170D+01
 RMSDP=6.81D-06 MaxDP=3.39D-04 DE=-1.16D-06 OVMax= 0.00D+00

 Cycle  11  Pass 1  IDiag  1:
 RMSU=  9.88D-07    CP:  9.93D-01  1.17D+00  1.05D+00  1.28D+00  1.40D+00
                    CP:  1.48D+00  2.63D+00  2.67D+00  3.00D+00  2.37D+00
 E= -474.523219268616     Delta-E=       -0.000000778566 Rises=F Damp=F
 DIIS: error= 1.14D-05 at cycle  11 NSaved=  11.
 NSaved=11 IEnMin=11 EnMin= -474.523219268616     IErMin=11 ErrMin= 1.14D-05
 ErrMax= 1.14D-05  0.00D+00 EMaxC= 1.00D-01 BMatC= 2.37D-08 BMatP= 3.99D-08
 IDIUse=1 WtCom= 1.00D+00 WtEn= 0.00D+00
 Coeff-Com: -0.587D-04 0.249D-03 0.915D-03-0.200D-02-0.949D-02 0.193D-02
 Coeff-Com:  0.784D-01 0.215D+00-0.915D+00-0.860D-01 0.172D+01
 Coeff:     -0.587D-04 0.249D-03 0.915D-03-0.200D-02-0.949D-02 0.193D-02
 Coeff:      0.784D-01 0.215D+00-0.915D+00-0.860D-01 0.172D+01
 RMSDP=7.96D-06 MaxDP=3.80D-04 DE=-7.79D-07 OVMax= 0.00D+00

 Cycle  12  Pass 1  IDiag  1:
 RMSU=  4.06D-06    CP:  9.93D-01  1.17D+00  1.05D+00  1.28D+00  1.42D+00
                    CP:  1.49D+00  3.00D+00  3.00D+00  3.00D+00  3.00D+00
                    CP:  3.00D+00
 E= -474.523219842075     Delta-E=       -0.000000573459 Rises=F Damp=F
 DIIS: error= 5.95D-06 at cycle  12 NSaved=  12.
 NSaved=12 IEnMin=12 EnMin= -474.523219842075     IErMin=12 ErrMin= 5.95D-06
 ErrMax= 5.95D-06  0.00D+00 EMaxC= 1.00D-01 BMatC= 7.10D-09 BMatP= 2.37D-08
 IDIUse=1 WtCom= 1.00D+00 WtEn= 0.00D+00
 Coeff-Com:  0.282D-04-0.239D-03 0.149D-03 0.351D-02-0.373D-03-0.254D-01
 Coeff-Com: -0.448D-01 0.182D+00 0.271D+00-0.693D+00-0.405D+00 0.171D+01
 Coeff:      0.282D-04-0.239D-03 0.149D-03 0.351D-02-0.373D-03-0.254D-01
 Coeff:     -0.448D-01 0.182D+00 0.271D+00-0.693D+00-0.405D+00 0.171D+01
 RMSDP=5.49D-06 MaxDP=2.50D-04 DE=-5.73D-07 OVMax= 0.00D+00

 Cycle  13  Pass 1  IDiag  1:
 RMSU=  3.16D-06    CP:  9.93D-01  1.17D+00  1.05D+00  1.28D+00  1.44D+00
                    CP:  1.49D+00  3.00D+00  3.00D+00  3.00D+00  3.00D+00
                    CP:  3.00D+00  2.07D+00
 E= -474.523220032971     Delta-E=       -0.000000190896 Rises=F Damp=F
 DIIS: error= 2.42D-06 at cycle  13 NSaved=  13.
 NSaved=13 IEnMin=13 EnMin= -474.523220032971     IErMin=13 ErrMin= 2.42D-06
 ErrMax= 2.42D-06  0.00D+00 EMaxC= 1.00D-01 BMatC= 1.36D-09 BMatP= 7.10D-09
 IDIUse=1 WtCom= 1.00D+00 WtEn= 0.00D+00
 Coeff-Com:  0.153D-04-0.774D-04-0.209D-03 0.853D-03 0.206D-02-0.881D-03
 Coeff-Com: -0.371D-01 0.329D-02 0.151D+00 0.292D-01-0.409D+00 0.925D-01
 Coeff-Com:  0.117D+01
 Coeff:      0.153D-04-0.774D-04-0.209D-03 0.853D-03 0.206D-02-0.881D-03
 Coeff:     -0.371D-01 0.329D-02 0.151D+00 0.292D-01-0.409D+00 0.925D-01
 Coeff:      0.117D+01
 RMSDP=1.86D-06 MaxDP=8.27D-05 DE=-1.91D-07 OVMax= 0.00D+00

 Cycle  14  Pass 1  IDiag  1:
 RMSU=  3.70D-07    CP:  9.93D-01  1.17D+00  1.05D+00  1.28D+00  1.44D+00
                    CP:  1.49D+00  3.00D+00  3.00D+00  3.00D+00  3.00D+00
                    CP:  3.00D+00  2.41D+00  1.35D+00
 E= -474.523220062230     Delta-E=       -0.000000029259 Rises=F Damp=F
 DIIS: error= 1.69D-06 at cycle  14 NSaved=  14.
 NSaved=14 IEnMin=14 EnMin= -474.523220062230     IErMin=14 ErrMin= 1.69D-06
 ErrMax= 1.69D-06  0.00D+00 EMaxC= 1.00D-01 BMatC= 4.78D-10 BMatP= 1.36D-09
 IDIUse=1 WtCom= 1.00D+00 WtEn= 0.00D+00
 Coeff-Com: -0.147D-04 0.101D-03 0.137D-04-0.119D-02-0.136D-02 0.101D-01
 Coeff-Com:  0.170D-01-0.328D-01-0.157D+00 0.213D+00 0.249D+00-0.545D+00
 Coeff-Com: -0.342D+00 0.159D+01
 Coeff:     -0.147D-04 0.101D-03 0.137D-04-0.119D-02-0.136D-02 0.101D-01
 Coeff:      0.170D-01-0.328D-01-0.157D+00 0.213D+00 0.249D+00-0.545D+00
 Coeff:     -0.342D+00 0.159D+01
 RMSDP=9.52D-07 MaxDP=4.39D-05 DE=-2.93D-08 OVMax= 0.00D+00

 Cycle  15  Pass 1  IDiag  1:
 RMSU=  1.73D-07    CP:  9.93D-01  1.17D+00  1.05D+00  1.28D+00  1.45D+00
                    CP:  1.48D+00  3.00D+00  3.00D+00  3.00D+00  3.00D+00
                    CP:  3.00D+00  2.54D+00  1.51D+00  2.40D+00
 E= -474.523220073113     Delta-E=       -0.000000010883 Rises=F Damp=F
 DIIS: error= 1.06D-06 at cycle  15 NSaved=  15.
 NSaved=15 IEnMin=15 EnMin= -474.523220073113     IErMin=15 ErrMin= 1.06D-06
 ErrMax= 1.06D-06  0.00D+00 EMaxC= 1.00D-01 BMatC= 1.86D-10 BMatP= 4.78D-10
 IDIUse=1 WtCom= 1.00D+00 WtEn= 0.00D+00
 Coeff-Com: -0.564D-05 0.244D-04 0.108D-03-0.157D-03-0.165D-02 0.128D-02
 Coeff-Com:  0.122D-01 0.810D-02-0.592D-01-0.448D-01 0.179D+00-0.187D-02
 Coeff-Com: -0.518D+00-0.109D+00 0.153D+01
 Coeff:     -0.564D-05 0.244D-04 0.108D-03-0.157D-03-0.165D-02 0.128D-02
 Coeff:      0.122D-01 0.810D-02-0.592D-01-0.448D-01 0.179D+00-0.187D-02
 Coeff:     -0.518D+00-0.109D+00 0.153D+01
 RMSDP=7.76D-07 MaxDP=3.38D-05 DE=-1.09D-08 OVMax= 0.00D+00

 Cycle  16  Pass 1  IDiag  1:
 RMSU=  2.88D-07    CP:  9.93D-01  1.17D+00  1.05D+00  1.28D+00  1.45D+00
                    CP:  1.48D+00  3.00D+00  3.00D+00  3.00D+00  3.00D+00
                    CP:  3.00D+00  2.63D+00  1.63D+00  3.00D+00  1.79D+00
 E= -474.523220077897     Delta-E=       -0.000000004784 Rises=F Damp=F
 DIIS: error= 4.99D-07 at cycle  16 NSaved=  16.
 NSaved=16 IEnMin=16 EnMin= -474.523220077897     IErMin=16 ErrMin= 4.99D-07
 ErrMax= 4.99D-07  0.00D+00 EMaxC= 1.00D-01 BMatC= 4.43D-11 BMatP= 1.86D-10
 IDIUse=1 WtCom= 1.00D+00 WtEn= 0.00D+00
 Coeff-Com:  0.627D-05-0.416D-04-0.875D-05 0.506D-03 0.264D-03-0.287D-02
 Coeff-Com: -0.965D-02 0.116D-01 0.668D-01-0.833D-01-0.911D-01 0.189D+00
 Coeff-Com:  0.196D+00-0.584D+00-0.206D+00 0.151D+01
 Coeff:      0.627D-05-0.416D-04-0.875D-05 0.506D-03 0.264D-03-0.287D-02
 Coeff:     -0.965D-02 0.116D-01 0.668D-01-0.833D-01-0.911D-01 0.189D+00
 Coeff:      0.196D+00-0.584D+00-0.206D+00 0.151D+01
 RMSDP=3.85D-07 MaxDP=1.86D-05 DE=-4.78D-09 OVMax= 0.00D+00

 Cycle  17  Pass 1  IDiag  1:
 RMSU=  3.68D-08    CP:  9.93D-01  1.17D+00  1.05D+00  1.28D+00  1.45D+00
                    CP:  1.48D+00  3.00D+00  3.00D+00  3.00D+00  3.00D+00
                    CP:  3.00D+00  2.67D+00  1.68D+00  3.00D+00  2.42D+00
                    CP:  2.04D+00
 E= -474.523220078951     Delta-E=       -0.000000001053 Rises=F Damp=F
 DIIS: error= 4.01D-07 at cycle  17 NSaved=  17.
 NSaved=17 IEnMin=17 EnMin= -474.523220078951     IErMin=17 ErrMin= 4.01D-07
 ErrMax= 4.01D-07  0.00D+00 EMaxC= 1.00D-01 BMatC= 5.88D-12 BMatP= 4.43D-11
 IDIUse=1 WtCom= 1.00D+00 WtEn= 0.00D+00
 Coeff-Com:  0.549D-06-0.187D-05-0.190D-04 0.135D-04 0.183D-03 0.138D-03
 Coeff-Com: -0.187D-02-0.157D-02 0.757D-02 0.497D-02-0.142D-01-0.208D-01
 Coeff-Com:  0.783D-01 0.439D-01-0.206D+00-0.864D-01 0.120D+01
 Coeff:      0.549D-06-0.187D-05-0.190D-04 0.135D-04 0.183D-03 0.138D-03
 Coeff:     -0.187D-02-0.157D-02 0.757D-02 0.497D-02-0.142D-01-0.208D-01
 Coeff:      0.783D-01 0.439D-01-0.206D+00-0.864D-01 0.120D+01
 RMSDP=8.61D-08 MaxDP=3.84D-06 DE=-1.05D-09 OVMax= 0.00D+00

 Cycle  18  Pass 1  IDiag  1:
 RMSU=  2.31D-08    CP:  9.93D-01  1.17D+00  1.05D+00  1.28D+00  1.45D+00
                    CP:  1.48D+00  3.00D+00  3.00D+00  3.00D+00  3.00D+00
                    CP:  3.00D+00  2.67D+00  1.69D+00  3.00D+00  2.54D+00
                    CP:  2.25D+00  1.44D+00
 E= -474.523220079037     Delta-E=       -0.000000000086 Rises=F Damp=F
 DIIS: error= 2.65D-07 at cycle  18 NSaved=  18.
 NSaved=18 IEnMin=18 EnMin= -474.523220079037     IErMin=18 ErrMin= 2.65D-07
 ErrMax= 2.65D-07  0.00D+00 EMaxC= 1.00D-01 BMatC= 1.46D-12 BMatP= 5.88D-12
 IDIUse=1 WtCom= 1.00D+00 WtEn= 0.00D+00
 Coeff-Com: -0.186D-05 0.120D-04 0.470D-05-0.141D-03-0.106D-03 0.798D-03
 Coeff-Com:  0.262D-02-0.260D-02-0.193D-01 0.196D-01 0.320D-01-0.521D-01
 Coeff-Com: -0.583D-01 0.140D+00 0.886D-01-0.398D+00-0.208D+00 0.146D+01
 Coeff:     -0.186D-05 0.120D-04 0.470D-05-0.141D-03-0.106D-03 0.798D-03
 Coeff:      0.262D-02-0.260D-02-0.193D-01 0.196D-01 0.320D-01-0.521D-01
 Coeff:     -0.583D-01 0.140D+00 0.886D-01-0.398D+00-0.208D+00 0.146D+01
 RMSDP=4.56D-08 MaxDP=2.54D-06 DE=-8.64D-11 OVMax= 0.00D+00

 Cycle  19  Pass 1  IDiag  1:
 RMSU=  6.18D-09    CP:  9.93D-01  1.17D+00  1.05D+00  1.28D+00  1.45D+00
                    CP:  1.48D+00  3.00D+00  3.00D+00  3.00D+00  3.00D+00
                    CP:  3.00D+00  2.68D+00  1.69D+00  3.00D+00  2.62D+00
                    CP:  2.36D+00  1.86D+00  1.81D+00
 E= -474.523220079026     Delta-E=        0.000000000011 Rises=F Damp=F
 DIIS: error= 1.05D-07 at cycle  19 NSaved=  19.
 NSaved=19 IEnMin=18 EnMin= -474.523220079037     IErMin=19 ErrMin= 1.05D-07
 ErrMax= 1.05D-07  0.00D+00 EMaxC= 1.00D-01 BMatC= 1.97D-13 BMatP= 1.46D-12
 IDIUse=1 WtCom= 1.00D+00 WtEn= 0.00D+00
 Coeff-Com:  0.481D-07-0.539D-06 0.392D-05 0.620D-05-0.206D-04-0.909D-04
 Coeff-Com:  0.979D-04 0.611D-03-0.772D-05-0.233D-02 0.634D-04 0.754D-02
 Coeff-Com: -0.752D-02-0.215D-01 0.275D-01 0.625D-01-0.201D+00-0.136D+00
 Coeff-Com:  0.127D+01
 Coeff:      0.481D-07-0.539D-06 0.392D-05 0.620D-05-0.206D-04-0.909D-04
 Coeff:      0.979D-04 0.611D-03-0.772D-05-0.233D-02 0.634D-04 0.754D-02
 Coeff:     -0.752D-02-0.215D-01 0.275D-01 0.625D-01-0.201D+00-0.136D+00
 Coeff:      0.127D+01
 RMSDP=1.14D-08 MaxDP=1.13D-06 DE= 1.09D-11 OVMax= 0.00D+00

 Cycle  20  Pass 1  IDiag  1:
 RMSU=  3.12D-09    CP:  9.93D-01  1.17D+00  1.05D+00  1.28D+00  1.45D+00
                    CP:  1.48D+00  3.00D+00  3.00D+00  3.00D+00  3.00D+00
                    CP:  3.00D+00  2.68D+00  1.69D+00  3.00D+00  2.63D+00
                    CP:  2.38D+00  1.99D+00  2.11D+00  1.56D+00
 E= -474.523220079032     Delta-E=       -0.000000000006 Rises=F Damp=F
 DIIS: error= 3.29D-08 at cycle  20 NSaved=  20.
 NSaved=20 IEnMin=18 EnMin= -474.523220079037     IErMin=20 ErrMin= 3.29D-08
 ErrMax= 3.29D-08  0.00D+00 EMaxC= 1.00D-01 BMatC= 3.52D-14 BMatP= 1.97D-13
 IDIUse=1 WtCom= 1.00D+00 WtEn= 0.00D+00
 Coeff-Com:  0.394D-06-0.256D-05-0.587D-06 0.286D-04 0.259D-04-0.182D-03
 Coeff-Com: -0.515D-03 0.611D-03 0.372D-02-0.390D-02-0.658D-02 0.109D-01
 Coeff-Com:  0.111D-01-0.290D-01-0.176D-01 0.851D-01 0.293D-01-0.282D+00
 Coeff-Com:  0.834D-01 0.112D+01
 Coeff:      0.394D-06-0.256D-05-0.587D-06 0.286D-04 0.259D-04-0.182D-03
 Coeff:     -0.515D-03 0.611D-03 0.372D-02-0.390D-02-0.658D-02 0.109D-01
 Coeff:      0.111D-01-0.290D-01-0.176D-01 0.851D-01 0.293D-01-0.282D+00
 Coeff:      0.834D-01 0.112D+01
 RMSDP=4.01D-09 MaxDP=3.63D-07 DE=-6.37D-12 OVMax= 0.00D+00

 SCF Done:  E(RZINDO/S) =  -474.523220079     A.U. after   20 cycles
            NFock= 20  Conv=0.40D-08     -V/T= 0.9485
 KE=-9.206525309553D+03 PE= 2.221659087809D-07 EE= 4.466029905225D+03
 Leave Link  502 at Tue May  3 16:53:23 2022, MaxMem=  6710886400 cpu:              21.8 elap:               0.9
 (Enter /sw/apps/gaussian-16.0/g16/l801.exe)
 Range of M.O.s used for correlation:     1   338
 NBasis=   338 NAE=   176 NBE=   176 NFC=     0 NFV=     0
 NROrb=    338 NOA=   176 NOB=   176 NVA=   162 NVB=   162
 Leave Link  801 at Tue May  3 16:53:24 2022, MaxMem=  6710886400 cpu:               0.4 elap:               0.0
 (Enter /sw/apps/gaussian-16.0/g16/l914.exe)
 RHF ground state
 Two-electron integral symmetry not used.
 MDV=  6710886400 DFT=F DoStab=F Mixed=F DoRPA=F DoScal=F NonHer=F
 Making orbital integer symmetry assigments:
 Orbital symmetries:
       Occupied  (A) (A) (A) (A) (A) (A) (A) (A) (A) (A) (A) (A)
                 (A) (A) (A) (A) (A) (A) (A) (A) (A) (A) (A) (A)
                 (A) (A) (A) (A) (A) (A) (A) (A) (A) (A) (A) (A)
                 (A) (A) (A) (A) (A) (A) (A) (A) (A) (A) (A) (A)
                 (A) (A) (A) (A) (A) (A) (A) (A) (A) (A) (A) (A)
                 (A) (A) (A) (A) (A) (A) (A) (A) (A) (A) (A) (A)
                 (A) (A) (A) (A) (A) (A) (A) (A) (A) (A) (A) (A)
                 (A) (A) (A) (A) (A) (A) (A) (A) (A) (A) (A) (A)
                 (A) (A) (A) (A) (A) (A) (A) (A) (A) (A) (A) (A)
                 (A) (A) (A) (A) (A) (A) (A) (A) (A) (A) (A) (A)
                 (A) (A) (A) (A) (A) (A) (A) (A) (A) (A) (A) (A)
                 (A) (A) (A) (A) (A) (A) (A) (A) (A) (A) (A) (A)
                 (A) (A) (A) (A) (A) (A) (A) (A) (A) (A) (A) (A)
                 (A) (A) (A) (A) (A) (A) (A) (A) (A) (A) (A) (A)
                 (A) (A) (A) (A) (A) (A) (A) (A)
       Virtual   (A) (A) (A) (A) (A) (A) (A) (A) (A) (A) (A) (A)
                 (A) (A) (A) (A) (A) (A) (A) (A) (A) (A) (A) (A)
                 (A) (A) (A) (A) (A) (A) (A) (A) (A) (A) (A) (A)
                 (A) (A) (A) (A) (A) (A) (A) (A) (A) (A) (A) (A)
                 (A) (A) (A) (A) (A) (A) (A) (A) (A) (A) (A) (A)
                 (A) (A) (A) (A) (A) (A) (A) (A) (A) (A) (A) (A)
                 (A) (A) (A) (A) (A) (A) (A) (A) (A) (A) (A) (A)
                 (A) (A) (A) (A) (A) (A) (A) (A) (A) (A) (A) (A)
                 (A) (A) (A) (A) (A) (A) (A) (A) (A) (A) (A) (A)
                 (A) (A) (A) (A) (A) (A) (A) (A) (A) (A) (A) (A)
                 (A) (A) (A) (A) (A) (A) (A) (A) (A) (A) (A) (A)
                 (A) (A) (A) (A) (A) (A) (A) (A) (A) (A) (A) (A)
                 (A) (A) (A) (A) (A) (A) (A) (A) (A) (A) (A) (A)
                 (A) (A) (A) (A) (A) (A)
    20 initial guesses have been made.
 Convergence on wavefunction:    0.001000000000000
 Davidson Disk Diagonalization:  ConvIn= 1.00D-03 SkipCon=T Conv= 1.00D-03.
 Max sub-space:  2000 roots to seek:    20 dimension of matrix:        57024
 Iteration     1 Dimension    20 NMult     0 NNew     20
 CISAX will form    20 AO SS matrices at one time.
 NMat=    20 NSing=    20 JSym2X= 0.
 New state      3 was old state      4
 New state      4 was old state      8
 New state      5 was old state      3
 Excitation Energies [eV] at current iteration:
 Root      1 :     1.600223674853779
 Root      2 :     2.146063337960010
 Root      3 :     3.267385517745464
 Root      4 :     3.430843396644106
 Root      5 :     3.514474673063240
 Root      6 :     3.596805516102467
 Root      7 :     3.696547245414281
 Root      8 :     3.796730352077931
 Root      9 :     3.894899224024065
 Root     10 :     3.955906168440840
 Root     11 :     4.127053334305189
 Root     12 :     4.237630011048753
 Root     13 :     4.321092074887386
 Root     14 :     4.352809543540510
 Root     15 :     4.384173161860588
 Root     16 :     4.414468394554212
 Root     17 :     4.505065824030958
 Root     18 :     4.748282957778298
 Root     19 :     5.264289765924375
 Root     20 :     5.657469951013782
 Iteration     2 Dimension    40 NMult    20 NNew     20
 CISAX will form    20 AO SS matrices at one time.
 NMat=    20 NSing=    20 JSym2X= 0.
 Root      1 not converged, maximum delta is    0.046526558218315
 Root      2 not converged, maximum delta is    0.028403486856457
 Root      3 not converged, maximum delta is    0.180967056775769
 New state      4 was old state      5
 Root      4 not converged, maximum delta is    0.264665100287561
 New state      5 was old state      4
 Root      5 not converged, maximum delta is    0.256293991755454
 Excitation Energies [eV] at current iteration:
 Root      1 :     1.219675771272261   Change is   -0.380547903581518
 Root      2 :     1.934045616910930   Change is   -0.212017721049080
 Root      3 :     2.990176554402053   Change is   -0.277208963343411
 Root      4 :     3.198114691638004   Change is   -0.316359981425236
 Root      5 :     3.251022414634719   Change is   -0.179820982009387
 Root      6 :     3.442699491494914   Change is   -0.253847753919367
 Root      7 :     3.482644759425750   Change is   -0.838447315461636
 Root      8 :     3.544834065432389   Change is   -0.051971450670078
 Root      9 :     3.569289775067623   Change is   -0.227440577010308
 Root     10 :     3.610465301868564   Change is   -0.345440866572276
 Root     11 :     3.715947350303340   Change is   -0.178951873720724
 Root     12 :     3.794653305044085   Change is   -0.589519856816502
 Root     13 :     3.853887934585312   Change is   -0.273165399719877
 Root     14 :     3.909847780331044   Change is   -0.327782230717710
 Root     15 :     4.181799584108610   Change is   -0.323266239922348
 Root     16 :     4.273048904815571   Change is   -0.141419489738640
 Root     17 :     4.292030242333696   Change is   -0.060779301206814
 Root     18 :     4.512814179494039   Change is   -0.235468778284260
 Root     19 :     5.255356530971754   Change is   -0.008933234952621
 Root     20 :     5.549317155898730
 Iteration     3 Dimension    45 NMult    40 NNew      5
 CISAX will form     5 AO SS matrices at one time.
 NMat=     5 NSing=     5 JSym2X= 0.
 Root      1 not converged, maximum delta is    0.012884010000570
 Root      2 not converged, maximum delta is    0.018549507313710
 Root      3 not converged, maximum delta is    0.019219397515693
 Root      4 not converged, maximum delta is    0.032694682320308
 Root      5 not converged, maximum delta is    0.035931514761829
 Excitation Energies [eV] at current iteration:
 Root      1 :     1.202647144271692   Change is   -0.017028627000569
 Root      2 :     1.909172804789161   Change is   -0.024872812121769
 Root      3 :     2.963998742562166   Change is   -0.026177811839887
 Root      4 :     3.165836321584651   Change is   -0.032278370053353
 Root      5 :     3.221367206065175   Change is   -0.029655208569544
 Iteration     4 Dimension    50 NMult    45 NNew      5
 CISAX will form     5 AO SS matrices at one time.
 NMat=     5 NSing=     5 JSym2X= 0.
 Root      1 not converged, maximum delta is    0.002257193075215
 Root      2 not converged, maximum delta is    0.002841252267125
 Root      3 not converged, maximum delta is    0.040507595002475
 Root      4 not converged, maximum delta is    0.512411497053182
 Root      5 not converged, maximum delta is    0.681147967632707
 Excitation Energies [eV] at current iteration:
 Root      1 :     1.201765761616564   Change is   -0.000881382655128
 Root      2 :     1.908515250536687   Change is   -0.000657554252474
 Root      3 :     2.960909100727438   Change is   -0.003089641834728
 Root      4 :     3.033820299457703   Change is   -0.132016022126947
 Root      5 :     3.171232969040602   Change is   -0.050134237024573
 Iteration     5 Dimension    55 NMult    50 NNew      5
 CISAX will form     5 AO SS matrices at one time.
 NMat=     5 NSing=     5 JSym2X= 0.
 Root      1 has converged.
 Root      2 has converged.
 New state      3 was old state      4
 Root      3 not converged, maximum delta is    0.205460603823831
 New state      4 was old state      3
 Root      4 not converged, maximum delta is    0.122755899184618
 Root      5 not converged, maximum delta is    0.061301980183632
 Excitation Energies [eV] at current iteration:
 Root      1 :     1.201714640197621   Change is   -0.000051121418943
 Root      2 :     1.908474220904882   Change is   -0.000041029631805
 Root      3 :     2.919853706691473   Change is   -0.113966592766231
 Root      4 :     2.963686320221647   Change is    0.002777219494208
 Root      5 :     3.166818890969302   Change is   -0.004414078071299
 Iteration     6 Dimension    58 NMult    55 NNew      3
 CISAX will form     3 AO SS matrices at one time.
 NMat=     3 NSing=     3 JSym2X= 0.
 Root      1 has converged.
 Root      2 has converged.
 Root      3 not converged, maximum delta is    0.025480800237069
 Root      4 not converged, maximum delta is    0.018242346210308
 Root      5 not converged, maximum delta is    0.012843300616381
 Excitation Energies [eV] at current iteration:
 Root      1 :     1.201714583066348   Change is   -0.000000057131273
 Root      2 :     1.908472935936342   Change is   -0.000001284968540
 Root      3 :     2.907308560620564   Change is   -0.012545146070908
 Root      4 :     2.962980417116776   Change is   -0.000705903104871
 Root      5 :     3.166179416372795   Change is   -0.000639474596507
 Iteration     7 Dimension    61 NMult    58 NNew      3
 CISAX will form     3 AO SS matrices at one time.
 NMat=     3 NSing=     3 JSym2X= 0.
 Root      1 has converged.
 Root      2 has converged.
 Root      3 not converged, maximum delta is    0.027019111692478
 Root      4 not converged, maximum delta is    0.034078372621432
 Root      5 not converged, maximum delta is    0.496065602052636
 Excitation Energies [eV] at current iteration:
 Root      1 :     1.201714512237824   Change is   -0.000000070828523
 Root      2 :     1.908471381461953   Change is   -0.000001554474389
 Root      3 :     2.904460366028368   Change is   -0.002848194592196
 Root      4 :     2.962158662000581   Change is   -0.000821755116195
 Root      5 :     3.050084060654508   Change is   -0.116095355718287
 Iteration     8 Dimension    64 NMult    61 NNew      3
 CISAX will form     3 AO SS matrices at one time.
 NMat=     3 NSing=     3 JSym2X= 0.
 Root      1 has converged.
 Root      2 has converged.
 Root      3 not converged, maximum delta is    0.024512850953333
 Root      4 not converged, maximum delta is    0.050176180090256
 Root      5 not converged, maximum delta is    0.065872429107001
 Excitation Energies [eV] at current iteration:
 Root      1 :     1.201714244124375   Change is   -0.000000268113450
 Root      2 :     1.908470850486659   Change is   -0.000000530975294
 Root      3 :     2.903155375252982   Change is   -0.001304990775387
 Root      4 :     2.961011208588850   Change is   -0.001147453411731
 Root      5 :     3.001583041196770   Change is   -0.048501019457738
 Iteration     9 Dimension    67 NMult    64 NNew      3
 CISAX will form     3 AO SS matrices at one time.
 NMat=     3 NSing=     3 JSym2X= 0.
 Root      1 has converged.
 Root      2 has converged.
 Root      3 not converged, maximum delta is    0.006316434527781
 Root      4 not converged, maximum delta is    0.018762126313946
 Root      5 not converged, maximum delta is    0.024338976073710
 Excitation Energies [eV] at current iteration:
 Root      1 :     1.201714174950395   Change is   -0.000000069173980
 Root      2 :     1.908470656601525   Change is   -0.000000193885134
 Root      3 :     2.902840403337507   Change is   -0.000314971915475
 Root      4 :     2.960566176933474   Change is   -0.000445031655377
 Root      5 :     2.994314691180491   Change is   -0.007268350016279
 Iteration    10 Dimension    70 NMult    67 NNew      3
 CISAX will form     3 AO SS matrices at one time.
 NMat=     3 NSing=     3 JSym2X= 0.
 Root      1 has converged.
 Root      2 has converged.
 Root      3 not converged, maximum delta is    0.001227488913146
 Root      4 not converged, maximum delta is    0.003275456509071
 Root      5 not converged, maximum delta is    0.004834987478131
 Excitation Energies [eV] at current iteration:
 Root      1 :     1.201714135218597   Change is   -0.000000039731798
 Root      2 :     1.908470561147143   Change is   -0.000000095454382
 Root      3 :     2.902795022473470   Change is   -0.000045380864036
 Root      4 :     2.960491755461935   Change is   -0.000074421471539
 Root      5 :     2.993290531924258   Change is   -0.001024159256233
 Iteration    11 Dimension    73 NMult    70 NNew      3
 CISAX will form     3 AO SS matrices at one time.
 NMat=     3 NSing=     3 JSym2X= 0.
 Root      1 has converged.
 Root      2 has converged.
 Root      3 has converged.
 Root      4 has converged.
 Root      5 not converged, maximum delta is    0.001456168915316
 Excitation Energies [eV] at current iteration:
 Root      1 :     1.201714133949126   Change is   -0.000000001269472
 Root      2 :     1.908470537433999   Change is   -0.000000023713145
 Root      3 :     2.902788412970879   Change is   -0.000006609502591
 Root      4 :     2.960480322263908   Change is   -0.000011433198026
 Root      5 :     2.993132815877338   Change is   -0.000157716046920
 Iteration    12 Dimension    74 NMult    73 NNew      1
 CISAX will form     1 AO SS matrices at one time.
 NMat=     1 NSing=     1 JSym2X= 0.
 Root      1 has converged.
 Root      2 has converged.
 Root      3 has converged.
 Root      4 has converged.
 Root      5 has converged.
 Excitation Energies [eV] at current iteration:
 Root      1 :     1.201714131019237   Change is   -0.000000002929889
 Root      2 :     1.908470469154316   Change is   -0.000000068279682
 Root      3 :     2.902787641417225   Change is   -0.000000771553654
 Root      4 :     2.960478902394233   Change is   -0.000001419869675
 Root      5 :     2.993112194981296   Change is   -0.000020620896042
 Convergence achieved on expansion vectors.
 ***********************************************************************
 Excited states from <AA,BB:AA,BB> singles matrix:
 ***********************************************************************
 
 1PDM for each excited state written to RWF  633
 Ground to excited state transition densities written to RWF  633
 Ground to excited state transition electric dipole moments (Au):
       state          X           Y           Z        Dip. S.      Osc.
         1        -3.2587      3.3408     -0.3862     21.9292      0.6456
         2         0.9994      1.2083      0.1027      2.4694      0.1155
         3        -0.0998     -0.0236      0.0835      0.0175      0.0012
         4         1.8010      1.7591     -0.0378      6.3392      0.4598
         5         0.5530      0.4158      0.0246      0.4793      0.0351
 Ground to excited state transition velocity dipole moments (Au):
       state          X           Y           Z        Dip. S.      Osc.
         1        -0.0713      0.0334     -0.0040      0.0062      0.0938
         2        -0.0075     -0.0208     -0.0040      0.0005      0.0048
         3         0.0055      0.0008      0.0054      0.0001      0.0004
         4        -0.0584     -0.0484     -0.0025      0.0058      0.0353
         5        -0.0176     -0.0119      0.0009      0.0005      0.0028
 Ground to excited state transition magnetic dipole moments (Au):
       state          X           Y           Z
         1         0.0235      0.0125      0.2785
         2         0.0137      0.0600     -0.1948
         3         0.2838     -0.7398     -0.0946
         4         0.1862      0.0674     -0.2219
         5        -0.4466     -0.5691     -0.1271
 Ground to excited state transition velocity quadrupole moments (Au):
       state          XX          YY          ZZ          XY          XZ          YZ
         1        -1.3745      0.0529      0.0161      0.3018     -0.1191      0.1575
         2        -0.1709      0.0364     -0.0001     -0.1965     -0.0812      0.0112
         3         0.0603      0.0435      0.0019     -0.0332      0.0679     -0.0650
         4        -0.5905     -0.2609      0.0402     -0.1325     -0.0901     -0.0062
         5        -0.2238     -0.0494     -0.0308     -0.0314     -0.0379      0.0365
 <0|del|b> * <b|rxdel|0> + <0|del|b> * <b|delr+rdel|0>
 Rotatory Strengths (R) in cgs (10**-40 erg-esu-cm/Gauss)
       state          XX          YY          ZZ    R(velocity)    E-M Angle
         1        16.8629   -102.5027     47.9465    -12.5644       96.13
         2        -6.9566     -0.9694      2.1367     -1.9298       97.18
         3        -4.4129      2.9061      4.6362      1.0431       85.64
         4       -21.8825    -33.4149    -32.9342    -29.4105      126.99
         5        19.9529     22.9541     50.6726     31.1932       21.55
 1/2[<0|r|b>*<b|rxdel|0> + (<0|rxdel|b>*<b|r|0>)*]
 Rotatory Strengths (R) in cgs (10**-40 erg-esu-cm/Gauss)
       state          XX          YY          ZZ     R(length)
         1        54.0736    -29.5996     76.0652     33.5131
         2        -9.6867    -51.2680     14.1461    -15.6029
         3        20.0408    -12.3573      5.5851      4.4229
         4      -237.1126    -83.8499     -5.9297   -108.9641
         5       174.6241    167.3474      2.2134    114.7283
  1/2[<0|del|b>*<b|r|0> + (<0|r|b>*<b|del|0>)*] (Au)
       state          X           Y           Z        Dip. S.   Osc.(frdel)
         1         0.2323      0.1116      0.0015     -0.3454     -0.2303
         2        -0.0075     -0.0252     -0.0004      0.0330      0.0220
         3        -0.0006     -0.0000      0.0005      0.0001      0.0001
         4        -0.1051     -0.0851      0.0001      0.1901      0.1268
         5        -0.0097     -0.0050      0.0000      0.0147      0.0098

 Excitation energies and oscillator strengths:
 
 Excited State   1:      Singlet-A      1.2017 eV 1031.73 nm  f=0.6456  <S**2>=0.000
     175 ->178         0.16933
     176 ->177         0.66544
 This state for optimization and/or second-order correction.
 Total Energy, E(CIS/TDA) =  -474.479057897    
 Copying the excited state density for this state as the 1-particle RhoCI density.
 
 Excited State   2:      Singlet-A      1.9085 eV  649.65 nm  f=0.1155  <S**2>=0.000
     175 ->177         0.58415
     176 ->178        -0.35436
     176 ->179         0.11100
 
 Excited State   3:      Singlet-A      2.9028 eV  427.12 nm  f=0.0012  <S**2>=0.000
     168 ->177         0.34441
     168 ->178        -0.27655
     168 ->179        -0.35315
     168 ->181         0.20679
     168 ->186        -0.19003
     168 ->200         0.10031
 
 Excited State   4:      Singlet-A      2.9605 eV  418.80 nm  f=0.4598  <S**2>=0.000
     169 ->177        -0.10512
     169 ->181        -0.12537
     175 ->177         0.23930
     176 ->178         0.50937
     176 ->179         0.31757
 
 Excited State   5:      Singlet-A      2.9931 eV  414.23 nm  f=0.0351  <S**2>=0.000
     169 ->177         0.27694
     169 ->179         0.29515
     169 ->181         0.38845
     169 ->186         0.18407
     169 ->187         0.17214
     176 ->178         0.14728
     176 ->179         0.10290
 SavETr:  write IOETrn=   770 NScale= 10 NData=  16 NLR=1 NState=    5 LETran=     100.
 Leave Link  914 at Tue May  3 16:53:28 2022, MaxMem=  6710886400 cpu:             116.4 elap:               4.9
 (Enter /sw/apps/gaussian-16.0/g16/l601.exe)
 Copying SCF densities to generalized density rwf, IOpCl= 0 IROHF=0.

 **********************************************************************

            Population analysis using the SCF density.

 **********************************************************************

 Orbital symmetries:
       Occupied  (A) (A) (A) (A) (A) (A) (A) (A) (A) (A) (A) (A)
                 (A) (A) (A) (A) (A) (A) (A) (A) (A) (A) (A) (A)
                 (A) (A) (A) (A) (A) (A) (A) (A) (A) (A) (A) (A)
                 (A) (A) (A) (A) (A) (A) (A) (A) (A) (A) (A) (A)
                 (A) (A) (A) (A) (A) (A) (A) (A) (A) (A) (A) (A)
                 (A) (A) (A) (A) (A) (A) (A) (A) (A) (A) (A) (A)
                 (A) (A) (A) (A) (A) (A) (A) (A) (A) (A) (A) (A)
                 (A) (A) (A) (A) (A) (A) (A) (A) (A) (A) (A) (A)
                 (A) (A) (A) (A) (A) (A) (A) (A) (A) (A) (A) (A)
                 (A) (A) (A) (A) (A) (A) (A) (A) (A) (A) (A) (A)
                 (A) (A) (A) (A) (A) (A) (A) (A) (A) (A) (A) (A)
                 (A) (A) (A) (A) (A) (A) (A) (A) (A) (A) (A) (A)
                 (A) (A) (A) (A) (A) (A) (A) (A) (A) (A) (A) (A)
                 (A) (A) (A) (A) (A) (A) (A) (A) (A) (A) (A) (A)
                 (A) (A) (A) (A) (A) (A) (A) (A)
       Virtual   (A) (A) (A) (A) (A) (A) (A) (A) (A) (A) (A) (A)
                 (A) (A) (A) (A) (A) (A) (A) (A) (A) (A) (A) (A)
                 (A) (A) (A) (A) (A) (A) (A) (A) (A) (A) (A) (A)
                 (A) (A) (A) (A) (A) (A) (A) (A) (A) (A) (A) (A)
                 (A) (A) (A) (A) (A) (A) (A) (A) (A) (A) (A) (A)
                 (A) (A) (A) (A) (A) (A) (A) (A) (A) (A) (A) (A)
                 (A) (A) (A) (A) (A) (A) (A) (A) (A) (A) (A) (A)
                 (A) (A) (A) (A) (A) (A) (A) (A) (A) (A) (A) (A)
                 (A) (A) (A) (A) (A) (A) (A) (A) (A) (A) (A) (A)
                 (A) (A) (A) (A) (A) (A) (A) (A) (A) (A) (A) (A)
                 (A) (A) (A) (A) (A) (A) (A) (A) (A) (A) (A) (A)
                 (A) (A) (A) (A) (A) (A) (A) (A) (A) (A) (A) (A)
                 (A) (A) (A) (A) (A) (A) (A) (A) (A) (A) (A) (A)
                 (A) (A) (A) (A) (A) (A)
 The electronic state is 1-A.
 Alpha  occ. eigenvalues --   -1.86127  -1.82256  -1.80383  -1.74023  -1.72842
 Alpha  occ. eigenvalues --   -1.70974  -1.65839  -1.60986  -1.59306  -1.58124
 Alpha  occ. eigenvalues --   -1.54839  -1.51558  -1.50405  -1.49261  -1.47622
 Alpha  occ. eigenvalues --   -1.44342  -1.42857  -1.40856  -1.40222  -1.38507
 Alpha  occ. eigenvalues --   -1.37639  -1.33548  -1.32593  -1.31159  -1.29452
 Alpha  occ. eigenvalues --   -1.28097  -1.24886  -1.22267  -1.20496  -1.18740
 Alpha  occ. eigenvalues --   -1.18266  -1.18108  -1.16105  -1.14977  -1.12913
 Alpha  occ. eigenvalues --   -1.12654  -1.10639  -1.09259  -1.04715  -1.03857
 Alpha  occ. eigenvalues --   -1.03524  -1.01102  -0.98488  -0.97946  -0.96823
 Alpha  occ. eigenvalues --   -0.96562  -0.95067  -0.94406  -0.92452  -0.91542
 Alpha  occ. eigenvalues --   -0.91110  -0.89868  -0.89393  -0.88553  -0.85937
 Alpha  occ. eigenvalues --   -0.85835  -0.84298  -0.82643  -0.81923  -0.80943
 Alpha  occ. eigenvalues --   -0.80079  -0.78722  -0.78570  -0.77221  -0.76469
 Alpha  occ. eigenvalues --   -0.75985  -0.75799  -0.74649  -0.73896  -0.72968
 Alpha  occ. eigenvalues --   -0.72385  -0.71918  -0.71263  -0.70995  -0.70567
 Alpha  occ. eigenvalues --   -0.70061  -0.68717  -0.68250  -0.67958  -0.67768
 Alpha  occ. eigenvalues --   -0.67379  -0.66858  -0.66779  -0.66345  -0.66068
 Alpha  occ. eigenvalues --   -0.65286  -0.64803  -0.64337  -0.64004  -0.63819
 Alpha  occ. eigenvalues --   -0.63458  -0.62986  -0.62851  -0.62693  -0.61862
 Alpha  occ. eigenvalues --   -0.61397  -0.61320  -0.60684  -0.60381  -0.60180
 Alpha  occ. eigenvalues --   -0.59923  -0.59544  -0.59266  -0.59005  -0.58209
 Alpha  occ. eigenvalues --   -0.58001  -0.57695  -0.57231  -0.56832  -0.56676
 Alpha  occ. eigenvalues --   -0.56436  -0.55833  -0.55189  -0.54905  -0.54587
 Alpha  occ. eigenvalues --   -0.53903  -0.53634  -0.53024  -0.52883  -0.52417
 Alpha  occ. eigenvalues --   -0.52375  -0.52106  -0.52083  -0.51936  -0.51455
 Alpha  occ. eigenvalues --   -0.51223  -0.50883  -0.50757  -0.50198  -0.49928
 Alpha  occ. eigenvalues --   -0.49784  -0.49497  -0.49432  -0.49313  -0.49123
 Alpha  occ. eigenvalues --   -0.48623  -0.48559  -0.48086  -0.47777  -0.47457
 Alpha  occ. eigenvalues --   -0.47253  -0.47113  -0.46925  -0.46736  -0.46482
 Alpha  occ. eigenvalues --   -0.46276  -0.46165  -0.45938  -0.45157  -0.44966
 Alpha  occ. eigenvalues --   -0.44834  -0.44525  -0.44451  -0.44202  -0.44014
 Alpha  occ. eigenvalues --   -0.43980  -0.43731  -0.42494  -0.42222  -0.42193
 Alpha  occ. eigenvalues --   -0.41855  -0.41162  -0.40702  -0.39199  -0.38106
 Alpha  occ. eigenvalues --   -0.37927  -0.37047  -0.34873  -0.34528  -0.34148
 Alpha  occ. eigenvalues --   -0.33733  -0.33198  -0.32820  -0.32466  -0.26483
 Alpha  occ. eigenvalues --   -0.21741
 Alpha virt. eigenvalues --   -0.08923  -0.01555  -0.00215   0.01264   0.01714
 Alpha virt. eigenvalues --    0.02847   0.03379   0.03701   0.04576   0.05401
 Alpha virt. eigenvalues --    0.06670   0.07126   0.07844   0.08012   0.08432
 Alpha virt. eigenvalues --    0.08564   0.08906   0.09075   0.09398   0.09477
 Alpha virt. eigenvalues --    0.10031   0.10067   0.10183   0.10667   0.10733
 Alpha virt. eigenvalues --    0.10870   0.11312   0.11583   0.12019   0.12158
 Alpha virt. eigenvalues --    0.12595   0.12701   0.13077   0.13509   0.13706
 Alpha virt. eigenvalues --    0.13824   0.14054   0.14069   0.14702   0.14764
 Alpha virt. eigenvalues --    0.15232   0.15312   0.15522   0.15622   0.15664
 Alpha virt. eigenvalues --    0.15789   0.16329   0.16631   0.16750   0.17024
 Alpha virt. eigenvalues --    0.17254   0.17373   0.17752   0.17839   0.18021
 Alpha virt. eigenvalues --    0.18088   0.18732   0.19116   0.19237   0.19327
 Alpha virt. eigenvalues --    0.19749   0.19986   0.20025   0.20493   0.20985
 Alpha virt. eigenvalues --    0.21219   0.21724   0.23555   0.23654   0.23800
 Alpha virt. eigenvalues --    0.23847   0.23999   0.24042   0.24157   0.24178
 Alpha virt. eigenvalues --    0.24199   0.24311   0.24550   0.24757   0.24848
 Alpha virt. eigenvalues --    0.24934   0.25001   0.25058   0.25243   0.25249
 Alpha virt. eigenvalues --    0.25312   0.25391   0.25392   0.25398   0.25449
 Alpha virt. eigenvalues --    0.25559   0.25608   0.25704   0.25735   0.25771
 Alpha virt. eigenvalues --    0.25845   0.25875   0.25954   0.26003   0.26040
 Alpha virt. eigenvalues --    0.26109   0.26246   0.26491   0.26524   0.26558
 Alpha virt. eigenvalues --    0.26577   0.26598   0.26680   0.26757   0.26862
 Alpha virt. eigenvalues --    0.26988   0.27097   0.27420   0.27491   0.27834
 Alpha virt. eigenvalues --    0.27900   0.28184   0.28456   0.28716   0.28962
 Alpha virt. eigenvalues --    0.29238   0.29971   0.30298   0.30539   0.31469
 Alpha virt. eigenvalues --    0.31633   0.32202   0.32488   0.33626   0.34910
 Alpha virt. eigenvalues --    0.35019   0.35432   0.35957   0.36214   0.36504
 Alpha virt. eigenvalues --    0.36813   0.36958   0.37182   0.37747   0.38220
 Alpha virt. eigenvalues --    0.39044   0.39437   0.39677   0.40009   0.41069
 Alpha virt. eigenvalues --    0.41181   0.41678   0.41925   0.42356   0.43620
 Alpha virt. eigenvalues --    0.44072   0.44547   0.45118   0.45771   0.47036
 Alpha virt. eigenvalues --    0.47916   0.48780   0.49070   0.51437   0.53437
 Alpha virt. eigenvalues --    0.54845   0.56736
          Condensed to atoms (all electrons):
 Mulliken charges:
               1
     1  Mg   0.423927
     2  C   -0.028946
     3  C   -0.098300
     4  C   -0.066362
     5  C   -0.083909
     6  N   -0.296975
     7  C    0.120758
     8  C    0.008066
     9  C    0.004115
    10  C    0.140329
    11  C   -0.050257
    12  C   -0.016417
    13  C   -0.001495
    14  C    0.469849
    15  O   -0.532077
    16  O   -0.268809
    17  N   -0.300438
    18  C    0.103807
    19  C    0.008092
    20  C   -0.059225
    21  C    0.134326
    22  C   -0.038591
    23  C    0.317477
    24  O   -0.527293
    25  C   -0.047085
    26  N   -0.280575
    27  C    0.138126
    28  C    0.002821
    29  C    0.000891
    30  C    0.135478
    31  C   -0.053425
    32  C   -0.022053
    33  C   -0.048397
    34  N   -0.312347
    35  C    0.101683
    36  C    0.030909
    37  C   -0.043163
    38  C    0.114230
    39  C   -0.040802
    40  C    0.343811
    41  O   -0.522052
    42  C    0.059728
    43  C    0.511388
    44  O   -0.526545
    45  O   -0.288294
    46  C    0.075258
    47  C    0.096628
    48  C   -0.083240
    49  C   -0.000027
    50  C   -0.042298
    51  C   -0.023568
    52  C   -0.040700
    53  C   -0.033706
    54  C   -0.004643
    55  C   -0.059266
    56  C   -0.036020
    57  C   -0.042198
    58  C   -0.031860
    59  C   -0.021101
    60  C   -0.052814
    61  C   -0.047651
    62  C   -0.040331
    63  C   -0.044773
    64  C   -0.023318
    65  C   -0.055355
    66  C   -0.052103
    67  H    0.027158
    68  H    0.041981
    69  H    0.022127
    70  H    0.038836
    71  H    0.024449
    72  H    0.026671
    73  H    0.035574
    74  H    0.028541
    75  H    0.021505
    76  H    0.024313
    77  H    0.041518
    78  H    0.039017
    79  H    0.021385
    80  H    0.038149
    81  H    0.022853
    82  H    0.024933
    83  H    0.048534
    84  H    0.056137
    85  H    0.036453
    86  H    0.033821
    87  H    0.018469
    88  H    0.021686
    89  H    0.029595
    90  H    0.027504
    91  H    0.009248
    92  H    0.017389
    93  H    0.013530
    94  H    0.017802
    95  H    0.033486
    96  H    0.032159
    97  H    0.037191
    98  H    0.058892
    99  H    0.036792
   100  H    0.039607
   101  H    0.038561
   102  H    0.054003
   103  H    0.054428
   104  H    0.030037
   105  H    0.020751
   106  H    0.039370
   107  H    0.024221
   108  H    0.023125
   109  H    0.025003
   110  H    0.017614
   111  H    0.013720
   112  H    0.012058
   113  H    0.025664
   114  H    0.023786
   115  H    0.012957
   116  H    0.015881
   117  H    0.020643
   118  H    0.022632
   119  H    0.015472
   120  H    0.013697
   121  H    0.029211
   122  H    0.016723
   123  H    0.017774
   124  H    0.027004
   125  H    0.019940
   126  H    0.019653
   127  H    0.009180
   128  H    0.023160
   129  H    0.021864
   130  H    0.023205
   131  H    0.026350
   132  H    0.015598
   133  H    0.011670
   134  H    0.014096
   135  H    0.027243
   136  H    0.015448
   137  H    0.022810
   138  H    0.018245
   139  H    0.017434
   140  H    0.019570
 Sum of Mulliken charges =  -0.00000
 Mulliken charges with hydrogens summed into heavy atoms:
               1
     1  Mg   0.423927
     2  C   -0.028946
     3  C   -0.071142
     4  C   -0.024380
     5  C   -0.061782
     6  N   -0.296975
     7  C    0.120758
     8  C    0.046902
     9  C    0.028565
    10  C    0.140329
    11  C    0.040528
    12  C    0.029401
    13  C    0.079039
    14  C    0.469849
    15  O   -0.532077
    16  O   -0.268809
    17  N   -0.300438
    18  C    0.103807
    19  C    0.008092
    20  C   -0.059225
    21  C    0.134326
    22  C    0.043796
    23  C    0.317477
    24  O   -0.527293
    25  C    0.082520
    26  N   -0.280575
    27  C    0.138126
    28  C    0.039274
    29  C    0.034712
    30  C    0.135478
    31  C    0.016326
    32  C    0.014699
    33  C    0.000325
    34  N   -0.312347
    35  C    0.101683
    36  C    0.030909
    37  C   -0.043163
    38  C    0.114230
    39  C    0.062034
    40  C    0.343811
    41  O   -0.522052
    42  C    0.118619
    43  C    0.511388
    44  O   -0.526545
    45  O   -0.288294
    46  C    0.190217
    47  C    0.205059
    48  C   -0.053204
    49  C   -0.000027
    50  C    0.042044
    51  C    0.024560
    52  C   -0.009365
    53  C    0.004017
    54  C    0.019144
    55  C   -0.009785
    56  C    0.002084
    57  C    0.000709
    58  C    0.002637
    59  C    0.005903
    60  C   -0.004040
    61  C   -0.002628
    62  C    0.009223
    63  C   -0.017506
    64  C   -0.009223
    65  C    0.010147
    66  C    0.003146
 Charge=             -0.0000 electrons
 Dipole moment (field-independent basis, Debye):
    X=             -6.0822    Y=              2.0331    Z=              2.7590  Tot=              6.9813
 N-N= 4.265972184027D+03 E-N= 0.000000000000D+00  KE=-9.206525309553D+03
 Leave Link  601 at Tue May  3 16:53:28 2022, MaxMem=  6710886400 cpu:               0.7 elap:               0.0
 (Enter /sw/apps/gaussian-16.0/g16/l9999.exe)
 1\1\GINC-BP1-COMPUTE196\SP\RZINDO CIS\STO-3G\C55H74Mg1N4O6\OF15641\03-
 May-2022\0\\#p ZINDO=(nstates=5)\\step_1001_chromophore_21 ZINDO\\0,1\
 Mg,0,15.466,51.725,25.084\C,0,17.472,50.798,27.885\C,0,12.857,52.187,2
 7.278\C,0,13.525,52.422,22.41\C,0,17.854,50.43,23.007\N,0,15.254,51.61
 ,27.303\C,0,16.242,51.304,28.277\C,0,15.702,51.689,29.663\C,0,14.141,5
 1.832,29.401\C,0,14.071,51.877,27.904\C,0,13.267,50.741,29.969\C,0,16.
 46,52.897,30.171\C,0,16.471,53.249,31.695\C,0,15.676,52.34,32.661\O,0,
 16.087,51.28,33.179\O,0,14.465,52.884,32.91\N,0,13.49,52.345,24.866\C,
 0,12.561,52.355,25.846\C,0,11.268,52.681,25.382\C,0,11.407,52.649,23.9
 72\C,0,12.85,52.486,23.693\C,0,10.076,52.874,26.247\C,0,10.369,52.702,
 22.854\O,0,10.564,52.787,21.649\C,0,8.889,52.665,23.282\N,0,15.689,51.
 566,23.001\C,0,14.795,52.051,22.116\C,0,15.443,52.194,20.721\C,0,16.80
 1,51.365,20.894\C,0,16.772,51.024,22.357\C,0,14.706,51.664,19.457\C,0,
 18.13,51.968,20.371\C,0,18.77,51.37,19.18\N,0,17.333,50.866,25.382\C,0
 ,18.167,50.365,24.436\C,0,19.335,49.783,25.082\C,0,19.112,49.897,26.44
 8\C,0,17.879,50.565,26.58\C,0,20.462,49.07,24.342\C,0,19.584,49.565,27
 .72\O,0,20.61,49.018,28.066\C,0,18.571,50.196,28.734\C,0,18.105,49.099
 ,29.489\O,0,17.277,48.284,29.196\O,0,18.749,49.168,30.717\C,0,18.468,4
 8.235,31.799\C,0,13.626,52.098,33.885\C,0,12.29,52.875,33.983\C,0,11.2
 51,52.677,34.767\C,0,11.088,51.481,35.682\C,0,10.049,53.582,34.533\C,0
 ,9.683,54.549,35.741\C,0,9.79,56.093,35.517\C,0,8.386,56.772,35.482\C,
 0,8.424,57.942,34.497\C,0,7.97,57.237,36.869\C,0,6.492,56.824,37.282\C
 ,0,5.794,57.871,38.152\C,0,4.385,58.135,37.592\C,0,4.4,59.417,36.842\C
 ,0,3.222,57.96,38.676\C,0,2.078,57.134,38.029\C,0,0.709,57.59,38.564\C
 ,0,-0.51,57.679,37.535\C,0,-0.511,56.398,36.585\C,0,-0.617,59.122,36.9
 76\H,0,12.06,52.266,28.02\H,0,13.017,52.725,21.492\H,0,18.63,50.07,22.
 329\H,0,15.901,50.925,30.415\H,0,13.831,52.813,29.76\H,0,12.729,51.211
 ,30.792\H,0,13.933,49.918,30.229\H,0,12.629,50.428,29.143\H,0,16.077,5
 3.778,29.656\H,0,17.483,52.689,29.856\H,0,16.203,54.303,31.774\H,0,17.
 518,53.067,31.937\H,0,10.437,53.281,27.192\H,0,9.5,51.958,26.382\H,0,9
 .417,53.669,25.899\H,0,8.919,51.752,23.876\H,0,8.359,52.317,22.395\H,0
 ,8.67,53.56,23.863\H,0,15.661,53.243,20.522\H,0,16.699,50.361,20.481\H
 ,0,15.316,50.979,18.869\H,0,14.48,52.505,18.801\H,0,13.82,51.111,19.76
 8\H,0,18.831,52.207,21.171\H,0,17.898,52.959,19.981\H,0,18.832,52.062,
 18.341\H,0,18.19,50.541,18.776\H,0,19.767,50.96,19.347\H,0,20.975,49.7
 98,23.714\H,0,20.032,48.292,23.712\H,0,21.081,48.62,25.119\H,0,19.163,
 50.897,29.323\H,0,19.049,48.399,32.707\H,0,18.648,47.222,31.44\H,0,17.
 438,48.262,32.155\H,0,14.234,52.008,34.784\H,0,13.532,51.064,33.554\H,
 0,12.244,53.659,33.227\H,0,10.152,50.997,35.404\H,0,11.051,51.711,36.7
 46\H,0,11.805,50.714,35.387\H,0,9.173,52.948,34.393\H,0,10.215,54.211,
 33.659\H,0,10.233,54.273,36.64\H,0,8.652,54.274,35.966\H,0,10.266,56.1
 96,34.541\H,0,10.441,56.612,36.22\H,0,7.68,56.035,35.101\H,0,7.848,58.
 73,34.98\H,0,7.963,57.725,33.533\H,0,9.409,58.359,34.288\H,0,8.036,58.
 322,36.948\H,0,8.611,56.829,37.65\H,0,6.574,55.981,37.968\H,0,5.936,56
 .519,36.396\H,0,6.446,58.743,38.169\H,0,5.698,57.671,39.219\H,0,4.069,
 57.545,36.733\H,0,5.387,59.65,36.441\H,0,4.012,60.19,37.505\H,0,3.745,
 59.269,35.983\H,0,2.719,58.875,38.99\H,0,3.497,57.459,39.604\H,0,2.237
 ,56.097,38.324\H,0,2.032,57.318,36.956\H,0,0.789,58.589,38.993\H,0,0.4
 25,56.903,39.361\H,0,-1.334,57.647,38.247\H,0,-0.237,56.651,35.561\H,0
 ,-1.501,55.944,36.608\H,0,0.124,55.625,37.017\H,0,-1.129,59.643,37.785
 \H,0,-1.191,59.257,36.059\H,0,0.35,59.588,36.783\\Version=ES64L-G16Rev
 A.03\State=1-A\HF=-474.5232201\RMSD=4.014e-09\PG=C01 [X(C55H74Mg1N4O6)
 ]\\@


 JUST WHEN YOU THINK YOU'VE GOT THE WORLD ON A STRING,
 YOU FIND OUT IT'S YOUR LEASH.
 Job cpu time:       0 days  0 hours  2 minutes 46.3 seconds.
 Elapsed time:       0 days  0 hours  0 minutes  7.2 seconds.
 File lengths (MBytes):  RWF=   1263 Int=      0 D2E=      0 Chk=     38 Scr=      1
 Normal termination of Gaussian 16 at Tue May  3 16:53:29 2022.
