 Entering Gaussian System, Link 0=g16
 Initial command:
 /sw/apps/gaussian-16.0/g16/l1.exe "/tmp/Gau-139027.inp" -scrdir="/tmp/"
 Entering Link 1 = /sw/apps/gaussian-16.0/g16/l1.exe PID=    139028.
  
 Copyright (c) 1988,1990,1992,1993,1995,1998,2003,2009,2016,
            Gaussian, Inc.  All Rights Reserved.
  
 This is part of the Gaussian(R) 16 program.  It is based on
 the Gaussian(R) 09 system (copyright 2009, Gaussian, Inc.),
 the Gaussian(R) 03 system (copyright 2003, Gaussian, Inc.),
 the Gaussian(R) 98 system (copyright 1998, Gaussian, Inc.),
 the Gaussian(R) 94 system (copyright 1995, Gaussian, Inc.),
 the Gaussian 92(TM) system (copyright 1992, Gaussian, Inc.),
 the Gaussian 90(TM) system (copyright 1990, Gaussian, Inc.),
 the Gaussian 88(TM) system (copyright 1988, Gaussian, Inc.),
 the Gaussian 86(TM) system (copyright 1986, Carnegie Mellon
 University), and the Gaussian 82(TM) system (copyright 1983,
 Carnegie Mellon University). Gaussian is a federally registered
 trademark of Gaussian, Inc.
  
 This software contains proprietary and confidential information,
 including trade secrets, belonging to Gaussian, Inc.
  
 This software is provided under written license and may be
 used, copied, transmitted, or stored only in accord with that
 written license.
  
 The following legend is applicable only to US Government
 contracts under FAR:
  
                    RESTRICTED RIGHTS LEGEND
  
 Use, reproduction and disclosure by the US Government is
 subject to restrictions as set forth in subparagraphs (a)
 and (c) of the Commercial Computer Software - Restricted
 Rights clause in FAR 52.227-19.
  
 Gaussian, Inc.
 340 Quinnipiac St., Bldg. 40, Wallingford CT 06492
  
  
 ---------------------------------------------------------------
 Warning -- This program may not be used in any manner that
 competes with the business of Gaussian, Inc. or will provide
 assistance to any competitor of Gaussian, Inc.  The licensee
 of this program is prohibited from giving any competitor of
 Gaussian, Inc. access to this program.  By using this program,
 the user acknowledges that Gaussian, Inc. is engaged in the
 business of creating and licensing software in the field of
 computational chemistry and represents and warrants to the
 licensee that it is not a competitor of Gaussian, Inc. and that
 it will not use this program in any manner prohibited above.
 ---------------------------------------------------------------
  

 Cite this work as:
 Gaussian 16, Revision A.03,
 M. J. Frisch, G. W. Trucks, H. B. Schlegel, G. E. Scuseria, 
 M. A. Robb, J. R. Cheeseman, G. Scalmani, V. Barone, 
 G. A. Petersson, H. Nakatsuji, X. Li, M. Caricato, A. V. Marenich, 
 J. Bloino, B. G. Janesko, R. Gomperts, B. Mennucci, H. P. Hratchian, 
 J. V. Ortiz, A. F. Izmaylov, J. L. Sonnenberg, D. Williams-Young, 
 F. Ding, F. Lipparini, F. Egidi, J. Goings, B. Peng, A. Petrone, 
 T. Henderson, D. Ranasinghe, V. G. Zakrzewski, J. Gao, N. Rega, 
 G. Zheng, W. Liang, M. Hada, M. Ehara, K. Toyota, R. Fukuda, 
 J. Hasegawa, M. Ishida, T. Nakajima, Y. Honda, O. Kitao, H. Nakai, 
 T. Vreven, K. Throssell, J. A. Montgomery, Jr., J. E. Peralta, 
 F. Ogliaro, M. J. Bearpark, J. J. Heyd, E. N. Brothers, K. N. Kudin, 
 V. N. Staroverov, T. A. Keith, R. Kobayashi, J. Normand, 
 K. Raghavachari, A. P. Rendell, J. C. Burant, S. S. Iyengar, 
 J. Tomasi, M. Cossi, J. M. Millam, M. Klene, C. Adamo, R. Cammi, 
 J. W. Ochterski, R. L. Martin, K. Morokuma, O. Farkas, 
 J. B. Foresman, and D. J. Fox, Gaussian, Inc., Wallingford CT, 2016.
 
 ******************************************
 Gaussian 16:  ES64L-G16RevA.03 25-Dec-2016
                 5-May-2022 
 ******************************************
 %nproc=24
 Will use up to   24 processors via shared memory.
 %mem=75GB
 ---------------------------------
 #p PBE1PBE/Def2SVP td=(nstates=5)
 ---------------------------------
 1/38=1,172=1/1;
 2/12=2,17=6,18=5,40=1/2;
 3/5=43,7=101,11=9,25=1,30=1,74=-13/1,2,3,8;
 4//1;
 5/5=2,38=5/2;
 8/6=1,10=1,108=5/1;
 9/41=5,42=1,70=2/14;
 6/7=2,8=2,9=2,10=2/1;
 99/5=1,9=1/99;
 Leave Link    1 at Thu May  5 12:02:09 2022, MaxMem= 10066329600 cpu:               1.8 elap:               0.1
 (Enter /sw/apps/gaussian-16.0/g16/l101.exe)
 ----------------------------------------------------
 step_851_chromophore_5 TDDFT with PBE1PBE functional
 ----------------------------------------------------
 Symbolic Z-matrix:
 Charge =  0 Multiplicity = 1
 Mg                    24.449   -6.273     45.988 
 C                     26.886   -4.089     45.06 
 C                     22.241   -4.434     44.07 
 C                     22.331   -8.843     46.024 
 C                     26.938   -8.263     47.296 
 N                     24.629   -4.681     44.465 
 C                     25.72    -3.863     44.358 
 C                     25.525   -2.655     43.502 
 C                     23.964   -2.536     43.642 
 C                     23.567   -3.97      44.105 
 C                     23.363   -1.435     44.575 
 C                     26.042   -3.056     42.105 
 C                     25.85    -2.043     40.884 
 C                     24.758   -2.28      39.752 
 O                     23.612   -1.832     39.809 
 O                     25.253   -2.889     38.605 
 N                     22.437   -6.567     45.203 
 C                     21.738   -5.659     44.496 
 C                     20.438   -6.144     44.344 
 C                     20.38    -7.565     44.789 
 C                     21.713   -7.727     45.387 
 C                     19.41    -5.251     43.633 
 C                     19.207   -8.517     44.595 
 O                     18.195   -8.07      44.114 
 C                     19.284   -9.971     44.855 
 N                     24.654   -8.222     46.472 
 C                     23.597   -9.056     46.58 
 C                     23.895   -10.314    47.416 
 C                     25.45    -10.285    47.508 
 C                     25.72    -8.834     47.087 
 C                     23.09    -10.381    48.777 
 C                     26.244   -11.208    46.578 
 C                     26.952   -12.395    47.133 
 N                     26.501   -6.177     46.363 
 C                     27.355   -6.959     46.958 
 C                     28.605   -6.336     47.215 
 C                     28.487   -5.142     46.469 
 C                     27.183   -5.16      45.919 
 C                     29.755   -6.893     47.887 
 C                     29.118   -3.829     46.065 
 O                     30.221   -3.317     46.347 
 C                     28.055   -3.137     45.054 
 C                     27.864   -1.759     45.706 
 O                     28.297   -0.669     45.373 
 O                     26.987   -1.884     46.762 
 C                     26.245   -0.72      47.314 
 C                     24.303   -2.771     37.461 
 C                     23.671   -4.034     36.946 
 C                     24.241   -5.032     36.217 
 C                     25.68    -5.125     35.703 
 C                     23.41    -6.228     35.767 
 C                     22.464   -6.019     34.547 
 C                     22.571   -7.038     33.455 
 C                     23.204   -6.47      32.144 
 C                     22.571   -6.978     30.833 
 C                     24.745   -6.736     31.965 
 C                     25.451   -5.532     31.28 
 C                     26.002   -5.976     29.916 
 C                     25.464   -5.17      28.738 
 C                     26.422   -3.964     28.714 
 C                     25.387   -6.019     27.437 
 C                     24.665   -5.295     26.283 
 C                     23.137   -5.643     26.279 
 C                     22.297   -4.331     26.474 
 C                     21.537   -4.15      27.79 
 C                     21.571   -4.033     25.153 
 H                     21.57    -3.698     43.622 
 H                     21.757   -9.764     46.149 
 H                     27.681   -8.878     47.806 
 H                     26.032   -1.766     43.878 
 H                     23.538   -2.347     42.657 
 H                     24.135   -0.78      44.979 
 H                     22.957   -1.924     45.46 
 H                     22.5     -0.963     44.105 
 H                     25.521   -3.977     41.843 
 H                     27.12    -3.154     42.229 
 H                     26.817   -1.912     40.399 
 H                     25.531   -1.128     41.383 
 H                     19.29    -5.543     42.589 
 H                     19.624   -4.183     43.603 
 H                     18.507   -5.285     44.242 
 H                     19.156   -10.194    45.914 
 H                     20.224   -10.32     44.429 
 H                     18.376   -10.402    44.434 
 H                     23.574   -11.088    46.72 
 H                     25.805   -10.527    48.509 
 H                     23.628   -9.848     49.562 
 H                     22.918   -11.436    48.988 
 H                     22.172   -9.793     48.741 
 H                     27.026   -10.606    46.115 
 H                     25.549   -11.618    45.844 
 H                     28.      -12.412    46.834 
 H                     26.524   -13.322    46.751 
 H                     26.948   -12.221    48.209 
 H                     29.471   -7.589     48.676 
 H                     30.317   -6.046     48.281 
 H                     30.335   -7.378     47.102 
 H                     28.601   -3.        44.12 
 H                     25.358   -0.439     46.746 
 H                     26.924    0.07      47.636 
 H                     25.849   -1.042     48.277 
 H                     24.944   -2.469     36.632 
 H                     23.463   -2.088     37.592 
 H                     22.6     -4.142     37.113 
 H                     25.802   -5.61      34.735 
 H                     26.345   -5.661     36.381 
 H                     25.995   -4.098     35.518 
 H                     22.734   -6.528     36.569 
 H                     24.086   -7.078     35.678 
 H                     22.385   -4.987     34.205 
 H                     21.509   -6.293     34.995 
 H                     21.546   -7.382     33.319 
 H                     23.129   -7.891     33.843 
 H                     23.033   -5.394     32.159 
 H                     23.186   -7.599     30.183 
 H                     22.268   -6.086     30.285 
 H                     21.67    -7.556     31.038 
 H                     24.822   -7.646     31.369 
 H                     25.195   -7.061     32.903 
 H                     26.21    -5.302     32.029 
 H                     24.947   -4.565     31.266 
 H                     25.676   -7.002     29.746 
 H                     27.086   -5.863     29.961 
 H                     24.468   -4.803     28.984 
 H                     27.144   -4.22      27.939 
 H                     26.959   -3.712     29.629 
 H                     25.759   -3.138     28.458 
 H                     24.908   -6.969     27.673 
 H                     26.351   -6.461     27.184 
 H                     25.116   -5.598     25.338 
 H                     24.728   -4.207     26.324 
 H                     22.863   -6.28      27.119 
 H                     23.002   -6.132     25.314 
 H                     22.874   -3.411     26.564 
 H                     20.483   -4.251     27.532 
 H                     21.796   -3.212     28.281 
 H                     21.724   -4.974     28.478 
 H                     20.604   -3.592     25.397 
 H                     21.352   -4.882     24.504 
 H                     22.072   -3.199     24.662 
 
 ITRead=  0  0  0  0  0  0  0  0  0  0  0  0  0  0  0  0  0  0  0  0
 ITRead=  0  0  0  0  0  0  0  0  0  0  0  0  0  0  0  0  0  0  0  0
 ITRead=  0  0  0  0  0  0  0  0  0  0  0  0  0  0  0  0  0  0  0  0
 ITRead=  0  0  0  0  0  0  0  0  0  0  0  0  0  0  0  0  0  0  0  0
 ITRead=  0  0  0  0  0  0  0  0  0  0  0  0  0  0  0  0  0  0  0  0
 ITRead=  0  0  0  0  0  0  0  0  0  0  0  0  0  0  0  0  0  0  0  0
 ITRead=  0  0  0  0  0  0  0  0  0  0  0  0  0  0  0  0  0  0  0  0
 MicOpt= -1 -1 -1 -1 -1 -1 -1 -1 -1 -1 -1 -1 -1 -1 -1 -1 -1 -1 -1 -1
 MicOpt= -1 -1 -1 -1 -1 -1 -1 -1 -1 -1 -1 -1 -1 -1 -1 -1 -1 -1 -1 -1
 MicOpt= -1 -1 -1 -1 -1 -1 -1 -1 -1 -1 -1 -1 -1 -1 -1 -1 -1 -1 -1 -1
 MicOpt= -1 -1 -1 -1 -1 -1 -1 -1 -1 -1 -1 -1 -1 -1 -1 -1 -1 -1 -1 -1
 MicOpt= -1 -1 -1 -1 -1 -1 -1 -1 -1 -1 -1 -1 -1 -1 -1 -1 -1 -1 -1 -1
 MicOpt= -1 -1 -1 -1 -1 -1 -1 -1 -1 -1 -1 -1 -1 -1 -1 -1 -1 -1 -1 -1
 MicOpt= -1 -1 -1 -1 -1 -1 -1 -1 -1 -1 -1 -1 -1 -1 -1 -1 -1 -1 -1 -1
 NAtoms=    140 NQM=      140 NQMF=       0 NMMI=      0 NMMIF=      0
                NMic=       0 NMicF=      0.
                    Isotopes and Nuclear Properties:
 (Nuclear quadrupole moments (NQMom) in fm**2, nuclear magnetic moments (NMagM)
  in nuclear magnetons)

  Atom         1           2           3           4           5           6           7           8           9          10
 IAtWgt=          24          12          12          12          12          14          12          12          12          12
 AtmWgt=  23.9850450  12.0000000  12.0000000  12.0000000  12.0000000  14.0030740  12.0000000  12.0000000  12.0000000  12.0000000
 NucSpn=           0           0           0           0           0           2           0           0           0           0
 AtZEff=  -0.0000000  -0.0000000  -0.0000000  -0.0000000  -0.0000000  -0.0000000  -0.0000000  -0.0000000  -0.0000000  -0.0000000
 NQMom=    0.0000000   0.0000000   0.0000000   0.0000000   0.0000000   2.0440000   0.0000000   0.0000000   0.0000000   0.0000000
 NMagM=    0.0000000   0.0000000   0.0000000   0.0000000   0.0000000   0.4037610   0.0000000   0.0000000   0.0000000   0.0000000
 AtZNuc=  12.0000000   6.0000000   6.0000000   6.0000000   6.0000000   7.0000000   6.0000000   6.0000000   6.0000000   6.0000000

  Atom        11          12          13          14          15          16          17          18          19          20
 IAtWgt=          12          12          12          12          16          16          14          12          12          12
 AtmWgt=  12.0000000  12.0000000  12.0000000  12.0000000  15.9949146  15.9949146  14.0030740  12.0000000  12.0000000  12.0000000
 NucSpn=           0           0           0           0           0           0           2           0           0           0
 AtZEff=  -0.0000000  -0.0000000  -0.0000000  -0.0000000  -0.0000000  -0.0000000  -0.0000000  -0.0000000  -0.0000000  -0.0000000
 NQMom=    0.0000000   0.0000000   0.0000000   0.0000000   0.0000000   0.0000000   2.0440000   0.0000000   0.0000000   0.0000000
 NMagM=    0.0000000   0.0000000   0.0000000   0.0000000   0.0000000   0.0000000   0.4037610   0.0000000   0.0000000   0.0000000
 AtZNuc=   6.0000000   6.0000000   6.0000000   6.0000000   8.0000000   8.0000000   7.0000000   6.0000000   6.0000000   6.0000000

  Atom        21          22          23          24          25          26          27          28          29          30
 IAtWgt=          12          12          12          16          12          14          12          12          12          12
 AtmWgt=  12.0000000  12.0000000  12.0000000  15.9949146  12.0000000  14.0030740  12.0000000  12.0000000  12.0000000  12.0000000
 NucSpn=           0           0           0           0           0           2           0           0           0           0
 AtZEff=  -0.0000000  -0.0000000  -0.0000000  -0.0000000  -0.0000000  -0.0000000  -0.0000000  -0.0000000  -0.0000000  -0.0000000
 NQMom=    0.0000000   0.0000000   0.0000000   0.0000000   0.0000000   2.0440000   0.0000000   0.0000000   0.0000000   0.0000000
 NMagM=    0.0000000   0.0000000   0.0000000   0.0000000   0.0000000   0.4037610   0.0000000   0.0000000   0.0000000   0.0000000
 AtZNuc=   6.0000000   6.0000000   6.0000000   8.0000000   6.0000000   7.0000000   6.0000000   6.0000000   6.0000000   6.0000000

  Atom        31          32          33          34          35          36          37          38          39          40
 IAtWgt=          12          12          12          14          12          12          12          12          12          12
 AtmWgt=  12.0000000  12.0000000  12.0000000  14.0030740  12.0000000  12.0000000  12.0000000  12.0000000  12.0000000  12.0000000
 NucSpn=           0           0           0           2           0           0           0           0           0           0
 AtZEff=  -0.0000000  -0.0000000  -0.0000000  -0.0000000  -0.0000000  -0.0000000  -0.0000000  -0.0000000  -0.0000000  -0.0000000
 NQMom=    0.0000000   0.0000000   0.0000000   2.0440000   0.0000000   0.0000000   0.0000000   0.0000000   0.0000000   0.0000000
 NMagM=    0.0000000   0.0000000   0.0000000   0.4037610   0.0000000   0.0000000   0.0000000   0.0000000   0.0000000   0.0000000
 AtZNuc=   6.0000000   6.0000000   6.0000000   7.0000000   6.0000000   6.0000000   6.0000000   6.0000000   6.0000000   6.0000000

  Atom        41          42          43          44          45          46          47          48          49          50
 IAtWgt=          16          12          12          16          16          12          12          12          12          12
 AtmWgt=  15.9949146  12.0000000  12.0000000  15.9949146  15.9949146  12.0000000  12.0000000  12.0000000  12.0000000  12.0000000
 NucSpn=           0           0           0           0           0           0           0           0           0           0
 AtZEff=  -0.0000000  -0.0000000  -0.0000000  -0.0000000  -0.0000000  -0.0000000  -0.0000000  -0.0000000  -0.0000000  -0.0000000
 NQMom=    0.0000000   0.0000000   0.0000000   0.0000000   0.0000000   0.0000000   0.0000000   0.0000000   0.0000000   0.0000000
 NMagM=    0.0000000   0.0000000   0.0000000   0.0000000   0.0000000   0.0000000   0.0000000   0.0000000   0.0000000   0.0000000
 AtZNuc=   8.0000000   6.0000000   6.0000000   8.0000000   8.0000000   6.0000000   6.0000000   6.0000000   6.0000000   6.0000000

  Atom        51          52          53          54          55          56          57          58          59          60
 IAtWgt=          12          12          12          12          12          12          12          12          12          12
 AtmWgt=  12.0000000  12.0000000  12.0000000  12.0000000  12.0000000  12.0000000  12.0000000  12.0000000  12.0000000  12.0000000
 NucSpn=           0           0           0           0           0           0           0           0           0           0
 AtZEff=  -0.0000000  -0.0000000  -0.0000000  -0.0000000  -0.0000000  -0.0000000  -0.0000000  -0.0000000  -0.0000000  -0.0000000
 NQMom=    0.0000000   0.0000000   0.0000000   0.0000000   0.0000000   0.0000000   0.0000000   0.0000000   0.0000000   0.0000000
 NMagM=    0.0000000   0.0000000   0.0000000   0.0000000   0.0000000   0.0000000   0.0000000   0.0000000   0.0000000   0.0000000
 AtZNuc=   6.0000000   6.0000000   6.0000000   6.0000000   6.0000000   6.0000000   6.0000000   6.0000000   6.0000000   6.0000000

  Atom        61          62          63          64          65          66          67          68          69          70
 IAtWgt=          12          12          12          12          12          12           1           1           1           1
 AtmWgt=  12.0000000  12.0000000  12.0000000  12.0000000  12.0000000  12.0000000   1.0078250   1.0078250   1.0078250   1.0078250
 NucSpn=           0           0           0           0           0           0           1           1           1           1
 AtZEff=  -0.0000000  -0.0000000  -0.0000000  -0.0000000  -0.0000000  -0.0000000  -0.0000000  -0.0000000  -0.0000000  -0.0000000
 NQMom=    0.0000000   0.0000000   0.0000000   0.0000000   0.0000000   0.0000000   0.0000000   0.0000000   0.0000000   0.0000000
 NMagM=    0.0000000   0.0000000   0.0000000   0.0000000   0.0000000   0.0000000   2.7928460   2.7928460   2.7928460   2.7928460
 AtZNuc=   6.0000000   6.0000000   6.0000000   6.0000000   6.0000000   6.0000000   1.0000000   1.0000000   1.0000000   1.0000000

  Atom        71          72          73          74          75          76          77          78          79          80
 IAtWgt=           1           1           1           1           1           1           1           1           1           1
 AtmWgt=   1.0078250   1.0078250   1.0078250   1.0078250   1.0078250   1.0078250   1.0078250   1.0078250   1.0078250   1.0078250
 NucSpn=           1           1           1           1           1           1           1           1           1           1
 AtZEff=  -0.0000000  -0.0000000  -0.0000000  -0.0000000  -0.0000000  -0.0000000  -0.0000000  -0.0000000  -0.0000000  -0.0000000
 NQMom=    0.0000000   0.0000000   0.0000000   0.0000000   0.0000000   0.0000000   0.0000000   0.0000000   0.0000000   0.0000000
 NMagM=    2.7928460   2.7928460   2.7928460   2.7928460   2.7928460   2.7928460   2.7928460   2.7928460   2.7928460   2.7928460
 AtZNuc=   1.0000000   1.0000000   1.0000000   1.0000000   1.0000000   1.0000000   1.0000000   1.0000000   1.0000000   1.0000000

  Atom        81          82          83          84          85          86          87          88          89          90
 IAtWgt=           1           1           1           1           1           1           1           1           1           1
 AtmWgt=   1.0078250   1.0078250   1.0078250   1.0078250   1.0078250   1.0078250   1.0078250   1.0078250   1.0078250   1.0078250
 NucSpn=           1           1           1           1           1           1           1           1           1           1
 AtZEff=  -0.0000000  -0.0000000  -0.0000000  -0.0000000  -0.0000000  -0.0000000  -0.0000000  -0.0000000  -0.0000000  -0.0000000
 NQMom=    0.0000000   0.0000000   0.0000000   0.0000000   0.0000000   0.0000000   0.0000000   0.0000000   0.0000000   0.0000000
 NMagM=    2.7928460   2.7928460   2.7928460   2.7928460   2.7928460   2.7928460   2.7928460   2.7928460   2.7928460   2.7928460
 AtZNuc=   1.0000000   1.0000000   1.0000000   1.0000000   1.0000000   1.0000000   1.0000000   1.0000000   1.0000000   1.0000000

  Atom        91          92          93          94          95          96          97          98          99         100
 IAtWgt=           1           1           1           1           1           1           1           1           1           1
 AtmWgt=   1.0078250   1.0078250   1.0078250   1.0078250   1.0078250   1.0078250   1.0078250   1.0078250   1.0078250   1.0078250
 NucSpn=           1           1           1           1           1           1           1           1           1           1
 AtZEff=  -0.0000000  -0.0000000  -0.0000000  -0.0000000  -0.0000000  -0.0000000  -0.0000000  -0.0000000  -0.0000000  -0.0000000
 NQMom=    0.0000000   0.0000000   0.0000000   0.0000000   0.0000000   0.0000000   0.0000000   0.0000000   0.0000000   0.0000000
 NMagM=    2.7928460   2.7928460   2.7928460   2.7928460   2.7928460   2.7928460   2.7928460   2.7928460   2.7928460   2.7928460
 AtZNuc=   1.0000000   1.0000000   1.0000000   1.0000000   1.0000000   1.0000000   1.0000000   1.0000000   1.0000000   1.0000000

  Atom       101         102         103         104         105         106         107         108         109         110
 IAtWgt=           1           1           1           1           1           1           1           1           1           1
 AtmWgt=   1.0078250   1.0078250   1.0078250   1.0078250   1.0078250   1.0078250   1.0078250   1.0078250   1.0078250   1.0078250
 NucSpn=           1           1           1           1           1           1           1           1           1           1
 AtZEff=  -0.0000000  -0.0000000  -0.0000000  -0.0000000  -0.0000000  -0.0000000  -0.0000000  -0.0000000  -0.0000000  -0.0000000
 NQMom=    0.0000000   0.0000000   0.0000000   0.0000000   0.0000000   0.0000000   0.0000000   0.0000000   0.0000000   0.0000000
 NMagM=    2.7928460   2.7928460   2.7928460   2.7928460   2.7928460   2.7928460   2.7928460   2.7928460   2.7928460   2.7928460
 AtZNuc=   1.0000000   1.0000000   1.0000000   1.0000000   1.0000000   1.0000000   1.0000000   1.0000000   1.0000000   1.0000000

  Atom       111         112         113         114         115         116         117         118         119         120
 IAtWgt=           1           1           1           1           1           1           1           1           1           1
 AtmWgt=   1.0078250   1.0078250   1.0078250   1.0078250   1.0078250   1.0078250   1.0078250   1.0078250   1.0078250   1.0078250
 NucSpn=           1           1           1           1           1           1           1           1           1           1
 AtZEff=  -0.0000000  -0.0000000  -0.0000000  -0.0000000  -0.0000000  -0.0000000  -0.0000000  -0.0000000  -0.0000000  -0.0000000
 NQMom=    0.0000000   0.0000000   0.0000000   0.0000000   0.0000000   0.0000000   0.0000000   0.0000000   0.0000000   0.0000000
 NMagM=    2.7928460   2.7928460   2.7928460   2.7928460   2.7928460   2.7928460   2.7928460   2.7928460   2.7928460   2.7928460
 AtZNuc=   1.0000000   1.0000000   1.0000000   1.0000000   1.0000000   1.0000000   1.0000000   1.0000000   1.0000000   1.0000000

  Atom       121         122         123         124         125         126         127         128         129         130
 IAtWgt=           1           1           1           1           1           1           1           1           1           1
 AtmWgt=   1.0078250   1.0078250   1.0078250   1.0078250   1.0078250   1.0078250   1.0078250   1.0078250   1.0078250   1.0078250
 NucSpn=           1           1           1           1           1           1           1           1           1           1
 AtZEff=  -0.0000000  -0.0000000  -0.0000000  -0.0000000  -0.0000000  -0.0000000  -0.0000000  -0.0000000  -0.0000000  -0.0000000
 NQMom=    0.0000000   0.0000000   0.0000000   0.0000000   0.0000000   0.0000000   0.0000000   0.0000000   0.0000000   0.0000000
 NMagM=    2.7928460   2.7928460   2.7928460   2.7928460   2.7928460   2.7928460   2.7928460   2.7928460   2.7928460   2.7928460
 AtZNuc=   1.0000000   1.0000000   1.0000000   1.0000000   1.0000000   1.0000000   1.0000000   1.0000000   1.0000000   1.0000000

  Atom       131         132         133         134         135         136         137         138         139         140
 IAtWgt=           1           1           1           1           1           1           1           1           1           1
 AtmWgt=   1.0078250   1.0078250   1.0078250   1.0078250   1.0078250   1.0078250   1.0078250   1.0078250   1.0078250   1.0078250
 NucSpn=           1           1           1           1           1           1           1           1           1           1
 AtZEff=  -0.0000000  -0.0000000  -0.0000000  -0.0000000  -0.0000000  -0.0000000  -0.0000000  -0.0000000  -0.0000000  -0.0000000
 NQMom=    0.0000000   0.0000000   0.0000000   0.0000000   0.0000000   0.0000000   0.0000000   0.0000000   0.0000000   0.0000000
 NMagM=    2.7928460   2.7928460   2.7928460   2.7928460   2.7928460   2.7928460   2.7928460   2.7928460   2.7928460   2.7928460
 AtZNuc=   1.0000000   1.0000000   1.0000000   1.0000000   1.0000000   1.0000000   1.0000000   1.0000000   1.0000000   1.0000000
 Leave Link  101 at Thu May  5 12:02:09 2022, MaxMem= 10066329600 cpu:               3.1 elap:               0.1
 (Enter /sw/apps/gaussian-16.0/g16/l202.exe)
 Stoichiometry    C55H74MgN4O6
 Framework group  C1[X(C55H74MgN4O6)]
 Deg. of freedom   414
 Full point group                 C1      NOp   1
 Largest Abelian subgroup         C1      NOp   1
 Largest concise Abelian subgroup C1      NOp   1
                         Standard orientation:                         
 ---------------------------------------------------------------------
 Center     Atomic      Atomic             Coordinates (Angstroms)
 Number     Number       Type             X           Y           Z
 ---------------------------------------------------------------------
      1         12           0        5.403139    0.588261   -0.222899
      2          6           0        4.531659   -2.664282    0.258242
      3          6           0        3.162128    0.672239   -2.850964
      4          6           0        5.446479    3.916491   -0.108325
      5          6           0        7.074800    0.429806    2.784845
      6          7           0        3.785347   -0.725645   -0.959643
      7          6           0        3.713696   -2.061594   -0.675107
      8          6           0        2.754256   -2.838127   -1.515640
      9          6           0        2.745571   -1.891808   -2.770585
     10          6           0        3.279336   -0.554297   -2.175191
     11          6           0        3.534928   -2.315605   -4.051679
     12          6           0        1.443315   -2.883475   -0.703805
     13          6           0        0.136499   -3.516735   -1.370955
     14          6           0       -1.066676   -2.617378   -1.894007
     15          8           0       -1.145983   -2.192671   -3.047525
     16          8           0       -2.115448   -2.491968   -0.990754
     17          7           0        4.467200    2.141014   -1.432767
     18          6           0        3.633814    1.923530   -2.467699
     19          6           0        3.404319    3.148320   -3.096627
     20          6           0        3.949330    4.251270   -2.255737
     21          6           0        4.673967    3.489738   -1.228261
     22          6           0        2.538879    3.160222   -4.365731
     23          6           0        3.724969    5.741319   -2.477734
     24          8           0        3.123337    6.076888   -3.468060
     25          6           0        4.100756    6.779096   -1.493127
     26          7           0        6.050455    1.912100    1.156707
     27          6           0        6.127338    3.237481    0.907863
     28          6           0        7.079872    3.983101    1.860225
     29          6           0        7.307159    2.930424    2.986077
     30          6           0        6.802530    1.664484    2.280181
     31          6           0        8.365120    4.569662    1.146839
     32          6           0        6.524369    3.093010    4.293009
     33          6           0        7.228846    3.513070    5.536198
     34          7           0        5.950527   -0.843595    1.195093
     35          6           0        6.676854   -0.823421    2.275327
     36          6           0        6.995677   -2.118150    2.763905
     37          6           0        6.153388   -2.935053    1.976953
     38          6           0        5.492705   -2.057928    1.083987
     39          6           0        7.807633   -2.462527    3.906912
     40          6           0        5.708219   -4.337051    1.628279
     41          8           0        6.047266   -5.451168    2.077797
     42          6           0        4.557038   -4.152062    0.500664
     43          6           0        5.082648   -5.055612   -0.625302
     44          8           0        4.707387   -6.159258   -0.982545
     45          8           0        6.063013   -4.378477   -1.318312
     46          6           0        6.456664   -4.756659   -2.701129
     47          6           0       -3.344963   -1.952519   -1.640713
     48          6           0       -3.816378   -0.589040   -1.218205
     49          6           0       -4.413734   -0.221393   -0.051866
     50          6           0       -4.789297   -1.106989    1.139033
     51          6           0       -4.843375    1.224019    0.171001
     52          6           0       -6.154943    1.692556   -0.527038
     53          6           0       -7.152333    2.382250    0.351487
     54          6           0       -8.441357    1.534836    0.601164
     55          6           0       -9.760893    2.332328    0.618712
     56          6           0       -8.461986    0.711736    1.942641
     57          6           0       -9.171262   -0.658944    1.754385
     58          6           0      -10.443135   -0.694589    2.615954
     59          6           0      -11.722216   -0.943386    1.822975
     60          6           0      -11.752800   -2.481405    1.743363
     61          6           0      -12.956462   -0.259324    2.477213
     62          6           0      -14.221807   -0.324684    1.598688
     63          6           0      -14.335006    0.949033    0.692744
     64          6           0      -14.315879    0.524374   -0.818635
     65          6           0      -13.090212    0.895377   -1.656677
     66          6           0      -15.714989    0.780214   -1.399976
     67          1           0        2.601550    0.565428   -3.782084
     68          1           0        5.589774    4.986740    0.057130
     69          1           0        7.694133    0.398422    3.682518
     70          1           0        3.105005   -3.839038   -1.768425
     71          1           0        1.715103   -1.752672   -3.096465
     72          1           0        3.954845   -3.317036   -3.956641
     73          1           0        4.415026   -1.678665   -4.134846
     74          1           0        2.955552   -2.097533   -4.949020
     75          1           0        1.206976   -1.849111   -0.453683
     76          1           0        1.669683   -3.524723    0.147442
     77          1           0       -0.269250   -4.256951   -0.681808
     78          1           0        0.534051   -3.989137   -2.269162
     79          1           0        1.513628    3.456366   -4.140431
     80          1           0        2.446758    2.218845   -4.906696
     81          1           0        3.066073    3.785630   -5.085715
     82          1           0        5.158095    7.032917   -1.565255
     83          1           0        3.787759    6.416183   -0.514759
     84          1           0        3.634816    7.703010   -1.834811
     85          1           0        6.419085    4.773981    2.212933
     86          1           0        8.351247    2.878071    3.292228
     87          1           0        9.151925    3.815447    1.103754
     88          1           0        8.639738    5.473803    1.689281
     89          1           0        8.203043    4.738208    0.081434
     90          1           0        6.088166    2.122962    4.531822
     91          1           0        5.764900    3.859363    4.132417
     92          1           0        7.026286    2.830277    6.361278
     93          1           0        6.882050    4.490026    5.873431
     94          1           0        8.283849    3.387538    5.292725
     95          1           0        8.618992   -1.751728    4.062007
     96          1           0        8.184343   -3.468437    3.720566
     97          1           0        7.116482   -2.485606    4.749305
     98          1           0        3.667520   -4.618455    0.925488
     99          1           0        5.792375   -4.379893   -3.479024
    100          1           0        6.776602   -5.797626   -2.754546
    101          1           0        7.402396   -4.251203   -2.895996
    102          1           0       -4.134330   -2.605212   -1.266257
    103          1           0       -3.341494   -1.906485   -2.730263
    104          1           0       -3.737435    0.202316   -1.962595
    105          1           0       -5.702875   -0.826710    1.662437
    106          1           0       -4.016064   -1.145462    1.907039
    107          1           0       -5.023260   -2.084948    0.718275
    108          1           0       -4.084084    1.898373   -0.227627
    109          1           0       -4.806982    1.411819    1.243756
    110          1           0       -6.580205    0.971822   -1.225554
    111          1           0       -5.773983    2.531781   -1.108739
    112          1           0       -7.352249    3.319173   -0.167806
    113          1           0       -6.652470    2.651455    1.282714
    114          1           0       -8.523595    0.842857   -0.236477
    115          1           0      -10.304505    2.388096    1.560912
    116          1           0      -10.399976    1.864530   -0.129964
    117          1           0       -9.593316    3.362828    0.305828
    118          1           0       -8.977750    1.340684    2.669041
    119          1           0       -7.465706    0.658393    2.381444
    120          1           0       -8.377503   -1.332976    2.079360
    121          1           0       -9.303580   -1.048573    0.744443
    122          1           0      -10.562788    0.289238    3.069409
    123          1           0      -10.310761   -1.497903    3.341910
    124          1           0      -11.594328   -0.557156    0.812187
    125          1           0      -12.438847   -2.770037    2.539276
    126          1           0      -10.815576   -3.024375    1.869430
    127          1           0      -12.128841   -2.660520    0.736441
    128          1           0      -12.692282    0.769848    2.719393
    129          1           0      -13.088433   -0.568209    3.514442
    130          1           0      -15.097179   -0.398756    2.244035
    131          1           0      -14.258352   -1.180765    0.924015
    132          1           0      -13.476602    1.609136    0.810440
    133          1           0      -15.268128    1.402733    1.027424
    134          1           0      -14.245309   -0.546705   -1.006355
    135          1           0      -13.432373    1.669408   -2.343323
    136          1           0      -12.651014    0.022462   -2.139513
    137          1           0      -12.327573    1.389464   -1.055388
    138          1           0      -15.592147    1.091820   -2.437722
    139          1           0      -16.314327    1.559684   -0.927553
    140          1           0      -16.221629   -0.177206   -1.519559
 ---------------------------------------------------------------------
 Rotational constants (GHZ):           0.0410784           0.0100536           0.0093230
 Leave Link  202 at Thu May  5 12:02:09 2022, MaxMem= 10066329600 cpu:               0.2 elap:               0.0
 (Enter /sw/apps/gaussian-16.0/g16/l301.exe)
 Standard basis: def2SVP (5D, 7F)
 Ernie: Thresh=  0.10000D-02 Tol=  0.10000D-05 Strict=F.
 There are  1364 symmetry adapted cartesian basis functions of A   symmetry.
 There are  1298 symmetry adapted basis functions of A   symmetry.
  1298 basis functions,  2180 primitive gaussians,  1364 cartesian basis functions
   246 alpha electrons      246 beta electrons
       nuclear repulsion energy      9623.8013707667 Hartrees.
 IExCor= 1009 DFT=T Ex+Corr=PBE1PBE ExCW=0 ScaHFX=  0.250000
 ScaDFX=  0.750000  0.750000  1.000000  1.000000 ScalE2=  1.000000  1.000000
 IRadAn=      5 IRanWt=     -1 IRanGd=            0 ICorTp=0 IEmpDi=  4
 NAtoms=  140 NActive=  140 NUniq=  140 SFac= 1.00D+00 NAtFMM=   60 NAOKFM=T Big=T
 Integral buffers will be    131072 words long.
 Regular integral format.
 Two-electron integral symmetry is turned on.
 Leave Link  301 at Thu May  5 12:02:09 2022, MaxMem= 10066329600 cpu:               1.3 elap:               0.1
 (Enter /sw/apps/gaussian-16.0/g16/l302.exe)
 NPDir=0 NMtPBC=     1 NCelOv=     1 NCel=       1 NClECP=     1 NCelD=      1
         NCelK=      1 NCelE2=     1 NClLst=     1 CellRange=     0.0.
 One-electron integrals computed using PRISM.
 One-electron integral symmetry used in STVInt
   1 Symmetry operations used in ECPInt.
 ECPInt:  NShTT=  192510 NPrTT=  683786 LenC2=   95459 LenP2D=  210179.
 LDataN:  DoStor=T MaxTD1= 4 Len=   56
 NBasis=  1298 RedAO= T EigKep=  2.51D-04  NBF=  1298
 NBsUse=  1298 1.00D-06 EigRej= -1.00D+00 NBFU=  1298
 Precomputing XC quadrature grid using
 IXCGrd= 4 IRadAn=           5 IRanWt=          -1 IRanGd=           0 AccXCQ= 0.00D+00.
 Generated NRdTot=       0 NPtTot=           0 NUsed=           0 NTot=          32
 NSgBfM=  1002   977   991  1001  1002 MxSgAt=   140 MxSgA2=   140.
 Leave Link  302 at Thu May  5 12:02:13 2022, MaxMem= 10066329600 cpu:             104.0 elap:               4.4
 (Enter /sw/apps/gaussian-16.0/g16/l303.exe)
 DipDrv:  MaxL=1.
 Leave Link  303 at Thu May  5 12:02:14 2022, MaxMem= 10066329600 cpu:               8.1 elap:               0.4
 (Enter /sw/apps/gaussian-16.0/g16/l308.exe)
 Leave Link  308 at Thu May  5 12:02:14 2022, MaxMem= 10066329600 cpu:              13.1 elap:               0.6
 (Enter /sw/apps/gaussian-16.0/g16/l401.exe)
 ExpMin= 3.36D-02 ExpMax= 4.95D+03 ExpMxC= 7.45D+02 IAcc=3 IRadAn=         5 AccDes= 0.00D+00
 Harris functional with IExCor= 1009 and IRadAn=       5 diagonalized for initial guess.
 HarFok:  IExCor= 1009 AccDes= 0.00D+00 IRadAn=         5 IDoV= 1 UseB2=F ITyADJ=14
 ICtDFT=  3500011 ScaDFX=  1.000000  1.000000  1.000000  1.000000
 FoFCou: FMM=F IPFlag=           0 FMFlag=      100000 FMFlg1=        2001
         NFxFlg=           0 DoJE=T BraDBF=F KetDBF=T FulRan=T
         wScrn=  0.000000 ICntrl=       500 IOpCl=  0 I1Cent=   200000004 NGrid=           0
         NMat0=    1 NMatS0=      1 NMatT0=    0 NMatD0=    1 NMtDS0=    0 NMtDT0=    0
 Petite list used in FoFCou.
 Harris En= -3006.12190343437    
 JPrj=0 DoOrth=F DoCkMO=F.
 Leave Link  401 at Thu May  5 12:02:21 2022, MaxMem= 10066329600 cpu:             166.0 elap:               6.9
 (Enter /sw/apps/gaussian-16.0/g16/l502.exe)
 Integral symmetry usage will be decided dynamically.
 Closed shell SCF:
 Using DIIS extrapolation, IDIIS=  1040.
 NGot= 10066329600 LenX= 10062561258 LenY= 10060699398
 Requested convergence on RMS density matrix=1.00D-08 within 128 cycles.
 Requested convergence on MAX density matrix=1.00D-06.
 Requested convergence on             energy=1.00D-06.
 No special actions if energy rises.
 Fock matrices will be formed incrementally for  20 cycles.

 Cycle   1  Pass 1  IDiag  1:
 FoFJK:  IHMeth= 1 ICntrl=       0 DoSepK=F KAlg= 0 I1Cent=           0 FoldK=F
 IRaf= 530000000 NMat=       1 IRICut=       1 DoRegI=T DoRafI=F ISym2E= 0 IDoP0=0 IntGTp=1.
 FoFCou: FMM=T IPFlag=           0 FMFlag=      100000 FMFlg1=        2001
         NFxFlg=           0 DoJE=F BraDBF=F KetDBF=F FulRan=T
         wScrn=  0.000000 ICntrl=         0 IOpCl=  0 I1Cent=           0 NGrid=           0
         NMat0=    1 NMatS0=      1 NMatT0=    0 NMatD0=    1 NMtDS0=    0 NMtDT0=    0
 Symmetry not used in FoFCou.
 FMM levels:  10  Number of levels for PrismC:   9
 E= -3003.73759874356    
 DIIS: error= 1.84D-02 at cycle   1 NSaved=   1.
 NSaved= 1 IEnMin= 1 EnMin= -3003.73759874356     IErMin= 1 ErrMin= 1.84D-02
 ErrMax= 1.84D-02  0.00D+00 EMaxC= 1.00D-01 BMatC= 1.49D+00 BMatP= 1.49D+00
 IDIUse=3 WtCom= 8.16D-01 WtEn= 1.84D-01
 Coeff-Com:  0.100D+01
 Coeff-En:   0.100D+01
 Coeff:      0.100D+01
 Gap=     0.081 Goal=   None    Shift=    0.000
 GapD=    0.081 DampG=0.500 DampE=0.500 DampFc=0.2500 IDamp=-1.
 Damping current iteration by 2.50D-01
 RMSDP=2.80D-03 MaxDP=6.74D-01              OVMax= 2.43D-01

 Cycle   2  Pass 1  IDiag  1:
 RMSU=  6.93D-04    CP:  9.90D-01
 E= -3004.29492913008     Delta-E=       -0.557330386515 Rises=F Damp=T
 DIIS: error= 8.67D-03 at cycle   2 NSaved=   2.
 NSaved= 2 IEnMin= 2 EnMin= -3004.29492913008     IErMin= 2 ErrMin= 8.67D-03
 ErrMax= 8.67D-03  0.00D+00 EMaxC= 1.00D-01 BMatC= 3.68D-01 BMatP= 1.49D+00
 IDIUse=3 WtCom= 9.13D-01 WtEn= 8.67D-02
 Coeff-Com: -0.750D+00 0.175D+01
 Coeff-En:   0.000D+00 0.100D+01
 Coeff:     -0.685D+00 0.168D+01
 Gap=     0.171 Goal=   None    Shift=    0.000
 RMSDP=1.02D-03 MaxDP=8.29D-02 DE=-5.57D-01 OVMax= 1.80D-01

 Cycle   3  Pass 1  IDiag  1:
 RMSU=  8.77D-04    CP:  9.63D-01  1.65D+00
 E= -3005.12224355445     Delta-E=       -0.827314424372 Rises=F Damp=F
 DIIS: error= 1.34D-02 at cycle   3 NSaved=   3.
 NSaved= 3 IEnMin= 3 EnMin= -3005.12224355445     IErMin= 2 ErrMin= 8.67D-03
 ErrMax= 1.34D-02  0.00D+00 EMaxC= 1.00D-01 BMatC= 1.98D-01 BMatP= 3.68D-01
 IDIUse=3 WtCom= 8.66D-01 WtEn= 1.34D-01
 Coeff-Com: -0.502D+00 0.107D+01 0.432D+00
 Coeff-En:   0.000D+00 0.000D+00 0.100D+01
 Coeff:     -0.434D+00 0.926D+00 0.508D+00
 Gap=     0.078 Goal=   None    Shift=    0.000
 RMSDP=6.28D-04 MaxDP=1.40D-01 DE=-8.27D-01 OVMax= 1.14D-01

 Cycle   4  Pass 1  IDiag  1:
 RMSU=  4.17D-04    CP:  9.70D-01  1.94D+00  5.17D-01
 E= -3005.25566560573     Delta-E=       -0.133422051274 Rises=F Damp=F
 DIIS: error= 7.56D-03 at cycle   4 NSaved=   4.
 NSaved= 4 IEnMin= 4 EnMin= -3005.25566560573     IErMin= 4 ErrMin= 7.56D-03
 ErrMax= 7.56D-03  0.00D+00 EMaxC= 1.00D-01 BMatC= 5.07D-02 BMatP= 1.98D-01
 IDIUse=3 WtCom= 9.24D-01 WtEn= 7.56D-02
 Coeff-Com: -0.985D-01 0.217D+00 0.334D+00 0.547D+00
 Coeff-En:   0.000D+00 0.000D+00 0.247D+00 0.753D+00
 Coeff:     -0.911D-01 0.201D+00 0.328D+00 0.562D+00
 Gap=     0.076 Goal=   None    Shift=    0.000
 RMSDP=2.82D-04 MaxDP=7.09D-02 DE=-1.33D-01 OVMax= 7.73D-02

 Cycle   5  Pass 1  IDiag  1:
 RMSU=  1.20D-04    CP:  9.68D-01  1.80D+00  6.85D-01  5.58D-01
 E= -3005.29613992771     Delta-E=       -0.040474321984 Rises=F Damp=F
 DIIS: error= 1.47D-03 at cycle   5 NSaved=   5.
 NSaved= 5 IEnMin= 5 EnMin= -3005.29613992771     IErMin= 5 ErrMin= 1.47D-03
 ErrMax= 1.47D-03  0.00D+00 EMaxC= 1.00D-01 BMatC= 4.35D-03 BMatP= 5.07D-02
 IDIUse=3 WtCom= 9.85D-01 WtEn= 1.47D-02
 Coeff-Com: -0.187D-01 0.447D-01 0.172D+00 0.364D+00 0.438D+00
 Coeff-En:   0.000D+00 0.000D+00 0.000D+00 0.584D-01 0.942D+00
 Coeff:     -0.185D-01 0.440D-01 0.170D+00 0.360D+00 0.445D+00
 Gap=     0.076 Goal=   None    Shift=    0.000
 RMSDP=1.01D-04 MaxDP=9.67D-03 DE=-4.05D-02 OVMax= 5.01D-02

 Cycle   6  Pass 1  IDiag  1:
 RMSU=  4.99D-05    CP:  9.68D-01  1.81D+00  6.67D-01  6.54D-01  3.65D-01
 E= -3005.30015055799     Delta-E=       -0.004010630279 Rises=F Damp=F
 DIIS: error= 7.13D-04 at cycle   6 NSaved=   6.
 NSaved= 6 IEnMin= 6 EnMin= -3005.30015055799     IErMin= 6 ErrMin= 7.13D-04
 ErrMax= 7.13D-04  0.00D+00 EMaxC= 1.00D-01 BMatC= 6.40D-04 BMatP= 4.35D-03
 IDIUse=3 WtCom= 9.93D-01 WtEn= 7.13D-03
 Coeff-Com:  0.107D-02-0.632D-04 0.664D-01 0.160D+00 0.308D+00 0.464D+00
 Coeff-En:   0.000D+00 0.000D+00 0.000D+00 0.000D+00 0.167D+00 0.833D+00
 Coeff:      0.106D-02-0.628D-04 0.660D-01 0.159D+00 0.307D+00 0.467D+00
 Gap=     0.076 Goal=   None    Shift=    0.000
 RMSDP=3.90D-05 MaxDP=3.56D-03 DE=-4.01D-03 OVMax= 2.28D-02

 Cycle   7  Pass 1  IDiag  1:
 RMSU=  1.91D-05    CP:  9.67D-01  1.81D+00  6.73D-01  6.35D-01  5.23D-01
                    CP:  4.71D-01
 E= -3005.30084257594     Delta-E=       -0.000692017951 Rises=F Damp=F
 DIIS: error= 3.04D-04 at cycle   7 NSaved=   7.
 NSaved= 7 IEnMin= 7 EnMin= -3005.30084257594     IErMin= 7 ErrMin= 3.04D-04
 ErrMax= 3.04D-04  0.00D+00 EMaxC= 1.00D-01 BMatC= 8.16D-05 BMatP= 6.40D-04
 IDIUse=3 WtCom= 9.97D-01 WtEn= 3.04D-03
 Coeff-Com:  0.298D-02-0.560D-02 0.207D-01 0.557D-01 0.146D+00 0.315D+00
 Coeff-Com:  0.466D+00
 Coeff-En:   0.000D+00 0.000D+00 0.000D+00 0.000D+00 0.000D+00 0.118D+00
 Coeff-En:   0.882D+00
 Coeff:      0.297D-02-0.558D-02 0.207D-01 0.556D-01 0.145D+00 0.314D+00
 Coeff:      0.467D+00
 Gap=     0.076 Goal=   None    Shift=    0.000
 RMSDP=1.33D-05 MaxDP=1.16D-03 DE=-6.92D-04 OVMax= 7.15D-03

 Cycle   8  Pass 1  IDiag  1:
 RMSU=  6.92D-06    CP:  9.67D-01  1.81D+00  6.74D-01  6.38D-01  5.01D-01
                    CP:  5.69D-01  4.89D-01
 E= -3005.30092957621     Delta-E=       -0.000087000268 Rises=F Damp=F
 DIIS: error= 5.75D-05 at cycle   8 NSaved=   8.
 NSaved= 8 IEnMin= 8 EnMin= -3005.30092957621     IErMin= 8 ErrMin= 5.75D-05
 ErrMax= 5.75D-05  0.00D+00 EMaxC= 1.00D-01 BMatC= 1.04D-05 BMatP= 8.16D-05
 IDIUse=1 WtCom= 1.00D+00 WtEn= 0.00D+00
 Coeff-Com:  0.163D-02-0.330D-02 0.525D-02 0.156D-01 0.573D-01 0.149D+00
 Coeff-Com:  0.311D+00 0.463D+00
 Coeff:      0.163D-02-0.330D-02 0.525D-02 0.156D-01 0.573D-01 0.149D+00
 Coeff:      0.311D+00 0.463D+00
 Gap=     0.076 Goal=   None    Shift=    0.000
 RMSDP=4.61D-06 MaxDP=3.85D-04 DE=-8.70D-05 OVMax= 2.34D-03

 Cycle   9  Pass 1  IDiag  1:
 RMSU=  2.27D-06    CP:  9.67D-01  1.81D+00  6.74D-01  6.39D-01  5.06D-01
                    CP:  5.65D-01  5.90D-01  5.08D-01
 E= -3005.30094086937     Delta-E=       -0.000011293163 Rises=F Damp=F
 DIIS: error= 3.55D-05 at cycle   9 NSaved=   9.
 NSaved= 9 IEnMin= 9 EnMin= -3005.30094086937     IErMin= 9 ErrMin= 3.55D-05
 ErrMax= 3.55D-05  0.00D+00 EMaxC= 1.00D-01 BMatC= 1.12D-06 BMatP= 1.04D-05
 IDIUse=1 WtCom= 1.00D+00 WtEn= 0.00D+00
 Coeff-Com:  0.613D-03-0.127D-02 0.102D-02 0.319D-02 0.194D-01 0.570D-01
 Coeff-Com:  0.142D+00 0.288D+00 0.490D+00
 Coeff:      0.613D-03-0.127D-02 0.102D-02 0.319D-02 0.194D-01 0.570D-01
 Coeff:      0.142D+00 0.288D+00 0.490D+00
 Gap=     0.076 Goal=   None    Shift=    0.000
 RMSDP=1.96D-06 MaxDP=1.28D-04 DE=-1.13D-05 OVMax= 1.55D-03

 Cycle  10  Pass 1  IDiag  1:
 RMSU=  1.36D-06    CP:  9.67D-01  1.81D+00  6.74D-01  6.39D-01  5.07D-01
                    CP:  5.70D-01  5.68D-01  5.97D-01  5.14D-01
 E= -3005.30094174814     Delta-E=       -0.000000878770 Rises=F Damp=F
 DIIS: error= 1.66D-05 at cycle  10 NSaved=  10.
 NSaved=10 IEnMin=10 EnMin= -3005.30094174814     IErMin=10 ErrMin= 1.66D-05
 ErrMax= 1.66D-05  0.00D+00 EMaxC= 1.00D-01 BMatC= 4.15D-07 BMatP= 1.12D-06
 IDIUse=1 WtCom= 1.00D+00 WtEn= 0.00D+00
 Coeff-Com:  0.152D-03-0.329D-03-0.233D-03-0.716D-03 0.393D-02 0.146D-01
 Coeff-Com:  0.497D-01 0.128D+00 0.389D+00 0.416D+00
 Coeff:      0.152D-03-0.329D-03-0.233D-03-0.716D-03 0.393D-02 0.146D-01
 Coeff:      0.497D-01 0.128D+00 0.389D+00 0.416D+00
 Gap=     0.076 Goal=   None    Shift=    0.000
 RMSDP=1.01D-06 MaxDP=7.99D-05 DE=-8.79D-07 OVMax= 6.73D-04

 Cycle  11  Pass 1  IDiag  1:
 RMSU=  4.53D-07    CP:  9.67D-01  1.81D+00  6.74D-01  6.39D-01  5.08D-01
                    CP:  5.71D-01  5.77D-01  5.94D-01  7.29D-01  4.62D-01
 E= -3005.30094224568     Delta-E=       -0.000000497543 Rises=F Damp=F
 DIIS: error= 5.84D-06 at cycle  11 NSaved=  11.
 NSaved=11 IEnMin=11 EnMin= -3005.30094224568     IErMin=11 ErrMin= 5.84D-06
 ErrMax= 5.84D-06  0.00D+00 EMaxC= 1.00D-01 BMatC= 5.43D-08 BMatP= 4.15D-07
 IDIUse=1 WtCom= 1.00D+00 WtEn= 0.00D+00
 Coeff-Com: -0.128D-04 0.154D-04-0.389D-03-0.125D-02-0.991D-03-0.105D-02
 Coeff-Com:  0.883D-02 0.353D-01 0.204D+00 0.293D+00 0.463D+00
 Coeff:     -0.128D-04 0.154D-04-0.389D-03-0.125D-02-0.991D-03-0.105D-02
 Coeff:      0.883D-02 0.353D-01 0.204D+00 0.293D+00 0.463D+00
 Gap=     0.076 Goal=   None    Shift=    0.000
 RMSDP=3.54D-07 MaxDP=2.99D-05 DE=-4.98D-07 OVMax= 2.52D-04

 Cycle  12  Pass 1  IDiag  1:
 RMSU=  1.89D-07    CP:  9.67D-01  1.81D+00  6.74D-01  6.39D-01  5.08D-01
                    CP:  5.71D-01  5.80D-01  5.99D-01  7.04D-01  6.30D-01
                    CP:  6.30D-01
 E= -3005.30094230849     Delta-E=       -0.000000062804 Rises=F Damp=F
 DIIS: error= 2.96D-06 at cycle  12 NSaved=  12.
 NSaved=12 IEnMin=12 EnMin= -3005.30094230849     IErMin=12 ErrMin= 2.96D-06
 ErrMax= 2.96D-06  0.00D+00 EMaxC= 1.00D-01 BMatC= 6.83D-09 BMatP= 5.43D-08
 IDIUse=1 WtCom= 1.00D+00 WtEn= 0.00D+00
 Coeff-Com: -0.236D-04 0.453D-04-0.188D-03-0.602D-03-0.100D-02-0.267D-02
 Coeff-Com: -0.110D-02 0.933D-03 0.686D-01 0.891D-01 0.282D+00 0.564D+00
 Coeff:     -0.236D-04 0.453D-04-0.188D-03-0.602D-03-0.100D-02-0.267D-02
 Coeff:     -0.110D-02 0.933D-03 0.686D-01 0.891D-01 0.282D+00 0.564D+00
 Gap=     0.076 Goal=   None    Shift=    0.000
 RMSDP=1.05D-07 MaxDP=1.25D-05 DE=-6.28D-08 OVMax= 4.80D-05

 Cycle  13  Pass 1  IDiag  1:
 RMSU=  6.81D-08    CP:  9.67D-01  1.81D+00  6.74D-01  6.39D-01  5.08D-01
                    CP:  5.71D-01  5.81D-01  6.00D-01  7.27D-01  6.27D-01
                    CP:  7.39D-01  8.68D-01
 E= -3005.30094231663     Delta-E=       -0.000000008144 Rises=F Damp=F
 DIIS: error= 1.18D-06 at cycle  13 NSaved=  13.
 NSaved=13 IEnMin=13 EnMin= -3005.30094231663     IErMin=13 ErrMin= 1.18D-06
 ErrMax= 1.18D-06  0.00D+00 EMaxC= 1.00D-01 BMatC= 1.31D-09 BMatP= 6.83D-09
 IDIUse=1 WtCom= 1.00D+00 WtEn= 0.00D+00
 Coeff-Com: -0.121D-04 0.248D-04-0.357D-04-0.109D-03-0.397D-03-0.154D-02
 Coeff-Com: -0.228D-02-0.779D-02 0.269D-02-0.180D-01 0.870D-01 0.324D+00
 Coeff-Com:  0.616D+00
 Coeff:     -0.121D-04 0.248D-04-0.357D-04-0.109D-03-0.397D-03-0.154D-02
 Coeff:     -0.228D-02-0.779D-02 0.269D-02-0.180D-01 0.870D-01 0.324D+00
 Coeff:      0.616D+00
 Gap=     0.076 Goal=   None    Shift=    0.000
 RMSDP=5.00D-08 MaxDP=4.90D-06 DE=-8.14D-09 OVMax= 2.14D-05

 Cycle  14  Pass 1  IDiag  1:
 RMSU=  3.26D-08    CP:  9.67D-01  1.81D+00  6.74D-01  6.39D-01  5.08D-01
                    CP:  5.71D-01  5.81D-01  6.01D-01  7.35D-01  6.35D-01
                    CP:  7.84D-01  9.70D-01  9.65D-01
 E= -3005.30094231826     Delta-E=       -0.000000001632 Rises=F Damp=F
 DIIS: error= 3.85D-07 at cycle  14 NSaved=  14.
 NSaved=14 IEnMin=14 EnMin= -3005.30094231826     IErMin=14 ErrMin= 3.85D-07
 ErrMax= 3.85D-07  0.00D+00 EMaxC= 1.00D-01 BMatC= 2.92D-10 BMatP= 1.31D-09
 IDIUse=1 WtCom= 1.00D+00 WtEn= 0.00D+00
 Coeff-Com: -0.234D-05 0.523D-05 0.155D-04 0.575D-04-0.413D-04-0.460D-03
 Coeff-Com: -0.112D-02-0.554D-02-0.116D-01-0.348D-01-0.190D-02 0.626D-01
 Coeff-Com:  0.372D+00 0.621D+00
 Coeff:     -0.234D-05 0.523D-05 0.155D-04 0.575D-04-0.413D-04-0.460D-03
 Coeff:     -0.112D-02-0.554D-02-0.116D-01-0.348D-01-0.190D-02 0.626D-01
 Coeff:      0.372D+00 0.621D+00
 Gap=     0.076 Goal=   None    Shift=    0.000
 RMSDP=2.59D-08 MaxDP=2.07D-06 DE=-1.63D-09 OVMax= 1.33D-05

 Cycle  15  Pass 1  IDiag  1:
 RMSU=  1.21D-08    CP:  9.67D-01  1.81D+00  6.74D-01  6.39D-01  5.08D-01
                    CP:  5.71D-01  5.81D-01  6.01D-01  7.39D-01  6.38D-01
                    CP:  8.09D-01  1.03D+00  1.10D+00  9.22D-01
 E= -3005.30094231864     Delta-E=       -0.000000000373 Rises=F Damp=F
 DIIS: error= 1.31D-07 at cycle  15 NSaved=  15.
 NSaved=15 IEnMin=15 EnMin= -3005.30094231864     IErMin=15 ErrMin= 1.31D-07
 ErrMax= 1.31D-07  0.00D+00 EMaxC= 1.00D-01 BMatC= 3.59D-11 BMatP= 2.92D-10
 IDIUse=1 WtCom= 1.00D+00 WtEn= 0.00D+00
 Coeff-Com:  0.864D-06-0.148D-05 0.142D-04 0.486D-04 0.528D-04 0.259D-04
 Coeff-Com: -0.686D-04-0.155D-02-0.544D-02-0.161D-01-0.124D-01-0.287D-01
 Coeff-Com:  0.856D-01 0.318D+00 0.661D+00
 Coeff:      0.864D-06-0.148D-05 0.142D-04 0.486D-04 0.528D-04 0.259D-04
 Coeff:     -0.686D-04-0.155D-02-0.544D-02-0.161D-01-0.124D-01-0.287D-01
 Coeff:      0.856D-01 0.318D+00 0.661D+00
 Gap=     0.076 Goal=   None    Shift=    0.000
 RMSDP=9.95D-09 MaxDP=7.05D-07 DE=-3.73D-10 OVMax= 4.76D-06

 SCF Done:  E(RPBE1PBE) =  -3005.30094232     A.U. after   15 cycles
            NFock= 15  Conv=0.99D-08     -V/T= 2.0100
 KE= 2.975636300240D+03 PE=-2.623875767409D+04 EE= 1.063401906077D+04
 Leave Link  502 at Thu May  5 12:08:29 2022, MaxMem= 10066329600 cpu:            8783.2 elap:             367.6
 (Enter /sw/apps/gaussian-16.0/g16/l801.exe)
 DoSCS=F DFT=T ScalE2(SS,OS)=  1.000000  1.000000
 ExpMin= 3.36D-02 ExpMax= 4.95D+03 ExpMxC= 7.45D+02 IAcc=3 IRadAn=         5 AccDes= 0.00D+00
 HarFok:  IExCor=  205 AccDes= 0.00D+00 IRadAn=         5 IDoV=-2 UseB2=F ITyADJ=14
 ICtDFT= 12500011 ScaDFX=  1.000000  1.000000  1.000000  1.000000
 GSVD:  LWork=       -5460 too small for GESVD, short by       25550 words or       25550 for optimal perf.
 Largest valence mixing into a core orbital is  1.26D-04
 Largest core mixing into a valence orbital is  5.46D-05
 Range of M.O.s used for correlation:    71  1298
 NBasis=  1298 NAE=   246 NBE=   246 NFC=    70 NFV=     0
 NROrb=   1228 NOA=   176 NOB=   176 NVA=  1052 NVB=  1052

 **** Warning!!: The smallest alpha delta epsilon is  0.76458202D-01

 Leave Link  801 at Thu May  5 12:08:29 2022, MaxMem= 10066329600 cpu:               9.1 elap:               0.4
 (Enter /sw/apps/gaussian-16.0/g16/l914.exe)
 RHF ground state
 Two-electron integrals replicated using symmetry.
 MDV= 10066329600 DFT=T DoStab=F Mixed=T DoRPA=T DoScal=F NonHer=T
 Making orbital integer symmetry assigments:
 Orbital symmetries:
       Occupied  (A) (A) (A) (A) (A) (A) (A) (A) (A) (A) (A) (A)
                 (A) (A) (A) (A) (A) (A) (A) (A) (A) (A) (A) (A)
                 (A) (A) (A) (A) (A) (A) (A) (A) (A) (A) (A) (A)
                 (A) (A) (A) (A) (A) (A) (A) (A) (A) (A) (A) (A)
                 (A) (A) (A) (A) (A) (A) (A) (A) (A) (A) (A) (A)
                 (A) (A) (A) (A) (A) (A) (A) (A) (A) (A) (A) (A)
                 (A) (A) (A) (A) (A) (A) (A) (A) (A) (A) (A) (A)
                 (A) (A) (A) (A) (A) (A) (A) (A) (A) (A) (A) (A)
                 (A) (A) (A) (A) (A) (A) (A) (A) (A) (A) (A) (A)
                 (A) (A) (A) (A) (A) (A) (A) (A) (A) (A) (A) (A)
                 (A) (A) (A) (A) (A) (A) (A) (A) (A) (A) (A) (A)
                 (A) (A) (A) (A) (A) (A) (A) (A) (A) (A) (A) (A)
                 (A) (A) (A) (A) (A) (A) (A) (A) (A) (A) (A) (A)
                 (A) (A) (A) (A) (A) (A) (A) (A) (A) (A) (A) (A)
                 (A) (A) (A) (A) (A) (A) (A) (A) (A) (A) (A) (A)
                 (A) (A) (A) (A) (A) (A) (A) (A) (A) (A) (A) (A)
                 (A) (A) (A) (A) (A) (A) (A) (A) (A) (A) (A) (A)
                 (A) (A) (A) (A) (A) (A) (A) (A) (A) (A) (A) (A)
                 (A) (A) (A) (A) (A) (A) (A) (A) (A) (A) (A) (A)
                 (A) (A) (A) (A) (A) (A) (A) (A) (A) (A) (A) (A)
                 (A) (A) (A) (A) (A) (A)
       Virtual   (A) (A) (A) (A) (A) (A) (A) (A) (A) (A) (A) (A)
                 (A) (A) (A) (A) (A) (A) (A) (A) (A) (A) (A) (A)
                 (A) (A) (A) (A) (A) (A) (A) (A) (A) (A) (A) (A)
                 (A) (A) (A) (A) (A) (A) (A) (A) (A) (A) (A) (A)
                 (A) (A) (A) (A) (A) (A) (A) (A) (A) (A) (A) (A)
                 (A) (A) (A) (A) (A) (A) (A) (A) (A) (A) (A) (A)
                 (A) (A) (A) (A) (A) (A) (A) (A) (A) (A) (A) (A)
                 (A) (A) (A) (A) (A) (A) (A) (A) (A) (A) (A) (A)
                 (A) (A) (A) (A) (A) (A) (A) (A) (A) (A) (A) (A)
                 (A) (A) (A) (A) (A) (A) (A) (A) (A) (A) (A) (A)
                 (A) (A) (A) (A) (A) (A) (A) (A) (A) (A) (A) (A)
                 (A) (A) (A) (A) (A) (A) (A) (A) (A) (A) (A) (A)
                 (A) (A) (A) (A) (A) (A) (A) (A) (A) (A) (A) (A)
                 (A) (A) (A) (A) (A) (A) (A) (A) (A) (A) (A) (A)
                 (A) (A) (A) (A) (A) (A) (A) (A) (A) (A) (A) (A)
                 (A) (A) (A) (A) (A) (A) (A) (A) (A) (A) (A) (A)
                 (A) (A) (A) (A) (A) (A) (A) (A) (A) (A) (A) (A)
                 (A) (A) (A) (A) (A) (A) (A) (A) (A) (A) (A) (A)
                 (A) (A) (A) (A) (A) (A) (A) (A) (A) (A) (A) (A)
                 (A) (A) (A) (A) (A) (A) (A) (A) (A) (A) (A) (A)
                 (A) (A) (A) (A) (A) (A) (A) (A) (A) (A) (A) (A)
                 (A) (A) (A) (A) (A) (A) (A) (A) (A) (A) (A) (A)
                 (A) (A) (A) (A) (A) (A) (A) (A) (A) (A) (A) (A)
                 (A) (A) (A) (A) (A) (A) (A) (A) (A) (A) (A) (A)
                 (A) (A) (A) (A) (A) (A) (A) (A) (A) (A) (A) (A)
                 (A) (A) (A) (A) (A) (A) (A) (A) (A) (A) (A) (A)
                 (A) (A) (A) (A) (A) (A) (A) (A) (A) (A) (A) (A)
                 (A) (A) (A) (A) (A) (A) (A) (A) (A) (A) (A) (A)
                 (A) (A) (A) (A) (A) (A) (A) (A) (A) (A) (A) (A)
                 (A) (A) (A) (A) (A) (A) (A) (A) (A) (A) (A) (A)
                 (A) (A) (A) (A) (A) (A) (A) (A) (A) (A) (A) (A)
                 (A) (A) (A) (A) (A) (A) (A) (A) (A) (A) (A) (A)
                 (A) (A) (A) (A) (A) (A) (A) (A) (A) (A) (A) (A)
                 (A) (A) (A) (A) (A) (A) (A) (A) (A) (A) (A) (A)
                 (A) (A) (A) (A) (A) (A) (A) (A) (A) (A) (A) (A)
                 (A) (A) (A) (A) (A) (A) (A) (A) (A) (A) (A) (A)
                 (A) (A) (A) (A) (A) (A) (A) (A) (A) (A) (A) (A)
                 (A) (A) (A) (A) (A) (A) (A) (A) (A) (A) (A) (A)
                 (A) (A) (A) (A) (A) (A) (A) (A) (A) (A) (A) (A)
                 (A) (A) (A) (A) (A) (A) (A) (A) (A) (A) (A) (A)
                 (A) (A) (A) (A) (A) (A) (A) (A) (A) (A) (A) (A)
                 (A) (A) (A) (A) (A) (A) (A) (A) (A) (A) (A) (A)
                 (A) (A) (A) (A) (A) (A) (A) (A) (A) (A) (A) (A)
                 (A) (A) (A) (A) (A) (A) (A) (A) (A) (A) (A) (A)
                 (A) (A) (A) (A) (A) (A) (A) (A) (A) (A) (A) (A)
                 (A) (A) (A) (A) (A) (A) (A) (A) (A) (A) (A) (A)
                 (A) (A) (A) (A) (A) (A) (A) (A) (A) (A) (A) (A)
                 (A) (A) (A) (A) (A) (A) (A) (A) (A) (A) (A) (A)
                 (A) (A) (A) (A) (A) (A) (A) (A) (A) (A) (A) (A)
                 (A) (A) (A) (A) (A) (A) (A) (A) (A) (A) (A) (A)
                 (A) (A) (A) (A) (A) (A) (A) (A) (A) (A) (A) (A)
                 (A) (A) (A) (A) (A) (A) (A) (A) (A) (A) (A) (A)
                 (A) (A) (A) (A) (A) (A) (A) (A) (A) (A) (A) (A)
                 (A) (A) (A) (A) (A) (A) (A) (A) (A) (A) (A) (A)
                 (A) (A) (A) (A) (A) (A) (A) (A) (A) (A) (A) (A)
                 (A) (A) (A) (A) (A) (A) (A) (A) (A) (A) (A) (A)
                 (A) (A) (A) (A) (A) (A) (A) (A) (A) (A) (A) (A)
                 (A) (A) (A) (A) (A) (A) (A) (A) (A) (A) (A) (A)
                 (A) (A) (A) (A) (A) (A) (A) (A) (A) (A) (A) (A)
                 (A) (A) (A) (A) (A) (A) (A) (A) (A) (A) (A) (A)
                 (A) (A) (A) (A) (A) (A) (A) (A) (A) (A) (A) (A)
                 (A) (A) (A) (A) (A) (A) (A) (A) (A) (A) (A) (A)
                 (A) (A) (A) (A) (A) (A) (A) (A) (A) (A) (A) (A)
                 (A) (A) (A) (A) (A) (A) (A) (A) (A) (A) (A) (A)
                 (A) (A) (A) (A) (A) (A) (A) (A) (A) (A) (A) (A)
                 (A) (A) (A) (A) (A) (A) (A) (A) (A) (A) (A) (A)
                 (A) (A) (A) (A) (A) (A) (A) (A) (A) (A) (A) (A)
                 (A) (A) (A) (A) (A) (A) (A) (A) (A) (A) (A) (A)
                 (A) (A) (A) (A) (A) (A) (A) (A) (A) (A) (A) (A)
                 (A) (A) (A) (A) (A) (A) (A) (A) (A) (A) (A) (A)
                 (A) (A) (A) (A) (A) (A) (A) (A) (A) (A) (A) (A)
                 (A) (A) (A) (A) (A) (A) (A) (A) (A) (A) (A) (A)
                 (A) (A) (A) (A) (A) (A) (A) (A) (A) (A) (A) (A)
                 (A) (A) (A) (A) (A) (A) (A) (A) (A) (A) (A) (A)
                 (A) (A) (A) (A) (A) (A) (A) (A) (A) (A) (A) (A)
                 (A) (A) (A) (A) (A) (A) (A) (A) (A) (A) (A) (A)
                 (A) (A) (A) (A) (A) (A) (A) (A) (A) (A) (A) (A)
                 (A) (A) (A) (A) (A) (A) (A) (A) (A) (A) (A) (A)
                 (A) (A) (A) (A) (A) (A) (A) (A) (A) (A) (A) (A)
                 (A) (A) (A) (A) (A) (A) (A) (A) (A) (A) (A) (A)
                 (A) (A) (A) (A) (A) (A) (A) (A) (A) (A) (A) (A)
                 (A) (A) (A) (A) (A) (A) (A) (A) (A) (A) (A) (A)
                 (A) (A) (A) (A) (A) (A) (A) (A) (A) (A) (A) (A)
                 (A) (A) (A) (A) (A) (A) (A) (A) (A) (A) (A) (A)
                 (A) (A) (A) (A) (A) (A) (A) (A) (A) (A) (A) (A)
                 (A) (A) (A) (A) (A) (A) (A) (A) (A) (A) (A) (A)
                 (A) (A) (A) (A) (A) (A) (A) (A) (A) (A) (A) (A)
                 (A) (A) (A) (A) (A) (A) (A) (A)
    20 initial guesses have been made.
 Convergence on wavefunction:    0.001000000000000
 Davidson Disk Diagonalization:  ConvIn= 1.00D-03 SkipCon=T Conv= 1.00D-03.
 Max sub-space:  2000 roots to seek:    20 dimension of matrix:       370304
 Iteration     1 Dimension    20 NMult     0 NNew     20
 CISAX will form    20 AO SS matrices at one time.
 NMat=    20 NSing=    20 JSym2X= 0.
 FoFJK:  IHMeth= 1 ICntrl=       0 DoSepK=F KAlg= 0 I1Cent=           0 FoldK=F
 IRaf= 530000000 NMat=      40 IRICut=       1 DoRegI=T DoRafI=F ISym2E= 0 IDoP0=3 IntGTp=3.
 FoFCou: FMM=T IPFlag=           0 FMFlag=      100000 FMFlg1=        2001
         NFxFlg=           0 DoJE=F BraDBF=F KetDBF=F FulRan=T
         wScrn=  0.000000 ICntrl=         0 IOpCl=  0 I1Cent=           0 NGrid=           0
         NMat0=   40 NMatS0=     20 NMatT0=    0 NMatD0=   40 NMtDS0=    0 NMtDT0=    0
 Symmetry not used in FoFCou.
 FMM levels:  10  Number of levels for PrismC:   9
 New state      4 was old state      5
 New state      5 was old state      6
 Excitation Energies [eV] at current iteration:
 Root      1 :     2.289738279515831
 Root      2 :     2.525424929112198
 Root      3 :     3.035906422342257
 Root      4 :     3.046896370671693
 Root      5 :     3.130844677553282
 Root      6 :     3.388445816137073
 Root      7 :     3.419101052165936
 Root      8 :     3.699575657431374
 Root      9 :     3.841506483655563
 Root     10 :     3.989037426382896
 Root     11 :     4.020159392213151
 Root     12 :     4.174222708464093
 Root     13 :     4.272452242463911
 Root     14 :     4.352575275467552
 Root     15 :     4.365176224499068
 Root     16 :     4.464826567710682
 Root     17 :     4.551576933789161
 Root     18 :     4.579492198319313
 Root     19 :     4.786604016340992
 Root     20 :     4.879589156022063
 Iteration     2 Dimension    30 NMult    20 NNew     10
 CISAX will form    10 AO SS matrices at one time.
 NMat=    10 NSing=    10 JSym2X= 0.
 Root      1 not converged, maximum delta is    0.059058820448341
 Root      2 not converged, maximum delta is    0.056595981703217
 Root      3 not converged, maximum delta is    0.184179951233482
 Root      4 not converged, maximum delta is    0.097495603605166
 Root      5 not converged, maximum delta is    0.153227578578855
 Excitation Energies [eV] at current iteration:
 Root      1 :     1.921514074363344   Change is   -0.368224205152487
 Root      2 :     2.246188989945081   Change is   -0.279235939167116
 Root      3 :     2.744644233562970   Change is   -0.291262188779287
 Root      4 :     2.953968591625382   Change is   -0.092927779046311
 Root      5 :     3.003941589234530   Change is   -0.126903088318752
 Iteration     3 Dimension    40 NMult    30 NNew     10
 CISAX will form    10 AO SS matrices at one time.
 NMat=    10 NSing=    10 JSym2X= 0.
 Root      1 not converged, maximum delta is    0.024924329811608
 Root      2 not converged, maximum delta is    0.025968355389859
 Root      3 not converged, maximum delta is    0.012364264024643
 Root      4 not converged, maximum delta is    0.019967694012583
 Root      5 not converged, maximum delta is    0.025700664212951
 Excitation Energies [eV] at current iteration:
 Root      1 :     1.888144704255007   Change is   -0.033369370108336
 Root      2 :     2.223960169992439   Change is   -0.022228819952642
 Root      3 :     2.730661268617950   Change is   -0.013982964945020
 Root      4 :     2.943843310262808   Change is   -0.010125281362574
 Root      5 :     2.991249072462587   Change is   -0.012692516771943
 Iteration     4 Dimension    50 NMult    40 NNew     10
 CISAX will form    10 AO SS matrices at one time.
 NMat=    10 NSing=    10 JSym2X= 0.
 Root      1 not converged, maximum delta is    0.002465730948147
 Root      2 not converged, maximum delta is    0.006047836354481
 Root      3 not converged, maximum delta is    0.003817101500337
 Root      4 not converged, maximum delta is    0.003757881648854
 Root      5 not converged, maximum delta is    0.008608144999250
 Excitation Energies [eV] at current iteration:
 Root      1 :     1.884904520307259   Change is   -0.003240183947749
 Root      2 :     2.221302812646636   Change is   -0.002657357345803
 Root      3 :     2.728669777119292   Change is   -0.001991491498659
 Root      4 :     2.942876153771228   Change is   -0.000967156491580
 Root      5 :     2.988968372891136   Change is   -0.002280699571451
 Iteration     5 Dimension    60 NMult    50 NNew     10
 CISAX will form    10 AO SS matrices at one time.
 NMat=    10 NSing=    10 JSym2X= 0.
 Root      1 has converged.
 Root      2 has converged.
 Root      3 not converged, maximum delta is    0.001121969980114
 Root      4 not converged, maximum delta is    0.001544813696388
 Root      5 not converged, maximum delta is    0.003021199729608
 Excitation Energies [eV] at current iteration:
 Root      1 :     1.884581616720873   Change is   -0.000322903586386
 Root      2 :     2.221100059714485   Change is   -0.000202752932151
 Root      3 :     2.728479474401498   Change is   -0.000190302717793
 Root      4 :     2.942751277033512   Change is   -0.000124876737716
 Root      5 :     2.988669621217025   Change is   -0.000298751674111
 Iteration     6 Dimension    66 NMult    60 NNew      6
 CISAX will form     6 AO SS matrices at one time.
 NMat=     6 NSing=     6 JSym2X= 0.
 Root      1 has converged.
 Root      2 has converged.
 Root      3 has converged.
 Root      4 has converged.
 Root      5 has converged.
 Excitation Energies [eV] at current iteration:
 Root      1 :     1.884580134266673   Change is   -0.000001482454199
 Root      2 :     2.221094525266781   Change is   -0.000005534447705
 Root      3 :     2.728457215911989   Change is   -0.000022258489509
 Root      4 :     2.942733304906482   Change is   -0.000017972127030
 Root      5 :     2.988642235411937   Change is   -0.000027385805088
 Convergence achieved on expansion vectors.
 ***********************************************************************
 Excited states from <AA,BB:AA,BB> singles matrix:
 ***********************************************************************
 
 1PDM for each excited state written to RWF  633
 Ground to excited state transition densities written to RWF  633
 Ground to excited state transition electric dipole moments (Au):
       state          X           Y           Z        Dip. S.      Osc.
         1         0.9261     -2.0824      1.7325      8.1954      0.3784
         2        -0.7082     -1.1403     -0.6678      2.2478      0.1223
         3         0.1454      0.4653      0.1722      0.2673      0.0179
         4        -0.0226     -0.0278     -0.0170      0.0016      0.0001
         5         0.0788      0.0962      0.1437      0.0361      0.0026
 Ground to excited state transition velocity dipole moments (Au):
       state          X           Y           Z        Dip. S.      Osc.
         1        -0.0604      0.1402     -0.1168      0.0370      0.3557
         2         0.0539      0.0889      0.0511      0.0134      0.1096
         3        -0.0140     -0.0448     -0.0169      0.0025      0.0166
         4         0.0012      0.0035      0.0049      0.0000      0.0002
         5        -0.0114     -0.0099     -0.0133      0.0004      0.0025
 Ground to excited state transition magnetic dipole moments (Au):
       state          X           Y           Z
         1        -0.1915      1.1078      1.4412
         2         0.3656     -0.6633      0.6572
         3        -0.7526      0.2806      0.0748
         4        -0.2239      0.1767     -0.2096
         5         0.2401     -0.3182     -0.1713
 Ground to excited state transition velocity quadrupole moments (Au):
       state          XX          YY          ZZ          XY          XZ          YZ
         1        -1.1743      0.2610      0.0436      1.3013     -1.1449     -0.2135
         2         0.8744      0.1420      0.0526      0.9212      0.5502      0.0127
         3        -0.1382     -0.4632      0.1228     -0.4042     -0.1010      0.0491
         4         0.0513     -0.0453     -0.0185      0.0391      0.0660      0.0289
         5        -0.2720      0.0235     -0.0104     -0.0625     -0.1804      0.0438
 <0|del|b> * <b|rxdel|0> + <0|del|b> * <b|delr+rdel|0>
 Rotatory Strengths (R) in cgs (10**-40 erg-esu-cm/Gauss)
       state          XX          YY          ZZ    R(velocity)    E-M Angle
         1       -21.7748     41.5534    -33.3470     -4.5228       90.22
         2      -117.5858     29.8472     38.8826    -16.2853       92.78
         3       -40.6466      6.1248     11.1754     -7.7821       94.72
         4        -1.4863     -4.7961      1.7681     -1.5047      108.40
         5        14.4021     -5.7849      8.5879      5.7350       72.19
 1/2[<0|r|b>*<b|rxdel|0> + (<0|rxdel|b>*<b|r|0>)*]
 Rotatory Strengths (R) in cgs (10**-40 erg-esu-cm/Gauss)
       state          XX          YY          ZZ     R(length)
         1       125.3866   1631.3401  -1765.7760     -3.0164
         2       183.1196   -534.8260    310.3493    -13.7857
         3        77.3671    -92.3453     -9.1042     -8.0275
         4        -3.5744      3.4728     -2.5202     -0.8739
         5       -13.3759     21.6611     17.4050      8.5634
  1/2[<0|del|b>*<b|r|0> + (<0|r|b>*<b|del|0>)*] (Au)
       state          X           Y           Z        Dip. S.   Osc.(frdel)
         1        -0.0560     -0.2920     -0.2023      0.5503      0.3669
         2        -0.0382     -0.1013     -0.0341      0.1736      0.1158
         3        -0.0020     -0.0209     -0.0029      0.0258      0.0172
         4        -0.0000     -0.0001     -0.0001      0.0002      0.0001
         5        -0.0009     -0.0009     -0.0019      0.0038      0.0025

 Excitation energies and oscillator strengths:
 
 Excited State   1:      Singlet-A      1.8846 eV  657.89 nm  f=0.3784  <S**2>=0.000
     245 -> 248        0.16152
     246 -> 247        0.69612
     246 <- 247       -0.11235
 This state for optimization and/or second-order correction.
 Total Energy, E(TD-HF/TD-DFT) =  -3005.23168527    
 Copying the excited state density for this state as the 1-particle RhoCI density.
 
 Excited State   2:      Singlet-A      2.2211 eV  558.21 nm  f=0.1223  <S**2>=0.000
     244 -> 247        0.11943
     245 -> 247        0.65736
     246 -> 248       -0.22308
 
 Excited State   3:      Singlet-A      2.7285 eV  454.41 nm  f=0.0179  <S**2>=0.000
     244 -> 247        0.68925
 
 Excited State   4:      Singlet-A      2.9427 eV  421.32 nm  f=0.0001  <S**2>=0.000
     242 -> 247        0.68018
     242 -> 249       -0.10224
     242 -> 251       -0.10844
 
 Excited State   5:      Singlet-A      2.9886 eV  414.85 nm  f=0.0026  <S**2>=0.000
     240 -> 247        0.25257
     240 -> 249        0.11501
     241 -> 247        0.62438
     241 -> 249        0.11444
 SavETr:  write IOETrn=   770 NScale= 10 NData=  16 NLR=1 NState=    5 LETran=     100.
 Leave Link  914 at Thu May  5 12:25:27 2022, MaxMem= 10066329600 cpu:           24394.9 elap:            1018.3
 (Enter /sw/apps/gaussian-16.0/g16/l601.exe)
 Copying SCF densities to generalized density rwf, IOpCl= 0 IROHF=0.
 Hyperfine terms turned off by default for NAtoms > 100.

 **********************************************************************

            Population analysis using the SCF density.

 **********************************************************************

 Orbital symmetries:
       Occupied  (A) (A) (A) (A) (A) (A) (A) (A) (A) (A) (A) (A)
                 (A) (A) (A) (A) (A) (A) (A) (A) (A) (A) (A) (A)
                 (A) (A) (A) (A) (A) (A) (A) (A) (A) (A) (A) (A)
                 (A) (A) (A) (A) (A) (A) (A) (A) (A) (A) (A) (A)
                 (A) (A) (A) (A) (A) (A) (A) (A) (A) (A) (A) (A)
                 (A) (A) (A) (A) (A) (A) (A) (A) (A) (A) (A) (A)
                 (A) (A) (A) (A) (A) (A) (A) (A) (A) (A) (A) (A)
                 (A) (A) (A) (A) (A) (A) (A) (A) (A) (A) (A) (A)
                 (A) (A) (A) (A) (A) (A) (A) (A) (A) (A) (A) (A)
                 (A) (A) (A) (A) (A) (A) (A) (A) (A) (A) (A) (A)
                 (A) (A) (A) (A) (A) (A) (A) (A) (A) (A) (A) (A)
                 (A) (A) (A) (A) (A) (A) (A) (A) (A) (A) (A) (A)
                 (A) (A) (A) (A) (A) (A) (A) (A) (A) (A) (A) (A)
                 (A) (A) (A) (A) (A) (A) (A) (A) (A) (A) (A) (A)
                 (A) (A) (A) (A) (A) (A) (A) (A) (A) (A) (A) (A)
                 (A) (A) (A) (A) (A) (A) (A) (A) (A) (A) (A) (A)
                 (A) (A) (A) (A) (A) (A) (A) (A) (A) (A) (A) (A)
                 (A) (A) (A) (A) (A) (A) (A) (A) (A) (A) (A) (A)
                 (A) (A) (A) (A) (A) (A) (A) (A) (A) (A) (A) (A)
                 (A) (A) (A) (A) (A) (A) (A) (A) (A) (A) (A) (A)
                 (A) (A) (A) (A) (A) (A)
       Virtual   (A) (A) (A) (A) (A) (A) (A) (A) (A) (A) (A) (A)
                 (A) (A) (A) (A) (A) (A) (A) (A) (A) (A) (A) (A)
                 (A) (A) (A) (A) (A) (A) (A) (A) (A) (A) (A) (A)
                 (A) (A) (A) (A) (A) (A) (A) (A) (A) (A) (A) (A)
                 (A) (A) (A) (A) (A) (A) (A) (A) (A) (A) (A) (A)
                 (A) (A) (A) (A) (A) (A) (A) (A) (A) (A) (A) (A)
                 (A) (A) (A) (A) (A) (A) (A) (A) (A) (A) (A) (A)
                 (A) (A) (A) (A) (A) (A) (A) (A) (A) (A) (A) (A)
                 (A) (A) (A) (A) (A) (A) (A) (A) (A) (A) (A) (A)
                 (A) (A) (A) (A) (A) (A) (A) (A) (A) (A) (A) (A)
                 (A) (A) (A) (A) (A) (A) (A) (A) (A) (A) (A) (A)
                 (A) (A) (A) (A) (A) (A) (A) (A) (A) (A) (A) (A)
                 (A) (A) (A) (A) (A) (A) (A) (A) (A) (A) (A) (A)
                 (A) (A) (A) (A) (A) (A) (A) (A) (A) (A) (A) (A)
                 (A) (A) (A) (A) (A) (A) (A) (A) (A) (A) (A) (A)
                 (A) (A) (A) (A) (A) (A) (A) (A) (A) (A) (A) (A)
                 (A) (A) (A) (A) (A) (A) (A) (A) (A) (A) (A) (A)
                 (A) (A) (A) (A) (A) (A) (A) (A) (A) (A) (A) (A)
                 (A) (A) (A) (A) (A) (A) (A) (A) (A) (A) (A) (A)
                 (A) (A) (A) (A) (A) (A) (A) (A) (A) (A) (A) (A)
                 (A) (A) (A) (A) (A) (A) (A) (A) (A) (A) (A) (A)
                 (A) (A) (A) (A) (A) (A) (A) (A) (A) (A) (A) (A)
                 (A) (A) (A) (A) (A) (A) (A) (A) (A) (A) (A) (A)
                 (A) (A) (A) (A) (A) (A) (A) (A) (A) (A) (A) (A)
                 (A) (A) (A) (A) (A) (A) (A) (A) (A) (A) (A) (A)
                 (A) (A) (A) (A) (A) (A) (A) (A) (A) (A) (A) (A)
                 (A) (A) (A) (A) (A) (A) (A) (A) (A) (A) (A) (A)
                 (A) (A) (A) (A) (A) (A) (A) (A) (A) (A) (A) (A)
                 (A) (A) (A) (A) (A) (A) (A) (A) (A) (A) (A) (A)
                 (A) (A) (A) (A) (A) (A) (A) (A) (A) (A) (A) (A)
                 (A) (A) (A) (A) (A) (A) (A) (A) (A) (A) (A) (A)
                 (A) (A) (A) (A) (A) (A) (A) (A) (A) (A) (A) (A)
                 (A) (A) (A) (A) (A) (A) (A) (A) (A) (A) (A) (A)
                 (A) (A) (A) (A) (A) (A) (A) (A) (A) (A) (A) (A)
                 (A) (A) (A) (A) (A) (A) (A) (A) (A) (A) (A) (A)
                 (A) (A) (A) (A) (A) (A) (A) (A) (A) (A) (A) (A)
                 (A) (A) (A) (A) (A) (A) (A) (A) (A) (A) (A) (A)
                 (A) (A) (A) (A) (A) (A) (A) (A) (A) (A) (A) (A)
                 (A) (A) (A) (A) (A) (A) (A) (A) (A) (A) (A) (A)
                 (A) (A) (A) (A) (A) (A) (A) (A) (A) (A) (A) (A)
                 (A) (A) (A) (A) (A) (A) (A) (A) (A) (A) (A) (A)
                 (A) (A) (A) (A) (A) (A) (A) (A) (A) (A) (A) (A)
                 (A) (A) (A) (A) (A) (A) (A) (A) (A) (A) (A) (A)
                 (A) (A) (A) (A) (A) (A) (A) (A) (A) (A) (A) (A)
                 (A) (A) (A) (A) (A) (A) (A) (A) (A) (A) (A) (A)
                 (A) (A) (A) (A) (A) (A) (A) (A) (A) (A) (A) (A)
                 (A) (A) (A) (A) (A) (A) (A) (A) (A) (A) (A) (A)
                 (A) (A) (A) (A) (A) (A) (A) (A) (A) (A) (A) (A)
                 (A) (A) (A) (A) (A) (A) (A) (A) (A) (A) (A) (A)
                 (A) (A) (A) (A) (A) (A) (A) (A) (A) (A) (A) (A)
                 (A) (A) (A) (A) (A) (A) (A) (A) (A) (A) (A) (A)
                 (A) (A) (A) (A) (A) (A) (A) (A) (A) (A) (A) (A)
                 (A) (A) (A) (A) (A) (A) (A) (A) (A) (A) (A) (A)
                 (A) (A) (A) (A) (A) (A) (A) (A) (A) (A) (A) (A)
                 (A) (A) (A) (A) (A) (A) (A) (A) (A) (A) (A) (A)
                 (A) (A) (A) (A) (A) (A) (A) (A) (A) (A) (A) (A)
                 (A) (A) (A) (A) (A) (A) (A) (A) (A) (A) (A) (A)
                 (A) (A) (A) (A) (A) (A) (A) (A) (A) (A) (A) (A)
                 (A) (A) (A) (A) (A) (A) (A) (A) (A) (A) (A) (A)
                 (A) (A) (A) (A) (A) (A) (A) (A) (A) (A) (A) (A)
                 (A) (A) (A) (A) (A) (A) (A) (A) (A) (A) (A) (A)
                 (A) (A) (A) (A) (A) (A) (A) (A) (A) (A) (A) (A)
                 (A) (A) (A) (A) (A) (A) (A) (A) (A) (A) (A) (A)
[...]
 Alpha virt. eigenvalues --    1.16990   1.17783   1.18616   1.19105   1.19610
 Alpha virt. eigenvalues --    1.20113   1.20159   1.20528   1.21054   1.21671
 Alpha virt. eigenvalues --    1.22240   1.22471   1.22759   1.23497   1.24279
 Alpha virt. eigenvalues --    1.24437   1.24572   1.25303   1.25392   1.25809
 Alpha virt. eigenvalues --    1.26846   1.27224   1.27467   1.27973   1.28059
 Alpha virt. eigenvalues --    1.28542   1.28740   1.28903   1.29270   1.29916
 Alpha virt. eigenvalues --    1.30141   1.30618   1.31550   1.32277   1.32719
 Alpha virt. eigenvalues --    1.32945   1.33507   1.34221   1.34846   1.35318
 Alpha virt. eigenvalues --    1.35504   1.36050   1.36099   1.36556   1.36867
 Alpha virt. eigenvalues --    1.37043   1.37935   1.38209   1.38281   1.38334
 Alpha virt. eigenvalues --    1.38645   1.38773   1.39281   1.39957   1.40260
 Alpha virt. eigenvalues --    1.40556   1.40726   1.41071   1.41591   1.41980
 Alpha virt. eigenvalues --    1.42973   1.43104   1.43223   1.43510   1.44175
 Alpha virt. eigenvalues --    1.44894   1.45086   1.45467   1.46154   1.46665
 Alpha virt. eigenvalues --    1.47259   1.47879   1.47998   1.48880   1.49232
 Alpha virt. eigenvalues --    1.49523   1.49702   1.50210   1.50601   1.50791
 Alpha virt. eigenvalues --    1.51082   1.51439   1.51567   1.51783   1.52018
 Alpha virt. eigenvalues --    1.52371   1.52613   1.52937   1.53298   1.53798
 Alpha virt. eigenvalues --    1.54022   1.54191   1.54551   1.54613   1.55021
 Alpha virt. eigenvalues --    1.55215   1.55709   1.55832   1.56086   1.56377
 Alpha virt. eigenvalues --    1.56790   1.57087   1.57257   1.57423   1.58069
 Alpha virt. eigenvalues --    1.58333   1.58496   1.58828   1.59077   1.59680
 Alpha virt. eigenvalues --    1.59985   1.60249   1.60863   1.61250   1.61296
 Alpha virt. eigenvalues --    1.61776   1.61808   1.62106   1.62155   1.62554
 Alpha virt. eigenvalues --    1.62842   1.63272   1.63855   1.64280   1.64502
 Alpha virt. eigenvalues --    1.65317   1.65543   1.65881   1.66505   1.67432
 Alpha virt. eigenvalues --    1.67851   1.68213   1.68537   1.69214   1.69904
 Alpha virt. eigenvalues --    1.70123   1.70671   1.70868   1.71272   1.71516
 Alpha virt. eigenvalues --    1.71553   1.71869   1.72101   1.72600   1.72659
 Alpha virt. eigenvalues --    1.72813   1.73251   1.73361   1.73598   1.73718
 Alpha virt. eigenvalues --    1.74090   1.74362   1.74571   1.74769   1.74851
 Alpha virt. eigenvalues --    1.75429   1.75594   1.75642   1.75733   1.76157
 Alpha virt. eigenvalues --    1.76585   1.76746   1.77186   1.77422   1.77602
 Alpha virt. eigenvalues --    1.77688   1.77829   1.77946   1.78349   1.78579
 Alpha virt. eigenvalues --    1.78740   1.78994   1.79277   1.79410   1.79511
 Alpha virt. eigenvalues --    1.79829   1.79893   1.80012   1.80178   1.80306
 Alpha virt. eigenvalues --    1.80627   1.80704   1.80815   1.80984   1.81369
 Alpha virt. eigenvalues --    1.81621   1.81723   1.81843   1.82011   1.82348
 Alpha virt. eigenvalues --    1.82543   1.82589   1.82995   1.83157   1.83267
 Alpha virt. eigenvalues --    1.83415   1.83457   1.83651   1.83987   1.84216
 Alpha virt. eigenvalues --    1.84447   1.84511   1.84877   1.85116   1.85249
 Alpha virt. eigenvalues --    1.85502   1.85803   1.86010   1.86028   1.86220
 Alpha virt. eigenvalues --    1.86473   1.86688   1.86958   1.87538   1.87662
 Alpha virt. eigenvalues --    1.87969   1.88193   1.88689   1.88743   1.89074
 Alpha virt. eigenvalues --    1.89250   1.89637   1.89920   1.90195   1.90488
 Alpha virt. eigenvalues --    1.90638   1.90789   1.91028   1.91309   1.91475
 Alpha virt. eigenvalues --    1.91576   1.92024   1.92448   1.92659   1.92699
 Alpha virt. eigenvalues --    1.93388   1.93873   1.94003   1.94325   1.94652
 Alpha virt. eigenvalues --    1.94818   1.95335   1.95496   1.95602   1.95989
 Alpha virt. eigenvalues --    1.96052   1.96106   1.96306   1.97213   1.97582
 Alpha virt. eigenvalues --    1.97700   1.97926   1.98039   1.98329   1.98551
 Alpha virt. eigenvalues --    1.98554   1.98942   1.99603   1.99803   2.00464
 Alpha virt. eigenvalues --    2.00508   2.00638   2.00999   2.01220   2.01659
 Alpha virt. eigenvalues --    2.01722   2.02010   2.02506   2.02609   2.02827
 Alpha virt. eigenvalues --    2.03017   2.03623   2.03822   2.04224   2.04639
 Alpha virt. eigenvalues --    2.04895   2.05322   2.05390   2.05996   2.06056
 Alpha virt. eigenvalues --    2.06266   2.06583   2.06766   2.07038   2.07246
 Alpha virt. eigenvalues --    2.07346   2.07530   2.07821   2.08693   2.08898
 Alpha virt. eigenvalues --    2.09272   2.09581   2.09709   2.10776   2.11032
 Alpha virt. eigenvalues --    2.11110   2.11513   2.12021   2.12450   2.12542
 Alpha virt. eigenvalues --    2.12810   2.12938   2.13688   2.13782   2.13839
 Alpha virt. eigenvalues --    2.14072   2.14837   2.14929   2.15344   2.16004
 Alpha virt. eigenvalues --    2.16330   2.16726   2.16739   2.16935   2.17115
 Alpha virt. eigenvalues --    2.17476   2.18086   2.18353   2.18703   2.18966
 Alpha virt. eigenvalues --    2.19254   2.19605   2.19966   2.20249   2.20877
 Alpha virt. eigenvalues --    2.21157   2.21486   2.21913   2.22901   2.23534
 Alpha virt. eigenvalues --    2.23718   2.23985   2.24444   2.24755   2.25034
 Alpha virt. eigenvalues --    2.25521   2.25864   2.26408   2.27032   2.27321
 Alpha virt. eigenvalues --    2.28140   2.28428   2.28539   2.28821   2.29429
 Alpha virt. eigenvalues --    2.29552   2.30266   2.30790   2.31549   2.31842
 Alpha virt. eigenvalues --    2.32249   2.32632   2.32773   2.33339   2.33719
 Alpha virt. eigenvalues --    2.33817   2.34173   2.34258   2.34393   2.35164
 Alpha virt. eigenvalues --    2.35502   2.35893   2.36037   2.36521   2.36839
 Alpha virt. eigenvalues --    2.36912   2.36989   2.37181   2.37390   2.37612
 Alpha virt. eigenvalues --    2.37819   2.38299   2.38456   2.38593   2.38851
 Alpha virt. eigenvalues --    2.39399   2.39586   2.39844   2.40398   2.40752
 Alpha virt. eigenvalues --    2.41776   2.41918   2.42213   2.42395   2.42724
 Alpha virt. eigenvalues --    2.43077   2.43439   2.43930   2.44301   2.44438
 Alpha virt. eigenvalues --    2.44742   2.45234   2.45461   2.45927   2.46654
 Alpha virt. eigenvalues --    2.47589   2.48052   2.48343   2.48675   2.49139
 Alpha virt. eigenvalues --    2.49506   2.49712   2.49767   2.50858   2.51357
 Alpha virt. eigenvalues --    2.51679   2.52265   2.52771   2.53301   2.53636
 Alpha virt. eigenvalues --    2.54455   2.54954   2.55028   2.55445   2.55761
 Alpha virt. eigenvalues --    2.56391   2.56880   2.57698   2.58005   2.58214
 Alpha virt. eigenvalues --    2.58431   2.58862   2.59452   2.59721   2.59940
 Alpha virt. eigenvalues --    2.60268   2.61938   2.62139   2.62526   2.62779
 Alpha virt. eigenvalues --    2.62877   2.63469   2.63725   2.64257   2.65057
 Alpha virt. eigenvalues --    2.65834   2.66049   2.66218   2.66484   2.67325
 Alpha virt. eigenvalues --    2.67952   2.68165   2.68248   2.68628   2.68798
 Alpha virt. eigenvalues --    2.69732   2.69793   2.70205   2.70538   2.71193
 Alpha virt. eigenvalues --    2.71327   2.71585   2.72088   2.72311   2.72369
 Alpha virt. eigenvalues --    2.72489   2.72783   2.73434   2.73690   2.73976
 Alpha virt. eigenvalues --    2.74285   2.74646   2.75215   2.75865   2.76958
 Alpha virt. eigenvalues --    2.76986   2.77313   2.77783   2.78309   2.79159
 Alpha virt. eigenvalues --    2.79328   2.79726   2.79904   2.80265   2.82047
 Alpha virt. eigenvalues --    2.82554   2.83274   2.83571   2.83621   2.84995
 Alpha virt. eigenvalues --    2.85111   2.85637   2.85915   2.86138   2.86445
 Alpha virt. eigenvalues --    2.87222   2.87482   2.87993   2.88085   2.89373
 Alpha virt. eigenvalues --    2.89790   2.90278   2.90440   2.90557   2.91278
 Alpha virt. eigenvalues --    2.91446   2.91605   2.92210   2.92507   2.92702
 Alpha virt. eigenvalues --    2.92844   2.93171   2.93726   2.93769   2.94371
 Alpha virt. eigenvalues --    2.94784   2.95230   2.95389   2.95860   2.95868
 Alpha virt. eigenvalues --    2.95993   2.96407   2.96580   2.97086   2.97214
 Alpha virt. eigenvalues --    2.97320   2.97963   2.98169   2.98361   2.98386
 Alpha virt. eigenvalues --    2.98537   2.99419   2.99425   3.00016   3.00183
 Alpha virt. eigenvalues --    3.00256   3.00519   3.00660   3.01190   3.01578
 Alpha virt. eigenvalues --    3.01691   3.01821   3.02114   3.03016   3.03162
 Alpha virt. eigenvalues --    3.03270   3.03620   3.04207   3.04895   3.05424
 Alpha virt. eigenvalues --    3.05735   3.05993   3.06327   3.06476   3.06580
 Alpha virt. eigenvalues --    3.06835   3.07412   3.08408   3.08545   3.09166
 Alpha virt. eigenvalues --    3.10726   3.10869   3.10962   3.11747   3.12051
 Alpha virt. eigenvalues --    3.12890   3.14068   3.14349   3.14845   3.15379
 Alpha virt. eigenvalues --    3.16924   3.17025   3.17802   3.18527   3.18648
 Alpha virt. eigenvalues --    3.19930   3.21070   3.21487   3.24074   3.25685
 Alpha virt. eigenvalues --    3.27398   3.29524   3.37036   3.39480   3.40260
 Alpha virt. eigenvalues --    3.43407   3.47154   3.47591   3.52554   3.54350
 Alpha virt. eigenvalues --    3.57842   3.57914   3.59656   3.62782   3.64591
 Alpha virt. eigenvalues --    3.66654   3.66790
          Condensed to atoms (all electrons):
 Mulliken charges:
               1
     1  Mg   0.972327
     2  C    0.041833
     3  C   -0.065069
     4  C   -0.070356
     5  C   -0.098138
     6  N   -0.354758
     7  C    0.003425
     8  C   -0.114947
     9  C   -0.126526
    10  C    0.022780
    11  C    0.023003
    12  C    0.016327
    13  C    0.001313
    14  C    0.241220
    15  O   -0.282569
    16  O   -0.364471
    17  N   -0.457838
    18  C    0.208761
    19  C   -0.175551
    20  C   -0.089455
    21  C    0.187742
    22  C    0.060997
    23  C    0.018737
    24  O   -0.224301
    25  C   -0.002287
    26  N   -0.436367
    27  C    0.033894
    28  C   -0.091485
    29  C   -0.098113
    30  C    0.095874
    31  C    0.029995
    32  C   -0.032325
    33  C   -0.041845
    34  N   -0.386709
    35  C    0.106153
    36  C   -0.217750
    37  C   -0.028969
    38  C    0.120973
    39  C    0.072135
    40  C    0.155431
    41  O   -0.229810
    42  C   -0.169395
    43  C    0.294175
    44  O   -0.235304
    45  O   -0.391792
    46  C    0.134340
    47  C    0.262943
    48  C   -0.160641
    49  C   -0.198455
    50  C    0.019675
    51  C   -0.004578
    52  C   -0.036288
    53  C    0.025068
    54  C   -0.223983
    55  C   -0.016348
    56  C   -0.027024
    57  C   -0.012390
    58  C    0.003127
    59  C   -0.234078
    60  C   -0.006894
    61  C   -0.012292
    62  C   -0.023038
    63  C    0.013804
    64  C   -0.284486
    65  C    0.005578
    66  C   -0.010234
    67  H    0.003332
    68  H   -0.010181
    69  H   -0.009895
    70  H    0.049453
    71  H    0.056187
    72  H    0.052413
    73  H    0.033594
    74  H    0.059166
    75  H    0.060446
    76  H    0.049404
    77  H    0.064617
    78  H    0.061524
    79  H    0.068576
    80  H    0.025918
    81  H    0.058452
    82  H    0.061156
    83  H    0.068248
    84  H    0.052229
    85  H    0.039133
    86  H    0.033157
    87  H    0.040823
    88  H    0.060508
    89  H    0.044704
    90  H    0.051006
    91  H    0.034202
    92  H    0.038485
    93  H    0.047447
    94  H    0.026526
    95  H    0.045146
    96  H    0.067110
    97  H    0.067378
    98  H    0.083984
    99  H    0.052325
   100  H    0.070780
   101  H    0.044616
   102  H    0.038150
   103  H    0.067450
   104  H    0.022951
   105  H    0.040165
   106  H    0.067594
   107  H    0.031995
   108  H    0.035239
   109  H    0.024383
   110  H    0.037279
   111  H    0.026093
   112  H    0.020630
   113  H    0.021713
   114  H    0.031051
   115  H    0.037099
   116  H    0.045813
   117  H    0.024404
   118  H    0.024223
   119  H    0.018195
   120  H    0.018530
   121  H    0.027386
   122  H    0.015148
   123  H    0.031615
   124  H    0.025510
   125  H    0.037623
   126  H    0.043725
   127  H    0.030313
   128  H    0.017290
   129  H    0.011446
   130  H    0.024965
   131  H    0.031230
   132  H    0.034218
   133  H    0.037683
   134  H    0.032528
   135  H    0.027867
   136  H    0.043258
   137  H    0.021759
   138  H    0.008897
   139  H    0.042939
   140  H    0.034907
 Sum of Mulliken charges =  -0.00000
 Mulliken charges with hydrogens summed into heavy atoms:
               1
     1  Mg   0.972327
     2  C    0.041833
     3  C   -0.061738
     4  C   -0.080537
     5  C   -0.108033
     6  N   -0.354758
     7  C    0.003425
     8  C   -0.065494
     9  C   -0.070339
    10  C    0.022780
    11  C    0.168176
    12  C    0.126177
    13  C    0.127454
    14  C    0.241220
    15  O   -0.282569
    16  O   -0.364471
    17  N   -0.457838
    18  C    0.208761
    19  C   -0.175551
    20  C   -0.089455
    21  C    0.187742
    22  C    0.213943
    23  C    0.018737
    24  O   -0.224301
    25  C    0.179347
    26  N   -0.436367
    27  C    0.033894
    28  C   -0.052352
    29  C   -0.064955
    30  C    0.095874
    31  C    0.176031
    32  C    0.052882
    33  C    0.070613
    34  N   -0.386709
    35  C    0.106153
    36  C   -0.217750
    37  C   -0.028969
    38  C    0.120973
    39  C    0.251769
    40  C    0.155431
    41  O   -0.229810
    42  C   -0.085411
    43  C    0.294175
    44  O   -0.235304
    45  O   -0.391792
    46  C    0.302061
    47  C    0.368543
    48  C   -0.137690
    49  C   -0.198455
    50  C    0.159429
    51  C    0.055044
    52  C    0.027083
    53  C    0.067411
    54  C   -0.192931
    55  C    0.090968
    56  C    0.015393
    57  C    0.033525
    58  C    0.049890
    59  C   -0.208568
    60  C    0.104766
    61  C    0.016444
    62  C    0.033156
    63  C    0.085705
    64  C   -0.251958
    65  C    0.098462
    66  C    0.076510
 Electronic spatial extent (au):  <R**2>=         117260.0508
 Charge=             -0.0000 electrons
 Dipole moment (field-independent basis, Debye):
    X=              1.3865    Y=              4.4289    Z=              1.6789  Tot=              4.9352
 Quadrupole moment (field-independent basis, Debye-Ang):
   XX=           -353.2409   YY=           -445.9055   ZZ=           -397.7542
   XY=             37.5254   XZ=             -3.7549   YZ=             34.9437
 Traceless Quadrupole moment (field-independent basis, Debye-Ang):
   XX=             45.7260   YY=            -46.9386   ZZ=              1.2127
   XY=             37.5254   XZ=             -3.7549   YZ=             34.9437
 Octapole moment (field-independent basis, Debye-Ang**2):
  XXX=            350.0287  YYY=            251.4382  ZZZ=             28.1231  XYY=           -135.6153
  XXY=            245.4440  XXZ=             -8.3284  XZZ=            110.1475  YZZ=            -79.2964
  YYZ=             47.2955  XYZ=            160.4491
 Hexadecapole moment (field-independent basis, Debye-Ang**3):
 XXXX=        -125364.1162 YYYY=         -23626.7756 ZZZZ=         -11766.3435 XXXY=           1192.2251
 XXXZ=           -370.3776 YYYX=           1801.0566 YYYZ=           1099.8415 ZZZX=             77.9134
 ZZZY=            415.5815 XXYY=         -25575.9030 XXZZ=         -22636.0795 YYZZ=          -5997.7855
 XXYZ=           1234.7176 YYXZ=           -142.8993 ZZXY=           -345.7588
 N-N= 9.623801370767D+03 E-N=-2.623875766440D+04  KE= 2.975636300240D+03
 Leave Link  601 at Thu May  5 12:25:30 2022, MaxMem= 10066329600 cpu:              16.1 elap:               0.8
 (Enter /sw/apps/gaussian-16.0/g16/l9999.exe)
 1\1\GINC-BP1-COMPUTE183\SP\RPBE1PBE TD-FC\def2SVP\C55H74Mg1N4O6\OF1564
 1\05-May-2022\0\\#p PBE1PBE/Def2SVP td=(nstates=5)\\step_851_chromopho
 re_5 TDDFT with PBE1PBE functional\\0,1\Mg,0,24.449,-6.273,45.988\C,0,
 26.886,-4.089,45.06\C,0,22.241,-4.434,44.07\C,0,22.331,-8.843,46.024\C
 ,0,26.938,-8.263,47.296\N,0,24.629,-4.681,44.465\C,0,25.72,-3.863,44.3
 58\C,0,25.525,-2.655,43.502\C,0,23.964,-2.536,43.642\C,0,23.567,-3.97,
 44.105\C,0,23.363,-1.435,44.575\C,0,26.042,-3.056,42.105\C,0,25.85,-2.
 043,40.884\C,0,24.758,-2.28,39.752\O,0,23.612,-1.832,39.809\O,0,25.253
 ,-2.889,38.605\N,0,22.437,-6.567,45.203\C,0,21.738,-5.659,44.496\C,0,2
 0.438,-6.144,44.344\C,0,20.38,-7.565,44.789\C,0,21.713,-7.727,45.387\C
 ,0,19.41,-5.251,43.633\C,0,19.207,-8.517,44.595\O,0,18.195,-8.07,44.11
 4\C,0,19.284,-9.971,44.855\N,0,24.654,-8.222,46.472\C,0,23.597,-9.056,
 46.58\C,0,23.895,-10.314,47.416\C,0,25.45,-10.285,47.508\C,0,25.72,-8.
 834,47.087\C,0,23.09,-10.381,48.777\C,0,26.244,-11.208,46.578\C,0,26.9
 52,-12.395,47.133\N,0,26.501,-6.177,46.363\C,0,27.355,-6.959,46.958\C,
 0,28.605,-6.336,47.215\C,0,28.487,-5.142,46.469\C,0,27.183,-5.16,45.91
 9\C,0,29.755,-6.893,47.887\C,0,29.118,-3.829,46.065\O,0,30.221,-3.317,
 46.347\C,0,28.055,-3.137,45.054\C,0,27.864,-1.759,45.706\O,0,28.297,-0
 .669,45.373\O,0,26.987,-1.884,46.762\C,0,26.245,-0.72,47.314\C,0,24.30
 3,-2.771,37.461\C,0,23.671,-4.034,36.946\C,0,24.241,-5.032,36.217\C,0,
 25.68,-5.125,35.703\C,0,23.41,-6.228,35.767\C,0,22.464,-6.019,34.547\C
 ,0,22.571,-7.038,33.455\C,0,23.204,-6.47,32.144\C,0,22.571,-6.978,30.8
 33\C,0,24.745,-6.736,31.965\C,0,25.451,-5.532,31.28\C,0,26.002,-5.976,
 29.916\C,0,25.464,-5.17,28.738\C,0,26.422,-3.964,28.714\C,0,25.387,-6.
 019,27.437\C,0,24.665,-5.295,26.283\C,0,23.137,-5.643,26.279\C,0,22.29
 7,-4.331,26.474\C,0,21.537,-4.15,27.79\C,0,21.571,-4.033,25.153\H,0,21
 .57,-3.698,43.622\H,0,21.757,-9.764,46.149\H,0,27.681,-8.878,47.806\H,
 0,26.032,-1.766,43.878\H,0,23.538,-2.347,42.657\H,0,24.135,-0.78,44.97
 9\H,0,22.957,-1.924,45.46\H,0,22.5,-0.963,44.105\H,0,25.521,-3.977,41.
 843\H,0,27.12,-3.154,42.229\H,0,26.817,-1.912,40.399\H,0,25.531,-1.128
 ,41.383\H,0,19.29,-5.543,42.589\H,0,19.624,-4.183,43.603\H,0,18.507,-5
 .285,44.242\H,0,19.156,-10.194,45.914\H,0,20.224,-10.32,44.429\H,0,18.
 376,-10.402,44.434\H,0,23.574,-11.088,46.72\H,0,25.805,-10.527,48.509\
 H,0,23.628,-9.848,49.562\H,0,22.918,-11.436,48.988\H,0,22.172,-9.793,4
 8.741\H,0,27.026,-10.606,46.115\H,0,25.549,-11.618,45.844\H,0,28.,-12.
 412,46.834\H,0,26.524,-13.322,46.751\H,0,26.948,-12.221,48.209\H,0,29.
 471,-7.589,48.676\H,0,30.317,-6.046,48.281\H,0,30.335,-7.378,47.102\H,
 0,28.601,-3.,44.12\H,0,25.358,-0.439,46.746\H,0,26.924,0.07,47.636\H,0
 ,25.849,-1.042,48.277\H,0,24.944,-2.469,36.632\H,0,23.463,-2.088,37.59
 2\H,0,22.6,-4.142,37.113\H,0,25.802,-5.61,34.735\H,0,26.345,-5.661,36.
 381\H,0,25.995,-4.098,35.518\H,0,22.734,-6.528,36.569\H,0,24.086,-7.07
 8,35.678\H,0,22.385,-4.987,34.205\H,0,21.509,-6.293,34.995\H,0,21.546,
 -7.382,33.319\H,0,23.129,-7.891,33.843\H,0,23.033,-5.394,32.159\H,0,23
 .186,-7.599,30.183\H,0,22.268,-6.086,30.285\H,0,21.67,-7.556,31.038\H,
 0,24.822,-7.646,31.369\H,0,25.195,-7.061,32.903\H,0,26.21,-5.302,32.02
 9\H,0,24.947,-4.565,31.266\H,0,25.676,-7.002,29.746\H,0,27.086,-5.863,
 29.961\H,0,24.468,-4.803,28.984\H,0,27.144,-4.22,27.939\H,0,26.959,-3.
 712,29.629\H,0,25.759,-3.138,28.458\H,0,24.908,-6.969,27.673\H,0,26.35
 1,-6.461,27.184\H,0,25.116,-5.598,25.338\H,0,24.728,-4.207,26.324\H,0,
 22.863,-6.28,27.119\H,0,23.002,-6.132,25.314\H,0,22.874,-3.411,26.564\
 H,0,20.483,-4.251,27.532\H,0,21.796,-3.212,28.281\H,0,21.724,-4.974,28
 .478\H,0,20.604,-3.592,25.397\H,0,21.352,-4.882,24.504\H,0,22.072,-3.1
 99,24.662\\Version=ES64L-G16RevA.03\State=1-A\HF=-3005.3009423\RMSD=9.
 949e-09\PG=C01 [X(C55H74Mg1N4O6)]\\@


 THE MORE ACCURATE THE CALCULATIONS BECOME, THE MORE THE CONCEPTS
 TEND TO VANISH INTO THIN AIR.
     -- R.S. MULLIKEN, J.C.P. 43,S2(1965)
 Job cpu time:       0 days  9 hours 18 minutes 30.6 seconds.
 Elapsed time:       0 days  0 hours 23 minutes 20.0 seconds.
 File lengths (MBytes):  RWF=   8929 Int=      0 D2E=      0 Chk=    390 Scr=      1
 Normal termination of Gaussian 16 at Thu May  5 12:25:30 2022.
