 Entering Gaussian System, Link 0=g16
 Initial command:
 /sw/apps/gaussian-16.0/g16/l1.exe "/tmp/Gau-264785.inp" -scrdir="/tmp/"
 Entering Link 1 = /sw/apps/gaussian-16.0/g16/l1.exe PID=    264786.
  
 Copyright (c) 1988,1990,1992,1993,1995,1998,2003,2009,2016,
            Gaussian, Inc.  All Rights Reserved.
  
 This is part of the Gaussian(R) 16 program.  It is based on
 the Gaussian(R) 09 system (copyright 2009, Gaussian, Inc.),
 the Gaussian(R) 03 system (copyright 2003, Gaussian, Inc.),
 the Gaussian(R) 98 system (copyright 1998, Gaussian, Inc.),
 the Gaussian(R) 94 system (copyright 1995, Gaussian, Inc.),
 the Gaussian 92(TM) system (copyright 1992, Gaussian, Inc.),
 the Gaussian 90(TM) system (copyright 1990, Gaussian, Inc.),
 the Gaussian 88(TM) system (copyright 1988, Gaussian, Inc.),
 the Gaussian 86(TM) system (copyright 1986, Carnegie Mellon
 University), and the Gaussian 82(TM) system (copyright 1983,
 Carnegie Mellon University). Gaussian is a federally registered
 trademark of Gaussian, Inc.
  
 This software contains proprietary and confidential information,
 including trade secrets, belonging to Gaussian, Inc.
  
 This software is provided under written license and may be
 used, copied, transmitted, or stored only in accord with that
 written license.
  
 The following legend is applicable only to US Government
 contracts under FAR:
  
                    RESTRICTED RIGHTS LEGEND
  
 Use, reproduction and disclosure by the US Government is
 subject to restrictions as set forth in subparagraphs (a)
 and (c) of the Commercial Computer Software - Restricted
 Rights clause in FAR 52.227-19.
  
 Gaussian, Inc.
 340 Quinnipiac St., Bldg. 40, Wallingford CT 06492
  
  
 ---------------------------------------------------------------
 Warning -- This program may not be used in any manner that
 competes with the business of Gaussian, Inc. or will provide
 assistance to any competitor of Gaussian, Inc.  The licensee
 of this program is prohibited from giving any competitor of
 Gaussian, Inc. access to this program.  By using this program,
 the user acknowledges that Gaussian, Inc. is engaged in the
 business of creating and licensing software in the field of
 computational chemistry and represents and warrants to the
 licensee that it is not a competitor of Gaussian, Inc. and that
 it will not use this program in any manner prohibited above.
 ---------------------------------------------------------------
  

 Cite this work as:
 Gaussian 16, Revision A.03,
 M. J. Frisch, G. W. Trucks, H. B. Schlegel, G. E. Scuseria, 
 M. A. Robb, J. R. Cheeseman, G. Scalmani, V. Barone, 
 G. A. Petersson, H. Nakatsuji, X. Li, M. Caricato, A. V. Marenich, 
 J. Bloino, B. G. Janesko, R. Gomperts, B. Mennucci, H. P. Hratchian, 
 J. V. Ortiz, A. F. Izmaylov, J. L. Sonnenberg, D. Williams-Young, 
 F. Ding, F. Lipparini, F. Egidi, J. Goings, B. Peng, A. Petrone, 
 T. Henderson, D. Ranasinghe, V. G. Zakrzewski, J. Gao, N. Rega, 
 G. Zheng, W. Liang, M. Hada, M. Ehara, K. Toyota, R. Fukuda, 
 J. Hasegawa, M. Ishida, T. Nakajima, Y. Honda, O. Kitao, H. Nakai, 
 T. Vreven, K. Throssell, J. A. Montgomery, Jr., J. E. Peralta, 
 F. Ogliaro, M. J. Bearpark, J. J. Heyd, E. N. Brothers, K. N. Kudin, 
 V. N. Staroverov, T. A. Keith, R. Kobayashi, J. Normand, 
 K. Raghavachari, A. P. Rendell, J. C. Burant, S. S. Iyengar, 
 J. Tomasi, M. Cossi, J. M. Millam, M. Klene, C. Adamo, R. Cammi, 
 J. W. Ochterski, R. L. Martin, K. Morokuma, O. Farkas, 
 J. B. Foresman, and D. J. Fox, Gaussian, Inc., Wallingford CT, 2016.
 
 ******************************************
 Gaussian 16:  ES64L-G16RevA.03 25-Dec-2016
                30-Apr-2022 
 ******************************************
 %nproc=24
 Will use up to   24 processors via shared memory.
 %mem=75GB
 ---------------------------------
 #p PBE1PBE/Def2SVP td=(nstates=5)
 ---------------------------------
 1/38=1,172=1/1;
 2/12=2,17=6,18=5,40=1/2;
 3/5=43,7=101,11=9,25=1,30=1,74=-13/1,2,3,8;
 4//1;
 5/5=2,38=5/2;
 8/6=1,10=1,108=5/1;
 9/41=5,42=1,70=2/14;
 6/7=2,8=2,9=2,10=2/1;
 99/5=1,9=1/99;
 Leave Link    1 at Sat Apr 30 07:26:43 2022, MaxMem= 10066329600 cpu:               1.1 elap:               0.1
 (Enter /sw/apps/gaussian-16.0/g16/l101.exe)
 -----------------------------------------------------
 step_651_chromophore_21 TDDFT with PBE1PBE functional
 -----------------------------------------------------
 Symbolic Z-matrix:
 Charge =  0 Multiplicity = 1
 Mg                    15.971    52.358    25.297 
 C                     17.744    50.602    28.017 
 C                     13.655    53.07     27.808 
 C                     13.939    53.341    22.885 
 C                     18.062    50.682    23.03 
 N                     15.78     51.797    27.614 
 C                     16.677    51.276    28.478 
 C                     16.25     51.611    29.975 
 C                     14.814    51.991    29.748 
 C                     14.778    52.316    28.264 
 C                     13.804    50.865    30.032 
 C                     17.16     52.681    30.644 
 C                     17.325    52.636    32.135 
 C                     16.496    51.732    33.078 
 O                     16.936    50.88     33.812 
 O                     15.194    52.11     32.965 
 N                     14.126    53.14     25.325 
 C                     13.423    53.461    26.419 
 C                     12.359    54.385    25.989 
 C                     12.449    54.544    24.577 
 C                     13.533    53.635    24.188 
 C                     11.517    55.15     26.975 
 C                     11.65     55.307    23.546 
 O                     11.983    55.511    22.405 
 C                     10.554    56.25     24.144 
 N                     15.997    51.991    23.263 
 C                     15.06     52.57     22.445 
 C                     15.423    52.491    20.95 
 C                     16.823    51.777    21.061 
 C                     17.009    51.477    22.562 
 C                     14.292    51.826    20.032 
 C                     18.013    52.588    20.534 
 C                     18.512    51.874    19.302 
 N                     17.625    51.03     25.483 
 C                     18.351    50.433    24.441 
 C                     19.478    49.715    25.024 
 C                     19.293    49.764    26.404 
 C                     18.035    50.507    26.623 
 C                     20.548    48.991    24.203 
 C                     19.87     49.414    27.67 
 O                     20.94     48.909    27.934 
 C                     18.916    49.917    28.802 
 C                     18.444    48.763    29.586 
 O                     18.081    47.718    29.057 
 O                     18.531    48.928    30.929 
 C                     18.052    47.807    31.728 
 C                     14.409    51.552    34.055 
 C                     13.183    52.361    34.235 
 C                     12.645    53.014    35.292 
 C                     12.958    52.66     36.702 
 C                     11.509    53.998    34.993 
 C                     10.179    53.877    35.91 
 C                     9.921     55.161    36.69 
 C                     9.437     56.282    35.808 
 C                     10.29     57.511    35.985 
 C                     7.953     56.578    36.162 
 C                     7.039     56.644    34.915 
 C                     6.802     57.992    34.269 
 C                     5.37      58.634    34.486 
 C                     4.833     59.29     33.155 
 C                     5.441     59.734    35.606 
 C                     4.261     59.663    36.585 
 C                     4.669     59.099    37.978 
 C                     4.551     57.552    38.25 
 C                     3.196     57.115    38.75 
 C                     5.64      57.126    39.201 
 H                     13.008    53.511    28.569 
 H                     13.367    53.733    22.042 
 H                     18.767    50.307    22.285 
 H                     16.459    50.674    30.49 
 H                     14.495    52.88     30.294 
 H                     12.994    51.234    30.661 
 H                     14.334    50.007    30.445 
 H                     13.327    50.549    29.105 
 H                     16.833    53.695    30.415 
 H                     18.147    52.63     30.183 
 H                     17.123    53.68     32.376 
 H                     18.39     52.461    32.288 
 H                     11.663    56.229    27.017 
 H                     11.659    54.743    27.976 
 H                     10.475    54.997    26.693 
 H                     9.826     55.643    24.683 
 H                     10.147    56.826    23.314 
 H                     11.086    56.978    24.756 
 H                     15.572    53.506    20.581 
 H                     16.777    50.757    20.682 
 H                     13.488    51.613    20.737 
 H                     14.755    50.924    19.631 
 H                     13.965    52.451    19.201 
 H                     18.784    52.786    21.278 
 H                     17.713    53.579    20.195 
 H                     19.579    52.053    19.17 
 H                     18.085    52.496    18.515 
 H                     18.329    50.803    19.216 
 H                     21.445    49.606    24.124 
 H                     20.025    48.777    23.272 
 H                     20.824    48.049    24.677 
 H                     19.508    50.556    29.456 
 H                     17.623    48.24     32.632 
 H                     18.919    47.201    31.992 
 H                     17.241    47.294    31.211 
 H                     14.925    51.641    35.011 
 H                     14.104    50.552    33.747 
 H                     12.865    52.588    33.218 
 H                     12.36     53.25     37.397 
 H                     14.033    52.831    36.739 
 H                     12.764    51.593    36.814 
 H                     11.301    53.826    33.937 
 H                     11.955    54.975    35.176 
 H                     10.225    53.007    36.566 
 H                     9.251     53.69     35.369 
 H                     10.814    55.503    37.213 
 H                     9.291     55.089    37.577 
 H                     9.494     56.089    34.736 
 H                     9.81      58.287    35.388 
 H                     11.289    57.402    35.562 
 H                     10.284    57.719    37.055 
 H                     7.963     57.6      36.541 
 H                     7.457     55.95     36.902 
 H                     6.093     56.106    34.966 
 H                     7.603     56.16     34.118 
 H                     6.955     57.908    33.193 
 H                     7.517     58.649    34.765 
 H                     4.649     57.851    34.725 
 H                     4.881     58.531    32.374 
 H                     5.461     60.164    32.98 
 H                     3.8       59.577    33.35 
 H                     5.539     60.736    35.19 
 H                     6.268     59.389    36.227 
 H                     3.461     58.998    36.261 
 H                     3.798     60.628    36.79 
 H                     3.95      59.557    38.657 
 H                     5.668     59.481    38.19 
 H                     4.726     57.124    37.263 
 H                     2.768     56.574    37.905 
 H                     2.608     57.99     39.024 
 H                     3.339     56.486    39.629 
 H                     5.774     56.061    39.387 
 H                     5.275     57.541    40.141 
 H                     6.653     57.501    39.054 
 
 ITRead=  0  0  0  0  0  0  0  0  0  0  0  0  0  0  0  0  0  0  0  0
 ITRead=  0  0  0  0  0  0  0  0  0  0  0  0  0  0  0  0  0  0  0  0
 ITRead=  0  0  0  0  0  0  0  0  0  0  0  0  0  0  0  0  0  0  0  0
 ITRead=  0  0  0  0  0  0  0  0  0  0  0  0  0  0  0  0  0  0  0  0
 ITRead=  0  0  0  0  0  0  0  0  0  0  0  0  0  0  0  0  0  0  0  0
 ITRead=  0  0  0  0  0  0  0  0  0  0  0  0  0  0  0  0  0  0  0  0
 ITRead=  0  0  0  0  0  0  0  0  0  0  0  0  0  0  0  0  0  0  0  0
 MicOpt= -1 -1 -1 -1 -1 -1 -1 -1 -1 -1 -1 -1 -1 -1 -1 -1 -1 -1 -1 -1
 MicOpt= -1 -1 -1 -1 -1 -1 -1 -1 -1 -1 -1 -1 -1 -1 -1 -1 -1 -1 -1 -1
 MicOpt= -1 -1 -1 -1 -1 -1 -1 -1 -1 -1 -1 -1 -1 -1 -1 -1 -1 -1 -1 -1
 MicOpt= -1 -1 -1 -1 -1 -1 -1 -1 -1 -1 -1 -1 -1 -1 -1 -1 -1 -1 -1 -1
 MicOpt= -1 -1 -1 -1 -1 -1 -1 -1 -1 -1 -1 -1 -1 -1 -1 -1 -1 -1 -1 -1
 MicOpt= -1 -1 -1 -1 -1 -1 -1 -1 -1 -1 -1 -1 -1 -1 -1 -1 -1 -1 -1 -1
 MicOpt= -1 -1 -1 -1 -1 -1 -1 -1 -1 -1 -1 -1 -1 -1 -1 -1 -1 -1 -1 -1
 NAtoms=    140 NQM=      140 NQMF=       0 NMMI=      0 NMMIF=      0
                NMic=       0 NMicF=      0.
                    Isotopes and Nuclear Properties:
 (Nuclear quadrupole moments (NQMom) in fm**2, nuclear magnetic moments (NMagM)
  in nuclear magnetons)

  Atom         1           2           3           4           5           6           7           8           9          10
 IAtWgt=          24          12          12          12          12          14          12          12          12          12
 AtmWgt=  23.9850450  12.0000000  12.0000000  12.0000000  12.0000000  14.0030740  12.0000000  12.0000000  12.0000000  12.0000000
 NucSpn=           0           0           0           0           0           2           0           0           0           0
 AtZEff=  -0.0000000  -0.0000000  -0.0000000  -0.0000000  -0.0000000  -0.0000000  -0.0000000  -0.0000000  -0.0000000  -0.0000000
 NQMom=    0.0000000   0.0000000   0.0000000   0.0000000   0.0000000   2.0440000   0.0000000   0.0000000   0.0000000   0.0000000
 NMagM=    0.0000000   0.0000000   0.0000000   0.0000000   0.0000000   0.4037610   0.0000000   0.0000000   0.0000000   0.0000000
 AtZNuc=  12.0000000   6.0000000   6.0000000   6.0000000   6.0000000   7.0000000   6.0000000   6.0000000   6.0000000   6.0000000

  Atom        11          12          13          14          15          16          17          18          19          20
 IAtWgt=          12          12          12          12          16          16          14          12          12          12
 AtmWgt=  12.0000000  12.0000000  12.0000000  12.0000000  15.9949146  15.9949146  14.0030740  12.0000000  12.0000000  12.0000000
 NucSpn=           0           0           0           0           0           0           2           0           0           0
 AtZEff=  -0.0000000  -0.0000000  -0.0000000  -0.0000000  -0.0000000  -0.0000000  -0.0000000  -0.0000000  -0.0000000  -0.0000000
 NQMom=    0.0000000   0.0000000   0.0000000   0.0000000   0.0000000   0.0000000   2.0440000   0.0000000   0.0000000   0.0000000
 NMagM=    0.0000000   0.0000000   0.0000000   0.0000000   0.0000000   0.0000000   0.4037610   0.0000000   0.0000000   0.0000000
 AtZNuc=   6.0000000   6.0000000   6.0000000   6.0000000   8.0000000   8.0000000   7.0000000   6.0000000   6.0000000   6.0000000

  Atom        21          22          23          24          25          26          27          28          29          30
 IAtWgt=          12          12          12          16          12          14          12          12          12          12
 AtmWgt=  12.0000000  12.0000000  12.0000000  15.9949146  12.0000000  14.0030740  12.0000000  12.0000000  12.0000000  12.0000000
 NucSpn=           0           0           0           0           0           2           0           0           0           0
 AtZEff=  -0.0000000  -0.0000000  -0.0000000  -0.0000000  -0.0000000  -0.0000000  -0.0000000  -0.0000000  -0.0000000  -0.0000000
 NQMom=    0.0000000   0.0000000   0.0000000   0.0000000   0.0000000   2.0440000   0.0000000   0.0000000   0.0000000   0.0000000
 NMagM=    0.0000000   0.0000000   0.0000000   0.0000000   0.0000000   0.4037610   0.0000000   0.0000000   0.0000000   0.0000000
 AtZNuc=   6.0000000   6.0000000   6.0000000   8.0000000   6.0000000   7.0000000   6.0000000   6.0000000   6.0000000   6.0000000

  Atom        31          32          33          34          35          36          37          38          39          40
 IAtWgt=          12          12          12          14          12          12          12          12          12          12
 AtmWgt=  12.0000000  12.0000000  12.0000000  14.0030740  12.0000000  12.0000000  12.0000000  12.0000000  12.0000000  12.0000000
 NucSpn=           0           0           0           2           0           0           0           0           0           0
 AtZEff=  -0.0000000  -0.0000000  -0.0000000  -0.0000000  -0.0000000  -0.0000000  -0.0000000  -0.0000000  -0.0000000  -0.0000000
 NQMom=    0.0000000   0.0000000   0.0000000   2.0440000   0.0000000   0.0000000   0.0000000   0.0000000   0.0000000   0.0000000
 NMagM=    0.0000000   0.0000000   0.0000000   0.4037610   0.0000000   0.0000000   0.0000000   0.0000000   0.0000000   0.0000000
 AtZNuc=   6.0000000   6.0000000   6.0000000   7.0000000   6.0000000   6.0000000   6.0000000   6.0000000   6.0000000   6.0000000

  Atom        41          42          43          44          45          46          47          48          49          50
 IAtWgt=          16          12          12          16          16          12          12          12          12          12
 AtmWgt=  15.9949146  12.0000000  12.0000000  15.9949146  15.9949146  12.0000000  12.0000000  12.0000000  12.0000000  12.0000000
 NucSpn=           0           0           0           0           0           0           0           0           0           0
 AtZEff=  -0.0000000  -0.0000000  -0.0000000  -0.0000000  -0.0000000  -0.0000000  -0.0000000  -0.0000000  -0.0000000  -0.0000000
 NQMom=    0.0000000   0.0000000   0.0000000   0.0000000   0.0000000   0.0000000   0.0000000   0.0000000   0.0000000   0.0000000
 NMagM=    0.0000000   0.0000000   0.0000000   0.0000000   0.0000000   0.0000000   0.0000000   0.0000000   0.0000000   0.0000000
 AtZNuc=   8.0000000   6.0000000   6.0000000   8.0000000   8.0000000   6.0000000   6.0000000   6.0000000   6.0000000   6.0000000

  Atom        51          52          53          54          55          56          57          58          59          60
 IAtWgt=          12          12          12          12          12          12          12          12          12          12
 AtmWgt=  12.0000000  12.0000000  12.0000000  12.0000000  12.0000000  12.0000000  12.0000000  12.0000000  12.0000000  12.0000000
 NucSpn=           0           0           0           0           0           0           0           0           0           0
 AtZEff=  -0.0000000  -0.0000000  -0.0000000  -0.0000000  -0.0000000  -0.0000000  -0.0000000  -0.0000000  -0.0000000  -0.0000000
 NQMom=    0.0000000   0.0000000   0.0000000   0.0000000   0.0000000   0.0000000   0.0000000   0.0000000   0.0000000   0.0000000
 NMagM=    0.0000000   0.0000000   0.0000000   0.0000000   0.0000000   0.0000000   0.0000000   0.0000000   0.0000000   0.0000000
 AtZNuc=   6.0000000   6.0000000   6.0000000   6.0000000   6.0000000   6.0000000   6.0000000   6.0000000   6.0000000   6.0000000

  Atom        61          62          63          64          65          66          67          68          69          70
 IAtWgt=          12          12          12          12          12          12           1           1           1           1
 AtmWgt=  12.0000000  12.0000000  12.0000000  12.0000000  12.0000000  12.0000000   1.0078250   1.0078250   1.0078250   1.0078250
 NucSpn=           0           0           0           0           0           0           1           1           1           1
 AtZEff=  -0.0000000  -0.0000000  -0.0000000  -0.0000000  -0.0000000  -0.0000000  -0.0000000  -0.0000000  -0.0000000  -0.0000000
 NQMom=    0.0000000   0.0000000   0.0000000   0.0000000   0.0000000   0.0000000   0.0000000   0.0000000   0.0000000   0.0000000
 NMagM=    0.0000000   0.0000000   0.0000000   0.0000000   0.0000000   0.0000000   2.7928460   2.7928460   2.7928460   2.7928460
 AtZNuc=   6.0000000   6.0000000   6.0000000   6.0000000   6.0000000   6.0000000   1.0000000   1.0000000   1.0000000   1.0000000

  Atom        71          72          73          74          75          76          77          78          79          80
 IAtWgt=           1           1           1           1           1           1           1           1           1           1
 AtmWgt=   1.0078250   1.0078250   1.0078250   1.0078250   1.0078250   1.0078250   1.0078250   1.0078250   1.0078250   1.0078250
 NucSpn=           1           1           1           1           1           1           1           1           1           1
 AtZEff=  -0.0000000  -0.0000000  -0.0000000  -0.0000000  -0.0000000  -0.0000000  -0.0000000  -0.0000000  -0.0000000  -0.0000000
 NQMom=    0.0000000   0.0000000   0.0000000   0.0000000   0.0000000   0.0000000   0.0000000   0.0000000   0.0000000   0.0000000
 NMagM=    2.7928460   2.7928460   2.7928460   2.7928460   2.7928460   2.7928460   2.7928460   2.7928460   2.7928460   2.7928460
 AtZNuc=   1.0000000   1.0000000   1.0000000   1.0000000   1.0000000   1.0000000   1.0000000   1.0000000   1.0000000   1.0000000

  Atom        81          82          83          84          85          86          87          88          89          90
 IAtWgt=           1           1           1           1           1           1           1           1           1           1
 AtmWgt=   1.0078250   1.0078250   1.0078250   1.0078250   1.0078250   1.0078250   1.0078250   1.0078250   1.0078250   1.0078250
 NucSpn=           1           1           1           1           1           1           1           1           1           1
 AtZEff=  -0.0000000  -0.0000000  -0.0000000  -0.0000000  -0.0000000  -0.0000000  -0.0000000  -0.0000000  -0.0000000  -0.0000000
 NQMom=    0.0000000   0.0000000   0.0000000   0.0000000   0.0000000   0.0000000   0.0000000   0.0000000   0.0000000   0.0000000
 NMagM=    2.7928460   2.7928460   2.7928460   2.7928460   2.7928460   2.7928460   2.7928460   2.7928460   2.7928460   2.7928460
 AtZNuc=   1.0000000   1.0000000   1.0000000   1.0000000   1.0000000   1.0000000   1.0000000   1.0000000   1.0000000   1.0000000

  Atom        91          92          93          94          95          96          97          98          99         100
 IAtWgt=           1           1           1           1           1           1           1           1           1           1
 AtmWgt=   1.0078250   1.0078250   1.0078250   1.0078250   1.0078250   1.0078250   1.0078250   1.0078250   1.0078250   1.0078250
 NucSpn=           1           1           1           1           1           1           1           1           1           1
 AtZEff=  -0.0000000  -0.0000000  -0.0000000  -0.0000000  -0.0000000  -0.0000000  -0.0000000  -0.0000000  -0.0000000  -0.0000000
 NQMom=    0.0000000   0.0000000   0.0000000   0.0000000   0.0000000   0.0000000   0.0000000   0.0000000   0.0000000   0.0000000
 NMagM=    2.7928460   2.7928460   2.7928460   2.7928460   2.7928460   2.7928460   2.7928460   2.7928460   2.7928460   2.7928460
 AtZNuc=   1.0000000   1.0000000   1.0000000   1.0000000   1.0000000   1.0000000   1.0000000   1.0000000   1.0000000   1.0000000

  Atom       101         102         103         104         105         106         107         108         109         110
 IAtWgt=           1           1           1           1           1           1           1           1           1           1
 AtmWgt=   1.0078250   1.0078250   1.0078250   1.0078250   1.0078250   1.0078250   1.0078250   1.0078250   1.0078250   1.0078250
 NucSpn=           1           1           1           1           1           1           1           1           1           1
 AtZEff=  -0.0000000  -0.0000000  -0.0000000  -0.0000000  -0.0000000  -0.0000000  -0.0000000  -0.0000000  -0.0000000  -0.0000000
 NQMom=    0.0000000   0.0000000   0.0000000   0.0000000   0.0000000   0.0000000   0.0000000   0.0000000   0.0000000   0.0000000
 NMagM=    2.7928460   2.7928460   2.7928460   2.7928460   2.7928460   2.7928460   2.7928460   2.7928460   2.7928460   2.7928460
 AtZNuc=   1.0000000   1.0000000   1.0000000   1.0000000   1.0000000   1.0000000   1.0000000   1.0000000   1.0000000   1.0000000

  Atom       111         112         113         114         115         116         117         118         119         120
 IAtWgt=           1           1           1           1           1           1           1           1           1           1
 AtmWgt=   1.0078250   1.0078250   1.0078250   1.0078250   1.0078250   1.0078250   1.0078250   1.0078250   1.0078250   1.0078250
 NucSpn=           1           1           1           1           1           1           1           1           1           1
 AtZEff=  -0.0000000  -0.0000000  -0.0000000  -0.0000000  -0.0000000  -0.0000000  -0.0000000  -0.0000000  -0.0000000  -0.0000000
 NQMom=    0.0000000   0.0000000   0.0000000   0.0000000   0.0000000   0.0000000   0.0000000   0.0000000   0.0000000   0.0000000
 NMagM=    2.7928460   2.7928460   2.7928460   2.7928460   2.7928460   2.7928460   2.7928460   2.7928460   2.7928460   2.7928460
 AtZNuc=   1.0000000   1.0000000   1.0000000   1.0000000   1.0000000   1.0000000   1.0000000   1.0000000   1.0000000   1.0000000

  Atom       121         122         123         124         125         126         127         128         129         130
 IAtWgt=           1           1           1           1           1           1           1           1           1           1
 AtmWgt=   1.0078250   1.0078250   1.0078250   1.0078250   1.0078250   1.0078250   1.0078250   1.0078250   1.0078250   1.0078250
 NucSpn=           1           1           1           1           1           1           1           1           1           1
 AtZEff=  -0.0000000  -0.0000000  -0.0000000  -0.0000000  -0.0000000  -0.0000000  -0.0000000  -0.0000000  -0.0000000  -0.0000000
 NQMom=    0.0000000   0.0000000   0.0000000   0.0000000   0.0000000   0.0000000   0.0000000   0.0000000   0.0000000   0.0000000
 NMagM=    2.7928460   2.7928460   2.7928460   2.7928460   2.7928460   2.7928460   2.7928460   2.7928460   2.7928460   2.7928460
 AtZNuc=   1.0000000   1.0000000   1.0000000   1.0000000   1.0000000   1.0000000   1.0000000   1.0000000   1.0000000   1.0000000

  Atom       131         132         133         134         135         136         137         138         139         140
 IAtWgt=           1           1           1           1           1           1           1           1           1           1
 AtmWgt=   1.0078250   1.0078250   1.0078250   1.0078250   1.0078250   1.0078250   1.0078250   1.0078250   1.0078250   1.0078250
 NucSpn=           1           1           1           1           1           1           1           1           1           1
 AtZEff=  -0.0000000  -0.0000000  -0.0000000  -0.0000000  -0.0000000  -0.0000000  -0.0000000  -0.0000000  -0.0000000  -0.0000000
 NQMom=    0.0000000   0.0000000   0.0000000   0.0000000   0.0000000   0.0000000   0.0000000   0.0000000   0.0000000   0.0000000
 NMagM=    2.7928460   2.7928460   2.7928460   2.7928460   2.7928460   2.7928460   2.7928460   2.7928460   2.7928460   2.7928460
 AtZNuc=   1.0000000   1.0000000   1.0000000   1.0000000   1.0000000   1.0000000   1.0000000   1.0000000   1.0000000   1.0000000
 Leave Link  101 at Sat Apr 30 07:26:43 2022, MaxMem= 10066329600 cpu:               3.0 elap:               0.1
 (Enter /sw/apps/gaussian-16.0/g16/l202.exe)
 Stoichiometry    C55H74MgN4O6
 Framework group  C1[X(C55H74MgN4O6)]
 Deg. of freedom   414
 Full point group                 C1      NOp   1
 Largest Abelian subgroup         C1      NOp   1
 Largest concise Abelian subgroup C1      NOp   1
                         Standard orientation:                         
 ---------------------------------------------------------------------
 Center     Atomic      Atomic             Coordinates (Angstroms)
 Number     Number       Type             X           Y           Z
 ---------------------------------------------------------------------
      1         12           0        4.766274    1.271895    0.273126
      2          6           0        4.565369   -2.412409    0.168204
      3          6           0        1.321730    1.074675   -0.248547
      4          6           0        4.866234    4.511683   -0.364711
      5          6           0        8.243796    0.961155   -0.088573
      6          7           0        3.217075   -0.520315   -0.054987
      7          6           0        3.345284   -1.850589    0.136008
      8          6           0        1.909613   -2.517264    0.309090
      9          6           0        1.051851   -1.414959   -0.245158
     10          6           0        1.959007   -0.199180   -0.154997
     11          6           0        0.631955   -1.610560   -1.712829
     12          6           0        1.616955   -2.964754    1.770139
     13          6           0        0.684498   -4.121536    1.981590
     14          6           0       -0.167200   -4.771412    0.865356
     15          8           0       -0.110480   -5.924088    0.509855
     16          8           0       -1.022183   -3.821367    0.399225
     17          7           0        3.334589    2.602490   -0.169737
     18          6           0        2.018072    2.359057   -0.209844
     19          6           0        1.338247    3.663713   -0.129331
     20          6           0        2.331200    4.683413   -0.092163
     21          6           0        3.594659    3.950790   -0.232138
     22          6           0       -0.145634    3.780078    0.096374
     23          6           0        2.294683    6.193460   -0.047932
     24          8           0        3.230119    6.914882    0.194753
     25          6           0        0.864588    6.801665    0.133684
     26          7           0        6.345048    2.513886   -0.214165
     27          6           0        6.139231    3.860525   -0.377068
     28          6           0        7.443069    4.680907   -0.380944
     29          6           0        8.479244    3.521245   -0.128668
     30          6           0        7.643392    2.225645   -0.109475
     31          6           0        7.631139    5.612405   -1.669761
     32          6           0        9.292942    3.642960    1.165408
     33          6           0       10.721127    3.905853    0.755781
     34          7           0        6.124207   -0.365900    0.186289
     35          6           0        7.516458   -0.301799    0.022647
     36          6           0        8.053957   -1.650000    0.160448
     37          6           0        6.951145   -2.498336    0.232267
     38          6           0        5.759542   -1.632318    0.119706
     39          6           0        9.547165   -1.984073    0.117518
     40          6           0        6.538813   -3.860196    0.415309
     41          8           0        7.190108   -4.853165    0.659126
     42          6           0        4.976542   -3.910868    0.379370
     43          6           0        4.545128   -4.756962   -0.746314
     44          8           0        5.066426   -4.686678   -1.853989
     45          8           0        3.594225   -5.668945   -0.426137
     46          6           0        3.136206   -6.506249   -1.527782
     47          6           0       -2.073476   -4.434247   -0.397549
     48          6           0       -3.241441   -3.526602   -0.442218
     49          6           0       -4.548661   -3.674646   -0.122279
     50          6           0       -5.223184   -4.999321   -0.081790
     51          6           0       -5.386320   -2.395411   -0.022087
     52          6           0       -6.806191   -2.390398   -0.802068
     53          6           0       -7.970859   -2.194046    0.161578
     54          6           0       -8.046129   -0.786726    0.693186
     55          6           0       -8.083961   -0.782952    2.199152
     56          6           0       -9.312594   -0.106960    0.102277
     57          6           0       -9.019654    1.286260   -0.504259
     58          6           0       -9.190103    2.503871    0.378327
     59          6           0      -10.451274    3.415968    0.082686
     60          6           0      -10.077486    4.947013    0.162992
     61          6           0      -11.587709    3.111523    1.124449
     62          6           0      -12.976859    3.016916    0.478543
     63          6           0      -13.506308    1.554366    0.403454
     64          6           0      -13.219836    0.694075   -0.884548
     65          6           0      -14.248998    0.855935   -1.976162
     66          6           0      -13.068715   -0.754417   -0.496176
     67          1           0        0.231396    1.092275   -0.193115
     68          1           0        4.968846    5.593486   -0.468007
     69          1           0        9.335017    0.932715   -0.055362
     70          1           0        2.008844   -3.433505   -0.271885
     71          1           0        0.155029   -1.208610    0.340784
     72          1           0       -0.439971   -1.447647   -1.823897
     73          1           0        0.972138   -2.588308   -2.053295
     74          1           0        1.104031   -0.855136   -2.339879
     75          1           0        1.216436   -2.150379    2.373417
     76          1           0        2.566187   -3.189345    2.257796
     77          1           0        0.019171   -3.689686    2.729699
     78          1           0        1.293449   -4.877729    2.477181
     79          1           0       -0.469459    4.183427    1.055420
     80          1           0       -0.618381    2.808621   -0.047133
     81          1           0       -0.532899    4.459540   -0.663266
     82          1           0        0.253731    6.522542   -0.725327
     83          1           0        0.993956    7.873705    0.276230
     84          1           0        0.501497    6.433292    1.092859
     85          1           0        7.433259    5.341222    0.486510
     86          1           0        9.080813    3.329504   -1.016084
     87          1           0        6.716492    5.443395   -2.238678
     88          1           0        8.518972    5.221493   -2.167470
     89          1           0        7.792932    6.665821   -1.441169
     90          1           0        9.172365    2.804103    1.850216
     91          1           0        8.994652    4.509412    1.754718
     92          1           0       11.406012    3.516351    1.508891
     93          1           0       10.791560    4.980062    0.928107
     94          1           0       11.050352    3.556870   -0.222865
     95          1           0        9.935120   -2.114234    1.128272
     96          1           0        9.957495   -1.153142   -0.454557
     97          1           0        9.718213   -2.909465   -0.432579
     98          1           0        4.652417   -4.382741    1.306073
     99          1           0        2.081982   -6.708762   -1.337134
    100          1           0        3.698705   -7.439135   -1.483753
    101          1           0        3.184459   -5.954683   -2.466732
    102          1           0       -2.461229   -5.338161    0.072238
    103          1           0       -1.688165   -4.528804   -1.412677
    104          1           0       -2.801520   -2.535536   -0.548049
    105          1           0       -6.289959   -4.890887    0.115600
    106          1           0       -4.649535   -5.515625    0.686709
    107          1           0       -5.041560   -5.479714   -1.043510
    108          1           0       -4.709362   -1.624140   -0.389310
    109          1           0       -5.588791   -2.298809    1.044031
    110          1           0       -6.930244   -3.287423   -1.409776
    111          1           0       -6.928939   -1.605577   -1.548945
    112          1           0       -7.912100   -2.874294    1.011139
    113          1           0       -8.956916   -2.516711   -0.173731
    114          1           0       -7.187598   -0.154952    0.461956
    115          1           0       -8.234681    0.258746    2.483993
    116          1           0       -7.133473   -1.068061    2.650922
    117          1           0       -8.915084   -1.433323    2.472011
    118          1           0       -9.936995    0.104856    0.970311
    119          1           0       -9.914951   -0.660545   -0.617937
    120          1           0       -9.445403    1.498560   -1.484375
    121          1           0       -7.939670    1.317718   -0.646410
    122          1           0       -8.308554    3.139012    0.290525
    123          1           0       -9.333801    2.086194    1.375215
    124          1           0      -10.783961    3.260695   -0.944573
    125          1           0       -9.227974    5.111308   -0.500095
    126          1           0       -9.879391    5.149775    1.215860
    127          1           0      -10.951666    5.494625   -0.188311
    128          1           0      -11.591137    3.825816    1.946907
    129          1           0      -11.394040    2.072475    1.391780
    130          1           0      -13.003654    3.355097   -0.556888
    131          1           0      -13.749101    3.575374    1.007112
    132          1           0      -14.589195    1.675892    0.422267
    133          1           0      -13.177666    1.055278    1.315471
    134          1           0      -12.265023    1.092244   -1.227728
    135          1           0      -13.724484    1.421256   -2.747646
    136          1           0      -15.114607    1.389744   -1.586016
    137          1           0      -14.556228   -0.135338   -2.310406
    138          1           0      -12.738362   -1.460150   -1.257481
    139          1           0      -14.102556   -1.024750   -0.279054
    140          1           0      -12.476196   -1.011962    0.381887
 ---------------------------------------------------------------------
 Rotational constants (GHZ):           0.0413888           0.0115307           0.0092213
 Leave Link  202 at Sat Apr 30 07:26:43 2022, MaxMem= 10066329600 cpu:               0.2 elap:               0.0
 (Enter /sw/apps/gaussian-16.0/g16/l301.exe)
 Standard basis: def2SVP (5D, 7F)
 Ernie: Thresh=  0.10000D-02 Tol=  0.10000D-05 Strict=F.
 There are  1364 symmetry adapted cartesian basis functions of A   symmetry.
 There are  1298 symmetry adapted basis functions of A   symmetry.
  1298 basis functions,  2180 primitive gaussians,  1364 cartesian basis functions
   246 alpha electrons      246 beta electrons
       nuclear repulsion energy      9691.7762544896 Hartrees.
 IExCor= 1009 DFT=T Ex+Corr=PBE1PBE ExCW=0 ScaHFX=  0.250000
 ScaDFX=  0.750000  0.750000  1.000000  1.000000 ScalE2=  1.000000  1.000000
 IRadAn=      5 IRanWt=     -1 IRanGd=            0 ICorTp=0 IEmpDi=  4
 NAtoms=  140 NActive=  140 NUniq=  140 SFac= 1.00D+00 NAtFMM=   60 NAOKFM=T Big=T
 Integral buffers will be    131072 words long.
 Regular integral format.
 Two-electron integral symmetry is turned on.
 Leave Link  301 at Sat Apr 30 07:26:43 2022, MaxMem= 10066329600 cpu:               1.6 elap:               0.1
 (Enter /sw/apps/gaussian-16.0/g16/l302.exe)
 NPDir=0 NMtPBC=     1 NCelOv=     1 NCel=       1 NClECP=     1 NCelD=      1
         NCelK=      1 NCelE2=     1 NClLst=     1 CellRange=     0.0.
 One-electron integrals computed using PRISM.
 One-electron integral symmetry used in STVInt
   1 Symmetry operations used in ECPInt.
 ECPInt:  NShTT=  192510 NPrTT=  683786 LenC2=   97245 LenP2D=  212867.
 LDataN:  DoStor=T MaxTD1= 4 Len=   56
 NBasis=  1298 RedAO= T EigKep=  2.94D-04  NBF=  1298
 NBsUse=  1298 1.00D-06 EigRej= -1.00D+00 NBFU=  1298
 Precomputing XC quadrature grid using
 IXCGrd= 4 IRadAn=           5 IRanWt=          -1 IRanGd=           0 AccXCQ= 0.00D+00.
 Generated NRdTot=       0 NPtTot=           0 NUsed=           0 NTot=          32
 NSgBfM=  1171  1168  1171  1171  1171 MxSgAt=   140 MxSgA2=   140.
 Leave Link  302 at Sat Apr 30 07:26:47 2022, MaxMem= 10066329600 cpu:              86.5 elap:               3.6
 (Enter /sw/apps/gaussian-16.0/g16/l303.exe)
 DipDrv:  MaxL=1.
 Leave Link  303 at Sat Apr 30 07:26:47 2022, MaxMem= 10066329600 cpu:               6.6 elap:               0.3
 (Enter /sw/apps/gaussian-16.0/g16/l308.exe)
 Leave Link  308 at Sat Apr 30 07:26:48 2022, MaxMem= 10066329600 cpu:              12.6 elap:               0.6
 (Enter /sw/apps/gaussian-16.0/g16/l401.exe)
 ExpMin= 3.36D-02 ExpMax= 4.95D+03 ExpMxC= 7.45D+02 IAcc=3 IRadAn=         5 AccDes= 0.00D+00
 Harris functional with IExCor= 1009 and IRadAn=       5 diagonalized for initial guess.
 HarFok:  IExCor= 1009 AccDes= 0.00D+00 IRadAn=         5 IDoV= 1 UseB2=F ITyADJ=14
 ICtDFT=  3500011 ScaDFX=  1.000000  1.000000  1.000000  1.000000
 FoFCou: FMM=F IPFlag=           0 FMFlag=      100000 FMFlg1=        2001
         NFxFlg=           0 DoJE=T BraDBF=F KetDBF=T FulRan=T
         wScrn=  0.000000 ICntrl=       500 IOpCl=  0 I1Cent=   200000004 NGrid=           0
         NMat0=    1 NMatS0=      1 NMatT0=    0 NMatD0=    1 NMtDS0=    0 NMtDT0=    0
 Petite list used in FoFCou.
 Harris En= -3006.15500700583    
 JPrj=0 DoOrth=F DoCkMO=F.
 Leave Link  401 at Sat Apr 30 07:26:53 2022, MaxMem= 10066329600 cpu:             131.9 elap:               5.5
 (Enter /sw/apps/gaussian-16.0/g16/l502.exe)
 Integral symmetry usage will be decided dynamically.
 Closed shell SCF:
 Using DIIS extrapolation, IDIIS=  1040.
 NGot= 10066329600 LenX= 10062561258 LenY= 10060699398
 Requested convergence on RMS density matrix=1.00D-08 within 128 cycles.
 Requested convergence on MAX density matrix=1.00D-06.
 Requested convergence on             energy=1.00D-06.
 No special actions if energy rises.
 Fock matrices will be formed incrementally for  20 cycles.

 Cycle   1  Pass 1  IDiag  1:
 FoFJK:  IHMeth= 1 ICntrl=       0 DoSepK=F KAlg= 0 I1Cent=           0 FoldK=F
 IRaf= 530000000 NMat=       1 IRICut=       1 DoRegI=T DoRafI=F ISym2E= 0 IDoP0=0 IntGTp=1.
 FoFCou: FMM=T IPFlag=           0 FMFlag=      100000 FMFlg1=        2001
         NFxFlg=           0 DoJE=F BraDBF=F KetDBF=F FulRan=T
         wScrn=  0.000000 ICntrl=         0 IOpCl=  0 I1Cent=           0 NGrid=           0
         NMat0=    1 NMatS0=      1 NMatT0=    0 NMatD0=    1 NMtDS0=    0 NMtDT0=    0
 Symmetry not used in FoFCou.
 FMM levels:  10  Number of levels for PrismC:   9
 E= -3003.81125514441    
 DIIS: error= 2.23D-02 at cycle   1 NSaved=   1.
 NSaved= 1 IEnMin= 1 EnMin= -3003.81125514441     IErMin= 1 ErrMin= 2.23D-02
 ErrMax= 2.23D-02  0.00D+00 EMaxC= 1.00D-01 BMatC= 1.47D+00 BMatP= 1.47D+00
 IDIUse=3 WtCom= 7.77D-01 WtEn= 2.23D-01
 Coeff-Com:  0.100D+01
 Coeff-En:   0.100D+01
 Coeff:      0.100D+01
 Gap=     0.077 Goal=   None    Shift=    0.000
 GapD=    0.077 DampG=0.500 DampE=0.500 DampFc=0.2500 IDamp=-1.
 Damping current iteration by 2.50D-01
 RMSDP=2.73D-03 MaxDP=7.08D-01              OVMax= 3.25D-01

 Cycle   2  Pass 1  IDiag  1:
 RMSU=  6.77D-04    CP:  9.90D-01
 E= -3004.36494875785     Delta-E=       -0.553693613438 Rises=F Damp=T
 DIIS: error= 1.08D-02 at cycle   2 NSaved=   2.
 NSaved= 2 IEnMin= 2 EnMin= -3004.36494875785     IErMin= 2 ErrMin= 1.08D-02
 ErrMax= 1.08D-02  0.00D+00 EMaxC= 1.00D-01 BMatC= 3.68D-01 BMatP= 1.47D+00
 IDIUse=3 WtCom= 8.92D-01 WtEn= 1.08D-01
 Coeff-Com: -0.793D+00 0.179D+01
 Coeff-En:   0.000D+00 0.100D+01
 Coeff:     -0.707D+00 0.171D+01
 Gap=     0.179 Goal=   None    Shift=    0.000
 RMSDP=9.63D-04 MaxDP=5.92D-02 DE=-5.54D-01 OVMax= 3.14D-01

 Cycle   3  Pass 1  IDiag  1:
 RMSU=  7.94D-04    CP:  9.65D-01  1.73D+00
 E= -3005.22317331952     Delta-E=       -0.858224561676 Rises=F Damp=F
 DIIS: error= 1.57D-02 at cycle   3 NSaved=   3.
 NSaved= 3 IEnMin= 3 EnMin= -3005.22317331952     IErMin= 2 ErrMin= 1.08D-02
 ErrMax= 1.57D-02  0.00D+00 EMaxC= 1.00D-01 BMatC= 1.43D-01 BMatP= 3.68D-01
 IDIUse=3 WtCom= 8.43D-01 WtEn= 1.57D-01
 Coeff-Com: -0.483D+00 0.103D+01 0.455D+00
 Coeff-En:   0.000D+00 0.000D+00 0.100D+01
 Coeff:     -0.407D+00 0.867D+00 0.540D+00
 Gap=     0.068 Goal=   None    Shift=    0.000
 RMSDP=5.75D-04 MaxDP=9.90D-02 DE=-8.58D-01 OVMax= 2.81D-01

 Cycle   4  Pass 1  IDiag  1:
 RMSU=  4.06D-04    CP:  9.71D-01  1.96D+00  5.27D-01
 E= -3005.29925457513     Delta-E=       -0.076081255604 Rises=F Damp=F
 DIIS: error= 9.54D-03 at cycle   4 NSaved=   4.
 NSaved= 4 IEnMin= 4 EnMin= -3005.29925457513     IErMin= 4 ErrMin= 9.54D-03
 ErrMax= 9.54D-03  0.00D+00 EMaxC= 1.00D-01 BMatC= 5.44D-02 BMatP= 1.43D-01
 IDIUse=3 WtCom= 9.05D-01 WtEn= 9.54D-02
 Coeff-Com: -0.106D+00 0.238D+00 0.371D+00 0.497D+00
 Coeff-En:   0.000D+00 0.000D+00 0.338D+00 0.662D+00
 Coeff:     -0.963D-01 0.215D+00 0.368D+00 0.513D+00
 Gap=     0.073 Goal=   None    Shift=    0.000
 RMSDP=3.49D-04 MaxDP=3.72D-02 DE=-7.61D-02 OVMax= 2.49D-01

 Cycle   5  Pass 1  IDiag  1:
 RMSU=  1.84D-04    CP:  9.70D-01  1.84D+00  7.22D-01  4.10D-01
 E= -3005.33984529230     Delta-E=       -0.040590717168 Rises=F Damp=F
 DIIS: error= 2.62D-03 at cycle   5 NSaved=   5.
 NSaved= 5 IEnMin= 5 EnMin= -3005.33984529230     IErMin= 5 ErrMin= 2.62D-03
 ErrMax= 2.62D-03  0.00D+00 EMaxC= 1.00D-01 BMatC= 1.10D-02 BMatP= 5.44D-02
 IDIUse=3 WtCom= 9.74D-01 WtEn= 2.62D-02
 Coeff-Com: -0.251D-01 0.628D-01 0.234D+00 0.394D+00 0.335D+00
 Coeff-En:   0.000D+00 0.000D+00 0.000D+00 0.249D+00 0.751D+00
 Coeff:     -0.244D-01 0.612D-01 0.228D+00 0.390D+00 0.346D+00
 Gap=     0.073 Goal=   None    Shift=    0.000
 RMSDP=1.71D-04 MaxDP=1.63D-02 DE=-4.06D-02 OVMax= 1.33D-01

 Cycle   6  Pass 1  IDiag  1:
 RMSU=  6.00D-05    CP:  9.69D-01  1.84D+00  6.96D-01  5.96D-01  2.38D-01
 E= -3005.35505885033     Delta-E=       -0.015213558034 Rises=F Damp=F
 DIIS: error= 6.60D-04 at cycle   6 NSaved=   6.
 NSaved= 6 IEnMin= 6 EnMin= -3005.35505885033     IErMin= 6 ErrMin= 6.60D-04
 ErrMax= 6.60D-04  0.00D+00 EMaxC= 1.00D-01 BMatC= 8.43D-04 BMatP= 1.10D-02
 IDIUse=3 WtCom= 9.93D-01 WtEn= 6.60D-03
 Coeff-Com:  0.295D-02-0.229D-02 0.799D-01 0.161D+00 0.237D+00 0.521D+00
 Coeff-En:   0.000D+00 0.000D+00 0.000D+00 0.000D+00 0.847D-01 0.915D+00
 Coeff:      0.293D-02-0.228D-02 0.793D-01 0.160D+00 0.236D+00 0.524D+00
 Gap=     0.075 Goal=   None    Shift=    0.000
 RMSDP=4.35D-05 MaxDP=6.30D-03 DE=-1.52D-02 OVMax= 2.91D-02

 Cycle   7  Pass 1  IDiag  1:
 RMSU=  2.14D-05    CP:  9.69D-01  1.84D+00  7.03D-01  5.68D-01  3.83D-01
                    CP:  6.07D-01
 E= -3005.35607378837     Delta-E=       -0.001014938040 Rises=F Damp=F
 DIIS: error= 2.73D-04 at cycle   7 NSaved=   7.
 NSaved= 7 IEnMin= 7 EnMin= -3005.35607378837     IErMin= 7 ErrMin= 2.73D-04
 ErrMax= 2.73D-04  0.00D+00 EMaxC= 1.00D-01 BMatC= 7.51D-05 BMatP= 8.43D-04
 IDIUse=3 WtCom= 9.97D-01 WtEn= 2.73D-03
 Coeff-Com:  0.381D-02-0.697D-02 0.191D-01 0.447D-01 0.934D-01 0.307D+00
 Coeff-Com:  0.539D+00
 Coeff-En:   0.000D+00 0.000D+00 0.000D+00 0.000D+00 0.000D+00 0.436D-01
 Coeff-En:   0.956D+00
 Coeff:      0.380D-02-0.695D-02 0.190D-01 0.446D-01 0.932D-01 0.306D+00
 Coeff:      0.541D+00
 Gap=     0.075 Goal=   None    Shift=    0.000
 RMSDP=1.42D-05 MaxDP=1.40D-03 DE=-1.01D-03 OVMax= 6.77D-03

 Cycle   8  Pass 1  IDiag  1:
 RMSU=  9.40D-06    CP:  9.69D-01  1.84D+00  7.03D-01  5.74D-01  3.70D-01
                    CP:  6.82D-01  5.77D-01
 E= -3005.35613491522     Delta-E=       -0.000061126855 Rises=F Damp=F
 DIIS: error= 1.02D-04 at cycle   8 NSaved=   8.
 NSaved= 8 IEnMin= 8 EnMin= -3005.35613491522     IErMin= 8 ErrMin= 1.02D-04
 ErrMax= 1.02D-04  0.00D+00 EMaxC= 1.00D-01 BMatC= 1.84D-05 BMatP= 7.51D-05
 IDIUse=3 WtCom= 9.99D-01 WtEn= 1.02D-03
 Coeff-Com:  0.196D-02-0.388D-02 0.322D-02 0.985D-02 0.333D-01 0.142D+00
 Coeff-Com:  0.376D+00 0.438D+00
 Coeff-En:   0.000D+00 0.000D+00 0.000D+00 0.000D+00 0.000D+00 0.000D+00
 Coeff-En:   0.231D+00 0.769D+00
 Coeff:      0.196D-02-0.387D-02 0.321D-02 0.984D-02 0.332D-01 0.141D+00
 Coeff:      0.375D+00 0.439D+00
 Gap=     0.075 Goal=   None    Shift=    0.000
 RMSDP=6.68D-06 MaxDP=6.34D-04 DE=-6.11D-05 OVMax= 3.45D-03

 Cycle   9  Pass 1  IDiag  1:
 RMSU=  3.19D-06    CP:  9.69D-01  1.84D+00  7.04D-01  5.74D-01  3.73D-01
                    CP:  6.77D-01  6.91D-01  4.37D-01
 E= -3005.35615554963     Delta-E=       -0.000020634403 Rises=F Damp=F
 DIIS: error= 4.04D-05 at cycle   9 NSaved=   9.
 NSaved= 9 IEnMin= 9 EnMin= -3005.35615554963     IErMin= 9 ErrMin= 4.04D-05
 ErrMax= 4.04D-05  0.00D+00 EMaxC= 1.00D-01 BMatC= 2.06D-06 BMatP= 1.84D-05
 IDIUse=1 WtCom= 1.00D+00 WtEn= 0.00D+00
 Coeff-Com:  0.646D-03-0.131D-02-0.658D-03-0.624D-03 0.740D-02 0.455D-01
 Coeff-Com:  0.169D+00 0.289D+00 0.492D+00
 Coeff:      0.646D-03-0.131D-02-0.658D-03-0.624D-03 0.740D-02 0.455D-01
 Coeff:      0.169D+00 0.289D+00 0.492D+00
 Gap=     0.075 Goal=   None    Shift=    0.000
 RMSDP=2.13D-06 MaxDP=3.54D-04 DE=-2.06D-05 OVMax= 1.13D-03

 Cycle  10  Pass 1  IDiag  1:
 RMSU=  1.32D-06    CP:  9.69D-01  1.84D+00  7.04D-01  5.73D-01  3.73D-01
                    CP:  6.86D-01  6.80D-01  5.45D-01  6.52D-01
 E= -3005.35615767274     Delta-E=       -0.000002123108 Rises=F Damp=F
 DIIS: error= 1.46D-05 at cycle  10 NSaved=  10.
 NSaved=10 IEnMin=10 EnMin= -3005.35615767274     IErMin=10 ErrMin= 1.46D-05
 ErrMax= 1.46D-05  0.00D+00 EMaxC= 1.00D-01 BMatC= 2.69D-07 BMatP= 2.06D-06
 IDIUse=1 WtCom= 1.00D+00 WtEn= 0.00D+00
 Coeff-Com:  0.892D-04-0.173D-03-0.901D-03-0.212D-02-0.853D-03 0.528D-02
 Coeff-Com:  0.479D-01 0.117D+00 0.306D+00 0.528D+00
 Coeff:      0.892D-04-0.173D-03-0.901D-03-0.212D-02-0.853D-03 0.528D-02
 Coeff:      0.479D-01 0.117D+00 0.306D+00 0.528D+00
 Gap=     0.075 Goal=   None    Shift=    0.000
 RMSDP=7.79D-07 MaxDP=8.11D-05 DE=-2.12D-06 OVMax= 4.50D-04

 Cycle  11  Pass 1  IDiag  1:
 RMSU=  4.85D-07    CP:  9.69D-01  1.84D+00  7.04D-01  5.73D-01  3.73D-01
                    CP:  6.86D-01  6.87D-01  5.42D-01  7.52D-01  6.25D-01
 E= -3005.35615793403     Delta-E=       -0.000000261300 Rises=F Damp=F
 DIIS: error= 4.56D-06 at cycle  11 NSaved=  11.
 NSaved=11 IEnMin=11 EnMin= -3005.35615793403     IErMin=11 ErrMin= 4.56D-06
 ErrMax= 4.56D-06  0.00D+00 EMaxC= 1.00D-01 BMatC= 5.46D-08 BMatP= 2.69D-07
 IDIUse=1 WtCom= 1.00D+00 WtEn= 0.00D+00
 Coeff-Com: -0.134D-04 0.408D-04-0.515D-03-0.137D-02-0.163D-02-0.307D-02
 Coeff-Com:  0.872D-02 0.383D-01 0.128D+00 0.354D+00 0.477D+00
 Coeff:     -0.134D-04 0.408D-04-0.515D-03-0.137D-02-0.163D-02-0.307D-02
 Coeff:      0.872D-02 0.383D-01 0.128D+00 0.354D+00 0.477D+00
 Gap=     0.075 Goal=   None    Shift=    0.000
 RMSDP=3.23D-07 MaxDP=3.33D-05 DE=-2.61D-07 OVMax= 1.36D-04

 Cycle  12  Pass 1  IDiag  1:
 RMSU=  1.82D-07    CP:  9.69D-01  1.84D+00  7.04D-01  5.73D-01  3.73D-01
                    CP:  6.86D-01  6.90D-01  5.53D-01  7.47D-01  7.51D-01
                    CP:  6.63D-01
 E= -3005.35615799543     Delta-E=       -0.000000061400 Rises=F Damp=F
 DIIS: error= 1.35D-06 at cycle  12 NSaved=  12.
 NSaved=12 IEnMin=12 EnMin= -3005.35615799543     IErMin=12 ErrMin= 1.35D-06
 ErrMax= 1.35D-06  0.00D+00 EMaxC= 1.00D-01 BMatC= 4.56D-09 BMatP= 5.46D-08
 IDIUse=1 WtCom= 1.00D+00 WtEn= 0.00D+00
 Coeff-Com: -0.668D-05 0.260D-04-0.144D-03-0.435D-03-0.709D-03-0.244D-02
 Coeff-Com: -0.152D-02 0.491D-02 0.218D-01 0.118D+00 0.263D+00 0.597D+00
 Coeff:     -0.668D-05 0.260D-04-0.144D-03-0.435D-03-0.709D-03-0.244D-02
 Coeff:     -0.152D-02 0.491D-02 0.218D-01 0.118D+00 0.263D+00 0.597D+00
 Gap=     0.075 Goal=   None    Shift=    0.000
 RMSDP=1.03D-07 MaxDP=1.83D-05 DE=-6.14D-08 OVMax= 3.64D-05

 Cycle  13  Pass 1  IDiag  1:
 RMSU=  7.17D-08    CP:  9.69D-01  1.84D+00  7.04D-01  5.73D-01  3.73D-01
                    CP:  6.86D-01  6.90D-01  5.54D-01  7.55D-01  7.55D-01
                    CP:  7.60D-01  8.07D-01
 E= -3005.35615800018     Delta-E=       -0.000000004748 Rises=F Damp=F
 DIIS: error= 5.40D-07 at cycle  13 NSaved=  13.
 NSaved=13 IEnMin=13 EnMin= -3005.35615800018     IErMin=13 ErrMin= 5.40D-07
 ErrMax= 5.40D-07  0.00D+00 EMaxC= 1.00D-01 BMatC= 1.05D-09 BMatP= 4.56D-09
 IDIUse=1 WtCom= 1.00D+00 WtEn= 0.00D+00
 Coeff-Com: -0.423D-06 0.751D-05 0.235D-05-0.285D-04-0.173D-03-0.117D-02
 Coeff-Com: -0.299D-02-0.486D-02-0.137D-01 0.616D-02 0.736D-01 0.375D+00
 Coeff-Com:  0.568D+00
 Coeff:     -0.423D-06 0.751D-05 0.235D-05-0.285D-04-0.173D-03-0.117D-02
 Coeff:     -0.299D-02-0.486D-02-0.137D-01 0.616D-02 0.736D-01 0.375D+00
 Coeff:      0.568D+00
 Gap=     0.075 Goal=   None    Shift=    0.000
 RMSDP=4.51D-08 MaxDP=5.26D-06 DE=-4.75D-09 OVMax= 2.24D-05

 Cycle  14  Pass 1  IDiag  1:
 RMSU=  2.82D-08    CP:  9.69D-01  1.84D+00  7.04D-01  5.73D-01  3.73D-01
                    CP:  6.86D-01  6.90D-01  5.55D-01  7.59D-01  7.68D-01
                    CP:  7.69D-01  8.95D-01  6.95D-01
 E= -3005.35615800107     Delta-E=       -0.000000000884 Rises=F Damp=F
 DIIS: error= 2.06D-07 at cycle  14 NSaved=  14.
 NSaved=14 IEnMin=14 EnMin= -3005.35615800107     IErMin=14 ErrMin= 2.06D-07
 ErrMax= 2.06D-07  0.00D+00 EMaxC= 1.00D-01 BMatC= 1.40D-10 BMatP= 1.05D-09
 IDIUse=1 WtCom= 1.00D+00 WtEn= 0.00D+00
 Coeff-Com:  0.191D-05-0.103D-05 0.222D-04 0.433D-04-0.269D-05-0.403D-03
 Coeff-Com: -0.162D-02-0.370D-02-0.120D-01-0.122D-01 0.794D-02 0.142D+00
 Coeff-Com:  0.341D+00 0.538D+00
 Coeff:      0.191D-05-0.103D-05 0.222D-04 0.433D-04-0.269D-05-0.403D-03
 Coeff:     -0.162D-02-0.370D-02-0.120D-01-0.122D-01 0.794D-02 0.142D+00
 Coeff:      0.341D+00 0.538D+00
 Gap=     0.075 Goal=   None    Shift=    0.000
 RMSDP=1.71D-08 MaxDP=2.86D-06 DE=-8.84D-10 OVMax= 5.60D-06

 Cycle  15  Pass 1  IDiag  1:
 RMSU=  1.09D-08    CP:  9.69D-01  1.84D+00  7.04D-01  5.73D-01  3.73D-01
                    CP:  6.87D-01  6.90D-01  5.56D-01  7.58D-01  7.70D-01
                    CP:  7.79D-01  9.09D-01  7.89D-01  8.06D-01
 E= -3005.35615800135     Delta-E=       -0.000000000286 Rises=F Damp=F
 DIIS: error= 9.63D-08 at cycle  15 NSaved=  15.
 NSaved=15 IEnMin=15 EnMin= -3005.35615800135     IErMin=15 ErrMin= 9.63D-08
 ErrMax= 9.63D-08  0.00D+00 EMaxC= 1.00D-01 BMatC= 1.61D-11 BMatP= 1.40D-10
 IDIUse=1 WtCom= 1.00D+00 WtEn= 0.00D+00
 Coeff-Com:  0.149D-05-0.215D-05 0.107D-04 0.231D-04 0.259D-04-0.425D-04
 Coeff-Com: -0.318D-03-0.992D-03-0.402D-02-0.544D-02-0.466D-02 0.209D-01
 Coeff-Com:  0.101D+00 0.295D+00 0.599D+00
 Coeff:      0.149D-05-0.215D-05 0.107D-04 0.231D-04 0.259D-04-0.425D-04
 Coeff:     -0.318D-03-0.992D-03-0.402D-02-0.544D-02-0.466D-02 0.209D-01
 Coeff:      0.101D+00 0.295D+00 0.599D+00
 Gap=     0.075 Goal=   None    Shift=    0.000
 RMSDP=5.27D-09 MaxDP=4.65D-07 DE=-2.86D-10 OVMax= 2.27D-06

 SCF Done:  E(RPBE1PBE) =  -3005.35615800     A.U. after   15 cycles
            NFock= 15  Conv=0.53D-08     -V/T= 2.0100
 KE= 2.975636003768D+03 PE=-2.637450296332D+04 EE= 1.070173454706D+04
 Leave Link  502 at Sat Apr 30 07:31:12 2022, MaxMem= 10066329600 cpu:            6157.3 elap:             258.2
 (Enter /sw/apps/gaussian-16.0/g16/l801.exe)
 DoSCS=F DFT=T ScalE2(SS,OS)=  1.000000  1.000000
 ExpMin= 3.36D-02 ExpMax= 4.95D+03 ExpMxC= 7.45D+02 IAcc=3 IRadAn=         5 AccDes= 0.00D+00
 HarFok:  IExCor=  205 AccDes= 0.00D+00 IRadAn=         5 IDoV=-2 UseB2=F ITyADJ=14
 ICtDFT= 12500011 ScaDFX=  1.000000  1.000000  1.000000  1.000000
 GSVD:  LWork=       -5460 too small for GESVD, short by       25550 words or       25550 for optimal perf.
 Largest valence mixing into a core orbital is  1.64D-04
 Largest core mixing into a valence orbital is  5.69D-05
 Range of M.O.s used for correlation:    71  1298
 NBasis=  1298 NAE=   246 NBE=   246 NFC=    70 NFV=     0
 NROrb=   1228 NOA=   176 NOB=   176 NVA=  1052 NVB=  1052

 **** Warning!!: The smallest alpha delta epsilon is  0.75300186D-01

 Leave Link  801 at Sat Apr 30 07:31:12 2022, MaxMem= 10066329600 cpu:               6.3 elap:               0.3
 (Enter /sw/apps/gaussian-16.0/g16/l914.exe)
 RHF ground state
 Two-electron integrals replicated using symmetry.
 MDV= 10066329600 DFT=T DoStab=F Mixed=T DoRPA=T DoScal=F NonHer=T
 Making orbital integer symmetry assigments:
 Orbital symmetries:
       Occupied  (A) (A) (A) (A) (A) (A) (A) (A) (A) (A) (A) (A)
                 (A) (A) (A) (A) (A) (A) (A) (A) (A) (A) (A) (A)
                 (A) (A) (A) (A) (A) (A) (A) (A) (A) (A) (A) (A)
                 (A) (A) (A) (A) (A) (A) (A) (A) (A) (A) (A) (A)
                 (A) (A) (A) (A) (A) (A) (A) (A) (A) (A) (A) (A)
                 (A) (A) (A) (A) (A) (A) (A) (A) (A) (A) (A) (A)
                 (A) (A) (A) (A) (A) (A) (A) (A) (A) (A) (A) (A)
                 (A) (A) (A) (A) (A) (A) (A) (A) (A) (A) (A) (A)
                 (A) (A) (A) (A) (A) (A) (A) (A) (A) (A) (A) (A)
                 (A) (A) (A) (A) (A) (A) (A) (A) (A) (A) (A) (A)
                 (A) (A) (A) (A) (A) (A) (A) (A) (A) (A) (A) (A)
                 (A) (A) (A) (A) (A) (A) (A) (A) (A) (A) (A) (A)
                 (A) (A) (A) (A) (A) (A) (A) (A) (A) (A) (A) (A)
                 (A) (A) (A) (A) (A) (A) (A) (A) (A) (A) (A) (A)
                 (A) (A) (A) (A) (A) (A) (A) (A) (A) (A) (A) (A)
                 (A) (A) (A) (A) (A) (A) (A) (A) (A) (A) (A) (A)
                 (A) (A) (A) (A) (A) (A) (A) (A) (A) (A) (A) (A)
                 (A) (A) (A) (A) (A) (A) (A) (A) (A) (A) (A) (A)
                 (A) (A) (A) (A) (A) (A) (A) (A) (A) (A) (A) (A)
                 (A) (A) (A) (A) (A) (A) (A) (A) (A) (A) (A) (A)
                 (A) (A) (A) (A) (A) (A)
       Virtual   (A) (A) (A) (A) (A) (A) (A) (A) (A) (A) (A) (A)
                 (A) (A) (A) (A) (A) (A) (A) (A) (A) (A) (A) (A)
                 (A) (A) (A) (A) (A) (A) (A) (A) (A) (A) (A) (A)
                 (A) (A) (A) (A) (A) (A) (A) (A) (A) (A) (A) (A)
                 (A) (A) (A) (A) (A) (A) (A) (A) (A) (A) (A) (A)
                 (A) (A) (A) (A) (A) (A) (A) (A) (A) (A) (A) (A)
                 (A) (A) (A) (A) (A) (A) (A) (A) (A) (A) (A) (A)
                 (A) (A) (A) (A) (A) (A) (A) (A) (A) (A) (A) (A)
                 (A) (A) (A) (A) (A) (A) (A) (A) (A) (A) (A) (A)
                 (A) (A) (A) (A) (A) (A) (A) (A) (A) (A) (A) (A)
                 (A) (A) (A) (A) (A) (A) (A) (A) (A) (A) (A) (A)
                 (A) (A) (A) (A) (A) (A) (A) (A) (A) (A) (A) (A)
                 (A) (A) (A) (A) (A) (A) (A) (A) (A) (A) (A) (A)
                 (A) (A) (A) (A) (A) (A) (A) (A) (A) (A) (A) (A)
                 (A) (A) (A) (A) (A) (A) (A) (A) (A) (A) (A) (A)
                 (A) (A) (A) (A) (A) (A) (A) (A) (A) (A) (A) (A)
                 (A) (A) (A) (A) (A) (A) (A) (A) (A) (A) (A) (A)
                 (A) (A) (A) (A) (A) (A) (A) (A) (A) (A) (A) (A)
                 (A) (A) (A) (A) (A) (A) (A) (A) (A) (A) (A) (A)
                 (A) (A) (A) (A) (A) (A) (A) (A) (A) (A) (A) (A)
                 (A) (A) (A) (A) (A) (A) (A) (A) (A) (A) (A) (A)
                 (A) (A) (A) (A) (A) (A) (A) (A) (A) (A) (A) (A)
                 (A) (A) (A) (A) (A) (A) (A) (A) (A) (A) (A) (A)
                 (A) (A) (A) (A) (A) (A) (A) (A) (A) (A) (A) (A)
                 (A) (A) (A) (A) (A) (A) (A) (A) (A) (A) (A) (A)
                 (A) (A) (A) (A) (A) (A) (A) (A) (A) (A) (A) (A)
                 (A) (A) (A) (A) (A) (A) (A) (A) (A) (A) (A) (A)
                 (A) (A) (A) (A) (A) (A) (A) (A) (A) (A) (A) (A)
                 (A) (A) (A) (A) (A) (A) (A) (A) (A) (A) (A) (A)
                 (A) (A) (A) (A) (A) (A) (A) (A) (A) (A) (A) (A)
                 (A) (A) (A) (A) (A) (A) (A) (A) (A) (A) (A) (A)
                 (A) (A) (A) (A) (A) (A) (A) (A) (A) (A) (A) (A)
                 (A) (A) (A) (A) (A) (A) (A) (A) (A) (A) (A) (A)
                 (A) (A) (A) (A) (A) (A) (A) (A) (A) (A) (A) (A)
                 (A) (A) (A) (A) (A) (A) (A) (A) (A) (A) (A) (A)
                 (A) (A) (A) (A) (A) (A) (A) (A) (A) (A) (A) (A)
                 (A) (A) (A) (A) (A) (A) (A) (A) (A) (A) (A) (A)
                 (A) (A) (A) (A) (A) (A) (A) (A) (A) (A) (A) (A)
                 (A) (A) (A) (A) (A) (A) (A) (A) (A) (A) (A) (A)
                 (A) (A) (A) (A) (A) (A) (A) (A) (A) (A) (A) (A)
                 (A) (A) (A) (A) (A) (A) (A) (A) (A) (A) (A) (A)
                 (A) (A) (A) (A) (A) (A) (A) (A) (A) (A) (A) (A)
                 (A) (A) (A) (A) (A) (A) (A) (A) (A) (A) (A) (A)
                 (A) (A) (A) (A) (A) (A) (A) (A) (A) (A) (A) (A)
                 (A) (A) (A) (A) (A) (A) (A) (A) (A) (A) (A) (A)
                 (A) (A) (A) (A) (A) (A) (A) (A) (A) (A) (A) (A)
                 (A) (A) (A) (A) (A) (A) (A) (A) (A) (A) (A) (A)
                 (A) (A) (A) (A) (A) (A) (A) (A) (A) (A) (A) (A)
                 (A) (A) (A) (A) (A) (A) (A) (A) (A) (A) (A) (A)
                 (A) (A) (A) (A) (A) (A) (A) (A) (A) (A) (A) (A)
                 (A) (A) (A) (A) (A) (A) (A) (A) (A) (A) (A) (A)
                 (A) (A) (A) (A) (A) (A) (A) (A) (A) (A) (A) (A)
                 (A) (A) (A) (A) (A) (A) (A) (A) (A) (A) (A) (A)
                 (A) (A) (A) (A) (A) (A) (A) (A) (A) (A) (A) (A)
                 (A) (A) (A) (A) (A) (A) (A) (A) (A) (A) (A) (A)
                 (A) (A) (A) (A) (A) (A) (A) (A) (A) (A) (A) (A)
                 (A) (A) (A) (A) (A) (A) (A) (A) (A) (A) (A) (A)
                 (A) (A) (A) (A) (A) (A) (A) (A) (A) (A) (A) (A)
                 (A) (A) (A) (A) (A) (A) (A) (A) (A) (A) (A) (A)
                 (A) (A) (A) (A) (A) (A) (A) (A) (A) (A) (A) (A)
                 (A) (A) (A) (A) (A) (A) (A) (A) (A) (A) (A) (A)
                 (A) (A) (A) (A) (A) (A) (A) (A) (A) (A) (A) (A)
                 (A) (A) (A) (A) (A) (A) (A) (A) (A) (A) (A) (A)
                 (A) (A) (A) (A) (A) (A) (A) (A) (A) (A) (A) (A)
                 (A) (A) (A) (A) (A) (A) (A) (A) (A) (A) (A) (A)
                 (A) (A) (A) (A) (A) (A) (A) (A) (A) (A) (A) (A)
                 (A) (A) (A) (A) (A) (A) (A) (A) (A) (A) (A) (A)
                 (A) (A) (A) (A) (A) (A) (A) (A) (A) (A) (A) (A)
                 (A) (A) (A) (A) (A) (A) (A) (A) (A) (A) (A) (A)
                 (A) (A) (A) (A) (A) (A) (A) (A) (A) (A) (A) (A)
                 (A) (A) (A) (A) (A) (A) (A) (A) (A) (A) (A) (A)
                 (A) (A) (A) (A) (A) (A) (A) (A) (A) (A) (A) (A)
                 (A) (A) (A) (A) (A) (A) (A) (A) (A) (A) (A) (A)
                 (A) (A) (A) (A) (A) (A) (A) (A) (A) (A) (A) (A)
                 (A) (A) (A) (A) (A) (A) (A) (A) (A) (A) (A) (A)
                 (A) (A) (A) (A) (A) (A) (A) (A) (A) (A) (A) (A)
                 (A) (A) (A) (A) (A) (A) (A) (A) (A) (A) (A) (A)
                 (A) (A) (A) (A) (A) (A) (A) (A) (A) (A) (A) (A)
                 (A) (A) (A) (A) (A) (A) (A) (A) (A) (A) (A) (A)
                 (A) (A) (A) (A) (A) (A) (A) (A) (A) (A) (A) (A)
                 (A) (A) (A) (A) (A) (A) (A) (A) (A) (A) (A) (A)
                 (A) (A) (A) (A) (A) (A) (A) (A) (A) (A) (A) (A)
                 (A) (A) (A) (A) (A) (A) (A) (A) (A) (A) (A) (A)
                 (A) (A) (A) (A) (A) (A) (A) (A) (A) (A) (A) (A)
                 (A) (A) (A) (A) (A) (A) (A) (A) (A) (A) (A) (A)
                 (A) (A) (A) (A) (A) (A) (A) (A) (A) (A) (A) (A)
                 (A) (A) (A) (A) (A) (A) (A) (A) (A) (A) (A) (A)
                 (A) (A) (A) (A) (A) (A) (A) (A)
    20 initial guesses have been made.
 Convergence on wavefunction:    0.001000000000000
 Davidson Disk Diagonalization:  ConvIn= 1.00D-03 SkipCon=T Conv= 1.00D-03.
 Max sub-space:  2000 roots to seek:    20 dimension of matrix:       370304
 Iteration     1 Dimension    20 NMult     0 NNew     20
 CISAX will form    20 AO SS matrices at one time.
 NMat=    20 NSing=    20 JSym2X= 0.
 FoFJK:  IHMeth= 1 ICntrl=       0 DoSepK=F KAlg= 0 I1Cent=           0 FoldK=F
 IRaf= 530000000 NMat=      40 IRICut=       1 DoRegI=T DoRafI=F ISym2E= 0 IDoP0=3 IntGTp=3.
 FoFCou: FMM=T IPFlag=           0 FMFlag=      100000 FMFlg1=        2001
         NFxFlg=           0 DoJE=F BraDBF=F KetDBF=F FulRan=T
         wScrn=  0.000000 ICntrl=         0 IOpCl=  0 I1Cent=           0 NGrid=           0
         NMat0=   40 NMatS0=     20 NMatT0=    0 NMatD0=   40 NMtDS0=    0 NMtDT0=    0
 Symmetry not used in FoFCou.
 FMM levels:  10  Number of levels for PrismC:   9
 New state      3 was old state      4
 New state      4 was old state      7
 Excitation Energies [eV] at current iteration:
 Root      1 :     2.221574835404465
 Root      2 :     2.606751099102848
 Root      3 :     3.017800486009503
 Root      4 :     3.289271777057429
 Root      5 :     3.335283893818833
 Root      6 :     3.567234505260755
 Root      7 :     3.600351674045004
 Root      8 :     3.654711591095057
 Root      9 :     3.705300889265632
 Root     10 :     3.916214375982645
 Root     11 :     3.994767567588581
 Root     12 :     4.079041647118488
 Root     13 :     4.168045280505324
 Root     14 :     4.338545323409642
 Root     15 :     4.461419245247573
 Root     16 :     4.616205567713294
 Root     17 :     4.698655227748755
 Root     18 :     4.716019575689324
 Root     19 :     4.762791634372782
 Root     20 :     4.887257783369705
 Iteration     2 Dimension    30 NMult    20 NNew     10
 CISAX will form    10 AO SS matrices at one time.
 NMat=    10 NSing=    10 JSym2X= 0.
 Root      1 not converged, maximum delta is    0.056255258039755
 Root      2 not converged, maximum delta is    0.053005720769335
 Root      3 not converged, maximum delta is    0.093068751049895
 New state      4 was old state      5
 Root      4 not converged, maximum delta is    0.345518096250961
 New state      5 was old state      4
 Root      5 not converged, maximum delta is    0.327342376704937
 Excitation Energies [eV] at current iteration:
 Root      1 :     1.882626018744520   Change is   -0.338948816659945
 Root      2 :     2.328123816688083   Change is   -0.278627282414766
 Root      3 :     2.910885104513988   Change is   -0.106915381495515
 Root      4 :     3.121246862059953   Change is   -0.214037031758880
 Root      5 :     3.177543593343154   Change is   -0.111728183714275
 Iteration     3 Dimension    40 NMult    30 NNew     10
 CISAX will form    10 AO SS matrices at one time.
 NMat=    10 NSing=    10 JSym2X= 0.
 Root      1 not converged, maximum delta is    0.022447916504037
 Root      2 not converged, maximum delta is    0.022993694951419
 Root      3 not converged, maximum delta is    0.014184622447360
 Root      4 not converged, maximum delta is    0.010196745196380
 Root      5 not converged, maximum delta is    0.027524929015029
 Excitation Energies [eV] at current iteration:
 Root      1 :     1.851934905003943   Change is   -0.030691113740577
 Root      2 :     2.310640174721807   Change is   -0.017483641966276
 Root      3 :     2.901709323260597   Change is   -0.009175781253390
 Root      4 :     3.110847110897029   Change is   -0.010399751162924
 Root      5 :     3.157578730489397   Change is   -0.019964862853758
 Iteration     4 Dimension    50 NMult    40 NNew     10
 CISAX will form    10 AO SS matrices at one time.
 NMat=    10 NSing=    10 JSym2X= 0.
 Root      1 not converged, maximum delta is    0.002738356142423
 Root      2 not converged, maximum delta is    0.007559541205995
 Root      3 not converged, maximum delta is    0.002628307446242
 Root      4 not converged, maximum delta is    0.004963859423097
 Root      5 not converged, maximum delta is    0.012219058435395
 Excitation Energies [eV] at current iteration:
 Root      1 :     1.848685771821364   Change is   -0.003249133182579
 Root      2 :     2.307959997980410   Change is   -0.002680176741397
 Root      3 :     2.900743840293174   Change is   -0.000965482967423
 Root      4 :     3.109397924012945   Change is   -0.001449186884084
 Root      5 :     3.155778675692199   Change is   -0.001800054797197
 Iteration     5 Dimension    60 NMult    50 NNew     10
 CISAX will form    10 AO SS matrices at one time.
 NMat=    10 NSing=    10 JSym2X= 0.
 Root      1 has converged.
 Root      2 not converged, maximum delta is    0.001085643880505
 Root      3 has converged.
 Root      4 not converged, maximum delta is    0.001093785311005
 Root      5 not converged, maximum delta is    0.009701594550344
 Excitation Energies [eV] at current iteration:
 Root      1 :     1.848284190587387   Change is   -0.000401581233977
 Root      2 :     2.307745535804314   Change is   -0.000214462176096
 Root      3 :     2.900651221627261   Change is   -0.000092618665913
 Root      4 :     3.109201124778470   Change is   -0.000196799234475
 Root      5 :     3.155440493322893   Change is   -0.000338182369306
 Iteration     6 Dimension    66 NMult    60 NNew      6
 CISAX will form     6 AO SS matrices at one time.
 NMat=     6 NSing=     6 JSym2X= 0.
 Root      1 has converged.
 Root      2 has converged.
 Root      3 has converged.
 Root      4 has converged.
 Root      5 not converged, maximum delta is    0.006509668668901
 Excitation Energies [eV] at current iteration:
 Root      1 :     1.848283572324546   Change is   -0.000000618262842
 Root      2 :     2.307715386760244   Change is   -0.000030149044070
 Root      3 :     2.900650913551730   Change is   -0.000000308075531
 Root      4 :     3.109180256852116   Change is   -0.000020867926354
 Root      5 :     3.155356814410277   Change is   -0.000083678912617
 Iteration     7 Dimension    68 NMult    66 NNew      2
 CISAX will form     2 AO SS matrices at one time.
 NMat=     2 NSing=     2 JSym2X= 0.
 Root      1 has converged.
 Root      2 has converged.
 Root      3 has converged.
 Root      4 has converged.
 Root      5 not converged, maximum delta is    0.004890761269477
 Excitation Energies [eV] at current iteration:
 Root      1 :     1.848283459615982   Change is   -0.000000112708563
 Root      2 :     2.307715358904169   Change is   -0.000000027856075
 Root      3 :     2.900650846169730   Change is   -0.000000067382000
 Root      4 :     3.109179821096234   Change is   -0.000000435755882
 Root      5 :     3.155323956696381   Change is   -0.000032857713896
 Iteration     8 Dimension    70 NMult    68 NNew      2
 CISAX will form     2 AO SS matrices at one time.
 NMat=     2 NSing=     2 JSym2X= 0.
 Root      1 has converged.
 Root      2 has converged.
 Root      3 has converged.
 Root      4 has converged.
 Root      5 not converged, maximum delta is    0.002121361570432
 Excitation Energies [eV] at current iteration:
 Root      1 :     1.848282121654343   Change is   -0.000001337961639
 Root      2 :     2.307715349781500   Change is   -0.000000009122669
 Root      3 :     2.900650825475060   Change is   -0.000000020694669
 Root      4 :     3.109179363963499   Change is   -0.000000457132735
 Root      5 :     3.155314392182220   Change is   -0.000009564514161
 Convergence on energies, max DE= 9.56D-06.
 Convergence on expansion vectors.
 ***********************************************************************
 Excited states from <AA,BB:AA,BB> singles matrix:
 ***********************************************************************
 
 1PDM for each excited state written to RWF  633
 Ground to excited state transition densities written to RWF  633
 Ground to excited state transition electric dipole moments (Au):
       state          X           Y           Z        Dip. S.      Osc.
         1         1.9387     -2.0993      0.1601      8.1914      0.3709
         2        -0.8241     -1.0347      0.0050      1.7498      0.0989
         3         0.0236      0.0480     -0.0209      0.0033      0.0002
         4        -0.1015     -0.1609     -0.0007      0.0362      0.0028
         5        -0.1108     -0.2756      0.0101      0.0884      0.0068
 Ground to excited state transition velocity dipole moments (Au):
       state          X           Y           Z        Dip. S.      Osc.
         1        -0.1284      0.1387     -0.0113      0.0359      0.3519
         2         0.0660      0.0832     -0.0010      0.0113      0.0887
         3        -0.0035     -0.0055     -0.0005      0.0000      0.0003
         4         0.0147      0.0192     -0.0008      0.0006      0.0034
         5         0.0148      0.0315     -0.0036      0.0012      0.0071
 Ground to excited state transition magnetic dipole moments (Au):
       state          X           Y           Z
         1         0.0307      0.1858      1.7925
         2        -0.0046      0.0060      0.2553
         3        -0.2061      0.3697     -0.3104
         4         0.0112      0.1791      0.7642
         5         0.3189      0.3250      0.3878
 Ground to excited state transition velocity quadrupole moments (Au):
       state          XX          YY          ZZ          XY          XZ          YZ
         1        -2.2096      0.5341     -0.0013      0.9425     -0.1240     -0.0083
         2         1.0696      0.2820     -0.0146      0.7248     -0.0292     -0.0266
         3        -0.1064      0.0165     -0.0057     -0.0275     -0.0138     -0.0100
         4         0.4886     -0.2222      0.0024      0.1020     -0.0307      0.0045
         5         0.1460      0.2031      0.0031      0.3902     -0.0428     -0.0157
 <0|del|b> * <b|rxdel|0> + <0|del|b> * <b|delr+rdel|0>
 Rotatory Strengths (R) in cgs (10**-40 erg-esu-cm/Gauss)
       state          XX          YY          ZZ    R(velocity)    E-M Angle
         1        63.1311    -64.9250     18.5449      5.5837       89.73
         2         8.1915     -6.6438     -2.0074     -0.1532       90.00
         3        -6.3683      2.9747     -4.1635     -2.5190      109.53
         4        10.2003     -0.9957      9.1052      6.1032       81.02
         5        26.8083     13.7371     42.2594     27.6016       49.60
 1/2[<0|r|b>*<b|rxdel|0> + (<0|rxdel|b>*<b|r|0>)*]
 Rotatory Strengths (R) in cgs (10**-40 erg-esu-cm/Gauss)
       state          XX          YY          ZZ     R(length)
         1       -42.1541    275.8709   -202.9110     10.2686
         2        -2.6549      4.3617     -0.9024      0.2681
         3         3.4416    -12.5580     -4.5761     -4.5642
         4         0.8064     20.3832      0.3986      7.1960
         5        24.9984     63.3542     -2.7746     28.5260
  1/2[<0|del|b>*<b|r|0> + (<0|r|b>*<b|del|0>)*] (Au)
       state          X           Y           Z        Dip. S.   Osc.(frdel)
         1        -0.2489     -0.2912     -0.0018      0.5419      0.3613
         2        -0.0544     -0.0861     -0.0000      0.1405      0.0937
         3        -0.0001     -0.0003      0.0000      0.0003      0.0002
         4        -0.0015     -0.0031      0.0000      0.0046      0.0030
         5        -0.0016     -0.0087     -0.0000      0.0104      0.0069

 Excitation energies and oscillator strengths:
 
 Excited State   1:      Singlet-A      1.8483 eV  670.81 nm  f=0.3709  <S**2>=0.000
     245 -> 248        0.15844
     246 -> 247        0.69472
     246 <- 247       -0.11143
 This state for optimization and/or second-order correction.
 Total Energy, E(TD-HF/TD-DFT) =  -3005.28823488    
 Copying the excited state density for this state as the 1-particle RhoCI density.
 
 Excited State   2:      Singlet-A      2.3077 eV  537.26 nm  f=0.0989  <S**2>=0.000
     245 -> 247        0.63611
     246 -> 248       -0.28829
 
 Excited State   3:      Singlet-A      2.9007 eV  427.44 nm  f=0.0002  <S**2>=0.000
     244 -> 247        0.68078
     244 -> 249       -0.10838
 
 Excited State   4:      Singlet-A      3.1092 eV  398.77 nm  f=0.0028  <S**2>=0.000
     241 -> 247        0.10739
     243 -> 247        0.68013
 
 Excited State   5:      Singlet-A      3.1553 eV  392.94 nm  f=0.0068  <S**2>=0.000
     241 -> 247        0.64729
     241 -> 248       -0.15027
     241 -> 249        0.14338
     246 -> 248        0.10629
 SavETr:  write IOETrn=   770 NScale= 10 NData=  16 NLR=1 NState=    5 LETran=     100.
 Leave Link  914 at Sat Apr 30 07:45:46 2022, MaxMem= 10066329600 cpu:           20936.1 elap:             874.1
 (Enter /sw/apps/gaussian-16.0/g16/l601.exe)
 Copying SCF densities to generalized density rwf, IOpCl= 0 IROHF=0.
 Hyperfine terms turned off by default for NAtoms > 100.

 **********************************************************************

            Population analysis using the SCF density.

 **********************************************************************

 Orbital symmetries:
       Occupied  (A) (A) (A) (A) (A) (A) (A) (A) (A) (A) (A) (A)
                 (A) (A) (A) (A) (A) (A) (A) (A) (A) (A) (A) (A)
                 (A) (A) (A) (A) (A) (A) (A) (A) (A) (A) (A) (A)
                 (A) (A) (A) (A) (A) (A) (A) (A) (A) (A) (A) (A)
                 (A) (A) (A) (A) (A) (A) (A) (A) (A) (A) (A) (A)
                 (A) (A) (A) (A) (A) (A) (A) (A) (A) (A) (A) (A)
                 (A) (A) (A) (A) (A) (A) (A) (A) (A) (A) (A) (A)
                 (A) (A) (A) (A) (A) (A) (A) (A) (A) (A) (A) (A)
                 (A) (A) (A) (A) (A) (A) (A) (A) (A) (A) (A) (A)
                 (A) (A) (A) (A) (A) (A) (A) (A) (A) (A) (A) (A)
                 (A) (A) (A) (A) (A) (A) (A) (A) (A) (A) (A) (A)
                 (A) (A) (A) (A) (A) (A) (A) (A) (A) (A) (A) (A)
                 (A) (A) (A) (A) (A) (A) (A) (A) (A) (A) (A) (A)
                 (A) (A) (A) (A) (A) (A) (A) (A) (A) (A) (A) (A)
                 (A) (A) (A) (A) (A) (A) (A) (A) (A) (A) (A) (A)
                 (A) (A) (A) (A) (A) (A) (A) (A) (A) (A) (A) (A)
                 (A) (A) (A) (A) (A) (A) (A) (A) (A) (A) (A) (A)
                 (A) (A) (A) (A) (A) (A) (A) (A) (A) (A) (A) (A)
                 (A) (A) (A) (A) (A) (A) (A) (A) (A) (A) (A) (A)
                 (A) (A) (A) (A) (A) (A) (A) (A) (A) (A) (A) (A)
                 (A) (A) (A) (A) (A) (A)
       Virtual   (A) (A) (A) (A) (A) (A) (A) (A) (A) (A) (A) (A)
                 (A) (A) (A) (A) (A) (A) (A) (A) (A) (A) (A) (A)
                 (A) (A) (A) (A) (A) (A) (A) (A) (A) (A) (A) (A)
                 (A) (A) (A) (A) (A) (A) (A) (A) (A) (A) (A) (A)
                 (A) (A) (A) (A) (A) (A) (A) (A) (A) (A) (A) (A)
                 (A) (A) (A) (A) (A) (A) (A) (A) (A) (A) (A) (A)
                 (A) (A) (A) (A) (A) (A) (A) (A) (A) (A) (A) (A)
                 (A) (A) (A) (A) (A) (A) (A) (A) (A) (A) (A) (A)
                 (A) (A) (A) (A) (A) (A) (A) (A) (A) (A) (A) (A)
                 (A) (A) (A) (A) (A) (A) (A) (A) (A) (A) (A) (A)
                 (A) (A) (A) (A) (A) (A) (A) (A) (A) (A) (A) (A)
                 (A) (A) (A) (A) (A) (A) (A) (A) (A) (A) (A) (A)
                 (A) (A) (A) (A) (A) (A) (A) (A) (A) (A) (A) (A)
                 (A) (A) (A) (A) (A) (A) (A) (A) (A) (A) (A) (A)
                 (A) (A) (A) (A) (A) (A) (A) (A) (A) (A) (A) (A)
                 (A) (A) (A) (A) (A) (A) (A) (A) (A) (A) (A) (A)
                 (A) (A) (A) (A) (A) (A) (A) (A) (A) (A) (A) (A)
                 (A) (A) (A) (A) (A) (A) (A) (A) (A) (A) (A) (A)
                 (A) (A) (A) (A) (A) (A) (A) (A) (A) (A) (A) (A)
                 (A) (A) (A) (A) (A) (A) (A) (A) (A) (A) (A) (A)
                 (A) (A) (A) (A) (A) (A) (A) (A) (A) (A) (A) (A)
                 (A) (A) (A) (A) (A) (A) (A) (A) (A) (A) (A) (A)
                 (A) (A) (A) (A) (A) (A) (A) (A) (A) (A) (A) (A)
                 (A) (A) (A) (A) (A) (A) (A) (A) (A) (A) (A) (A)
                 (A) (A) (A) (A) (A) (A) (A) (A) (A) (A) (A) (A)
                 (A) (A) (A) (A) (A) (A) (A) (A) (A) (A) (A) (A)
                 (A) (A) (A) (A) (A) (A) (A) (A) (A) (A) (A) (A)
                 (A) (A) (A) (A) (A) (A) (A) (A) (A) (A) (A) (A)
                 (A) (A) (A) (A) (A) (A) (A) (A) (A) (A) (A) (A)
                 (A) (A) (A) (A) (A) (A) (A) (A) (A) (A) (A) (A)
                 (A) (A) (A) (A) (A) (A) (A) (A) (A) (A) (A) (A)
                 (A) (A) (A) (A) (A) (A) (A) (A) (A) (A) (A) (A)
                 (A) (A) (A) (A) (A) (A) (A) (A) (A) (A) (A) (A)
                 (A) (A) (A) (A) (A) (A) (A) (A) (A) (A) (A) (A)
                 (A) (A) (A) (A) (A) (A) (A) (A) (A) (A) (A) (A)
                 (A) (A) (A) (A) (A) (A) (A) (A) (A) (A) (A) (A)
                 (A) (A) (A) (A) (A) (A) (A) (A) (A) (A) (A) (A)
                 (A) (A) (A) (A) (A) (A) (A) (A) (A) (A) (A) (A)
[...]
 Alpha virt. eigenvalues --    1.25089   1.25439   1.25772   1.26079   1.26504
 Alpha virt. eigenvalues --    1.26926   1.27101   1.27639   1.28348   1.28585
 Alpha virt. eigenvalues --    1.29112   1.29865   1.30126   1.30498   1.30610
 Alpha virt. eigenvalues --    1.31194   1.31261   1.31498   1.31792   1.32368
 Alpha virt. eigenvalues --    1.32946   1.33459   1.34139   1.34722   1.34942
 Alpha virt. eigenvalues --    1.35079   1.35375   1.36419   1.36572   1.36794
 Alpha virt. eigenvalues --    1.37352   1.37658   1.37945   1.38179   1.38836
 Alpha virt. eigenvalues --    1.39206   1.39300   1.39822   1.40001   1.40746
 Alpha virt. eigenvalues --    1.41021   1.41431   1.42368   1.42669   1.43126
 Alpha virt. eigenvalues --    1.43607   1.43899   1.44223   1.44851   1.45205
 Alpha virt. eigenvalues --    1.45468   1.45933   1.46428   1.46661   1.47240
 Alpha virt. eigenvalues --    1.47301   1.47902   1.48107   1.48344   1.48929
 Alpha virt. eigenvalues --    1.49208   1.49646   1.49878   1.50305   1.50496
 Alpha virt. eigenvalues --    1.50658   1.51122   1.51346   1.51716   1.52079
 Alpha virt. eigenvalues --    1.52140   1.52489   1.52946   1.53028   1.53259
 Alpha virt. eigenvalues --    1.53538   1.53690   1.53735   1.53940   1.54170
 Alpha virt. eigenvalues --    1.54536   1.54788   1.55146   1.55606   1.55679
 Alpha virt. eigenvalues --    1.55826   1.56215   1.56736   1.57129   1.57176
 Alpha virt. eigenvalues --    1.57417   1.57882   1.58067   1.59031   1.59140
 Alpha virt. eigenvalues --    1.59818   1.60191   1.60304   1.60935   1.61256
 Alpha virt. eigenvalues --    1.61642   1.62084   1.62383   1.63006   1.63328
 Alpha virt. eigenvalues --    1.64306   1.64522   1.65256   1.65858   1.66370
 Alpha virt. eigenvalues --    1.66781   1.67238   1.67354   1.67603   1.68031
 Alpha virt. eigenvalues --    1.68261   1.68299   1.68874   1.68978   1.69253
 Alpha virt. eigenvalues --    1.69804   1.70365   1.70552   1.70898   1.71425
 Alpha virt. eigenvalues --    1.71498   1.71861   1.72205   1.72459   1.72651
 Alpha virt. eigenvalues --    1.72883   1.73045   1.73644   1.73795   1.74022
 Alpha virt. eigenvalues --    1.74543   1.74833   1.74887   1.75004   1.75274
 Alpha virt. eigenvalues --    1.75298   1.75405   1.76170   1.76262   1.76517
 Alpha virt. eigenvalues --    1.76747   1.76866   1.77196   1.77540   1.77638
 Alpha virt. eigenvalues --    1.77748   1.77782   1.78067   1.78229   1.78426
 Alpha virt. eigenvalues --    1.78451   1.78670   1.78824   1.79113   1.79401
 Alpha virt. eigenvalues --    1.79594   1.79605   1.79765   1.79999   1.80122
 Alpha virt. eigenvalues --    1.80230   1.80528   1.80778   1.80796   1.80925
 Alpha virt. eigenvalues --    1.81122   1.81431   1.81815   1.81895   1.82204
 Alpha virt. eigenvalues --    1.82265   1.82712   1.82986   1.83477   1.83663
 Alpha virt. eigenvalues --    1.83697   1.83780   1.84140   1.84374   1.84490
 Alpha virt. eigenvalues --    1.84865   1.85159   1.85198   1.85430   1.85538
 Alpha virt. eigenvalues --    1.85713   1.85930   1.86391   1.86563   1.86878
 Alpha virt. eigenvalues --    1.86947   1.87286   1.87665   1.88008   1.88370
 Alpha virt. eigenvalues --    1.88523   1.88818   1.88921   1.88928   1.89297
 Alpha virt. eigenvalues --    1.89464   1.89589   1.89867   1.90171   1.90840
 Alpha virt. eigenvalues --    1.91065   1.91240   1.91474   1.91723   1.91815
 Alpha virt. eigenvalues --    1.92215   1.92543   1.92923   1.93168   1.93481
 Alpha virt. eigenvalues --    1.93976   1.94388   1.94503   1.94628   1.94892
 Alpha virt. eigenvalues --    1.95237   1.95439   1.95959   1.96030   1.96273
 Alpha virt. eigenvalues --    1.96376   1.96748   1.96887   1.97037   1.97124
 Alpha virt. eigenvalues --    1.97348   1.97633   1.97923   1.98252   1.98319
 Alpha virt. eigenvalues --    1.98665   1.99098   1.99341   1.99615   1.99811
 Alpha virt. eigenvalues --    2.00457   2.00703   2.00842   2.01014   2.01154
 Alpha virt. eigenvalues --    2.01376   2.02355   2.02565   2.02933   2.03048
 Alpha virt. eigenvalues --    2.03129   2.03697   2.03878   2.04062   2.04385
 Alpha virt. eigenvalues --    2.04613   2.05032   2.05317   2.05770   2.06357
 Alpha virt. eigenvalues --    2.06478   2.06649   2.07314   2.07389   2.07558
 Alpha virt. eigenvalues --    2.07881   2.08089   2.08549   2.09445   2.09688
 Alpha virt. eigenvalues --    2.09912   2.10270   2.10483   2.10716   2.10981
 Alpha virt. eigenvalues --    2.11175   2.11431   2.11930   2.12036   2.12440
 Alpha virt. eigenvalues --    2.12831   2.13088   2.13268   2.13672   2.13744
 Alpha virt. eigenvalues --    2.13914   2.14224   2.14330   2.14837   2.14957
 Alpha virt. eigenvalues --    2.15484   2.15598   2.15746   2.16048   2.16580
 Alpha virt. eigenvalues --    2.17000   2.17388   2.17768   2.17878   2.18487
 Alpha virt. eigenvalues --    2.18875   2.19240   2.19560   2.20011   2.20260
 Alpha virt. eigenvalues --    2.20645   2.20806   2.21864   2.22197   2.22707
 Alpha virt. eigenvalues --    2.22763   2.23437   2.23862   2.24414   2.24597
 Alpha virt. eigenvalues --    2.25666   2.25961   2.26655   2.26924   2.27012
 Alpha virt. eigenvalues --    2.27496   2.27664   2.28045   2.28301   2.28885
 Alpha virt. eigenvalues --    2.29196   2.29380   2.30034   2.30285   2.31095
 Alpha virt. eigenvalues --    2.31573   2.31929   2.32223   2.32821   2.32995
 Alpha virt. eigenvalues --    2.33196   2.33633   2.33857   2.33987   2.34208
 Alpha virt. eigenvalues --    2.34954   2.35217   2.35520   2.35595   2.35919
 Alpha virt. eigenvalues --    2.36278   2.36666   2.37067   2.37678   2.37907
 Alpha virt. eigenvalues --    2.38170   2.38338   2.38568   2.38817   2.39093
 Alpha virt. eigenvalues --    2.39479   2.39672   2.40064   2.40427   2.41172
 Alpha virt. eigenvalues --    2.42145   2.42189   2.42555   2.42850   2.43167
 Alpha virt. eigenvalues --    2.43302   2.43865   2.44963   2.45170   2.45231
 Alpha virt. eigenvalues --    2.45377   2.46116   2.46338   2.46643   2.47134
 Alpha virt. eigenvalues --    2.47523   2.47780   2.48416   2.48739   2.48998
 Alpha virt. eigenvalues --    2.49285   2.49444   2.50216   2.50648   2.50839
 Alpha virt. eigenvalues --    2.52010   2.52425   2.53193   2.54201   2.54494
 Alpha virt. eigenvalues --    2.54704   2.55039   2.55264   2.55878   2.56357
 Alpha virt. eigenvalues --    2.56665   2.57026   2.57377   2.57900   2.58649
 Alpha virt. eigenvalues --    2.58924   2.59272   2.60285   2.60443   2.60867
 Alpha virt. eigenvalues --    2.61166   2.61276   2.61452   2.62406   2.62590
 Alpha virt. eigenvalues --    2.62864   2.63447   2.63538   2.64498   2.64685
 Alpha virt. eigenvalues --    2.65327   2.65918   2.66002   2.66362   2.66988
 Alpha virt. eigenvalues --    2.67542   2.67720   2.67769   2.68372   2.68626
 Alpha virt. eigenvalues --    2.69507   2.69862   2.70130   2.70252   2.70913
 Alpha virt. eigenvalues --    2.71043   2.71354   2.71617   2.71896   2.72650
 Alpha virt. eigenvalues --    2.73294   2.73357   2.73784   2.74534   2.74728
 Alpha virt. eigenvalues --    2.74968   2.75428   2.75718   2.76318   2.76640
 Alpha virt. eigenvalues --    2.77222   2.77381   2.78043   2.78736   2.78830
 Alpha virt. eigenvalues --    2.79471   2.79761   2.80262   2.81016   2.81792
 Alpha virt. eigenvalues --    2.82412   2.82965   2.83626   2.83969   2.85204
 Alpha virt. eigenvalues --    2.85676   2.86014   2.86580   2.86657   2.87023
 Alpha virt. eigenvalues --    2.88123   2.88343   2.88560   2.88713   2.89662
 Alpha virt. eigenvalues --    2.90270   2.90626   2.90863   2.91490   2.91582
 Alpha virt. eigenvalues --    2.91876   2.92123   2.92369   2.92622   2.93014
 Alpha virt. eigenvalues --    2.93269   2.93380   2.93494   2.93761   2.93807
 Alpha virt. eigenvalues --    2.94150   2.94392   2.94831   2.95083   2.95626
 Alpha virt. eigenvalues --    2.95744   2.96011   2.96345   2.96500   2.96988
 Alpha virt. eigenvalues --    2.97239   2.97886   2.98060   2.98390   2.98637
 Alpha virt. eigenvalues --    2.98826   2.99122   2.99138   2.99520   2.99796
 Alpha virt. eigenvalues --    3.00096   3.00366   3.00624   3.00975   3.01095
 Alpha virt. eigenvalues --    3.01279   3.01454   3.01614   3.02384   3.03035
 Alpha virt. eigenvalues --    3.03612   3.04056   3.04385   3.04652   3.05021
 Alpha virt. eigenvalues --    3.05438   3.06387   3.06879   3.07082   3.07281
 Alpha virt. eigenvalues --    3.08195   3.08553   3.09146   3.09386   3.10180
 Alpha virt. eigenvalues --    3.10227   3.11443   3.11827   3.12252   3.12767
 Alpha virt. eigenvalues --    3.13298   3.14229   3.14309   3.15729   3.15910
 Alpha virt. eigenvalues --    3.17206   3.17404   3.18220   3.19230   3.19595
 Alpha virt. eigenvalues --    3.20449   3.21602   3.22519   3.22557   3.23141
 Alpha virt. eigenvalues --    3.28100   3.30689   3.37830   3.39646   3.41352
 Alpha virt. eigenvalues --    3.41892   3.43613   3.45921   3.49888   3.52533
 Alpha virt. eigenvalues --    3.56964   3.63011   3.63345   3.66237   3.67087
 Alpha virt. eigenvalues --    3.67745   3.71438
          Condensed to atoms (all electrons):
 Mulliken charges:
               1
     1  Mg   0.991783
     2  C   -0.086003
     3  C   -0.069885
     4  C   -0.045760
     5  C   -0.056770
     6  N   -0.286914
     7  C   -0.022627
     8  C   -0.081472
     9  C   -0.140924
    10  C    0.054119
    11  C    0.040440
    12  C    0.033546
    13  C    0.027912
    14  C    0.202756
    15  O   -0.238893
    16  O   -0.362091
    17  N   -0.527445
    18  C    0.176520
    19  C   -0.192534
    20  C   -0.064400
    21  C    0.163613
    22  C    0.055799
    23  C    0.058363
    24  O   -0.222873
    25  C   -0.048481
    26  N   -0.418856
    27  C    0.043917
    28  C   -0.115513
    29  C   -0.118457
    30  C    0.064838
    31  C    0.015033
    32  C   -0.002985
    33  C   -0.069973
    34  N   -0.441807
    35  C    0.121877
    36  C   -0.199401
    37  C   -0.057899
    38  C    0.191768
    39  C    0.068943
    40  C    0.132648
    41  O   -0.208615
    42  C   -0.056184
    43  C    0.262086
    44  O   -0.265489
    45  O   -0.356666
    46  C    0.111279
    47  C    0.260273
    48  C   -0.184695
    49  C   -0.231521
    50  C    0.020053
    51  C    0.039927
    52  C   -0.053044
    53  C    0.018414
    54  C   -0.240473
    55  C   -0.009363
    56  C    0.001092
    57  C   -0.047684
    58  C   -0.017646
    59  C   -0.238055
    60  C   -0.018708
    61  C    0.019835
    62  C   -0.033994
    63  C   -0.063446
    64  C   -0.232357
    65  C    0.017225
    66  C   -0.041808
    67  H    0.007297
    68  H    0.029529
    69  H    0.012405
    70  H    0.052223
    71  H    0.035748
    72  H    0.044138
    73  H    0.042869
    74  H    0.048587
    75  H    0.021760
    76  H    0.038605
    77  H    0.052000
    78  H    0.055522
    79  H    0.062954
    80  H    0.032013
    81  H    0.044555
    82  H    0.060300
    83  H    0.051035
    84  H    0.065474
    85  H    0.056187
    86  H    0.051428
    87  H    0.057058
    88  H    0.040488
    89  H    0.052987
    90  H    0.048390
    91  H    0.031392
    92  H    0.031445
    93  H    0.038296
    94  H    0.052603
    95  H    0.064877
    96  H    0.042802
    97  H    0.062761
    98  H    0.065235
    99  H    0.061540
   100  H    0.069186
   101  H    0.067099
   102  H    0.045507
   103  H    0.053116
   104  H    0.022215
   105  H    0.056219
   106  H    0.062081
   107  H    0.068856
   108  H    0.035915
   109  H    0.054700
   110  H    0.030480
   111  H    0.036712
   112  H    0.002827
   113  H    0.016252
   114  H    0.035100
   115  H    0.031226
   116  H    0.038484
   117  H    0.041940
   118  H    0.026529
   119  H    0.043811
   120  H    0.020809
   121  H    0.015993
   122  H    0.018293
   123  H    0.026616
   124  H    0.028714
   125  H    0.040332
   126  H    0.039457
   127  H    0.037644
   128  H    0.036645
   129  H    0.030917
   130  H    0.020901
   131  H    0.024726
   132  H    0.017064
   133  H    0.026155
   134  H    0.034907
   135  H    0.040888
   136  H    0.033551
   137  H    0.036154
   138  H    0.033797
   139  H    0.026970
   140  H    0.034358
 Sum of Mulliken charges =  -0.00000
 Mulliken charges with hydrogens summed into heavy atoms:
               1
     1  Mg   0.991783
     2  C   -0.086003
     3  C   -0.062588
     4  C   -0.016231
     5  C   -0.044365
     6  N   -0.286914
     7  C   -0.022627
     8  C   -0.029249
     9  C   -0.105175
    10  C    0.054119
    11  C    0.176035
    12  C    0.093912
    13  C    0.135434
    14  C    0.202756
    15  O   -0.238893
    16  O   -0.362091
    17  N   -0.527445
    18  C    0.176520
    19  C   -0.192534
    20  C   -0.064400
    21  C    0.163613
    22  C    0.195321
    23  C    0.058363
    24  O   -0.222873
    25  C    0.128328
    26  N   -0.418856
    27  C    0.043917
    28  C   -0.059326
    29  C   -0.067029
    30  C    0.064838
    31  C    0.165566
    32  C    0.076796
    33  C    0.052371
    34  N   -0.441807
    35  C    0.121877
    36  C   -0.199401
    37  C   -0.057899
    38  C    0.191768
    39  C    0.239383
    40  C    0.132648
    41  O   -0.208615
    42  C    0.009051
    43  C    0.262086
    44  O   -0.265489
    45  O   -0.356666
    46  C    0.309104
    47  C    0.358895
    48  C   -0.162480
    49  C   -0.231521
    50  C    0.207209
    51  C    0.130543
    52  C    0.014149
    53  C    0.037493
    54  C   -0.205373
    55  C    0.102287
    56  C    0.071431
    57  C   -0.010881
    58  C    0.027263
    59  C   -0.209341
    60  C    0.098725
    61  C    0.087397
    62  C    0.011634
    63  C   -0.020228
    64  C   -0.197450
    65  C    0.127818
    66  C    0.053317
 Electronic spatial extent (au):  <R**2>=         111254.6562
 Charge=             -0.0000 electrons
 Dipole moment (field-independent basis, Debye):
    X=             -5.9039    Y=              4.0386    Z=              2.0640  Tot=              7.4450
 Quadrupole moment (field-independent basis, Debye-Ang):
   XX=           -392.0415   YY=           -437.9165   ZZ=           -401.2922
   XY=             47.3446   XZ=             12.5734   YZ=              1.1769
 Traceless Quadrupole moment (field-independent basis, Debye-Ang):
   XX=             18.3753   YY=            -27.4998   ZZ=              9.1246
   XY=             47.3446   XZ=             12.5734   YZ=              1.1769
 Octapole moment (field-independent basis, Debye-Ang**2):
  XXX=             94.0886  YYY=            -60.1257  ZZZ=             22.8240  XYY=           -212.8595
  XXY=            339.2649  XXZ=             34.3165  XZZ=             14.5262  YZZ=            -23.9538
  YYZ=            -42.1249  XYZ=             -9.0204
 Hexadecapole moment (field-independent basis, Debye-Ang**3):
 XXXX=        -117285.8640 YYYY=         -32431.0056 ZZZZ=          -2250.1343 XXXY=           3252.5537
 XXXZ=            284.6128 YYYX=            501.2706 YYYZ=            315.6746 ZZZX=             95.6538
 ZZZY=              1.2674 XXYY=         -26064.6471 XXZZ=         -20667.4424 YYZZ=          -5362.3572
 XXYZ=             78.5791 YYXZ=            -65.1857 ZZXY=             48.5696
 N-N= 9.691776254490D+03 E-N=-2.637450297160D+04  KE= 2.975636003768D+03
 Leave Link  601 at Sat Apr 30 07:45:47 2022, MaxMem= 10066329600 cpu:              10.1 elap:               0.5
 (Enter /sw/apps/gaussian-16.0/g16/l9999.exe)
 1\1\GINC-BP1-COMPUTE161\SP\RPBE1PBE TD-FC\def2SVP\C55H74Mg1N4O6\OF1564
 1\30-Apr-2022\0\\#p PBE1PBE/Def2SVP td=(nstates=5)\\step_651_chromopho
 re_21 TDDFT with PBE1PBE functional\\0,1\Mg,0,15.971,52.358,25.297\C,0
 ,17.744,50.602,28.017\C,0,13.655,53.07,27.808\C,0,13.939,53.341,22.885
 \C,0,18.062,50.682,23.03\N,0,15.78,51.797,27.614\C,0,16.677,51.276,28.
 478\C,0,16.25,51.611,29.975\C,0,14.814,51.991,29.748\C,0,14.778,52.316
 ,28.264\C,0,13.804,50.865,30.032\C,0,17.16,52.681,30.644\C,0,17.325,52
 .636,32.135\C,0,16.496,51.732,33.078\O,0,16.936,50.88,33.812\O,0,15.19
 4,52.11,32.965\N,0,14.126,53.14,25.325\C,0,13.423,53.461,26.419\C,0,12
 .359,54.385,25.989\C,0,12.449,54.544,24.577\C,0,13.533,53.635,24.188\C
 ,0,11.517,55.15,26.975\C,0,11.65,55.307,23.546\O,0,11.983,55.511,22.40
 5\C,0,10.554,56.25,24.144\N,0,15.997,51.991,23.263\C,0,15.06,52.57,22.
 445\C,0,15.423,52.491,20.95\C,0,16.823,51.777,21.061\C,0,17.009,51.477
 ,22.562\C,0,14.292,51.826,20.032\C,0,18.013,52.588,20.534\C,0,18.512,5
 1.874,19.302\N,0,17.625,51.03,25.483\C,0,18.351,50.433,24.441\C,0,19.4
 78,49.715,25.024\C,0,19.293,49.764,26.404\C,0,18.035,50.507,26.623\C,0
 ,20.548,48.991,24.203\C,0,19.87,49.414,27.67\O,0,20.94,48.909,27.934\C
 ,0,18.916,49.917,28.802\C,0,18.444,48.763,29.586\O,0,18.081,47.718,29.
 057\O,0,18.531,48.928,30.929\C,0,18.052,47.807,31.728\C,0,14.409,51.55
 2,34.055\C,0,13.183,52.361,34.235\C,0,12.645,53.014,35.292\C,0,12.958,
 52.66,36.702\C,0,11.509,53.998,34.993\C,0,10.179,53.877,35.91\C,0,9.92
 1,55.161,36.69\C,0,9.437,56.282,35.808\C,0,10.29,57.511,35.985\C,0,7.9
 53,56.578,36.162\C,0,7.039,56.644,34.915\C,0,6.802,57.992,34.269\C,0,5
 .37,58.634,34.486\C,0,4.833,59.29,33.155\C,0,5.441,59.734,35.606\C,0,4
 .261,59.663,36.585\C,0,4.669,59.099,37.978\C,0,4.551,57.552,38.25\C,0,
 3.196,57.115,38.75\C,0,5.64,57.126,39.201\H,0,13.008,53.511,28.569\H,0
 ,13.367,53.733,22.042\H,0,18.767,50.307,22.285\H,0,16.459,50.674,30.49
 \H,0,14.495,52.88,30.294\H,0,12.994,51.234,30.661\H,0,14.334,50.007,30
 .445\H,0,13.327,50.549,29.105\H,0,16.833,53.695,30.415\H,0,18.147,52.6
 3,30.183\H,0,17.123,53.68,32.376\H,0,18.39,52.461,32.288\H,0,11.663,56
 .229,27.017\H,0,11.659,54.743,27.976\H,0,10.475,54.997,26.693\H,0,9.82
 6,55.643,24.683\H,0,10.147,56.826,23.314\H,0,11.086,56.978,24.756\H,0,
 15.572,53.506,20.581\H,0,16.777,50.757,20.682\H,0,13.488,51.613,20.737
 \H,0,14.755,50.924,19.631\H,0,13.965,52.451,19.201\H,0,18.784,52.786,2
 1.278\H,0,17.713,53.579,20.195\H,0,19.579,52.053,19.17\H,0,18.085,52.4
 96,18.515\H,0,18.329,50.803,19.216\H,0,21.445,49.606,24.124\H,0,20.025
 ,48.777,23.272\H,0,20.824,48.049,24.677\H,0,19.508,50.556,29.456\H,0,1
 7.623,48.24,32.632\H,0,18.919,47.201,31.992\H,0,17.241,47.294,31.211\H
 ,0,14.925,51.641,35.011\H,0,14.104,50.552,33.747\H,0,12.865,52.588,33.
 218\H,0,12.36,53.25,37.397\H,0,14.033,52.831,36.739\H,0,12.764,51.593,
 36.814\H,0,11.301,53.826,33.937\H,0,11.955,54.975,35.176\H,0,10.225,53
 .007,36.566\H,0,9.251,53.69,35.369\H,0,10.814,55.503,37.213\H,0,9.291,
 55.089,37.577\H,0,9.494,56.089,34.736\H,0,9.81,58.287,35.388\H,0,11.28
 9,57.402,35.562\H,0,10.284,57.719,37.055\H,0,7.963,57.6,36.541\H,0,7.4
 57,55.95,36.902\H,0,6.093,56.106,34.966\H,0,7.603,56.16,34.118\H,0,6.9
 55,57.908,33.193\H,0,7.517,58.649,34.765\H,0,4.649,57.851,34.725\H,0,4
 .881,58.531,32.374\H,0,5.461,60.164,32.98\H,0,3.8,59.577,33.35\H,0,5.5
 39,60.736,35.19\H,0,6.268,59.389,36.227\H,0,3.461,58.998,36.261\H,0,3.
 798,60.628,36.79\H,0,3.95,59.557,38.657\H,0,5.668,59.481,38.19\H,0,4.7
 26,57.124,37.263\H,0,2.768,56.574,37.905\H,0,2.608,57.99,39.024\H,0,3.
 339,56.486,39.629\H,0,5.774,56.061,39.387\H,0,5.275,57.541,40.141\H,0,
 6.653,57.501,39.054\\Version=ES64L-G16RevA.03\State=1-A\HF=-3005.35615
 8\RMSD=5.273e-09\PG=C01 [X(C55H74Mg1N4O6)]\\@


 IF YOU BELIEVE CERTAIN WORDS, YOU BELIEVE THEIR HIDDEN ARGUMENTS.
 WHEN YOU BELIEVE SOMETHING IS RIGHT OR WRONG, TRUE OR FALSE, 
 YOU BELIEVE THE ASSUMPTIONS IN THE WORDS WHICH EXPRESS THE ARGUMENTS.
 SUCH ASSUMPTIONS ARE OFTEN FULL OF HOLES, BUT REMAIN MOST PRECIOUS 
 TO THE CONVINCED.

                 -- THE OPEN-ENDED PROOF FROM THE PANOPLIA PROPHETICA
                    CHILDREN OF DUNE BY FRANK HERBERT
 Job cpu time:       0 days  7 hours 36 minutes  3.8 seconds.
 Elapsed time:       0 days  0 hours 19 minutes  4.0 seconds.
 File lengths (MBytes):  RWF=   8929 Int=      0 D2E=      0 Chk=    390 Scr=      1
 Normal termination of Gaussian 16 at Sat Apr 30 07:45:48 2022.
