 Entering Gaussian System, Link 0=g16
 Initial command:
 /sw/apps/gaussian-16.0/g16/l1.exe "/tmp/Gau-243645.inp" -scrdir="/tmp/"
 Entering Link 1 = /sw/apps/gaussian-16.0/g16/l1.exe PID=    243646.
  
 Copyright (c) 1988,1990,1992,1993,1995,1998,2003,2009,2016,
            Gaussian, Inc.  All Rights Reserved.
  
 This is part of the Gaussian(R) 16 program.  It is based on
 the Gaussian(R) 09 system (copyright 2009, Gaussian, Inc.),
 the Gaussian(R) 03 system (copyright 2003, Gaussian, Inc.),
 the Gaussian(R) 98 system (copyright 1998, Gaussian, Inc.),
 the Gaussian(R) 94 system (copyright 1995, Gaussian, Inc.),
 the Gaussian 92(TM) system (copyright 1992, Gaussian, Inc.),
 the Gaussian 90(TM) system (copyright 1990, Gaussian, Inc.),
 the Gaussian 88(TM) system (copyright 1988, Gaussian, Inc.),
 the Gaussian 86(TM) system (copyright 1986, Carnegie Mellon
 University), and the Gaussian 82(TM) system (copyright 1983,
 Carnegie Mellon University). Gaussian is a federally registered
 trademark of Gaussian, Inc.
  
 This software contains proprietary and confidential information,
 including trade secrets, belonging to Gaussian, Inc.
  
 This software is provided under written license and may be
 used, copied, transmitted, or stored only in accord with that
 written license.
  
 The following legend is applicable only to US Government
 contracts under FAR:
  
                    RESTRICTED RIGHTS LEGEND
  
 Use, reproduction and disclosure by the US Government is
 subject to restrictions as set forth in subparagraphs (a)
 and (c) of the Commercial Computer Software - Restricted
 Rights clause in FAR 52.227-19.
  
 Gaussian, Inc.
 340 Quinnipiac St., Bldg. 40, Wallingford CT 06492
  
  
 ---------------------------------------------------------------
 Warning -- This program may not be used in any manner that
 competes with the business of Gaussian, Inc. or will provide
 assistance to any competitor of Gaussian, Inc.  The licensee
 of this program is prohibited from giving any competitor of
 Gaussian, Inc. access to this program.  By using this program,
 the user acknowledges that Gaussian, Inc. is engaged in the
 business of creating and licensing software in the field of
 computational chemistry and represents and warrants to the
 licensee that it is not a competitor of Gaussian, Inc. and that
 it will not use this program in any manner prohibited above.
 ---------------------------------------------------------------
  

 Cite this work as:
 Gaussian 16, Revision A.03,
 M. J. Frisch, G. W. Trucks, H. B. Schlegel, G. E. Scuseria, 
 M. A. Robb, J. R. Cheeseman, G. Scalmani, V. Barone, 
 G. A. Petersson, H. Nakatsuji, X. Li, M. Caricato, A. V. Marenich, 
 J. Bloino, B. G. Janesko, R. Gomperts, B. Mennucci, H. P. Hratchian, 
 J. V. Ortiz, A. F. Izmaylov, J. L. Sonnenberg, D. Williams-Young, 
 F. Ding, F. Lipparini, F. Egidi, J. Goings, B. Peng, A. Petrone, 
 T. Henderson, D. Ranasinghe, V. G. Zakrzewski, J. Gao, N. Rega, 
 G. Zheng, W. Liang, M. Hada, M. Ehara, K. Toyota, R. Fukuda, 
 J. Hasegawa, M. Ishida, T. Nakajima, Y. Honda, O. Kitao, H. Nakai, 
 T. Vreven, K. Throssell, J. A. Montgomery, Jr., J. E. Peralta, 
 F. Ogliaro, M. J. Bearpark, J. J. Heyd, E. N. Brothers, K. N. Kudin, 
 V. N. Staroverov, T. A. Keith, R. Kobayashi, J. Normand, 
 K. Raghavachari, A. P. Rendell, J. C. Burant, S. S. Iyengar, 
 J. Tomasi, M. Cossi, J. M. Millam, M. Klene, C. Adamo, R. Cammi, 
 J. W. Ochterski, R. L. Martin, K. Morokuma, O. Farkas, 
 J. B. Foresman, and D. J. Fox, Gaussian, Inc., Wallingford CT, 2016.
 
 ******************************************
 Gaussian 16:  ES64L-G16RevA.03 25-Dec-2016
                 5-May-2022 
 ******************************************
 %nproc=24
 Will use up to   24 processors via shared memory.
 %mem=50gb
 --------------------
 #p ZINDO=(nstates=5)
 --------------------
 1/38=1,172=1/1;
 2/12=2,17=6,18=5,40=1/2;
 3/5=2,25=1,41=400000/1,2,3,8;
 4/5=3,35=1/1;
 5/5=2,35=1,38=5/2;
 8/6=1,108=5/1;
 9/41=5,42=1,49=10/14;
 6/7=2,8=2,9=2,10=2/1;
 99/5=1,9=1/99;
 Leave Link    1 at Thu May  5 07:26:21 2022, MaxMem=  6710886400 cpu:               0.8 elap:               0.0
 (Enter /sw/apps/gaussian-16.0/g16/l101.exe)
 ----------------------------
 step_701_chromophore_2 ZINDO
 ----------------------------
 Symbolic Z-matrix:
 Charge =  0 Multiplicity = 1
 Mg                    2.721     0.153     44.702 
 C                     5.631     2.199     43.967 
 C                     0.846     2.243     42.808 
 C                     0.304    -2.053     45.006 
 C                     5.038    -2.285     45.924 
 N                     3.221     1.914     43.391 
 C                     4.4       2.598     43.285 
 C                     4.303     3.776     42.303 
 C                     2.769     4.052     42.302 
 C                     2.229     2.659     42.857 
 C                     2.441     5.344     43.149 
 C                     4.985     3.432     40.923 
 C                     6.163     4.28      40.377 
 C                     6.365     4.398     38.877 
 O                     6.848     5.377     38.257 
 O                     5.976     3.272     38.262 
 N                     0.829     0.166     44.076 
 C                     0.158     1.132     43.378 
 C                    -1.266     0.732     43.356 
 C                    -1.502    -0.352     44.124 
 C                    -0.053    -0.809     44.442 
 C                    -2.207     1.628     42.563 
 C                    -2.847    -0.958     44.578 
 O                    -3.901    -0.444     44.203 
 C                    -2.973    -2.132     45.5 
 N                     2.741    -1.888     45.278 
 C                     1.54     -2.561     45.378 
 C                     1.767    -4.04      45.831 
 C                     3.28     -4.069     46.141 
 C                     3.704    -2.642     45.767 
 C                     0.788    -4.557     46.971 
 C                     4.088    -5.182     45.412 
 C                     4.993    -5.98      46.403 
 N                     4.881    -0.037     44.992 
 C                     5.585    -1.029     45.643 
 C                     6.987    -0.552     45.869 
 C                     7.034     0.742     45.221 
 C                     5.73      0.977     44.753 
 C                     8.062    -1.353     46.527 
 C                     7.875     1.928     44.976 
 O                     9.038     2.187     45.35 
 C                     7.012     2.872     44.086 
 C                     7.011     4.223     44.71 
 O                     7.879     5.035     44.539 
 O                     5.785     4.438     45.412 
 C                     5.605     5.87      45.83 
 C                     5.905     3.343     36.821 
 C                     4.941     2.328     36.217 
 C                     5.225     1.232     35.452 
 C                     6.556     0.816     34.889 
 C                     4.        0.458     34.919 
 C                     3.566     0.823     33.446 
 C                     2.118     0.577     33.198 
 C                     1.405     1.851     32.676 
 C                     0.865     2.76      33.78 
 C                     0.316     1.432     31.635 
 C                     0.088     2.513     30.554 
 C                    -1.442     2.736     30.33 
 C                    -1.583     3.973     29.427 
 C                    -2.695     4.979     29.993 
 C                    -2.005     3.458     28.064 
 C                    -1.82      4.52      26.947 
 C                    -1.003     4.128     25.683 
 C                    -1.867     3.898     24.435 
 C                    -2.09      2.422     24.081 
 C                    -1.2       4.776     23.323 
 H                     0.267     2.932     42.189 
 H                    -0.518    -2.772     44.989 
 H                     5.723    -3.013     46.362 
 H                     4.862     4.595     42.754 
 H                     2.476     4.12      41.254 
 H                     1.586     5.176     43.804 
 H                     2.139     6.078     42.402 
 H                     3.305     5.771     43.657 
 H                     4.288     3.398     40.085 
 H                     5.342     2.402     40.95 
 H                     7.076     3.832     40.768 
 H                     6.106     5.292     40.778 
 H                    -3.245     1.327     42.703 
 H                    -1.905     1.729     41.521 
 H                    -2.109     2.618     43.007 
 H                    -2.174    -2.09      46.241 
 H                    -2.755    -2.967     44.834 
 H                    -4.013    -2.239     45.807 
 H                     1.65     -4.652     44.936 
 H                     3.474    -4.103     47.213 
 H                     0.167    -3.79      47.433 
 H                     1.434    -5.075     47.68 
 H                     0.077    -5.238     46.502 
 H                     4.769    -4.656     44.742 
 H                     3.378    -5.759     44.82 
 H                     4.309    -6.335     47.174 
 H                     5.731    -5.342     46.887 
 H                     5.417    -6.82      45.853 
 H                     7.924    -1.711     47.548 
 H                     8.857    -0.609     46.578 
 H                     8.373    -2.258     46.007 
 H                     7.42      3.037     43.089 
 H                     6.529     6.448     45.847 
 H                     5.142     5.927     46.815 
 H                     5.        6.324     45.045 
 H                     6.899     3.237     36.386 
 H                     5.827     4.324     36.353 
 H                     3.876     2.373     36.447 
 H                     6.909    -0.173     35.18 
 H                     7.334     1.537     35.14 
 H                     6.589     0.798     33.8 
 H                     3.142     0.584     35.58 
 H                     4.218    -0.602     35.046 
 H                     4.095     0.115     32.808 
 H                     3.861     1.832     33.156 
 H                     1.613     0.27      34.114 
 H                     2.004    -0.317     32.585 
 H                     2.09      2.523     32.158 
 H                    -0.225     2.785     33.777 
 H                     1.343     3.739     33.761 
 H                     1.11      2.41      34.783 
 H                    -0.653     1.09      31.999 
 H                     0.753     0.55      31.167 
 H                     0.617     2.114     29.689 
 H                     0.536     3.453     30.876 
 H                    -2.176     2.655     31.132 
 H                    -1.591     1.79      29.81 
 H                    -0.684     4.585     29.362 
 H                    -2.237     5.936     30.24 
 H                    -3.32      4.607     30.805 
 H                    -3.454     5.385     29.324 
 H                    -3.        3.019     27.992 
 H                    -1.239     2.723     27.818 
 H                    -1.431     5.415     27.433 
 H                    -2.844     4.779     26.678 
 H                    -0.599     3.148     25.936 
 H                    -0.253     4.909     25.557 
 H                    -2.859     4.322     24.587 
 H                    -1.14      2.073     23.675 
 H                    -2.717     2.514     23.194 
 H                    -2.572     1.819     24.85 
 H                    -1.548     4.471     22.336 
 H                    -0.15      4.497     23.416 
 H                    -1.337     5.852     23.433 
 
 ITRead=  0  0  0  0  0  0  0  0  0  0  0  0  0  0  0  0  0  0  0  0
 ITRead=  0  0  0  0  0  0  0  0  0  0  0  0  0  0  0  0  0  0  0  0
 ITRead=  0  0  0  0  0  0  0  0  0  0  0  0  0  0  0  0  0  0  0  0
 ITRead=  0  0  0  0  0  0  0  0  0  0  0  0  0  0  0  0  0  0  0  0
 ITRead=  0  0  0  0  0  0  0  0  0  0  0  0  0  0  0  0  0  0  0  0
 ITRead=  0  0  0  0  0  0  0  0  0  0  0  0  0  0  0  0  0  0  0  0
 ITRead=  0  0  0  0  0  0  0  0  0  0  0  0  0  0  0  0  0  0  0  0
 MicOpt= -1 -1 -1 -1 -1 -1 -1 -1 -1 -1 -1 -1 -1 -1 -1 -1 -1 -1 -1 -1
 MicOpt= -1 -1 -1 -1 -1 -1 -1 -1 -1 -1 -1 -1 -1 -1 -1 -1 -1 -1 -1 -1
 MicOpt= -1 -1 -1 -1 -1 -1 -1 -1 -1 -1 -1 -1 -1 -1 -1 -1 -1 -1 -1 -1
 MicOpt= -1 -1 -1 -1 -1 -1 -1 -1 -1 -1 -1 -1 -1 -1 -1 -1 -1 -1 -1 -1
 MicOpt= -1 -1 -1 -1 -1 -1 -1 -1 -1 -1 -1 -1 -1 -1 -1 -1 -1 -1 -1 -1
 MicOpt= -1 -1 -1 -1 -1 -1 -1 -1 -1 -1 -1 -1 -1 -1 -1 -1 -1 -1 -1 -1
 MicOpt= -1 -1 -1 -1 -1 -1 -1 -1 -1 -1 -1 -1 -1 -1 -1 -1 -1 -1 -1 -1
 NAtoms=    140 NQM=      140 NQMF=       0 NMMI=      0 NMMIF=      0
                NMic=       0 NMicF=      0.
                    Isotopes and Nuclear Properties:
 (Nuclear quadrupole moments (NQMom) in fm**2, nuclear magnetic moments (NMagM)
  in nuclear magnetons)

  Atom         1           2           3           4           5           6           7           8           9          10
 IAtWgt=          24          12          12          12          12          14          12          12          12          12
 AtmWgt=  23.9850450  12.0000000  12.0000000  12.0000000  12.0000000  14.0030740  12.0000000  12.0000000  12.0000000  12.0000000
 NucSpn=           0           0           0           0           0           2           0           0           0           0
 AtZEff=  -0.0000000  -0.0000000  -0.0000000  -0.0000000  -0.0000000  -0.0000000  -0.0000000  -0.0000000  -0.0000000  -0.0000000
 NQMom=    0.0000000   0.0000000   0.0000000   0.0000000   0.0000000   2.0440000   0.0000000   0.0000000   0.0000000   0.0000000
 NMagM=    0.0000000   0.0000000   0.0000000   0.0000000   0.0000000   0.4037610   0.0000000   0.0000000   0.0000000   0.0000000
 AtZNuc=  12.0000000   6.0000000   6.0000000   6.0000000   6.0000000   7.0000000   6.0000000   6.0000000   6.0000000   6.0000000

  Atom        11          12          13          14          15          16          17          18          19          20
 IAtWgt=          12          12          12          12          16          16          14          12          12          12
 AtmWgt=  12.0000000  12.0000000  12.0000000  12.0000000  15.9949146  15.9949146  14.0030740  12.0000000  12.0000000  12.0000000
 NucSpn=           0           0           0           0           0           0           2           0           0           0
 AtZEff=  -0.0000000  -0.0000000  -0.0000000  -0.0000000  -0.0000000  -0.0000000  -0.0000000  -0.0000000  -0.0000000  -0.0000000
 NQMom=    0.0000000   0.0000000   0.0000000   0.0000000   0.0000000   0.0000000   2.0440000   0.0000000   0.0000000   0.0000000
 NMagM=    0.0000000   0.0000000   0.0000000   0.0000000   0.0000000   0.0000000   0.4037610   0.0000000   0.0000000   0.0000000
 AtZNuc=   6.0000000   6.0000000   6.0000000   6.0000000   8.0000000   8.0000000   7.0000000   6.0000000   6.0000000   6.0000000

  Atom        21          22          23          24          25          26          27          28          29          30
 IAtWgt=          12          12          12          16          12          14          12          12          12          12
 AtmWgt=  12.0000000  12.0000000  12.0000000  15.9949146  12.0000000  14.0030740  12.0000000  12.0000000  12.0000000  12.0000000
 NucSpn=           0           0           0           0           0           2           0           0           0           0
 AtZEff=  -0.0000000  -0.0000000  -0.0000000  -0.0000000  -0.0000000  -0.0000000  -0.0000000  -0.0000000  -0.0000000  -0.0000000
 NQMom=    0.0000000   0.0000000   0.0000000   0.0000000   0.0000000   2.0440000   0.0000000   0.0000000   0.0000000   0.0000000
 NMagM=    0.0000000   0.0000000   0.0000000   0.0000000   0.0000000   0.4037610   0.0000000   0.0000000   0.0000000   0.0000000
 AtZNuc=   6.0000000   6.0000000   6.0000000   8.0000000   6.0000000   7.0000000   6.0000000   6.0000000   6.0000000   6.0000000

  Atom        31          32          33          34          35          36          37          38          39          40
 IAtWgt=          12          12          12          14          12          12          12          12          12          12
 AtmWgt=  12.0000000  12.0000000  12.0000000  14.0030740  12.0000000  12.0000000  12.0000000  12.0000000  12.0000000  12.0000000
 NucSpn=           0           0           0           2           0           0           0           0           0           0
 AtZEff=  -0.0000000  -0.0000000  -0.0000000  -0.0000000  -0.0000000  -0.0000000  -0.0000000  -0.0000000  -0.0000000  -0.0000000
 NQMom=    0.0000000   0.0000000   0.0000000   2.0440000   0.0000000   0.0000000   0.0000000   0.0000000   0.0000000   0.0000000
 NMagM=    0.0000000   0.0000000   0.0000000   0.4037610   0.0000000   0.0000000   0.0000000   0.0000000   0.0000000   0.0000000
 AtZNuc=   6.0000000   6.0000000   6.0000000   7.0000000   6.0000000   6.0000000   6.0000000   6.0000000   6.0000000   6.0000000

  Atom        41          42          43          44          45          46          47          48          49          50
 IAtWgt=          16          12          12          16          16          12          12          12          12          12
 AtmWgt=  15.9949146  12.0000000  12.0000000  15.9949146  15.9949146  12.0000000  12.0000000  12.0000000  12.0000000  12.0000000
 NucSpn=           0           0           0           0           0           0           0           0           0           0
 AtZEff=  -0.0000000  -0.0000000  -0.0000000  -0.0000000  -0.0000000  -0.0000000  -0.0000000  -0.0000000  -0.0000000  -0.0000000
 NQMom=    0.0000000   0.0000000   0.0000000   0.0000000   0.0000000   0.0000000   0.0000000   0.0000000   0.0000000   0.0000000
 NMagM=    0.0000000   0.0000000   0.0000000   0.0000000   0.0000000   0.0000000   0.0000000   0.0000000   0.0000000   0.0000000
 AtZNuc=   8.0000000   6.0000000   6.0000000   8.0000000   8.0000000   6.0000000   6.0000000   6.0000000   6.0000000   6.0000000

  Atom        51          52          53          54          55          56          57          58          59          60
 IAtWgt=          12          12          12          12          12          12          12          12          12          12
 AtmWgt=  12.0000000  12.0000000  12.0000000  12.0000000  12.0000000  12.0000000  12.0000000  12.0000000  12.0000000  12.0000000
 NucSpn=           0           0           0           0           0           0           0           0           0           0
 AtZEff=  -0.0000000  -0.0000000  -0.0000000  -0.0000000  -0.0000000  -0.0000000  -0.0000000  -0.0000000  -0.0000000  -0.0000000
 NQMom=    0.0000000   0.0000000   0.0000000   0.0000000   0.0000000   0.0000000   0.0000000   0.0000000   0.0000000   0.0000000
 NMagM=    0.0000000   0.0000000   0.0000000   0.0000000   0.0000000   0.0000000   0.0000000   0.0000000   0.0000000   0.0000000
 AtZNuc=   6.0000000   6.0000000   6.0000000   6.0000000   6.0000000   6.0000000   6.0000000   6.0000000   6.0000000   6.0000000

  Atom        61          62          63          64          65          66          67          68          69          70
 IAtWgt=          12          12          12          12          12          12           1           1           1           1
 AtmWgt=  12.0000000  12.0000000  12.0000000  12.0000000  12.0000000  12.0000000   1.0078250   1.0078250   1.0078250   1.0078250
 NucSpn=           0           0           0           0           0           0           1           1           1           1
 AtZEff=  -0.0000000  -0.0000000  -0.0000000  -0.0000000  -0.0000000  -0.0000000  -0.0000000  -0.0000000  -0.0000000  -0.0000000
 NQMom=    0.0000000   0.0000000   0.0000000   0.0000000   0.0000000   0.0000000   0.0000000   0.0000000   0.0000000   0.0000000
 NMagM=    0.0000000   0.0000000   0.0000000   0.0000000   0.0000000   0.0000000   2.7928460   2.7928460   2.7928460   2.7928460
 AtZNuc=   6.0000000   6.0000000   6.0000000   6.0000000   6.0000000   6.0000000   1.0000000   1.0000000   1.0000000   1.0000000

  Atom        71          72          73          74          75          76          77          78          79          80
 IAtWgt=           1           1           1           1           1           1           1           1           1           1
 AtmWgt=   1.0078250   1.0078250   1.0078250   1.0078250   1.0078250   1.0078250   1.0078250   1.0078250   1.0078250   1.0078250
 NucSpn=           1           1           1           1           1           1           1           1           1           1
 AtZEff=  -0.0000000  -0.0000000  -0.0000000  -0.0000000  -0.0000000  -0.0000000  -0.0000000  -0.0000000  -0.0000000  -0.0000000
 NQMom=    0.0000000   0.0000000   0.0000000   0.0000000   0.0000000   0.0000000   0.0000000   0.0000000   0.0000000   0.0000000
 NMagM=    2.7928460   2.7928460   2.7928460   2.7928460   2.7928460   2.7928460   2.7928460   2.7928460   2.7928460   2.7928460
 AtZNuc=   1.0000000   1.0000000   1.0000000   1.0000000   1.0000000   1.0000000   1.0000000   1.0000000   1.0000000   1.0000000

  Atom        81          82          83          84          85          86          87          88          89          90
 IAtWgt=           1           1           1           1           1           1           1           1           1           1
 AtmWgt=   1.0078250   1.0078250   1.0078250   1.0078250   1.0078250   1.0078250   1.0078250   1.0078250   1.0078250   1.0078250
 NucSpn=           1           1           1           1           1           1           1           1           1           1
 AtZEff=  -0.0000000  -0.0000000  -0.0000000  -0.0000000  -0.0000000  -0.0000000  -0.0000000  -0.0000000  -0.0000000  -0.0000000
 NQMom=    0.0000000   0.0000000   0.0000000   0.0000000   0.0000000   0.0000000   0.0000000   0.0000000   0.0000000   0.0000000
 NMagM=    2.7928460   2.7928460   2.7928460   2.7928460   2.7928460   2.7928460   2.7928460   2.7928460   2.7928460   2.7928460
 AtZNuc=   1.0000000   1.0000000   1.0000000   1.0000000   1.0000000   1.0000000   1.0000000   1.0000000   1.0000000   1.0000000

  Atom        91          92          93          94          95          96          97          98          99         100
 IAtWgt=           1           1           1           1           1           1           1           1           1           1
 AtmWgt=   1.0078250   1.0078250   1.0078250   1.0078250   1.0078250   1.0078250   1.0078250   1.0078250   1.0078250   1.0078250
 NucSpn=           1           1           1           1           1           1           1           1           1           1
 AtZEff=  -0.0000000  -0.0000000  -0.0000000  -0.0000000  -0.0000000  -0.0000000  -0.0000000  -0.0000000  -0.0000000  -0.0000000
 NQMom=    0.0000000   0.0000000   0.0000000   0.0000000   0.0000000   0.0000000   0.0000000   0.0000000   0.0000000   0.0000000
 NMagM=    2.7928460   2.7928460   2.7928460   2.7928460   2.7928460   2.7928460   2.7928460   2.7928460   2.7928460   2.7928460
 AtZNuc=   1.0000000   1.0000000   1.0000000   1.0000000   1.0000000   1.0000000   1.0000000   1.0000000   1.0000000   1.0000000

  Atom       101         102         103         104         105         106         107         108         109         110
 IAtWgt=           1           1           1           1           1           1           1           1           1           1
 AtmWgt=   1.0078250   1.0078250   1.0078250   1.0078250   1.0078250   1.0078250   1.0078250   1.0078250   1.0078250   1.0078250
 NucSpn=           1           1           1           1           1           1           1           1           1           1
 AtZEff=  -0.0000000  -0.0000000  -0.0000000  -0.0000000  -0.0000000  -0.0000000  -0.0000000  -0.0000000  -0.0000000  -0.0000000
 NQMom=    0.0000000   0.0000000   0.0000000   0.0000000   0.0000000   0.0000000   0.0000000   0.0000000   0.0000000   0.0000000
 NMagM=    2.7928460   2.7928460   2.7928460   2.7928460   2.7928460   2.7928460   2.7928460   2.7928460   2.7928460   2.7928460
 AtZNuc=   1.0000000   1.0000000   1.0000000   1.0000000   1.0000000   1.0000000   1.0000000   1.0000000   1.0000000   1.0000000

  Atom       111         112         113         114         115         116         117         118         119         120
 IAtWgt=           1           1           1           1           1           1           1           1           1           1
 AtmWgt=   1.0078250   1.0078250   1.0078250   1.0078250   1.0078250   1.0078250   1.0078250   1.0078250   1.0078250   1.0078250
 NucSpn=           1           1           1           1           1           1           1           1           1           1
 AtZEff=  -0.0000000  -0.0000000  -0.0000000  -0.0000000  -0.0000000  -0.0000000  -0.0000000  -0.0000000  -0.0000000  -0.0000000
 NQMom=    0.0000000   0.0000000   0.0000000   0.0000000   0.0000000   0.0000000   0.0000000   0.0000000   0.0000000   0.0000000
 NMagM=    2.7928460   2.7928460   2.7928460   2.7928460   2.7928460   2.7928460   2.7928460   2.7928460   2.7928460   2.7928460
 AtZNuc=   1.0000000   1.0000000   1.0000000   1.0000000   1.0000000   1.0000000   1.0000000   1.0000000   1.0000000   1.0000000

  Atom       121         122         123         124         125         126         127         128         129         130
 IAtWgt=           1           1           1           1           1           1           1           1           1           1
 AtmWgt=   1.0078250   1.0078250   1.0078250   1.0078250   1.0078250   1.0078250   1.0078250   1.0078250   1.0078250   1.0078250
 NucSpn=           1           1           1           1           1           1           1           1           1           1
 AtZEff=  -0.0000000  -0.0000000  -0.0000000  -0.0000000  -0.0000000  -0.0000000  -0.0000000  -0.0000000  -0.0000000  -0.0000000
 NQMom=    0.0000000   0.0000000   0.0000000   0.0000000   0.0000000   0.0000000   0.0000000   0.0000000   0.0000000   0.0000000
 NMagM=    2.7928460   2.7928460   2.7928460   2.7928460   2.7928460   2.7928460   2.7928460   2.7928460   2.7928460   2.7928460
 AtZNuc=   1.0000000   1.0000000   1.0000000   1.0000000   1.0000000   1.0000000   1.0000000   1.0000000   1.0000000   1.0000000

  Atom       131         132         133         134         135         136         137         138         139         140
 IAtWgt=           1           1           1           1           1           1           1           1           1           1
 AtmWgt=   1.0078250   1.0078250   1.0078250   1.0078250   1.0078250   1.0078250   1.0078250   1.0078250   1.0078250   1.0078250
 NucSpn=           1           1           1           1           1           1           1           1           1           1
 AtZEff=  -0.0000000  -0.0000000  -0.0000000  -0.0000000  -0.0000000  -0.0000000  -0.0000000  -0.0000000  -0.0000000  -0.0000000
 NQMom=    0.0000000   0.0000000   0.0000000   0.0000000   0.0000000   0.0000000   0.0000000   0.0000000   0.0000000   0.0000000
 NMagM=    2.7928460   2.7928460   2.7928460   2.7928460   2.7928460   2.7928460   2.7928460   2.7928460   2.7928460   2.7928460
 AtZNuc=   1.0000000   1.0000000   1.0000000   1.0000000   1.0000000   1.0000000   1.0000000   1.0000000   1.0000000   1.0000000
 Leave Link  101 at Thu May  5 07:26:21 2022, MaxMem=  6710886400 cpu:               3.3 elap:               0.2
 (Enter /sw/apps/gaussian-16.0/g16/l202.exe)
 Stoichiometry    C55H74MgN4O6
 Framework group  C1[X(C55H74MgN4O6)]
 Deg. of freedom   414
 Full point group                 C1      NOp   1
 Largest Abelian subgroup         C1      NOp   1
 Largest concise Abelian subgroup C1      NOp   1
                         Standard orientation:                         
 ---------------------------------------------------------------------
 Center     Atomic      Atomic             Coordinates (Angstroms)
 Number     Number       Type             X           Y           Z
 ---------------------------------------------------------------------
      1         12           0        4.950403    1.109629   -0.465034
      2          6           0        4.549016   -2.500178   -0.516300
      3          6           0        2.268564    1.378236   -2.516022
      4          6           0        5.096910    4.346177    0.086357
      5          6           0        7.174898    0.585997    2.288700
      6          7           0        3.470575   -0.382463   -1.273499
      7          6           0        3.519337   -1.748160   -1.233180
      8          6           0        2.324117   -2.394496   -1.950896
      9          6           0        1.890673   -1.252572   -2.919126
     10          6           0        2.569016   -0.000302   -2.203762
     11          6           0        2.348833   -1.577974   -4.395086
     12          6           0        1.253833   -2.925904   -0.921354
     13          6           0        0.851843   -4.423186   -0.883227
     14          6           0       -0.544284   -4.809535   -0.429035
     15          8           0       -1.213569   -5.800163   -0.812237
     16          8           0       -0.992295   -3.946253    0.493707
     17          7           0        3.890652    2.628307   -1.201413
     18          6           0        2.867191    2.606269   -2.108409
     19          6           0        2.579005    4.013508   -2.461801
     20          6           0        3.470566    4.867666   -1.917643
     21          6           0        4.220588    3.926029   -0.937663
     22          6           0        1.413630    4.245869   -3.413146
     23          6           0        3.694956    6.367001   -2.207506
     24          8           0        2.976101    6.940543   -3.026062
     25          6           0        4.777827    7.192435   -1.582777
     26          7           0        5.918404    2.238493    1.047083
     27          6           0        5.856314    3.616205    0.988903
     28          6           0        6.643611    4.259319    2.176652
     29          6           0        7.314249    3.035221    2.838421
     30          6           0        6.772048    1.880878    1.984318
     31          6           0        7.589649    5.474069    1.783298
     32          6           0        7.049001    2.874096    4.363792
     33          6           0        8.373157    2.640111    5.157372
     34          7           0        5.793618   -0.574457    0.647911
     35          6           0        6.785943   -0.571124    1.606431
     36          6           0        7.246323   -1.979956    1.824265
     37          6           0        6.379220   -2.774803    0.979932
     38          6           0        5.567975   -1.852192    0.297776
     39          6           0        8.297191   -2.389331    2.803182
     40          6           0        6.110768   -4.138003    0.486454
     41          8           0        6.697377   -5.214776    0.723048
     42          6           0        4.862778   -4.006683   -0.437278
     43          6           0        5.177710   -4.661128   -1.736162
     44          8           0        5.062462   -5.840313   -1.931733
     45          8           0        5.498468   -3.673451   -2.717852
     46          6           0        5.557735   -4.241733   -4.107561
     47          6           0       -2.389830   -4.072138    0.836654
     48          6           0       -2.991075   -2.783671    1.386831
     49          6           0       -3.422378   -2.517238    2.655723
     50          6           0       -3.544577   -3.471880    3.811280
     51          6           0       -4.069590   -1.130489    2.860255
     52          6           0       -5.646545   -1.111162    2.795831
     53          6           0       -6.186274    0.211084    2.372649
     54          6           0       -7.116202    0.078405    1.139134
     55          6           0       -6.388166    0.161395   -0.202422
     56          6           0       -8.284067    1.109794    1.271386
     57          6           0       -9.585395    0.615024    0.599928
     58          6           0      -10.218358    1.758940   -0.255420
     59          6           0      -11.361558    1.126265   -1.066759
     60          6           0      -11.303438    1.583084   -2.601971
     61          6           0      -12.651432    1.615292   -0.435763
     62          6           0      -13.881741    0.779918   -0.881012
     63          6           0      -14.799185    0.172522    0.218178
     64          6           0      -16.146696    0.893006    0.366557
     65          6           0      -16.235116    1.829902    1.578179
     66          6           0      -17.216485   -0.248904    0.304028
     67          1           0        1.399151    1.434466   -3.174870
     68          1           0        5.026259    5.417922    0.284610
     69          1           0        7.906740    0.442905    3.085559
     70          1           0        2.721144   -3.253994   -2.489670
     71          1           0        0.811767   -1.150027   -2.799870
     72          1           0        2.794298   -0.702949   -4.868547
     73          1           0        1.416826   -1.791579   -4.918254
     74          1           0        2.954786   -2.479210   -4.481593
     75          1           0        0.295747   -2.408056   -0.977159
     76          1           0        1.577501   -2.674746    0.089209
     77          1           0        1.537801   -4.911748   -0.191907
     78          1           0        1.011013   -4.872958   -1.863311
     79          1           0        1.353362    5.292668   -3.710170
     80          1           0        0.479533    3.831502   -3.035081
     81          1           0        1.656047    3.681977   -4.313201
     82          1           0        5.667358    6.574676   -1.454895
     83          1           0        4.370808    7.385521   -0.590124
     84          1           0        4.835673    8.154753   -2.090611
     85          1           0        5.891858    4.591691    2.893348
     86          1           0        8.384679    3.000221    2.636107
     87          1           0        7.718441    5.634897    0.713289
     88          1           0        8.525823    5.279729    2.306874
     89          1           0        7.110089    6.385971    2.140650
     90          1           0        6.473478    1.953142    4.463568
     91          1           0        6.431861    3.717178    4.673379
     92          1           0        9.008704    3.482901    4.885148
     93          1           0        8.882342    1.729952    4.843865
     94          1           0        8.127596    2.674657    6.218684
     95          1           0        9.304130   -1.978096    2.721884
     96          1           0        8.388333   -3.448213    2.561059
     97          1           0        8.065644   -2.222153    3.854174
     98          1           0        3.984231   -4.539578   -0.074130
     99          1           0        5.682216   -5.324118   -4.140665
    100          1           0        6.366043   -3.782046   -4.676040
    101          1           0        4.572671   -4.055564   -4.535763
    102          1           0       -2.536715   -4.895528    1.535903
    103          1           0       -3.053010   -4.576858    0.134572
    104          1           0       -3.043401   -1.889164    0.765325
    105          1           0       -2.980082   -3.212122    4.706424
    106          1           0       -3.263364   -4.483727    3.519371
    107          1           0       -4.564836   -3.601680    4.171221
    108          1           0       -3.679275   -0.408851    2.142025
    109          1           0       -3.679099   -0.736310    3.798014
    110          1           0       -5.976746   -1.244142    3.826090
    111          1           0       -6.055316   -1.925958    2.197316
    112          1           0       -5.379242    0.892779    2.103724
    113          1           0       -6.612397    0.719983    3.237196
    114          1           0       -7.576542   -0.908055    1.074965
    115          1           0       -6.663344    1.063667   -0.749155
    116          1           0       -6.489118   -0.763412   -0.769719
    117          1           0       -5.306025    0.244704   -0.099639
    118          1           0       -8.106756    2.143410    0.973695
    119          1           0       -8.440146    1.164185    2.348696
    120          1           0      -10.193887    0.294261    1.444981
    121          1           0       -9.362568   -0.228849   -0.052923
    122          1           0       -9.621703    2.501047   -0.786270
    123          1           0      -10.554296    2.334468    0.606804
    124          1           0      -11.327867    0.038378   -1.115094
    125          1           0      -11.152711    0.714068   -3.241278
    126          1           0      -10.611097    2.389553   -2.844094
    127          1           0      -12.206512    1.936103   -3.100281
    128          1           0      -12.873857    2.677695   -0.534547
    129          1           0      -12.546517    1.337735    0.612785
    130          1           0      -13.508759    0.026392   -1.575004
    131          1           0      -14.440658    1.474880   -1.507636
    132          1           0      -14.260039    0.380740    1.142078
    133          1           0      -14.894379   -0.886394   -0.022595
    134          1           0      -16.332523    1.516399   -0.507396
    135          1           0      -16.315630    1.175828    2.446996
    136          1           0      -17.248235    2.216825    1.467535
    137          1           0      -15.501245    2.634787    1.607960
    138          1           0      -18.174817    0.104693    0.684644
    139          1           0      -16.813898   -0.973110    1.012857
    140          1           0      -17.365788   -0.695364   -0.679348
 ---------------------------------------------------------------------
 Rotational constants (GHZ):           0.0366491           0.0100677           0.0090152
 Leave Link  202 at Thu May  5 07:26:21 2022, MaxMem=  6710886400 cpu:               0.2 elap:               0.0
 (Enter /sw/apps/gaussian-16.0/g16/l301.exe)
 Standard basis: VSTO-6G (5D, 7F)
 Ernie: Thresh=  0.10000D-02 Tol=  0.10000D-05 Strict=F.
 There are   338 symmetry adapted cartesian basis functions of A   symmetry.
 There are   338 symmetry adapted basis functions of A   symmetry.
   338 basis functions,  2028 primitive gaussians,   338 cartesian basis functions
   176 alpha electrons      176 beta electrons
       nuclear repulsion energy      4750.5756129140 Hartrees.
 IExCor=    0 DFT=F Ex=HF Corr=None ExCW=0 ScaHFX=  1.000000
 ScaDFX=  1.000000  1.000000  1.000000  1.000000 ScalE2=  1.000000  1.000000
 IRadAn=      5 IRanWt=     -1 IRanGd=            0 ICorTp=0 IEmpDi=  4
 Integral buffers will be    131072 words long.
 Regular integral format.
 Two-electron integral symmetry is turned off.
 Leave Link  301 at Thu May  5 07:26:21 2022, MaxMem=  6710886400 cpu:               1.1 elap:               0.1
 (Enter /sw/apps/gaussian-16.0/g16/l302.exe)
 Do NDO integrals.
 NPDir=0 NMtPBC=     1 NCelOv=     1 NCel=       1 NClECP=     1 NCelD=      1
         NCelK=      1 NCelE2=     1 NClLst=     1 CellRange=     0.0.
 One-electron integrals computed using PRISM.
 Generate ZINDO/S integrals.
 NDO Nuclear repulsion=  4280.546464623808 Hartrees.
 NBasis=   338 RedAO= F EigKep=  0.00D+00  NBF=   338
 NBsUse=   338 1.00D-04 EigRej=  0.00D+00 NBFU=   338
 Leave Link  302 at Thu May  5 07:26:22 2022, MaxMem=  6710886400 cpu:               8.0 elap:               0.4
 (Enter /sw/apps/gaussian-16.0/g16/l303.exe)
 DipDrv:  MaxL=1.
 DipDrv:  will hold  3 matrices at once.
 Leave Link  303 at Thu May  5 07:26:22 2022, MaxMem=  6710886400 cpu:               0.5 elap:               0.0
 (Enter /sw/apps/gaussian-16.0/g16/l308.exe)
 Leave Link  308 at Thu May  5 07:26:22 2022, MaxMem=  6710886400 cpu:               4.3 elap:               0.2
 (Enter /sw/apps/gaussian-16.0/g16/l401.exe)
 Simple Huckel Guess.
 JPrj=0 DoOrth=F DoCkMO=F.
 Leave Link  401 at Thu May  5 07:26:22 2022, MaxMem=  6710886400 cpu:               3.0 elap:               0.1
 (Enter /sw/apps/gaussian-16.0/g16/l502.exe)
 Two-electron integral symmetry not used.
 Closed shell SCF:
 Using DIIS extrapolation, IDIIS=  1040.
 Overlap will be assumed to be unity.
 NGot=  6710886400 LenX=  6710643598 LenY=  6710528913
 Requested convergence on RMS density matrix=1.00D-08 within 128 cycles.
 Requested convergence on MAX density matrix=1.00D-06.
 Requested convergence on             energy=1.00D-06.
 No special actions if energy rises.
 Fock matrices will be formed incrementally for  20 cycles.

 Cycle   1  Pass 1  IDiag  1:
 E= -472.035463464365    
 DIIS: error= 6.05D-02 at cycle   1 NSaved=   1.
 NSaved= 1 IEnMin= 1 EnMin= -472.035463464365     IErMin= 1 ErrMin= 6.05D-02
 ErrMax= 6.05D-02  0.00D+00 EMaxC= 1.00D-01 BMatC= 8.36D-01 BMatP= 8.36D-01
 IDIUse=3 WtCom= 3.95D-01 WtEn= 6.05D-01
 Coeff-Com:  0.100D+01
 Coeff-En:   0.100D+01
 Coeff:      0.100D+01
 GapD=    2.000 DampG=2.000 DampE=0.500 DampFc=1.0000 IDamp=-1.
 RMSDP=4.08D-03 MaxDP=1.77D-01              OVMax= 0.00D+00

 Cycle   2  Pass 1  IDiag  1:
 RMSU=  4.08D-03    CP:  9.95D-01
 E= -473.875452167972     Delta-E=       -1.839988703607 Rises=F Damp=F
 DIIS: error= 2.21D-02 at cycle   2 NSaved=   2.
 NSaved= 2 IEnMin= 2 EnMin= -473.875452167972     IErMin= 2 ErrMin= 2.21D-02
 ErrMax= 2.21D-02  0.00D+00 EMaxC= 1.00D-01 BMatC= 5.67D-02 BMatP= 8.36D-01
 IDIUse=3 WtCom= 7.79D-01 WtEn= 2.21D-01
 Coeff-Com: -0.548D-01 0.105D+01
 Coeff-En:   0.000D+00 0.100D+01
 Coeff:     -0.427D-01 0.104D+01
 RMSDP=1.20D-03 MaxDP=6.14D-02 DE=-1.84D+00 OVMax= 0.00D+00

 Cycle   3  Pass 1  IDiag  1:
 RMSU=  1.17D-03    CP:  9.93D-01  1.06D+00
 E= -473.980979566141     Delta-E=       -0.105527398169 Rises=F Damp=F
 DIIS: error= 9.86D-03 at cycle   3 NSaved=   3.
 NSaved= 3 IEnMin= 3 EnMin= -473.980979566141     IErMin= 3 ErrMin= 9.86D-03
 ErrMax= 9.86D-03  0.00D+00 EMaxC= 1.00D-01 BMatC= 9.05D-03 BMatP= 5.67D-02
 IDIUse=3 WtCom= 9.01D-01 WtEn= 9.86D-02
 Coeff-Com: -0.712D-01 0.257D+00 0.814D+00
 Coeff-En:   0.000D+00 0.000D+00 0.100D+01
 Coeff:     -0.642D-01 0.231D+00 0.833D+00
 RMSDP=4.51D-04 MaxDP=1.83D-02 DE=-1.06D-01 OVMax= 0.00D+00

 Cycle   4  Pass 1  IDiag  1:
 RMSU=  2.86D-04    CP:  9.93D-01  1.14D+00  8.70D-01
 E= -473.996761820042     Delta-E=       -0.015782253900 Rises=F Damp=F
 DIIS: error= 1.44D-03 at cycle   4 NSaved=   4.
 NSaved= 4 IEnMin= 4 EnMin= -473.996761820042     IErMin= 4 ErrMin= 1.44D-03
 ErrMax= 1.44D-03  0.00D+00 EMaxC= 1.00D-01 BMatC= 4.22D-04 BMatP= 9.05D-03
 IDIUse=3 WtCom= 9.86D-01 WtEn= 1.44D-02
 Coeff-Com: -0.645D-02-0.126D-01 0.958D-01 0.923D+00
 Coeff-En:   0.000D+00 0.000D+00 0.000D+00 0.100D+01
 Coeff:     -0.635D-02-0.124D-01 0.944D-01 0.924D+00
 RMSDP=1.61D-04 MaxDP=7.32D-03 DE=-1.58D-02 OVMax= 0.00D+00

 Cycle   5  Pass 1  IDiag  1:
 RMSU=  1.07D-04    CP:  9.92D-01  1.14D+00  9.70D-01  9.10D-01
 E= -473.997944344354     Delta-E=       -0.001182524312 Rises=F Damp=F
 DIIS: error= 7.07D-04 at cycle   5 NSaved=   5.
 NSaved= 5 IEnMin= 5 EnMin= -473.997944344354     IErMin= 5 ErrMin= 7.07D-04
 ErrMax= 7.07D-04  0.00D+00 EMaxC= 1.00D-01 BMatC= 9.13D-05 BMatP= 4.22D-04
 IDIUse=3 WtCom= 9.93D-01 WtEn= 7.07D-03
 Coeff-Com:  0.694D-02-0.307D-01-0.978D-01 0.226D+00 0.896D+00
 Coeff-En:   0.000D+00 0.000D+00 0.000D+00 0.000D+00 0.100D+01
 Coeff:      0.689D-02-0.305D-01-0.971D-01 0.224D+00 0.896D+00
 RMSDP=6.40D-05 MaxDP=2.89D-03 DE=-1.18D-03 OVMax= 0.00D+00

 Cycle   6  Pass 1  IDiag  1:
 RMSU=  3.32D-05    CP:  9.92D-01  1.15D+00  9.81D-01  1.09D+00  1.03D+00
 E= -473.998210557300     Delta-E=       -0.000266212946 Rises=F Damp=F
 DIIS: error= 2.32D-04 at cycle   6 NSaved=   6.
 NSaved= 6 IEnMin= 6 EnMin= -473.998210557300     IErMin= 6 ErrMin= 2.32D-04
 ErrMax= 2.32D-04  0.00D+00 EMaxC= 1.00D-01 BMatC= 7.56D-06 BMatP= 9.13D-05
 IDIUse=3 WtCom= 9.98D-01 WtEn= 2.32D-03
 Coeff-Com:  0.475D-03 0.308D-02-0.213D-01-0.721D-01 0.115D-01 0.108D+01
 Coeff-En:   0.000D+00 0.000D+00 0.000D+00 0.000D+00 0.000D+00 0.100D+01
 Coeff:      0.474D-03 0.307D-02-0.212D-01-0.719D-01 0.114D-01 0.108D+01
 RMSDP=3.48D-05 MaxDP=1.24D-03 DE=-2.66D-04 OVMax= 0.00D+00

 Cycle   7  Pass 1  IDiag  1:
 RMSU=  1.75D-05    CP:  9.92D-01  1.15D+00  9.92D-01  1.10D+00  1.27D+00
                    CP:  1.29D+00
 E= -473.998252784896     Delta-E=       -0.000042227596 Rises=F Damp=F
 DIIS: error= 1.32D-04 at cycle   7 NSaved=   7.
 NSaved= 7 IEnMin= 7 EnMin= -473.998252784896     IErMin= 7 ErrMin= 1.32D-04
 ErrMax= 1.32D-04  0.00D+00 EMaxC= 1.00D-01 BMatC= 2.24D-06 BMatP= 7.56D-06
 IDIUse=3 WtCom= 9.99D-01 WtEn= 1.32D-03
 Coeff-Com: -0.814D-03 0.456D-02 0.637D-02-0.252D-01-0.147D+00 0.225D+00
 Coeff-Com:  0.937D+00
 Coeff-En:   0.000D+00 0.000D+00 0.000D+00 0.000D+00 0.000D+00 0.000D+00
 Coeff-En:   0.100D+01
 Coeff:     -0.813D-03 0.455D-02 0.636D-02-0.251D-01-0.147D+00 0.225D+00
 Coeff:      0.937D+00
 RMSDP=1.86D-05 MaxDP=7.00D-04 DE=-4.22D-05 OVMax= 0.00D+00

 Cycle   8  Pass 1  IDiag  1:
 RMSU=  7.10D-06    CP:  9.92D-01  1.15D+00  9.96D-01  1.10D+00  1.35D+00
                    CP:  1.58D+00  1.58D+00
 E= -473.998267996681     Delta-E=       -0.000015211785 Rises=F Damp=F
 DIIS: error= 7.43D-05 at cycle   8 NSaved=   8.
 NSaved= 8 IEnMin= 8 EnMin= -473.998267996681     IErMin= 8 ErrMin= 7.43D-05
 ErrMax= 7.43D-05  0.00D+00 EMaxC= 1.00D-01 BMatC= 8.68D-07 BMatP= 2.24D-06
 IDIUse=1 WtCom= 1.00D+00 WtEn= 0.00D+00
 Coeff-Com: -0.570D-04-0.679D-03 0.288D-02 0.257D-01-0.409D-01-0.972D-01
 Coeff-Com: -0.230D+00 0.134D+01
 Coeff:     -0.570D-04-0.679D-03 0.288D-02 0.257D-01-0.409D-01-0.972D-01
 Coeff:     -0.230D+00 0.134D+01
 RMSDP=2.13D-05 MaxDP=5.72D-04 DE=-1.52D-05 OVMax= 0.00D+00

 Cycle   9  Pass 1  IDiag  1:
 RMSU=  3.74D-06    CP:  9.92D-01  1.15D+00  9.99D-01  1.09D+00  1.44D+00
                    CP:  1.80D+00  2.44D+00  2.00D+00
 E= -473.998279803062     Delta-E=       -0.000011806382 Rises=F Damp=F
 DIIS: error= 5.31D-05 at cycle   9 NSaved=   9.
 NSaved= 9 IEnMin= 9 EnMin= -473.998279803062     IErMin= 9 ErrMin= 5.31D-05
 ErrMax= 5.31D-05  0.00D+00 EMaxC= 1.00D-01 BMatC= 5.33D-07 BMatP= 8.68D-07
 IDIUse=1 WtCom= 1.00D+00 WtEn= 0.00D+00
 Coeff-Com:  0.350D-03-0.148D-02-0.445D-02 0.833D-02 0.318D-01 0.812D-01
 Coeff-Com: -0.632D+00-0.380D+00 0.190D+01
 Coeff:      0.350D-03-0.148D-02-0.445D-02 0.833D-02 0.318D-01 0.812D-01
 Coeff:     -0.632D+00-0.380D+00 0.190D+01
 RMSDP=3.21D-05 MaxDP=8.37D-04 DE=-1.18D-05 OVMax= 0.00D+00

 Cycle  10  Pass 1  IDiag  1:
 RMSU=  1.39D-05    CP:  9.92D-01  1.15D+00  1.00D+00  1.08D+00  1.56D+00
                    CP:  2.11D+00  3.00D+00  3.00D+00  2.75D+00
 E= -473.998292353324     Delta-E=       -0.000012550262 Rises=F Damp=F
 DIIS: error= 2.97D-05 at cycle  10 NSaved=  10.
 NSaved=10 IEnMin=10 EnMin= -473.998292353324     IErMin=10 ErrMin= 2.97D-05
 ErrMax= 2.97D-05  0.00D+00 EMaxC= 1.00D-01 BMatC= 1.79D-07 BMatP= 5.33D-07
 IDIUse=1 WtCom= 1.00D+00 WtEn= 0.00D+00
 Coeff-Com: -0.726D-04 0.910D-03-0.966D-03-0.136D-01-0.702D-02 0.127D+00
 Coeff-Com:  0.996D-01-0.449D+00-0.500D+00 0.174D+01
 Coeff:     -0.726D-04 0.910D-03-0.966D-03-0.136D-01-0.702D-02 0.127D+00
 Coeff:      0.996D-01-0.449D+00-0.500D+00 0.174D+01
 RMSDP=2.72D-05 MaxDP=6.99D-04 DE=-1.26D-05 OVMax= 0.00D+00

 Cycle  11  Pass 1  IDiag  1:
 RMSU=  7.21D-06    CP:  9.92D-01  1.14D+00  1.01D+00  1.07D+00  1.65D+00
                    CP:  2.33D+00  3.00D+00  3.00D+00  3.00D+00  2.58D+00
 E= -473.998298226454     Delta-E=       -0.000005873129 Rises=F Damp=F
 DIIS: error= 1.47D-05 at cycle  11 NSaved=  11.
 NSaved=11 IEnMin=11 EnMin= -473.998298226454     IErMin=11 ErrMin= 1.47D-05
 ErrMax= 1.47D-05  0.00D+00 EMaxC= 1.00D-01 BMatC= 4.51D-08 BMatP= 1.79D-07
 IDIUse=1 WtCom= 1.00D+00 WtEn= 0.00D+00
 Coeff-Com: -0.124D-03 0.571D-03 0.155D-02-0.383D-02-0.150D-01-0.325D-02
 Coeff-Com:  0.173D+00 0.198D+00-0.834D+00 0.778D-01 0.140D+01
 Coeff:     -0.124D-03 0.571D-03 0.155D-02-0.383D-02-0.150D-01-0.325D-02
 Coeff:      0.173D+00 0.198D+00-0.834D+00 0.778D-01 0.140D+01
 RMSDP=1.81D-05 MaxDP=4.61D-04 DE=-5.87D-06 OVMax= 0.00D+00

 Cycle  12  Pass 1  IDiag  1:
 RMSU=  8.76D-06    CP:  9.92D-01  1.14D+00  1.01D+00  1.06D+00  1.72D+00
                    CP:  2.47D+00  3.00D+00  3.00D+00  3.00D+00  3.00D+00
                    CP:  1.81D+00
 E= -473.998299794675     Delta-E=       -0.000001568222 Rises=F Damp=F
 DIIS: error= 5.61D-06 at cycle  12 NSaved=  12.
 NSaved=12 IEnMin=12 EnMin= -473.998299794675     IErMin=12 ErrMin= 5.61D-06
 ErrMax= 5.61D-06  0.00D+00 EMaxC= 1.00D-01 BMatC= 6.09D-09 BMatP= 4.51D-08
 IDIUse=1 WtCom= 1.00D+00 WtEn= 0.00D+00
 Coeff-Com:  0.379D-04-0.309D-03 0.101D-03 0.355D-02 0.376D-02-0.252D-01
 Coeff-Com: -0.755D-01 0.137D+00 0.222D+00-0.447D+00-0.195D+00 0.138D+01
 Coeff:      0.379D-04-0.309D-03 0.101D-03 0.355D-02 0.376D-02-0.252D-01
 Coeff:     -0.755D-01 0.137D+00 0.222D+00-0.447D+00-0.195D+00 0.138D+01
 RMSDP=4.44D-06 MaxDP=1.18D-04 DE=-1.57D-06 OVMax= 0.00D+00

 Cycle  13  Pass 1  IDiag  1:
 RMSU=  6.89D-07    CP:  9.92D-01  1.14D+00  1.01D+00  1.06D+00  1.73D+00
                    CP:  2.50D+00  3.00D+00  3.00D+00  3.00D+00  3.00D+00
                    CP:  2.06D+00  1.40D+00
 E= -473.998299907793     Delta-E=       -0.000000113117 Rises=F Damp=F
 DIIS: error= 2.55D-06 at cycle  13 NSaved=  13.
 NSaved=13 IEnMin=13 EnMin= -473.998299907793     IErMin=13 ErrMin= 2.55D-06
 ErrMax= 2.55D-06  0.00D+00 EMaxC= 1.00D-01 BMatC= 6.83D-10 BMatP= 6.09D-09
 IDIUse=1 WtCom= 1.00D+00 WtEn= 0.00D+00
 Coeff-Com:  0.160D-04-0.816D-04-0.191D-03 0.596D-03 0.251D-02-0.747D-03
 Coeff-Com: -0.299D-01-0.163D-02 0.910D-01-0.197D-01-0.178D+00 0.706D-01
 Coeff-Com:  0.107D+01
 Coeff:      0.160D-04-0.816D-04-0.191D-03 0.596D-03 0.251D-02-0.747D-03
 Coeff:     -0.299D-01-0.163D-02 0.910D-01-0.197D-01-0.178D+00 0.706D-01
 Coeff:      0.107D+01
 RMSDP=7.70D-07 MaxDP=2.19D-05 DE=-1.13D-07 OVMax= 0.00D+00

 Cycle  14  Pass 1  IDiag  1:
 RMSU=  1.84D-07    CP:  9.92D-01  1.14D+00  1.01D+00  1.05D+00  1.73D+00
                    CP:  2.50D+00  3.00D+00  3.00D+00  3.00D+00  3.00D+00
                    CP:  2.10D+00  1.46D+00  1.41D+00
 E= -473.998299915546     Delta-E=       -0.000000007753 Rises=F Damp=F
 DIIS: error= 1.67D-06 at cycle  14 NSaved=  14.
 NSaved=14 IEnMin=14 EnMin= -473.998299915546     IErMin=14 ErrMin= 1.67D-06
 ErrMax= 1.67D-06  0.00D+00 EMaxC= 1.00D-01 BMatC= 1.80D-10 BMatP= 6.83D-10
 IDIUse=1 WtCom= 1.00D+00 WtEn= 0.00D+00
 Coeff-Com: -0.957D-05 0.695D-04-0.716D-05-0.753D-03-0.818D-03 0.462D-02
 Coeff-Com:  0.148D-01-0.181D-01-0.593D-01 0.962D-01 0.342D-01-0.247D+00
 Coeff-Com: -0.120D+00 0.130D+01
 Coeff:     -0.957D-05 0.695D-04-0.716D-05-0.753D-03-0.818D-03 0.462D-02
 Coeff:      0.148D-01-0.181D-01-0.593D-01 0.962D-01 0.342D-01-0.247D+00
 Coeff:     -0.120D+00 0.130D+01
 RMSDP=3.70D-07 MaxDP=1.39D-05 DE=-7.75D-09 OVMax= 0.00D+00

 Cycle  15  Pass 1  IDiag  1:
 RMSU=  1.11D-07    CP:  9.92D-01  1.14D+00  1.01D+00  1.05D+00  1.73D+00
                    CP:  2.51D+00  3.00D+00  3.00D+00  3.00D+00  3.00D+00
                    CP:  2.11D+00  1.49D+00  1.69D+00  1.82D+00
 E= -473.998299917894     Delta-E=       -0.000000002347 Rises=F Damp=F
 DIIS: error= 6.32D-07 at cycle  15 NSaved=  15.
 NSaved=15 IEnMin=15 EnMin= -473.998299917894     IErMin=15 ErrMin= 6.32D-07
 ErrMax= 6.32D-07  0.00D+00 EMaxC= 1.00D-01 BMatC= 5.55D-11 BMatP= 1.80D-10
 IDIUse=1 WtCom= 1.00D+00 WtEn= 0.00D+00
 Coeff-Com: -0.337D-05 0.171D-04 0.452D-04-0.112D-03-0.580D-03 0.197D-03
 Coeff-Com:  0.645D-02 0.273D-02-0.236D-01 0.112D-01 0.274D-01 0.104D-01
 Coeff-Com: -0.274D+00 0.339D-01 0.121D+01
 Coeff:     -0.337D-05 0.171D-04 0.452D-04-0.112D-03-0.580D-03 0.197D-03
 Coeff:      0.645D-02 0.273D-02-0.236D-01 0.112D-01 0.274D-01 0.104D-01
 Coeff:     -0.274D+00 0.339D-01 0.121D+01
 RMSDP=1.74D-07 MaxDP=7.09D-06 DE=-2.35D-09 OVMax= 0.00D+00

 Cycle  16  Pass 1  IDiag  1:
 RMSU=  4.26D-08    CP:  9.92D-01  1.14D+00  1.01D+00  1.05D+00  1.73D+00
                    CP:  2.51D+00  3.00D+00  3.00D+00  3.00D+00  3.00D+00
                    CP:  2.12D+00  1.48D+00  1.82D+00  2.42D+00  1.67D+00
 E= -473.998299918592     Delta-E=       -0.000000000698 Rises=F Damp=F
 DIIS: error= 2.75D-07 at cycle  16 NSaved=  16.
 NSaved=16 IEnMin=16 EnMin= -473.998299918592     IErMin=16 ErrMin= 2.75D-07
 ErrMax= 2.75D-07  0.00D+00 EMaxC= 1.00D-01 BMatC= 1.70D-11 BMatP= 5.55D-11
 IDIUse=1 WtCom= 1.00D+00 WtEn= 0.00D+00
 Coeff-Com:  0.334D-05-0.230D-04-0.687D-06 0.240D-03 0.264D-03-0.136D-02
 Coeff-Com: -0.504D-02 0.519D-02 0.186D-01-0.253D-01-0.238D-01 0.839D-01
 Coeff-Com:  0.333D-01-0.343D+00-0.234D+00 0.149D+01
 Coeff:      0.334D-05-0.230D-04-0.687D-06 0.240D-03 0.264D-03-0.136D-02
 Coeff:     -0.504D-02 0.519D-02 0.186D-01-0.253D-01-0.238D-01 0.839D-01
 Coeff:      0.333D-01-0.343D+00-0.234D+00 0.149D+01
 RMSDP=1.65D-07 MaxDP=5.73D-06 DE=-6.98D-10 OVMax= 0.00D+00

 Cycle  17  Pass 1  IDiag  1:
 RMSU=  2.51D-08    CP:  9.92D-01  1.14D+00  1.01D+00  1.05D+00  1.73D+00
                    CP:  2.51D+00  3.00D+00  3.00D+00  3.00D+00  3.00D+00
                    CP:  2.12D+00  1.49D+00  1.92D+00  2.86D+00  2.44D+00
                    CP:  2.16D+00
 E= -473.998299918963     Delta-E=       -0.000000000371 Rises=F Damp=F
 DIIS: error= 2.04D-07 at cycle  17 NSaved=  17.
 NSaved=17 IEnMin=17 EnMin= -473.998299918963     IErMin=17 ErrMin= 2.04D-07
 ErrMax= 2.04D-07  0.00D+00 EMaxC= 1.00D-01 BMatC= 5.89D-12 BMatP= 1.70D-11
 IDIUse=1 WtCom= 1.00D+00 WtEn= 0.00D+00
 Coeff-Com:  0.110D-05-0.561D-05-0.158D-04 0.399D-04 0.179D-03-0.304D-04
 Coeff-Com: -0.216D-02-0.382D-03 0.668D-02-0.116D-02-0.122D-01 0.331D-02
 Coeff-Com:  0.715D-01 0.139D-01-0.413D+00 0.116D+00 0.122D+01
 Coeff:      0.110D-05-0.561D-05-0.158D-04 0.399D-04 0.179D-03-0.304D-04
 Coeff:     -0.216D-02-0.382D-03 0.668D-02-0.116D-02-0.122D-01 0.331D-02
 Coeff:      0.715D-01 0.139D-01-0.413D+00 0.116D+00 0.122D+01
 RMSDP=7.77D-08 MaxDP=2.56D-06 DE=-3.71D-10 OVMax= 0.00D+00

 Cycle  18  Pass 1  IDiag  1:
 RMSU=  1.61D-08    CP:  9.92D-01  1.14D+00  1.01D+00  1.05D+00  1.73D+00
                    CP:  2.51D+00  3.00D+00  3.00D+00  3.00D+00  3.00D+00
                    CP:  2.12D+00  1.49D+00  1.96D+00  3.00D+00  2.81D+00
                    CP:  3.00D+00  1.76D+00
 E= -473.998299919052     Delta-E=       -0.000000000089 Rises=F Damp=F
 DIIS: error= 8.23D-08 at cycle  18 NSaved=  18.
 NSaved=18 IEnMin=18 EnMin= -473.998299919052     IErMin=18 ErrMin= 8.23D-08
 ErrMax= 8.23D-08  0.00D+00 EMaxC= 1.00D-01 BMatC= 1.65D-12 BMatP= 5.89D-12
 IDIUse=1 WtCom= 1.00D+00 WtEn= 0.00D+00
 Coeff-Com: -0.170D-05 0.111D-04 0.349D-05-0.113D-03-0.133D-03 0.542D-03
 Coeff-Com:  0.253D-02-0.167D-02-0.995D-02 0.114D-01 0.103D-01-0.323D-01
 Coeff-Com: -0.361D-01 0.136D+00 0.183D+00-0.503D+00-0.587D+00 0.183D+01
 Coeff:     -0.170D-05 0.111D-04 0.349D-05-0.113D-03-0.133D-03 0.542D-03
 Coeff:      0.253D-02-0.167D-02-0.995D-02 0.114D-01 0.103D-01-0.323D-01
 Coeff:     -0.361D-01 0.136D+00 0.183D+00-0.503D+00-0.587D+00 0.183D+01
 RMSDP=6.61D-08 MaxDP=1.98D-06 DE=-8.91D-11 OVMax= 0.00D+00

 Cycle  19  Pass 1  IDiag  1:
 RMSU=  3.28D-08    CP:  9.92D-01  1.14D+00  1.01D+00  1.05D+00  1.73D+00
                    CP:  2.51D+00  3.00D+00  3.00D+00  3.00D+00  3.00D+00
                    CP:  2.12D+00  1.49D+00  1.98D+00  3.00D+00  3.00D+00
                    CP:  3.00D+00  2.74D+00  3.00D+00
 E= -473.998299919076     Delta-E=       -0.000000000024 Rises=F Damp=F
 DIIS: error= 5.78D-08 at cycle  19 NSaved=  19.
 NSaved=19 IEnMin=19 EnMin= -473.998299919076     IErMin=19 ErrMin= 5.78D-08
 ErrMax= 5.78D-08  0.00D+00 EMaxC= 1.00D-01 BMatC= 3.36D-13 BMatP= 1.65D-12
 IDIUse=1 WtCom= 1.00D+00 WtEn= 0.00D+00
 Coeff-Com: -0.725D-07 0.191D-06 0.397D-05-0.115D-05-0.147D-04-0.629D-04
 Coeff-Com:  0.156D-03 0.424D-03-0.609D-03-0.570D-03 0.111D-02 0.352D-02
 Coeff-Com: -0.100D-01-0.256D-01 0.681D-01 0.590D-01-0.279D+00-0.181D+00
 Coeff-Com:  0.137D+01
 Coeff:     -0.725D-07 0.191D-06 0.397D-05-0.115D-05-0.147D-04-0.629D-04
 Coeff:      0.156D-03 0.424D-03-0.609D-03-0.570D-03 0.111D-02 0.352D-02
 Coeff:     -0.100D-01-0.256D-01 0.681D-01 0.590D-01-0.279D+00-0.181D+00
 Coeff:      0.137D+01
 RMSDP=2.65D-08 MaxDP=7.46D-07 DE=-2.36D-11 OVMax= 0.00D+00

 Cycle  20  Pass 1  IDiag  1:
 RMSU=  1.75D-08    CP:  9.92D-01  1.14D+00  1.01D+00  1.05D+00  1.73D+00
                    CP:  2.51D+00  3.00D+00  3.00D+00  3.00D+00  3.00D+00
                    CP:  2.12D+00  1.49D+00  1.99D+00  3.00D+00  3.00D+00
                    CP:  3.00D+00  3.00D+00  3.00D+00  1.49D+00
 E= -473.998299919093     Delta-E=       -0.000000000017 Rises=F Damp=F
 DIIS: error= 2.65D-08 at cycle  20 NSaved=  20.
 NSaved=20 IEnMin=20 EnMin= -473.998299919093     IErMin=20 ErrMin= 2.65D-08
 ErrMax= 2.65D-08  0.00D+00 EMaxC= 1.00D-01 BMatC= 5.16D-14 BMatP= 3.36D-13
 IDIUse=1 WtCom= 1.00D+00 WtEn= 0.00D+00
 Coeff-Com:  0.403D-06-0.263D-05-0.598D-06 0.246D-04 0.365D-04-0.131D-03
 Coeff-Com: -0.598D-03 0.508D-03 0.209D-02-0.247D-02-0.248D-02 0.741D-02
 Coeff-Com:  0.842D-02-0.332D-01-0.381D-01 0.121D+00 0.130D+00-0.389D+00
 Coeff-Com:  0.226D-01 0.117D+01
 Coeff:      0.403D-06-0.263D-05-0.598D-06 0.246D-04 0.365D-04-0.131D-03
 Coeff:     -0.598D-03 0.508D-03 0.209D-02-0.247D-02-0.248D-02 0.741D-02
 Coeff:      0.842D-02-0.332D-01-0.381D-01 0.121D+00 0.130D+00-0.389D+00
 Coeff:      0.226D-01 0.117D+01
 RMSDP=4.95D-09 MaxDP=2.67D-07 DE=-1.73D-11 OVMax= 0.00D+00

 SCF Done:  E(RZINDO/S) =  -473.998299919     A.U. after   20 cycles
            NFock= 20  Conv=0.50D-08     -V/T= 0.9487
 KE=-9.234305888049D+03 PE= 1.101507223211D-07 EE= 4.479761123396D+03
 Leave Link  502 at Thu May  5 07:26:23 2022, MaxMem=  6710886400 cpu:              23.2 elap:               1.0
 (Enter /sw/apps/gaussian-16.0/g16/l801.exe)
 Range of M.O.s used for correlation:     1   338
 NBasis=   338 NAE=   176 NBE=   176 NFC=     0 NFV=     0
 NROrb=    338 NOA=   176 NOB=   176 NVA=   162 NVB=   162
 Leave Link  801 at Thu May  5 07:26:23 2022, MaxMem=  6710886400 cpu:               0.5 elap:               0.0
 (Enter /sw/apps/gaussian-16.0/g16/l914.exe)
 RHF ground state
 Two-electron integral symmetry not used.
 MDV=  6710886400 DFT=F DoStab=F Mixed=F DoRPA=F DoScal=F NonHer=F
 Making orbital integer symmetry assigments:
 Orbital symmetries:
       Occupied  (A) (A) (A) (A) (A) (A) (A) (A) (A) (A) (A) (A)
                 (A) (A) (A) (A) (A) (A) (A) (A) (A) (A) (A) (A)
                 (A) (A) (A) (A) (A) (A) (A) (A) (A) (A) (A) (A)
                 (A) (A) (A) (A) (A) (A) (A) (A) (A) (A) (A) (A)
                 (A) (A) (A) (A) (A) (A) (A) (A) (A) (A) (A) (A)
                 (A) (A) (A) (A) (A) (A) (A) (A) (A) (A) (A) (A)
                 (A) (A) (A) (A) (A) (A) (A) (A) (A) (A) (A) (A)
                 (A) (A) (A) (A) (A) (A) (A) (A) (A) (A) (A) (A)
                 (A) (A) (A) (A) (A) (A) (A) (A) (A) (A) (A) (A)
                 (A) (A) (A) (A) (A) (A) (A) (A) (A) (A) (A) (A)
                 (A) (A) (A) (A) (A) (A) (A) (A) (A) (A) (A) (A)
                 (A) (A) (A) (A) (A) (A) (A) (A) (A) (A) (A) (A)
                 (A) (A) (A) (A) (A) (A) (A) (A) (A) (A) (A) (A)
                 (A) (A) (A) (A) (A) (A) (A) (A) (A) (A) (A) (A)
                 (A) (A) (A) (A) (A) (A) (A) (A)
       Virtual   (A) (A) (A) (A) (A) (A) (A) (A) (A) (A) (A) (A)
                 (A) (A) (A) (A) (A) (A) (A) (A) (A) (A) (A) (A)
                 (A) (A) (A) (A) (A) (A) (A) (A) (A) (A) (A) (A)
                 (A) (A) (A) (A) (A) (A) (A) (A) (A) (A) (A) (A)
                 (A) (A) (A) (A) (A) (A) (A) (A) (A) (A) (A) (A)
                 (A) (A) (A) (A) (A) (A) (A) (A) (A) (A) (A) (A)
                 (A) (A) (A) (A) (A) (A) (A) (A) (A) (A) (A) (A)
                 (A) (A) (A) (A) (A) (A) (A) (A) (A) (A) (A) (A)
                 (A) (A) (A) (A) (A) (A) (A) (A) (A) (A) (A) (A)
                 (A) (A) (A) (A) (A) (A) (A) (A) (A) (A) (A) (A)
                 (A) (A) (A) (A) (A) (A) (A) (A) (A) (A) (A) (A)
                 (A) (A) (A) (A) (A) (A) (A) (A) (A) (A) (A) (A)
                 (A) (A) (A) (A) (A) (A) (A) (A) (A) (A) (A) (A)
                 (A) (A) (A) (A) (A) (A)
    20 initial guesses have been made.
 Convergence on wavefunction:    0.001000000000000
 Davidson Disk Diagonalization:  ConvIn= 1.00D-03 SkipCon=T Conv= 1.00D-03.
 Max sub-space:  2000 roots to seek:    20 dimension of matrix:        57024
 Iteration     1 Dimension    20 NMult     0 NNew     20
 CISAX will form    20 AO SS matrices at one time.
 NMat=    20 NSing=    20 JSym2X= 0.
 New state      3 was old state      6
 New state      5 was old state      3
 Excitation Energies [eV] at current iteration:
 Root      1 :     1.641898120572834
 Root      2 :     2.100738838383216
 Root      3 :     2.939033573652123
 Root      4 :     3.154607409982465
 Root      5 :     3.300620297587117
 Root      6 :     3.584523421296710
 Root      7 :     3.674304124662064
 Root      8 :     3.774373349834855
 Root      9 :     3.968654344341028
 Root     10 :     4.052858737857773
 Root     11 :     4.185139928571106
 Root     12 :     4.320614688695930
 Root     13 :     4.414925625616712
 Root     14 :     4.497777154724921
 Root     15 :     4.544737220675079
 Root     16 :     4.605807744621780
 Root     17 :     4.657909996253164
 Root     18 :     4.804966750028189
 Root     19 :     5.122676016465287
 Root     20 :     5.476059985192503
 Iteration     2 Dimension    40 NMult    20 NNew     20
 CISAX will form    20 AO SS matrices at one time.
 NMat=    20 NSing=    20 JSym2X= 0.
 Root      1 not converged, maximum delta is    0.038735983190650
 Root      2 not converged, maximum delta is    0.036282590455824
 Root      3 not converged, maximum delta is    0.232275973035194
 Root      4 not converged, maximum delta is    0.364388319908471
 Root      5 not converged, maximum delta is    0.398271917271768
 Excitation Energies [eV] at current iteration:
 Root      1 :     1.290121326247583   Change is   -0.351776794325251
 Root      2 :     1.896925186074520   Change is   -0.203813652308696
 Root      3 :     2.877162899817314   Change is   -0.061870673834809
 Root      4 :     2.938987668669349   Change is   -0.215619741313116
 Root      5 :     2.988839101938553   Change is   -0.311781195648564
 Root      6 :     3.370648992611484   Change is   -0.213874428685226
 Root      7 :     3.438889886131774   Change is   -0.335483463703081
 Root      8 :     3.477271015665639   Change is   -0.197033108996425
 Root      9 :     3.671616107825265   Change is   -0.381242630032508
 Root     10 :     3.687946038303916   Change is   -0.280708306037112
 Root     11 :     3.803663409025452   Change is   -1.001303341002737
 Root     12 :     4.019257996927291   Change is   -0.165881931643815
 Root     13 :     4.043250155530172   Change is   -0.277364533165758
 Root     14 :     4.172004063108061   Change is   -0.242921562508650
 Root     15 :     4.260147590309025   Change is   -0.237629564415896
 Root     16 :     4.313607087698228   Change is   -0.344302908554936
 Root     17 :     4.425974251806917   Change is   -0.179833492814863
 Root     18 :     4.502188371862294   Change is   -0.042548848812784
 Root     19 :     5.115774291711801   Change is   -0.006901724753485
 Root     20 :     5.467044542732505   Change is   -0.009015442459998
 Iteration     3 Dimension    45 NMult    40 NNew      5
 CISAX will form     5 AO SS matrices at one time.
 NMat=     5 NSing=     5 JSym2X= 0.
 Root      1 not converged, maximum delta is    0.013773818633085
 Root      2 not converged, maximum delta is    0.019310619129793
 Root      3 not converged, maximum delta is    0.080929619816356
 Root      4 not converged, maximum delta is    0.085455404415274
 Root      5 not converged, maximum delta is    0.045611428089435
 Excitation Energies [eV] at current iteration:
 Root      1 :     1.271823794901725   Change is   -0.018297531345859
 Root      2 :     1.868387469974015   Change is   -0.028537716100505
 Root      3 :     2.861763551924831   Change is   -0.015399347892483
 Root      4 :     2.916150108317482   Change is   -0.022837560351866
 Root      5 :     2.977003061826017   Change is   -0.011836040112536
 Iteration     4 Dimension    50 NMult    45 NNew      5
 CISAX will form     5 AO SS matrices at one time.
 NMat=     5 NSing=     5 JSym2X= 0.
 Root      1 not converged, maximum delta is    0.003305541226822
 Root      2 not converged, maximum delta is    0.003574453432459
 Root      3 not converged, maximum delta is    0.006306185584936
 Root      4 not converged, maximum delta is    0.007082455269035
 Root      5 not converged, maximum delta is    0.004330439205174
 Excitation Energies [eV] at current iteration:
 Root      1 :     1.270882371116940   Change is   -0.000941423784785
 Root      2 :     1.867603181316057   Change is   -0.000784288657958
 Root      3 :     2.860396370615242   Change is   -0.001367181309590
 Root      4 :     2.914218413960028   Change is   -0.001931694357455
 Root      5 :     2.975745821025951   Change is   -0.001257240800066
 Iteration     5 Dimension    55 NMult    50 NNew      5
 CISAX will form     5 AO SS matrices at one time.
 NMat=     5 NSing=     5 JSym2X= 0.
 Root      1 has converged.
 Root      2 has converged.
 Root      3 not converged, maximum delta is    0.001957969898531
 Root      4 not converged, maximum delta is    0.001507258562399
 Root      5 not converged, maximum delta is    0.001426223571199
 Excitation Energies [eV] at current iteration:
 Root      1 :     1.270821078828112   Change is   -0.000061292288828
 Root      2 :     1.867562058209354   Change is   -0.000041123106703
 Root      3 :     2.860178202223752   Change is   -0.000218168391490
 Root      4 :     2.913894734536957   Change is   -0.000323679423071
 Root      5 :     2.975523526143625   Change is   -0.000222294882326
 Iteration     6 Dimension    58 NMult    55 NNew      3
 CISAX will form     3 AO SS matrices at one time.
 NMat=     3 NSing=     3 JSym2X= 0.
 Root      1 has converged.
 Root      2 has converged.
 Root      3 not converged, maximum delta is    0.001514724995107
 Root      4 not converged, maximum delta is    0.001348655595421
 Root      5 not converged, maximum delta is    0.002003673480703
 Excitation Energies [eV] at current iteration:
 Root      1 :     1.270820976200173   Change is   -0.000000102627938
 Root      2 :     1.867561986697090   Change is   -0.000000071512264
 Root      3 :     2.860106700346720   Change is   -0.000071501877032
 Root      4 :     2.913822917706527   Change is   -0.000071816830430
 Root      5 :     2.975428002364006   Change is   -0.000095523779619
 Iteration     7 Dimension    61 NMult    58 NNew      3
 CISAX will form     3 AO SS matrices at one time.
 NMat=     3 NSing=     3 JSym2X= 0.
 Root      1 has converged.
 Root      2 has converged.
 Root      3 not converged, maximum delta is    0.003334882216117
 Root      4 not converged, maximum delta is    0.001499188087741
 Root      5 not converged, maximum delta is    0.005958726913280
 Excitation Energies [eV] at current iteration:
 Root      1 :     1.270820911893205   Change is   -0.000000064306968
 Root      2 :     1.867561712464619   Change is   -0.000000274232471
 Root      3 :     2.860027072097061   Change is   -0.000079628249659
 Root      4 :     2.913785589193594   Change is   -0.000037328512933
 Root      5 :     2.975281867426971   Change is   -0.000146134937034
 Iteration     8 Dimension    64 NMult    61 NNew      3
 CISAX will form     3 AO SS matrices at one time.
 NMat=     3 NSing=     3 JSym2X= 0.
 Root      1 has converged.
 Root      2 has converged.
 Root      3 not converged, maximum delta is    0.004344281850008
 Root      4 not converged, maximum delta is    0.001095733188010
 Root      5 not converged, maximum delta is    0.013461021560075
 Excitation Energies [eV] at current iteration:
 Root      1 :     1.270820749025348   Change is   -0.000000162867857
 Root      2 :     1.867561198579298   Change is   -0.000000513885321
 Root      3 :     2.859940757438347   Change is   -0.000086314658714
 Root      4 :     2.913766958530835   Change is   -0.000018630662759
 Root      5 :     2.974998513816768   Change is   -0.000283353610203
 Iteration     9 Dimension    67 NMult    64 NNew      3
 CISAX will form     3 AO SS matrices at one time.
 NMat=     3 NSing=     3 JSym2X= 0.
 Root      1 has converged.
 Root      2 has converged.
 Root      3 not converged, maximum delta is    0.004713266450775
 Root      4 has converged.
 Root      5 not converged, maximum delta is    0.016478102604505
 Excitation Energies [eV] at current iteration:
 Root      1 :     1.270820596156414   Change is   -0.000000152868935
 Root      2 :     1.867560781077562   Change is   -0.000000417501736
 Root      3 :     2.859876733723501   Change is   -0.000064023714846
 Root      4 :     2.913761641856377   Change is   -0.000005316674458
 Root      5 :     2.974725066427770   Change is   -0.000273447388998
 Iteration    10 Dimension    69 NMult    67 NNew      2
 CISAX will form     2 AO SS matrices at one time.
 NMat=     2 NSing=     2 JSym2X= 0.
 Root      1 has converged.
 Root      2 has converged.
 Root      3 not converged, maximum delta is    0.003344918353202
 Root      4 has converged.
 Root      5 not converged, maximum delta is    0.024562238049716
 Excitation Energies [eV] at current iteration:
 Root      1 :     1.270820535549828   Change is   -0.000000060606586
 Root      2 :     1.867560732782389   Change is   -0.000000048295173
 Root      3 :     2.859838827685833   Change is   -0.000037906037668
 Root      4 :     2.913760485548715   Change is   -0.000001156307662
 Root      5 :     2.974409465573965   Change is   -0.000315600853805
 Iteration    11 Dimension    71 NMult    69 NNew      2
 CISAX will form     2 AO SS matrices at one time.
 NMat=     2 NSing=     2 JSym2X= 0.
 Root      1 has converged.
 Root      2 has converged.
 Root      3 has converged.
 Root      4 has converged.
 Root      5 not converged, maximum delta is    0.017710194976200
 Excitation Energies [eV] at current iteration:
 Root      1 :     1.270820501490665   Change is   -0.000000034059163
 Root      2 :     1.867560721444166   Change is   -0.000000011338223
 Root      3 :     2.859829281221452   Change is   -0.000009546464381
 Root      4 :     2.913759759566636   Change is   -0.000000725982079
 Root      5 :     2.974198373086891   Change is   -0.000211092487074
 Iteration    12 Dimension    72 NMult    71 NNew      1
 CISAX will form     1 AO SS matrices at one time.
 NMat=     1 NSing=     1 JSym2X= 0.
 Root      1 has converged.
 Root      2 has converged.
 Root      3 has converged.
 Root      4 has converged.
 Root      5 not converged, maximum delta is    0.004691338060767
 Excitation Energies [eV] at current iteration:
 Root      1 :     1.270820501232810   Change is   -0.000000000257854
 Root      2 :     1.867560719312770   Change is   -0.000000002131396
 Root      3 :     2.859827841884801   Change is   -0.000001439336651
 Root      4 :     2.913759585565494   Change is   -0.000000174001142
 Root      5 :     2.974144459240080   Change is   -0.000053913846812
 Iteration    13 Dimension    73 NMult    72 NNew      1
 CISAX will form     1 AO SS matrices at one time.
 NMat=     1 NSing=     1 JSym2X= 0.
 Root      1 has converged.
 Root      2 has converged.
 Root      3 has converged.
 Root      4 has converged.
 Root      5 has converged.
 Excitation Energies [eV] at current iteration:
 Root      1 :     1.270820499181424   Change is   -0.000000002051385
 Root      2 :     1.867560717472473   Change is   -0.000000001840297
 Root      3 :     2.859827640628816   Change is   -0.000000201255985
 Root      4 :     2.913759569198445   Change is   -0.000000016367049
 Root      5 :     2.974134940538999   Change is   -0.000009518701081
 Convergence achieved on expansion vectors.
 ***********************************************************************
 Excited states from <AA,BB:AA,BB> singles matrix:
 ***********************************************************************
 
 1PDM for each excited state written to RWF  633
 Ground to excited state transition densities written to RWF  633
 Ground to excited state transition electric dipole moments (Au):
       state          X           Y           Z        Dip. S.      Osc.
         1         2.1853     -3.0175      2.0609     18.1280      0.5644
         2        -0.0322      0.0732     -0.0236      0.0069      0.0003
         3        -0.2615     -1.4733     -0.4408      2.4333      0.1705
         4         1.5775      1.5115      1.2665      6.3772      0.4552
         5         1.0544      2.0467      1.1120      6.5375      0.4764
 Ground to excited state transition velocity dipole moments (Au):
       state          X           Y           Z        Dip. S.      Osc.
         1         0.0458     -0.0262      0.0396      0.0044      0.0621
         2         0.0033      0.0112      0.0053      0.0002      0.0016
         3         0.0090      0.0389      0.0179      0.0019      0.0121
         4        -0.0513     -0.0534     -0.0239      0.0061      0.0377
         5        -0.0273     -0.0622     -0.0266      0.0053      0.0325
 Ground to excited state transition magnetic dipole moments (Au):
       state          X           Y           Z
         1         0.0230     -0.3633     -0.1993
         2         0.4365     -0.0827     -0.3665
         3        -0.1790     -0.2144      0.6270
         4        -0.3475      0.3363     -0.2981
         5        -0.5196      0.4785     -0.3501
 Ground to excited state transition velocity quadrupole moments (Au):
       state          XX          YY          ZZ          XY          XZ          YZ
         1         0.8054      0.0190      0.0061     -0.1761      0.3516     -0.1499
         2         0.0324      0.1253     -0.0624      0.1564     -0.0067     -0.0162
         3         0.2689     -0.2102      0.1418      0.6240      0.3178      0.1909
         4        -0.4936     -0.1052      0.0669     -0.2192     -0.3181      0.1517
         5        -0.3502      0.0704     -0.0972     -0.6338     -0.4303     -0.0452
 <0|del|b> * <b|rxdel|0> + <0|del|b> * <b|delr+rdel|0>
 Rotatory Strengths (R) in cgs (10**-40 erg-esu-cm/Gauss)
       state          XX          YY          ZZ    R(velocity)    E-M Angle
         1        29.5977    -50.9139     62.2768     13.6535       84.33
         2       -10.1528     -7.3163      2.4919     -4.9924      101.38
         3         5.5629      0.5418      2.3623      2.8223       87.60
         4       -74.5793     39.4233     81.3842     15.4094       80.89
         5       -98.0985     25.3703     32.1485    -13.5266       96.26
 1/2[<0|r|b>*<b|rxdel|0> + (<0|rxdel|b>*<b|r|0>)*]
 Rotatory Strengths (R) in cgs (10**-40 erg-esu-cm/Gauss)
       state          XX          YY          ZZ     R(length)
         1       -35.6105   -775.1788    290.4091   -173.4600
         2         9.9503      4.2773     -6.1135      2.7047
         3       -33.1014   -223.3704    195.4358    -20.3453
         4       387.6314   -359.4841    267.0012     98.3828
         5       387.4346   -692.5794    275.3491     -9.9319
  1/2[<0|del|b>*<b|r|0> + (<0|r|b>*<b|del|0>)*] (Au)
       state          X           Y           Z        Dip. S.   Osc.(frdel)
         1         0.1001      0.0792      0.0815     -0.2608     -0.1739
         2        -0.0001      0.0008     -0.0001     -0.0006     -0.0004
         3        -0.0023     -0.0573     -0.0079      0.0675      0.0450
         4        -0.0810     -0.0808     -0.0303      0.1920      0.1280
         5        -0.0288     -0.1273     -0.0296      0.1857      0.1238

 Excitation energies and oscillator strengths:
 
 Excited State   1:      Singlet-A      1.2708 eV  975.62 nm  f=0.5644  <S**2>=0.000
     175 ->178        -0.18985
     176 ->177         0.66193
 This state for optimization and/or second-order correction.
 Total Energy, E(CIS/TDA) =  -473.951598125    
 Copying the excited state density for this state as the 1-particle RhoCI density.
 
 Excited State   2:      Singlet-A      1.8676 eV  663.88 nm  f=0.0003  <S**2>=0.000
     175 ->177         0.46906
     176 ->178         0.50597
 
 Excited State   3:      Singlet-A      2.8598 eV  433.54 nm  f=0.1705  <S**2>=0.000
     175 ->177         0.17524
     176 ->178        -0.18830
     176 ->179         0.51439
     176 ->181         0.35936
 
 Excited State   4:      Singlet-A      2.9138 eV  425.51 nm  f=0.4552  <S**2>=0.000
     175 ->177        -0.31328
     176 ->178         0.28508
     176 ->179         0.38622
     176 ->180         0.29313
     176 ->181        -0.21726
 
 Excited State   5:      Singlet-A      2.9741 eV  416.87 nm  f=0.4764  <S**2>=0.000
     175 ->177        -0.30111
     176 ->178         0.30187
     176 ->179        -0.10507
     176 ->180        -0.13300
     176 ->181         0.48900
 SavETr:  write IOETrn=   770 NScale= 10 NData=  16 NLR=1 NState=    5 LETran=     100.
 Leave Link  914 at Thu May  5 07:26:28 2022, MaxMem=  6710886400 cpu:             123.9 elap:               5.2
 (Enter /sw/apps/gaussian-16.0/g16/l601.exe)
 Copying SCF densities to generalized density rwf, IOpCl= 0 IROHF=0.

 **********************************************************************

            Population analysis using the SCF density.

 **********************************************************************

 Orbital symmetries:
       Occupied  (A) (A) (A) (A) (A) (A) (A) (A) (A) (A) (A) (A)
                 (A) (A) (A) (A) (A) (A) (A) (A) (A) (A) (A) (A)
                 (A) (A) (A) (A) (A) (A) (A) (A) (A) (A) (A) (A)
                 (A) (A) (A) (A) (A) (A) (A) (A) (A) (A) (A) (A)
                 (A) (A) (A) (A) (A) (A) (A) (A) (A) (A) (A) (A)
                 (A) (A) (A) (A) (A) (A) (A) (A) (A) (A) (A) (A)
                 (A) (A) (A) (A) (A) (A) (A) (A) (A) (A) (A) (A)
                 (A) (A) (A) (A) (A) (A) (A) (A) (A) (A) (A) (A)
                 (A) (A) (A) (A) (A) (A) (A) (A) (A) (A) (A) (A)
                 (A) (A) (A) (A) (A) (A) (A) (A) (A) (A) (A) (A)
                 (A) (A) (A) (A) (A) (A) (A) (A) (A) (A) (A) (A)
                 (A) (A) (A) (A) (A) (A) (A) (A) (A) (A) (A) (A)
                 (A) (A) (A) (A) (A) (A) (A) (A) (A) (A) (A) (A)
                 (A) (A) (A) (A) (A) (A) (A) (A) (A) (A) (A) (A)
                 (A) (A) (A) (A) (A) (A) (A) (A)
       Virtual   (A) (A) (A) (A) (A) (A) (A) (A) (A) (A) (A) (A)
                 (A) (A) (A) (A) (A) (A) (A) (A) (A) (A) (A) (A)
                 (A) (A) (A) (A) (A) (A) (A) (A) (A) (A) (A) (A)
                 (A) (A) (A) (A) (A) (A) (A) (A) (A) (A) (A) (A)
                 (A) (A) (A) (A) (A) (A) (A) (A) (A) (A) (A) (A)
                 (A) (A) (A) (A) (A) (A) (A) (A) (A) (A) (A) (A)
                 (A) (A) (A) (A) (A) (A) (A) (A) (A) (A) (A) (A)
                 (A) (A) (A) (A) (A) (A) (A) (A) (A) (A) (A) (A)
                 (A) (A) (A) (A) (A) (A) (A) (A) (A) (A) (A) (A)
                 (A) (A) (A) (A) (A) (A) (A) (A) (A) (A) (A) (A)
                 (A) (A) (A) (A) (A) (A) (A) (A) (A) (A) (A) (A)
                 (A) (A) (A) (A) (A) (A) (A) (A) (A) (A) (A) (A)
                 (A) (A) (A) (A) (A) (A) (A) (A) (A) (A) (A) (A)
                 (A) (A) (A) (A) (A) (A)
 The electronic state is 1-A.
 Alpha  occ. eigenvalues --   -1.82849  -1.80849  -1.80046  -1.74438  -1.70915
 Alpha  occ. eigenvalues --   -1.69795  -1.65817  -1.61918  -1.60245  -1.55835
 Alpha  occ. eigenvalues --   -1.55658  -1.50636  -1.48872  -1.47416  -1.45790
 Alpha  occ. eigenvalues --   -1.43931  -1.43853  -1.40372  -1.39607  -1.37501
 Alpha  occ. eigenvalues --   -1.35745  -1.33261  -1.31834  -1.31359  -1.28508
 Alpha  occ. eigenvalues --   -1.27223  -1.26232  -1.23453  -1.20574  -1.17695
 Alpha  occ. eigenvalues --   -1.16777  -1.16324  -1.15712  -1.14306  -1.13722
 Alpha  occ. eigenvalues --   -1.13121  -1.10468  -1.09517  -1.05498  -1.03929
 Alpha  occ. eigenvalues --   -1.02654  -1.01012  -0.99233  -0.97670  -0.97246
 Alpha  occ. eigenvalues --   -0.96560  -0.94660  -0.94506  -0.93159  -0.92846
 Alpha  occ. eigenvalues --   -0.90461  -0.90051  -0.88998  -0.88348  -0.87430
 Alpha  occ. eigenvalues --   -0.86431  -0.85452  -0.83323  -0.82888  -0.81467
 Alpha  occ. eigenvalues --   -0.80391  -0.79645  -0.77586  -0.77068  -0.76389
 Alpha  occ. eigenvalues --   -0.75704  -0.75525  -0.74516  -0.74001  -0.73402
 Alpha  occ. eigenvalues --   -0.73027  -0.72190  -0.72068  -0.71241  -0.71167
 Alpha  occ. eigenvalues --   -0.70782  -0.69769  -0.69208  -0.69004  -0.68254
 Alpha  occ. eigenvalues --   -0.67893  -0.67483  -0.67099  -0.66346  -0.65426
 Alpha  occ. eigenvalues --   -0.65265  -0.64758  -0.64388  -0.63880  -0.63600
 Alpha  occ. eigenvalues --   -0.63218  -0.62930  -0.62588  -0.62470  -0.61977
 Alpha  occ. eigenvalues --   -0.61818  -0.61577  -0.60979  -0.60525  -0.60077
 Alpha  occ. eigenvalues --   -0.59833  -0.59505  -0.59252  -0.58349  -0.58234
 Alpha  occ. eigenvalues --   -0.57796  -0.57418  -0.57061  -0.56626  -0.56223
 Alpha  occ. eigenvalues --   -0.56076  -0.55817  -0.55249  -0.55025  -0.54689
 Alpha  occ. eigenvalues --   -0.54464  -0.54188  -0.53968  -0.53560  -0.53102
 Alpha  occ. eigenvalues --   -0.52776  -0.52550  -0.52447  -0.52053  -0.51782
 Alpha  occ. eigenvalues --   -0.51654  -0.51436  -0.51302  -0.50892  -0.50813
 Alpha  occ. eigenvalues --   -0.50341  -0.50238  -0.49837  -0.49805  -0.49274
 Alpha  occ. eigenvalues --   -0.49178  -0.48885  -0.48732  -0.48517  -0.48244
 Alpha  occ. eigenvalues --   -0.47792  -0.47666  -0.47030  -0.46686  -0.46664
 Alpha  occ. eigenvalues --   -0.46516  -0.46364  -0.46076  -0.45693  -0.45452
 Alpha  occ. eigenvalues --   -0.45038  -0.44804  -0.44732  -0.44662  -0.44211
 Alpha  occ. eigenvalues --   -0.43691  -0.43586  -0.43101  -0.42996  -0.42665
 Alpha  occ. eigenvalues --   -0.42393  -0.41279  -0.39541  -0.39224  -0.38888
 Alpha  occ. eigenvalues --   -0.38430  -0.37403  -0.36553  -0.35272  -0.35194
 Alpha  occ. eigenvalues --   -0.34761  -0.32890  -0.32719  -0.32141  -0.27034
 Alpha  occ. eigenvalues --   -0.21609
 Alpha virt. eigenvalues --   -0.08187  -0.03043  -0.01065   0.00628   0.00790
 Alpha virt. eigenvalues --    0.01641   0.02495   0.02703   0.04090   0.04222
 Alpha virt. eigenvalues --    0.05564   0.05689   0.06512   0.06954   0.07315
 Alpha virt. eigenvalues --    0.07884   0.08046   0.08469   0.08775   0.08973
 Alpha virt. eigenvalues --    0.09463   0.09786   0.10015   0.10155   0.10376
 Alpha virt. eigenvalues --    0.10784   0.11085   0.11180   0.11707   0.11922
 Alpha virt. eigenvalues --    0.12088   0.12406   0.12690   0.12884   0.13349
 Alpha virt. eigenvalues --    0.13362   0.13557   0.13603   0.13784   0.14027
 Alpha virt. eigenvalues --    0.14429   0.14825   0.15290   0.15623   0.15711
 Alpha virt. eigenvalues --    0.15862   0.15885   0.15905   0.16502   0.17021
 Alpha virt. eigenvalues --    0.17080   0.17184   0.17579   0.17751   0.17798
 Alpha virt. eigenvalues --    0.17901   0.18444   0.18716   0.19037   0.19131
 Alpha virt. eigenvalues --    0.19398   0.19670   0.20108   0.20251   0.20454
 Alpha virt. eigenvalues --    0.21257   0.21896   0.22384   0.23038   0.23061
 Alpha virt. eigenvalues --    0.23405   0.23457   0.23558   0.23734   0.23773
 Alpha virt. eigenvalues --    0.23855   0.24057   0.24079   0.24112   0.24406
 Alpha virt. eigenvalues --    0.24464   0.24476   0.24645   0.24671   0.24835
 Alpha virt. eigenvalues --    0.24855   0.24960   0.25019   0.25019   0.25074
 Alpha virt. eigenvalues --    0.25299   0.25362   0.25452   0.25506   0.25548
 Alpha virt. eigenvalues --    0.25694   0.25819   0.25826   0.25880   0.26029
 Alpha virt. eigenvalues --    0.26067   0.26209   0.26237   0.26288   0.26307
 Alpha virt. eigenvalues --    0.26416   0.26761   0.26894   0.26973   0.27153
 Alpha virt. eigenvalues --    0.27217   0.27451   0.27461   0.27797   0.27887
 Alpha virt. eigenvalues --    0.28050   0.28263   0.28727   0.28883   0.29304
 Alpha virt. eigenvalues --    0.30087   0.30321   0.30340   0.30689   0.31310
 Alpha virt. eigenvalues --    0.31381   0.32073   0.32695   0.33276   0.33606
 Alpha virt. eigenvalues --    0.34729   0.35195   0.35593   0.35727   0.36042
 Alpha virt. eigenvalues --    0.36417   0.36811   0.36861   0.36886   0.37512
 Alpha virt. eigenvalues --    0.38582   0.39040   0.39652   0.39712   0.40295
 Alpha virt. eigenvalues --    0.40741   0.41234   0.41548   0.41608   0.42097
 Alpha virt. eigenvalues --    0.42902   0.43271   0.45168   0.45438   0.46381
 Alpha virt. eigenvalues --    0.46645   0.47689   0.47759   0.50172   0.52235
 Alpha virt. eigenvalues --    0.53475   0.55961
          Condensed to atoms (all electrons):
 Mulliken charges:
               1
     1  Mg   0.434918
     2  C   -0.058628
     3  C   -0.081155
     4  C   -0.097690
     5  C   -0.075562
     6  N   -0.259995
     7  C    0.097767
     8  C    0.004980
     9  C    0.006717
    10  C    0.134507
    11  C   -0.047763
    12  C   -0.028055
    13  C    0.007612
    14  C    0.472653
    15  O   -0.534963
    16  O   -0.245646
    17  N   -0.305622
    18  C    0.110197
    19  C    0.064532
    20  C   -0.041959
    21  C    0.131489
    22  C   -0.045035
    23  C    0.334409
    24  O   -0.522101
    25  C   -0.024741
    26  N   -0.265133
    27  C    0.132583
    28  C   -0.003105
    29  C   -0.006048
    30  C    0.122459
    31  C   -0.054132
    32  C   -0.033681
    33  C   -0.056578
    34  N   -0.323354
    35  C    0.079702
    36  C    0.006300
    37  C   -0.059391
    38  C    0.099958
    39  C   -0.040301
    40  C    0.337533
    41  O   -0.515930
    42  C    0.065984
    43  C    0.484678
    44  O   -0.489285
    45  O   -0.289286
    46  C    0.068085
    47  C    0.097150
    48  C   -0.093195
    49  C   -0.001740
    50  C   -0.039017
    51  C   -0.028223
    52  C   -0.025946
    53  C   -0.028547
    54  C   -0.008800
    55  C   -0.056752
    56  C   -0.047316
    57  C   -0.037598
    58  C   -0.044627
    59  C   -0.002829
    60  C   -0.076043
    61  C   -0.032749
    62  C   -0.053504
    63  C   -0.035294
    64  C   -0.011997
    65  C   -0.056713
    66  C   -0.060097
    67  H    0.020854
    68  H    0.020846
    69  H    0.025589
    70  H    0.030334
    71  H    0.034644
    72  H    0.028287
    73  H    0.016877
    74  H    0.036189
    75  H    0.022946
    76  H    0.022676
    77  H    0.048381
    78  H    0.039132
    79  H    0.042019
    80  H    0.034790
    81  H    0.025441
    82  H    0.040061
    83  H    0.039551
    84  H    0.051879
    85  H    0.033617
    86  H    0.029978
    87  H    0.028584
    88  H    0.027580
    89  H    0.017962
    90  H    0.021751
    91  H    0.028026
    92  H    0.015382
    93  H    0.031049
    94  H    0.022623
    95  H    0.028079
    96  H    0.028554
    97  H    0.031495
    98  H    0.063841
    99  H    0.053580
   100  H    0.040081
   101  H    0.031918
   102  H    0.036244
   103  H    0.059021
   104  H    0.031432
   105  H    0.030897
   106  H    0.018145
   107  H    0.024779
   108  H    0.018018
   109  H    0.017847
   110  H    0.013413
   111  H    0.029396
   112  H    0.014010
   113  H    0.018005
   114  H    0.021962
   115  H    0.021370
   116  H    0.020064
   117  H    0.009844
   118  H    0.025007
   119  H    0.006627
   120  H    0.027186
   121  H    0.018402
   122  H    0.036307
   123  H    0.010561
   124  H    0.033969
   125  H    0.012077
   126  H    0.021222
   127  H    0.014341
   128  H    0.030054
   129  H    0.008406
   130  H    0.014945
   131  H    0.010348
   132  H    0.021031
   133  H    0.026618
   134  H    0.013914
   135  H    0.022333
   136  H    0.010633
   137  H    0.034154
   138  H    0.011024
   139  H    0.017239
   140  H    0.026470
 Sum of Mulliken charges =  -0.00000
 Mulliken charges with hydrogens summed into heavy atoms:
               1
     1  Mg   0.434918
     2  C   -0.058628
     3  C   -0.060302
     4  C   -0.076844
     5  C   -0.049973
     6  N   -0.259995
     7  C    0.097767
     8  C    0.035314
     9  C    0.041361
    10  C    0.134507
    11  C    0.033590
    12  C    0.017567
    13  C    0.095126
    14  C    0.472653
    15  O   -0.534963
    16  O   -0.245646
    17  N   -0.305622
    18  C    0.110197
    19  C    0.064532
    20  C   -0.041959
    21  C    0.131489
    22  C    0.057214
    23  C    0.334409
    24  O   -0.522101
    25  C    0.106751
    26  N   -0.265133
    27  C    0.132583
    28  C    0.030513
    29  C    0.023930
    30  C    0.122459
    31  C    0.019994
    32  C    0.016096
    33  C    0.012476
    34  N   -0.323354
    35  C    0.079702
    36  C    0.006300
    37  C   -0.059391
    38  C    0.099958
    39  C    0.047828
    40  C    0.337533
    41  O   -0.515930
    42  C    0.129825
    43  C    0.484678
    44  O   -0.489285
    45  O   -0.289286
    46  C    0.193664
    47  C    0.192415
    48  C   -0.061764
    49  C   -0.001740
    50  C    0.034804
    51  C    0.007642
    52  C    0.016863
    53  C    0.003469
    54  C    0.013162
    55  C   -0.005475
    56  C   -0.015682
    57  C    0.007989
    58  C    0.002240
    59  C    0.031140
    60  C   -0.028403
    61  C    0.005711
    62  C   -0.028210
    63  C    0.012356
    64  C    0.001917
    65  C    0.010408
    66  C   -0.005363
 Charge=             -0.0000 electrons
 Dipole moment (field-independent basis, Debye):
    X=             -0.4959    Y=              9.8305    Z=              1.8737  Tot=             10.0198
 N-N= 4.280546464624D+03 E-N= 0.000000000000D+00  KE=-9.234305888049D+03
 Leave Link  601 at Thu May  5 07:26:29 2022, MaxMem=  6710886400 cpu:               0.7 elap:               0.0
 (Enter /sw/apps/gaussian-16.0/g16/l9999.exe)
 1\1\GINC-BP1-COMPUTE135\SP\RZINDO CIS\STO-3G\C55H74Mg1N4O6\OF15641\05-
 May-2022\0\\#p ZINDO=(nstates=5)\\step_701_chromophore_2 ZINDO\\0,1\Mg
 ,0,2.721,0.153,44.702\C,0,5.631,2.199,43.967\C,0,0.846,2.243,42.808\C,
 0,0.304,-2.053,45.006\C,0,5.038,-2.285,45.924\N,0,3.221,1.914,43.391\C
 ,0,4.4,2.598,43.285\C,0,4.303,3.776,42.303\C,0,2.769,4.052,42.302\C,0,
 2.229,2.659,42.857\C,0,2.441,5.344,43.149\C,0,4.985,3.432,40.923\C,0,6
 .163,4.28,40.377\C,0,6.365,4.398,38.877\O,0,6.848,5.377,38.257\O,0,5.9
 76,3.272,38.262\N,0,0.829,0.166,44.076\C,0,0.158,1.132,43.378\C,0,-1.2
 66,0.732,43.356\C,0,-1.502,-0.352,44.124\C,0,-0.053,-0.809,44.442\C,0,
 -2.207,1.628,42.563\C,0,-2.847,-0.958,44.578\O,0,-3.901,-0.444,44.203\
 C,0,-2.973,-2.132,45.5\N,0,2.741,-1.888,45.278\C,0,1.54,-2.561,45.378\
 C,0,1.767,-4.04,45.831\C,0,3.28,-4.069,46.141\C,0,3.704,-2.642,45.767\
 C,0,0.788,-4.557,46.971\C,0,4.088,-5.182,45.412\C,0,4.993,-5.98,46.403
 \N,0,4.881,-0.037,44.992\C,0,5.585,-1.029,45.643\C,0,6.987,-0.552,45.8
 69\C,0,7.034,0.742,45.221\C,0,5.73,0.977,44.753\C,0,8.062,-1.353,46.52
 7\C,0,7.875,1.928,44.976\O,0,9.038,2.187,45.35\C,0,7.012,2.872,44.086\
 C,0,7.011,4.223,44.71\O,0,7.879,5.035,44.539\O,0,5.785,4.438,45.412\C,
 0,5.605,5.87,45.83\C,0,5.905,3.343,36.821\C,0,4.941,2.328,36.217\C,0,5
 .225,1.232,35.452\C,0,6.556,0.816,34.889\C,0,4.,0.458,34.919\C,0,3.566
 ,0.823,33.446\C,0,2.118,0.577,33.198\C,0,1.405,1.851,32.676\C,0,0.865,
 2.76,33.78\C,0,0.316,1.432,31.635\C,0,0.088,2.513,30.554\C,0,-1.442,2.
 736,30.33\C,0,-1.583,3.973,29.427\C,0,-2.695,4.979,29.993\C,0,-2.005,3
 .458,28.064\C,0,-1.82,4.52,26.947\C,0,-1.003,4.128,25.683\C,0,-1.867,3
 .898,24.435\C,0,-2.09,2.422,24.081\C,0,-1.2,4.776,23.323\H,0,0.267,2.9
 32,42.189\H,0,-0.518,-2.772,44.989\H,0,5.723,-3.013,46.362\H,0,4.862,4
 .595,42.754\H,0,2.476,4.12,41.254\H,0,1.586,5.176,43.804\H,0,2.139,6.0
 78,42.402\H,0,3.305,5.771,43.657\H,0,4.288,3.398,40.085\H,0,5.342,2.40
 2,40.95\H,0,7.076,3.832,40.768\H,0,6.106,5.292,40.778\H,0,-3.245,1.327
 ,42.703\H,0,-1.905,1.729,41.521\H,0,-2.109,2.618,43.007\H,0,-2.174,-2.
 09,46.241\H,0,-2.755,-2.967,44.834\H,0,-4.013,-2.239,45.807\H,0,1.65,-
 4.652,44.936\H,0,3.474,-4.103,47.213\H,0,0.167,-3.79,47.433\H,0,1.434,
 -5.075,47.68\H,0,0.077,-5.238,46.502\H,0,4.769,-4.656,44.742\H,0,3.378
 ,-5.759,44.82\H,0,4.309,-6.335,47.174\H,0,5.731,-5.342,46.887\H,0,5.41
 7,-6.82,45.853\H,0,7.924,-1.711,47.548\H,0,8.857,-0.609,46.578\H,0,8.3
 73,-2.258,46.007\H,0,7.42,3.037,43.089\H,0,6.529,6.448,45.847\H,0,5.14
 2,5.927,46.815\H,0,5.,6.324,45.045\H,0,6.899,3.237,36.386\H,0,5.827,4.
 324,36.353\H,0,3.876,2.373,36.447\H,0,6.909,-0.173,35.18\H,0,7.334,1.5
 37,35.14\H,0,6.589,0.798,33.8\H,0,3.142,0.584,35.58\H,0,4.218,-0.602,3
 5.046\H,0,4.095,0.115,32.808\H,0,3.861,1.832,33.156\H,0,1.613,0.27,34.
 114\H,0,2.004,-0.317,32.585\H,0,2.09,2.523,32.158\H,0,-0.225,2.785,33.
 777\H,0,1.343,3.739,33.761\H,0,1.11,2.41,34.783\H,0,-0.653,1.09,31.999
 \H,0,0.753,0.55,31.167\H,0,0.617,2.114,29.689\H,0,0.536,3.453,30.876\H
 ,0,-2.176,2.655,31.132\H,0,-1.591,1.79,29.81\H,0,-0.684,4.585,29.362\H
 ,0,-2.237,5.936,30.24\H,0,-3.32,4.607,30.805\H,0,-3.454,5.385,29.324\H
 ,0,-3.,3.019,27.992\H,0,-1.239,2.723,27.818\H,0,-1.431,5.415,27.433\H,
 0,-2.844,4.779,26.678\H,0,-0.599,3.148,25.936\H,0,-0.253,4.909,25.557\
 H,0,-2.859,4.322,24.587\H,0,-1.14,2.073,23.675\H,0,-2.717,2.514,23.194
 \H,0,-2.572,1.819,24.85\H,0,-1.548,4.471,22.336\H,0,-0.15,4.497,23.416
 \H,0,-1.337,5.852,23.433\\Version=ES64L-G16RevA.03\State=1-A\HF=-473.9
 982999\RMSD=4.950e-09\PG=C01 [X(C55H74Mg1N4O6)]\\@


 QUANTUM MECHANICS IS BOHRING -- M.S. GORDON
 Job cpu time:       0 days  0 hours  2 minutes 52.3 seconds.
 Elapsed time:       0 days  0 hours  0 minutes  7.5 seconds.
 File lengths (MBytes):  RWF=   1270 Int=      0 D2E=      0 Chk=     38 Scr=      1
 Normal termination of Gaussian 16 at Thu May  5 07:26:29 2022.
