 Entering Gaussian System, Link 0=g16
 Initial command:
 /sw/apps/gaussian-16.0/g16/l1.exe "/tmp/Gau-203241.inp" -scrdir="/tmp/"
 Entering Link 1 = /sw/apps/gaussian-16.0/g16/l1.exe PID=    203243.
  
 Copyright (c) 1988,1990,1992,1993,1995,1998,2003,2009,2016,
            Gaussian, Inc.  All Rights Reserved.
  
 This is part of the Gaussian(R) 16 program.  It is based on
 the Gaussian(R) 09 system (copyright 2009, Gaussian, Inc.),
 the Gaussian(R) 03 system (copyright 2003, Gaussian, Inc.),
 the Gaussian(R) 98 system (copyright 1998, Gaussian, Inc.),
 the Gaussian(R) 94 system (copyright 1995, Gaussian, Inc.),
 the Gaussian 92(TM) system (copyright 1992, Gaussian, Inc.),
 the Gaussian 90(TM) system (copyright 1990, Gaussian, Inc.),
 the Gaussian 88(TM) system (copyright 1988, Gaussian, Inc.),
 the Gaussian 86(TM) system (copyright 1986, Carnegie Mellon
 University), and the Gaussian 82(TM) system (copyright 1983,
 Carnegie Mellon University). Gaussian is a federally registered
 trademark of Gaussian, Inc.
  
 This software contains proprietary and confidential information,
 including trade secrets, belonging to Gaussian, Inc.
  
 This software is provided under written license and may be
 used, copied, transmitted, or stored only in accord with that
 written license.
  
 The following legend is applicable only to US Government
 contracts under FAR:
  
                    RESTRICTED RIGHTS LEGEND
  
 Use, reproduction and disclosure by the US Government is
 subject to restrictions as set forth in subparagraphs (a)
 and (c) of the Commercial Computer Software - Restricted
 Rights clause in FAR 52.227-19.
  
 Gaussian, Inc.
 340 Quinnipiac St., Bldg. 40, Wallingford CT 06492
  
  
 ---------------------------------------------------------------
 Warning -- This program may not be used in any manner that
 competes with the business of Gaussian, Inc. or will provide
 assistance to any competitor of Gaussian, Inc.  The licensee
 of this program is prohibited from giving any competitor of
 Gaussian, Inc. access to this program.  By using this program,
 the user acknowledges that Gaussian, Inc. is engaged in the
 business of creating and licensing software in the field of
 computational chemistry and represents and warrants to the
 licensee that it is not a competitor of Gaussian, Inc. and that
 it will not use this program in any manner prohibited above.
 ---------------------------------------------------------------
  

 Cite this work as:
 Gaussian 16, Revision A.03,
 M. J. Frisch, G. W. Trucks, H. B. Schlegel, G. E. Scuseria, 
 M. A. Robb, J. R. Cheeseman, G. Scalmani, V. Barone, 
 G. A. Petersson, H. Nakatsuji, X. Li, M. Caricato, A. V. Marenich, 
 J. Bloino, B. G. Janesko, R. Gomperts, B. Mennucci, H. P. Hratchian, 
 J. V. Ortiz, A. F. Izmaylov, J. L. Sonnenberg, D. Williams-Young, 
 F. Ding, F. Lipparini, F. Egidi, J. Goings, B. Peng, A. Petrone, 
 T. Henderson, D. Ranasinghe, V. G. Zakrzewski, J. Gao, N. Rega, 
 G. Zheng, W. Liang, M. Hada, M. Ehara, K. Toyota, R. Fukuda, 
 J. Hasegawa, M. Ishida, T. Nakajima, Y. Honda, O. Kitao, H. Nakai, 
 T. Vreven, K. Throssell, J. A. Montgomery, Jr., J. E. Peralta, 
 F. Ogliaro, M. J. Bearpark, J. J. Heyd, E. N. Brothers, K. N. Kudin, 
 V. N. Staroverov, T. A. Keith, R. Kobayashi, J. Normand, 
 K. Raghavachari, A. P. Rendell, J. C. Burant, S. S. Iyengar, 
 J. Tomasi, M. Cossi, J. M. Millam, M. Klene, C. Adamo, R. Cammi, 
 J. W. Ochterski, R. L. Martin, K. Morokuma, O. Farkas, 
 J. B. Foresman, and D. J. Fox, Gaussian, Inc., Wallingford CT, 2016.
 
 ******************************************
 Gaussian 16:  ES64L-G16RevA.03 25-Dec-2016
                30-Apr-2022 
 ******************************************
 %nproc=24
 Will use up to   24 processors via shared memory.
 %mem=75GB
 ---------------------------------
 #p PBE1PBE/Def2SVP td=(nstates=5)
 ---------------------------------
 1/38=1,172=1/1;
 2/12=2,17=6,18=5,40=1/2;
 3/5=43,7=101,11=9,25=1,30=1,74=-13/1,2,3,8;
 4//1;
 5/5=2,38=5/2;
 8/6=1,10=1,108=5/1;
 9/41=5,42=1,70=2/14;
 6/7=2,8=2,9=2,10=2/1;
 99/5=1,9=1/99;
 Leave Link    1 at Sat Apr 30 10:37:42 2022, MaxMem= 10066329600 cpu:               1.4 elap:               0.1
 (Enter /sw/apps/gaussian-16.0/g16/l101.exe)
 ----------------------------------------------------
 step_701_chromophore_3 TDDFT with PBE1PBE functional
 ----------------------------------------------------
 Symbolic Z-matrix:
 Charge =  0 Multiplicity = 1
 Mg                    1.669     7.998     27.045 
 C                     1.664     10.332    29.575 
 C                     2.256     5.454     29.28 
 C                     2.203     5.891     24.465 
 C                     1.599     10.649    24.703 
 N                     1.676     7.912     29.179 
 C                     1.653     8.981     30.059 
 C                     1.566     8.5       31.485 
 C                     1.868     6.905     31.351 
 C                     1.927     6.693     29.824 
 C                     3.153     6.435     32.089 
 C                     0.176     8.832     32.199 
 C                     0.294     9.076     33.677 
 C                     1.438     8.396     34.457 
 O                     2.536     8.896     34.798 
 O                     1.103     7.097     34.666 
 N                     2.203     6.003     26.926 
 C                     2.399     5.111     27.955 
 C                     2.956     3.928     27.418 
 C                     2.911     3.99      26.015 
 C                     2.433     5.332     25.738 
 C                     3.423     2.826     28.316 
 C                     3.269     2.943     24.978 
 O                     2.987     3.188     23.8 
 C                     3.79      1.594     25.348 
 N                     1.823     8.28      24.851 
 C                     1.89      7.211     24.071 
 C                     1.882     7.638     22.577 
 C                     1.477     9.09      22.61 
 C                     1.6       9.388     24.139 
 C                     3.225     7.428     21.823 
 C                     0.068     9.398     22.118 
 C                    -0.116     10.582    21.22 
 N                     1.727     10.041    27.067 
 C                     1.738     11.01     26.039 
 C                     1.862     12.304    26.66 
 C                     1.87      12.058    28.059 
 C                     1.667     10.714    28.239 
 C                     1.933     13.684    26.014 
 C                     1.884     12.697    29.352 
 O                     1.934     13.823    29.762 
 C                     1.802     11.579    30.424 
 C                     3.172     11.651    31.062 
 O                     4.208     11.575    30.46 
 O                     3.018     11.808    32.451 
 C                     4.284     11.824    33.153 
 C                     1.847     6.371     35.686 
 C                     0.952     5.337     36.205 
 C                     1.074     4.683     37.414 
 C                     2.064     5.066     38.439 
 C                     0.068     3.688     37.951 
 C                     0.254     2.154     37.688 
 C                     0.14      1.192     38.907 
 C                     1.42      0.265     39.177 
 C                     2.666     1.158     39.345 
 C                     1.349    -0.778     40.408 
 C                     2.242    -2.048     40.12 
 C                     2.705    -2.651     41.465 
 C                     4.201    -3.176     41.385 
 C                     4.636    -4.638     41.567 
 C                     5.257    -2.279     42.155 
 C                     6.422    -1.812     41.303 
 C                     7.215    -0.757     42.043 
 C                     8.637    -0.362     41.525 
 C                     9.584    -0.42      42.733 
 C                     8.694     0.999     40.75 
 H                     2.324     4.651     30.017 
 H                     2.281     5.245     23.588 
 H                     1.582     11.452    23.964 
 H                     2.422     8.987     31.952 
 H                     0.994     6.411     31.775 
 H                     3.612     5.561     31.627 
 H                     3.218     6.265     33.164 
 H                     3.974     7.135     31.933 
 H                    -0.588     8.061     32.104 
 H                    -0.264     9.685     31.682 
 H                    -0.578     8.526     34.031 
 H                     0.316     10.142    33.906 
 H                     4.491     2.735     28.119 
 H                     2.983     1.832     28.241 
 H                     3.419     3.097     29.372 
 H                     2.972     1.07      25.842 
 H                     4.747     1.56      25.868 
 H                     3.99      1.095     24.4 
 H                     1.125     7.123     21.985 
 H                     2.127     9.686     21.969 
 H                     3.872     7.285     22.688 
 H                     3.55      8.326     21.297 
 H                     3.311     6.614     21.104 
 H                    -0.453     9.668     23.036 
 H                    -0.411     8.495     21.738 
 H                    -0.405     10.281    20.213 
 H                     0.781     11.2      21.178 
 H                    -0.923     11.183    21.639 
 H                     0.966     14.151    25.828 
 H                     2.04      13.474    24.949 
 H                     2.727     14.362    26.326 
 H                     1.036     11.741    31.183 
 H                     4.639     12.854    33.207 
 H                     5.168     11.306    32.782 
 H                     4.001     11.475    34.146 
 H                     1.995     7.087     36.494 
 H                     2.689     5.882     35.196 
 H                     0.05      5.234     35.602 
 H                     2.792     5.757     38.014 
 H                     2.718     4.286     38.829 
 H                     1.493     5.56      39.225 
 H                    -0.908     4.042     37.62 
 H                     0.013     3.693     39.04 
 H                     1.241     2.024     37.245 
 H                    -0.538     1.944     36.968 
 H                    -0.726     0.55      38.742 
 H                     0.063     1.694     39.872 
 H                     1.603    -0.223     38.22 
 H                     3.192     1.109     38.391 
 H                     3.33      0.84      40.149 
 H                     2.279     2.114     39.698 
 H                     0.331    -1.159     40.499 
 H                     1.514    -0.266     41.356 
 H                     3.095    -1.853     39.47 
 H                     1.616    -2.786     39.618 
 H                     2.065    -3.516     41.644 
 H                     2.607    -1.952     42.295 
 H                     4.436    -2.956     40.343 
 H                     3.709    -5.21      41.539 
 H                     5.061    -4.956     42.519 
 H                     5.387    -4.942     40.838 
 H                     5.69     -2.812     43.001 
 H                     4.781    -1.343     42.448 
 H                     6.018    -1.523     40.333 
 H                     7.178    -2.587     41.178 
 H                     7.325    -1.158     43.051 
 H                     6.507     0.07      42.096 
 H                     8.975    -1.011     40.718 
 H                     10.274   -1.263     42.767 
 H                     9.215    -0.578     43.747 
 H                     10.209    0.472     42.686 
 H                     9.233     1.816     41.228 
 H                     7.697     1.38      40.528 
 H                     9.213     0.825     39.807 
 
 ITRead=  0  0  0  0  0  0  0  0  0  0  0  0  0  0  0  0  0  0  0  0
 ITRead=  0  0  0  0  0  0  0  0  0  0  0  0  0  0  0  0  0  0  0  0
 ITRead=  0  0  0  0  0  0  0  0  0  0  0  0  0  0  0  0  0  0  0  0
 ITRead=  0  0  0  0  0  0  0  0  0  0  0  0  0  0  0  0  0  0  0  0
 ITRead=  0  0  0  0  0  0  0  0  0  0  0  0  0  0  0  0  0  0  0  0
 ITRead=  0  0  0  0  0  0  0  0  0  0  0  0  0  0  0  0  0  0  0  0
 ITRead=  0  0  0  0  0  0  0  0  0  0  0  0  0  0  0  0  0  0  0  0
 MicOpt= -1 -1 -1 -1 -1 -1 -1 -1 -1 -1 -1 -1 -1 -1 -1 -1 -1 -1 -1 -1
 MicOpt= -1 -1 -1 -1 -1 -1 -1 -1 -1 -1 -1 -1 -1 -1 -1 -1 -1 -1 -1 -1
 MicOpt= -1 -1 -1 -1 -1 -1 -1 -1 -1 -1 -1 -1 -1 -1 -1 -1 -1 -1 -1 -1
 MicOpt= -1 -1 -1 -1 -1 -1 -1 -1 -1 -1 -1 -1 -1 -1 -1 -1 -1 -1 -1 -1
 MicOpt= -1 -1 -1 -1 -1 -1 -1 -1 -1 -1 -1 -1 -1 -1 -1 -1 -1 -1 -1 -1
 MicOpt= -1 -1 -1 -1 -1 -1 -1 -1 -1 -1 -1 -1 -1 -1 -1 -1 -1 -1 -1 -1
 MicOpt= -1 -1 -1 -1 -1 -1 -1 -1 -1 -1 -1 -1 -1 -1 -1 -1 -1 -1 -1 -1
 NAtoms=    140 NQM=      140 NQMF=       0 NMMI=      0 NMMIF=      0
                NMic=       0 NMicF=      0.
                    Isotopes and Nuclear Properties:
 (Nuclear quadrupole moments (NQMom) in fm**2, nuclear magnetic moments (NMagM)
  in nuclear magnetons)

  Atom         1           2           3           4           5           6           7           8           9          10
 IAtWgt=          24          12          12          12          12          14          12          12          12          12
 AtmWgt=  23.9850450  12.0000000  12.0000000  12.0000000  12.0000000  14.0030740  12.0000000  12.0000000  12.0000000  12.0000000
 NucSpn=           0           0           0           0           0           2           0           0           0           0
 AtZEff=  -0.0000000  -0.0000000  -0.0000000  -0.0000000  -0.0000000  -0.0000000  -0.0000000  -0.0000000  -0.0000000  -0.0000000
 NQMom=    0.0000000   0.0000000   0.0000000   0.0000000   0.0000000   2.0440000   0.0000000   0.0000000   0.0000000   0.0000000
 NMagM=    0.0000000   0.0000000   0.0000000   0.0000000   0.0000000   0.4037610   0.0000000   0.0000000   0.0000000   0.0000000
 AtZNuc=  12.0000000   6.0000000   6.0000000   6.0000000   6.0000000   7.0000000   6.0000000   6.0000000   6.0000000   6.0000000

  Atom        11          12          13          14          15          16          17          18          19          20
 IAtWgt=          12          12          12          12          16          16          14          12          12          12
 AtmWgt=  12.0000000  12.0000000  12.0000000  12.0000000  15.9949146  15.9949146  14.0030740  12.0000000  12.0000000  12.0000000
 NucSpn=           0           0           0           0           0           0           2           0           0           0
 AtZEff=  -0.0000000  -0.0000000  -0.0000000  -0.0000000  -0.0000000  -0.0000000  -0.0000000  -0.0000000  -0.0000000  -0.0000000
 NQMom=    0.0000000   0.0000000   0.0000000   0.0000000   0.0000000   0.0000000   2.0440000   0.0000000   0.0000000   0.0000000
 NMagM=    0.0000000   0.0000000   0.0000000   0.0000000   0.0000000   0.0000000   0.4037610   0.0000000   0.0000000   0.0000000
 AtZNuc=   6.0000000   6.0000000   6.0000000   6.0000000   8.0000000   8.0000000   7.0000000   6.0000000   6.0000000   6.0000000

  Atom        21          22          23          24          25          26          27          28          29          30
 IAtWgt=          12          12          12          16          12          14          12          12          12          12
 AtmWgt=  12.0000000  12.0000000  12.0000000  15.9949146  12.0000000  14.0030740  12.0000000  12.0000000  12.0000000  12.0000000
 NucSpn=           0           0           0           0           0           2           0           0           0           0
 AtZEff=  -0.0000000  -0.0000000  -0.0000000  -0.0000000  -0.0000000  -0.0000000  -0.0000000  -0.0000000  -0.0000000  -0.0000000
 NQMom=    0.0000000   0.0000000   0.0000000   0.0000000   0.0000000   2.0440000   0.0000000   0.0000000   0.0000000   0.0000000
 NMagM=    0.0000000   0.0000000   0.0000000   0.0000000   0.0000000   0.4037610   0.0000000   0.0000000   0.0000000   0.0000000
 AtZNuc=   6.0000000   6.0000000   6.0000000   8.0000000   6.0000000   7.0000000   6.0000000   6.0000000   6.0000000   6.0000000

  Atom        31          32          33          34          35          36          37          38          39          40
 IAtWgt=          12          12          12          14          12          12          12          12          12          12
 AtmWgt=  12.0000000  12.0000000  12.0000000  14.0030740  12.0000000  12.0000000  12.0000000  12.0000000  12.0000000  12.0000000
 NucSpn=           0           0           0           2           0           0           0           0           0           0
 AtZEff=  -0.0000000  -0.0000000  -0.0000000  -0.0000000  -0.0000000  -0.0000000  -0.0000000  -0.0000000  -0.0000000  -0.0000000
 NQMom=    0.0000000   0.0000000   0.0000000   2.0440000   0.0000000   0.0000000   0.0000000   0.0000000   0.0000000   0.0000000
 NMagM=    0.0000000   0.0000000   0.0000000   0.4037610   0.0000000   0.0000000   0.0000000   0.0000000   0.0000000   0.0000000
 AtZNuc=   6.0000000   6.0000000   6.0000000   7.0000000   6.0000000   6.0000000   6.0000000   6.0000000   6.0000000   6.0000000

  Atom        41          42          43          44          45          46          47          48          49          50
 IAtWgt=          16          12          12          16          16          12          12          12          12          12
 AtmWgt=  15.9949146  12.0000000  12.0000000  15.9949146  15.9949146  12.0000000  12.0000000  12.0000000  12.0000000  12.0000000
 NucSpn=           0           0           0           0           0           0           0           0           0           0
 AtZEff=  -0.0000000  -0.0000000  -0.0000000  -0.0000000  -0.0000000  -0.0000000  -0.0000000  -0.0000000  -0.0000000  -0.0000000
 NQMom=    0.0000000   0.0000000   0.0000000   0.0000000   0.0000000   0.0000000   0.0000000   0.0000000   0.0000000   0.0000000
 NMagM=    0.0000000   0.0000000   0.0000000   0.0000000   0.0000000   0.0000000   0.0000000   0.0000000   0.0000000   0.0000000
 AtZNuc=   8.0000000   6.0000000   6.0000000   8.0000000   8.0000000   6.0000000   6.0000000   6.0000000   6.0000000   6.0000000

  Atom        51          52          53          54          55          56          57          58          59          60
 IAtWgt=          12          12          12          12          12          12          12          12          12          12
 AtmWgt=  12.0000000  12.0000000  12.0000000  12.0000000  12.0000000  12.0000000  12.0000000  12.0000000  12.0000000  12.0000000
 NucSpn=           0           0           0           0           0           0           0           0           0           0
 AtZEff=  -0.0000000  -0.0000000  -0.0000000  -0.0000000  -0.0000000  -0.0000000  -0.0000000  -0.0000000  -0.0000000  -0.0000000
 NQMom=    0.0000000   0.0000000   0.0000000   0.0000000   0.0000000   0.0000000   0.0000000   0.0000000   0.0000000   0.0000000
 NMagM=    0.0000000   0.0000000   0.0000000   0.0000000   0.0000000   0.0000000   0.0000000   0.0000000   0.0000000   0.0000000
 AtZNuc=   6.0000000   6.0000000   6.0000000   6.0000000   6.0000000   6.0000000   6.0000000   6.0000000   6.0000000   6.0000000

  Atom        61          62          63          64          65          66          67          68          69          70
 IAtWgt=          12          12          12          12          12          12           1           1           1           1
 AtmWgt=  12.0000000  12.0000000  12.0000000  12.0000000  12.0000000  12.0000000   1.0078250   1.0078250   1.0078250   1.0078250
 NucSpn=           0           0           0           0           0           0           1           1           1           1
 AtZEff=  -0.0000000  -0.0000000  -0.0000000  -0.0000000  -0.0000000  -0.0000000  -0.0000000  -0.0000000  -0.0000000  -0.0000000
 NQMom=    0.0000000   0.0000000   0.0000000   0.0000000   0.0000000   0.0000000   0.0000000   0.0000000   0.0000000   0.0000000
 NMagM=    0.0000000   0.0000000   0.0000000   0.0000000   0.0000000   0.0000000   2.7928460   2.7928460   2.7928460   2.7928460
 AtZNuc=   6.0000000   6.0000000   6.0000000   6.0000000   6.0000000   6.0000000   1.0000000   1.0000000   1.0000000   1.0000000

  Atom        71          72          73          74          75          76          77          78          79          80
 IAtWgt=           1           1           1           1           1           1           1           1           1           1
 AtmWgt=   1.0078250   1.0078250   1.0078250   1.0078250   1.0078250   1.0078250   1.0078250   1.0078250   1.0078250   1.0078250
 NucSpn=           1           1           1           1           1           1           1           1           1           1
 AtZEff=  -0.0000000  -0.0000000  -0.0000000  -0.0000000  -0.0000000  -0.0000000  -0.0000000  -0.0000000  -0.0000000  -0.0000000
 NQMom=    0.0000000   0.0000000   0.0000000   0.0000000   0.0000000   0.0000000   0.0000000   0.0000000   0.0000000   0.0000000
 NMagM=    2.7928460   2.7928460   2.7928460   2.7928460   2.7928460   2.7928460   2.7928460   2.7928460   2.7928460   2.7928460
 AtZNuc=   1.0000000   1.0000000   1.0000000   1.0000000   1.0000000   1.0000000   1.0000000   1.0000000   1.0000000   1.0000000

  Atom        81          82          83          84          85          86          87          88          89          90
 IAtWgt=           1           1           1           1           1           1           1           1           1           1
 AtmWgt=   1.0078250   1.0078250   1.0078250   1.0078250   1.0078250   1.0078250   1.0078250   1.0078250   1.0078250   1.0078250
 NucSpn=           1           1           1           1           1           1           1           1           1           1
 AtZEff=  -0.0000000  -0.0000000  -0.0000000  -0.0000000  -0.0000000  -0.0000000  -0.0000000  -0.0000000  -0.0000000  -0.0000000
 NQMom=    0.0000000   0.0000000   0.0000000   0.0000000   0.0000000   0.0000000   0.0000000   0.0000000   0.0000000   0.0000000
 NMagM=    2.7928460   2.7928460   2.7928460   2.7928460   2.7928460   2.7928460   2.7928460   2.7928460   2.7928460   2.7928460
 AtZNuc=   1.0000000   1.0000000   1.0000000   1.0000000   1.0000000   1.0000000   1.0000000   1.0000000   1.0000000   1.0000000

  Atom        91          92          93          94          95          96          97          98          99         100
 IAtWgt=           1           1           1           1           1           1           1           1           1           1
 AtmWgt=   1.0078250   1.0078250   1.0078250   1.0078250   1.0078250   1.0078250   1.0078250   1.0078250   1.0078250   1.0078250
 NucSpn=           1           1           1           1           1           1           1           1           1           1
 AtZEff=  -0.0000000  -0.0000000  -0.0000000  -0.0000000  -0.0000000  -0.0000000  -0.0000000  -0.0000000  -0.0000000  -0.0000000
 NQMom=    0.0000000   0.0000000   0.0000000   0.0000000   0.0000000   0.0000000   0.0000000   0.0000000   0.0000000   0.0000000
 NMagM=    2.7928460   2.7928460   2.7928460   2.7928460   2.7928460   2.7928460   2.7928460   2.7928460   2.7928460   2.7928460
 AtZNuc=   1.0000000   1.0000000   1.0000000   1.0000000   1.0000000   1.0000000   1.0000000   1.0000000   1.0000000   1.0000000

  Atom       101         102         103         104         105         106         107         108         109         110
 IAtWgt=           1           1           1           1           1           1           1           1           1           1
 AtmWgt=   1.0078250   1.0078250   1.0078250   1.0078250   1.0078250   1.0078250   1.0078250   1.0078250   1.0078250   1.0078250
 NucSpn=           1           1           1           1           1           1           1           1           1           1
 AtZEff=  -0.0000000  -0.0000000  -0.0000000  -0.0000000  -0.0000000  -0.0000000  -0.0000000  -0.0000000  -0.0000000  -0.0000000
 NQMom=    0.0000000   0.0000000   0.0000000   0.0000000   0.0000000   0.0000000   0.0000000   0.0000000   0.0000000   0.0000000
 NMagM=    2.7928460   2.7928460   2.7928460   2.7928460   2.7928460   2.7928460   2.7928460   2.7928460   2.7928460   2.7928460
 AtZNuc=   1.0000000   1.0000000   1.0000000   1.0000000   1.0000000   1.0000000   1.0000000   1.0000000   1.0000000   1.0000000

  Atom       111         112         113         114         115         116         117         118         119         120
 IAtWgt=           1           1           1           1           1           1           1           1           1           1
 AtmWgt=   1.0078250   1.0078250   1.0078250   1.0078250   1.0078250   1.0078250   1.0078250   1.0078250   1.0078250   1.0078250
 NucSpn=           1           1           1           1           1           1           1           1           1           1
 AtZEff=  -0.0000000  -0.0000000  -0.0000000  -0.0000000  -0.0000000  -0.0000000  -0.0000000  -0.0000000  -0.0000000  -0.0000000
 NQMom=    0.0000000   0.0000000   0.0000000   0.0000000   0.0000000   0.0000000   0.0000000   0.0000000   0.0000000   0.0000000
 NMagM=    2.7928460   2.7928460   2.7928460   2.7928460   2.7928460   2.7928460   2.7928460   2.7928460   2.7928460   2.7928460
 AtZNuc=   1.0000000   1.0000000   1.0000000   1.0000000   1.0000000   1.0000000   1.0000000   1.0000000   1.0000000   1.0000000

  Atom       121         122         123         124         125         126         127         128         129         130
 IAtWgt=           1           1           1           1           1           1           1           1           1           1
 AtmWgt=   1.0078250   1.0078250   1.0078250   1.0078250   1.0078250   1.0078250   1.0078250   1.0078250   1.0078250   1.0078250
 NucSpn=           1           1           1           1           1           1           1           1           1           1
 AtZEff=  -0.0000000  -0.0000000  -0.0000000  -0.0000000  -0.0000000  -0.0000000  -0.0000000  -0.0000000  -0.0000000  -0.0000000
 NQMom=    0.0000000   0.0000000   0.0000000   0.0000000   0.0000000   0.0000000   0.0000000   0.0000000   0.0000000   0.0000000
 NMagM=    2.7928460   2.7928460   2.7928460   2.7928460   2.7928460   2.7928460   2.7928460   2.7928460   2.7928460   2.7928460
 AtZNuc=   1.0000000   1.0000000   1.0000000   1.0000000   1.0000000   1.0000000   1.0000000   1.0000000   1.0000000   1.0000000

  Atom       131         132         133         134         135         136         137         138         139         140
 IAtWgt=           1           1           1           1           1           1           1           1           1           1
 AtmWgt=   1.0078250   1.0078250   1.0078250   1.0078250   1.0078250   1.0078250   1.0078250   1.0078250   1.0078250   1.0078250
 NucSpn=           1           1           1           1           1           1           1           1           1           1
 AtZEff=  -0.0000000  -0.0000000  -0.0000000  -0.0000000  -0.0000000  -0.0000000  -0.0000000  -0.0000000  -0.0000000  -0.0000000
 NQMom=    0.0000000   0.0000000   0.0000000   0.0000000   0.0000000   0.0000000   0.0000000   0.0000000   0.0000000   0.0000000
 NMagM=    2.7928460   2.7928460   2.7928460   2.7928460   2.7928460   2.7928460   2.7928460   2.7928460   2.7928460   2.7928460
 AtZNuc=   1.0000000   1.0000000   1.0000000   1.0000000   1.0000000   1.0000000   1.0000000   1.0000000   1.0000000   1.0000000
 Leave Link  101 at Sat Apr 30 10:37:42 2022, MaxMem= 10066329600 cpu:               3.4 elap:               0.2
 (Enter /sw/apps/gaussian-16.0/g16/l202.exe)
 Stoichiometry    C55H74MgN4O6
 Framework group  C1[X(C55H74MgN4O6)]
 Deg. of freedom   414
 Full point group                 C1      NOp   1
 Largest Abelian subgroup         C1      NOp   1
 Largest concise Abelian subgroup C1      NOp   1
                         Standard orientation:                         
 ---------------------------------------------------------------------
 Center     Atomic      Atomic             Coordinates (Angstroms)
 Number     Number       Type             X           Y           Z
 ---------------------------------------------------------------------
      1         12           0       -5.267421    0.779166   -0.288089
      2          6           0       -4.419265   -2.548041   -0.045588
      3          6           0       -1.959138    1.710044   -0.266639
      4          6           0       -6.204918    4.004109    0.031041
      5          6           0       -8.649613   -0.124631    0.223369
      6          7           0       -3.445898   -0.328328   -0.418134
      7          6           0       -3.292122   -1.700429   -0.311448
      8          6           0       -1.860117   -2.100532   -0.559811
      9          6           0       -1.071701   -0.675664   -0.523233
     10          6           0       -2.219073    0.349804   -0.413201
     11          6           0       -0.025045   -0.555082    0.619894
     12          6           0       -1.640067   -2.920957   -1.912807
     13          6           0       -0.525791   -3.926492   -1.840462
     14          6           0        0.648884   -3.670975   -0.873826
     15          8           0        0.817756   -4.152861    0.271230
     16          8           0        1.473942   -2.749675   -1.433998
     17          7           0       -4.218935    2.551541   -0.091352
     18          6           0       -2.856343    2.741278   -0.107574
     19          6           0       -2.588685    4.076233    0.272376
     20          6           0       -3.794853    4.795441    0.319038
     21          6           0       -4.813693    3.787564    0.090291
     22          6           0       -1.184079    4.541423    0.495032
     23          6           0       -4.043965    6.272646    0.554729
     24          8           0       -5.194703    6.690470    0.386035
     25          6           0       -2.938001    7.239600    0.819277
     26          7           0       -7.221595    1.775421    0.036806
     27          6           0       -7.286049    3.097055   -0.032320
     28          6           0       -8.758900    3.568999    0.117374
     29          6           0       -9.568877    2.306875   -0.038822
     30          6           0       -8.440525    1.229083    0.044600
     31          6           0       -9.084390    4.305602    1.446937
     32          6           0      -10.341317    2.170683   -1.345343
     33          6           0      -11.750278    1.668589   -1.275711
     34          7           0       -6.339256   -0.914730    0.111389
     35          6           0       -7.713352   -1.146077    0.344210
     36          6           0       -7.875241   -2.544931    0.648269
     37          6           0       -6.578679   -3.113929    0.534474
     38          6           0       -5.735012   -2.125031    0.098294
     39          6           0       -9.144245   -3.320438    0.987349
     40          6           0       -5.845163   -4.354940    0.581537
     41          8           0       -6.102562   -5.506443    0.796622
     42          6           0       -4.364352   -4.032535    0.251257
     43          6           0       -3.680274   -4.295259    1.574942
     44          8           0       -3.994517   -3.786842    2.616211
     45          8           0       -2.631412   -5.209376    1.370091
     46          6           0       -1.878617   -5.472535    2.578339
     47          6           0        2.816741   -2.632386   -0.882505
     48          6           0        3.678477   -2.162409   -1.966975
     49          6           0        5.052399   -2.276863   -2.026313
     50          6           0        5.837716   -3.051849   -1.046472
     51          6           0        5.892553   -1.861158   -3.214488
     52          6           0        6.524636   -0.428048   -3.274399
     53          6           0        8.039316   -0.319266   -3.618364
     54          6           0        8.941826    0.437006   -2.530174
     55          6           0        8.776366   -0.257862   -1.163438
     56          6           0       10.516063    0.610772   -2.846138
     57          6           0       11.084688    1.916634   -2.164462
     58          6           0       12.592139    1.722055   -1.887456
     59          6           0       13.017859    2.363137   -0.498997
     60          6           0       14.016185    3.517978   -0.327298
     61          6           0       13.324108    1.311566    0.646890
     62          6           0       12.528208    1.523541    1.920793
     63          6           0       12.687657    0.329330    2.836167
     64          6           0       12.244244    0.444232    4.331699
     65          6           0       13.412751   -0.072189    5.184539
     66          6           0       10.876232   -0.245812    4.661209
     67          1           0       -0.905141    1.973658   -0.377094
     68          1           0       -6.575874    5.031038    0.049462
     69          1           0       -9.698114   -0.381581    0.384127
     70          1           0       -1.613466   -2.667688    0.337681
     71          1           0       -0.576296   -0.597081   -1.490748
     72          1           0        0.125103    0.472426    0.951079
     73          1           0        0.969274   -1.001610    0.593570
     74          1           0       -0.415803   -0.957759    1.554526
     75          1           0       -1.411832   -2.314692   -2.788885
     76          1           0       -2.590245   -3.388016   -2.172644
     77          1           0       -0.058203   -3.762736   -2.811412
     78          1           0       -0.905358   -4.931446   -1.652636
     79          1           0       -1.149029    4.841906    1.542026
     80          1           0       -0.773853    5.356213   -0.100864
     81          1           0       -0.452315    3.733490    0.476080
     82          1           0       -2.360406    7.310392   -0.102194
     83          1           0       -2.353027    7.084649    1.725478
     84          1           0       -3.429886    8.197604    0.986557
     85          1           0       -9.080532    4.239162   -0.680230
     86          1           0      -10.330984    2.239515    0.737871
     87          1           0       -8.197489    4.016262    2.009940
     88          1           0       -9.958852    3.889728    1.948007
     89          1           0       -9.232541    5.384899    1.435903
     90          1           0       -9.796332    1.383480   -1.865312
     91          1           0      -10.239077    3.074584   -1.946807
     92          1           0      -12.466305    2.442291   -1.552952
     93          1           0      -11.991501    1.278951   -0.286625
     94          1           0      -11.838271    0.852479   -1.992811
     95          1           0       -9.685689   -3.708928    0.124976
     96          1           0       -9.901824   -2.546705    1.118439
     97          1           0       -9.137849   -3.966511    1.864852
     98          1           0       -3.927902   -4.669340   -0.518854
     99          1           0       -2.337588   -6.314731    3.097849
    100          1           0       -1.784523   -4.743137    3.382419
    101          1           0       -0.905102   -5.763782    2.184150
    102          1           0        3.124422   -3.654385   -0.662789
    103          1           0        2.790406   -1.865765   -0.108048
    104          1           0        3.105862   -1.842395   -2.837334
    105          1           0        5.215081   -3.308570   -0.189436
    106          1           0        6.673098   -2.551595   -0.556475
    107          1           0        6.145514   -3.956638   -1.570390
    108          1           0        5.290031   -2.077130   -4.096404
    109          1           0        6.787590   -2.473101   -3.330267
    110          1           0        6.364744    0.031776   -2.299558
    111          1           0        5.927704    0.057025   -4.047794
    112          1           0        8.125682    0.207976   -4.569101
    113          1           0        8.560990   -1.275735   -3.665074
    114          1           0        8.434158    1.389041   -2.377256
    115          1           0        8.083346    0.367175   -0.599306
    116          1           0        9.709011   -0.367042   -0.609643
    117          1           0        8.501616   -1.285039   -1.403720
    118          1           0       10.653635    0.764316   -3.917242
    119          1           0       11.052199   -0.318184   -2.652043
    120          1           0       10.559163    2.207710   -1.254939
    121          1           0       10.976155    2.735598   -2.875829
    122          1           0       13.116129    2.268086   -2.673045
    123          1           0       12.892717    0.675128   -1.913945
    124          1           0       12.066213    2.782818   -0.170932
    125          1           0       14.170266    3.905022   -1.334151
    126          1           0       15.038333    3.300955   -0.017192
    127          1           0       13.678908    4.253899    0.402443
    128          1           0       14.374825    1.331641    0.934786
    129          1           0       12.997729    0.324371    0.319104
    130          1           0       11.509631    1.776762    1.627507
    131          1           0       12.947026    2.315388    2.541563
    132          1           0       13.756766    0.115601    2.819114
    133          1           0       12.187759   -0.460462    2.275512
    134          1           0       11.969601    1.463298    4.601458
    135          1           0       13.991059    0.680781    5.719796
    136          1           0       14.288976   -0.542233    4.736644
    137          1           0       12.981892   -0.715112    5.952334
    138          1           0       10.910128   -1.126271    5.301627
    139          1           0       10.346875   -0.546619    3.756913
    140          1           0       10.258572    0.475667    5.196793
 ---------------------------------------------------------------------
 Rotational constants (GHZ):           0.0434492           0.0097241           0.0086960
 Leave Link  202 at Sat Apr 30 10:37:42 2022, MaxMem= 10066329600 cpu:               0.2 elap:               0.0
 (Enter /sw/apps/gaussian-16.0/g16/l301.exe)
 Standard basis: def2SVP (5D, 7F)
 Ernie: Thresh=  0.10000D-02 Tol=  0.10000D-05 Strict=F.
 There are  1364 symmetry adapted cartesian basis functions of A   symmetry.
 There are  1298 symmetry adapted basis functions of A   symmetry.
  1298 basis functions,  2180 primitive gaussians,  1364 cartesian basis functions
   246 alpha electrons      246 beta electrons
       nuclear repulsion energy      9534.6419955487 Hartrees.
 IExCor= 1009 DFT=T Ex+Corr=PBE1PBE ExCW=0 ScaHFX=  0.250000
 ScaDFX=  0.750000  0.750000  1.000000  1.000000 ScalE2=  1.000000  1.000000
 IRadAn=      5 IRanWt=     -1 IRanGd=            0 ICorTp=0 IEmpDi=  4
 NAtoms=  140 NActive=  140 NUniq=  140 SFac= 1.00D+00 NAtFMM=   60 NAOKFM=T Big=T
 Integral buffers will be    131072 words long.
 Regular integral format.
 Two-electron integral symmetry is turned on.
 Leave Link  301 at Sat Apr 30 10:37:42 2022, MaxMem= 10066329600 cpu:               1.5 elap:               0.1
 (Enter /sw/apps/gaussian-16.0/g16/l302.exe)
 NPDir=0 NMtPBC=     1 NCelOv=     1 NCel=       1 NClECP=     1 NCelD=      1
         NCelK=      1 NCelE2=     1 NClLst=     1 CellRange=     0.0.
 One-electron integrals computed using PRISM.
 One-electron integral symmetry used in STVInt
   1 Symmetry operations used in ECPInt.
 ECPInt:  NShTT=  192510 NPrTT=  683786 LenC2=   93048 LenP2D=  204883.
 LDataN:  DoStor=T MaxTD1= 4 Len=   56
 NBasis=  1298 RedAO= T EigKep=  2.69D-04  NBF=  1298
 NBsUse=  1298 1.00D-06 EigRej= -1.00D+00 NBFU=  1298
 Precomputing XC quadrature grid using
 IXCGrd= 4 IRadAn=           5 IRanWt=          -1 IRanGd=           0 AccXCQ= 0.00D+00.
 Generated NRdTot=       0 NPtTot=           0 NUsed=           0 NTot=          32
 NSgBfM=  1073  1073  1073  1073  1073 MxSgAt=   140 MxSgA2=   140.
 Leave Link  302 at Sat Apr 30 10:37:46 2022, MaxMem= 10066329600 cpu:              83.5 elap:               3.5
 (Enter /sw/apps/gaussian-16.0/g16/l303.exe)
 DipDrv:  MaxL=1.
 Leave Link  303 at Sat Apr 30 10:37:46 2022, MaxMem= 10066329600 cpu:               6.8 elap:               0.3
 (Enter /sw/apps/gaussian-16.0/g16/l308.exe)
 Leave Link  308 at Sat Apr 30 10:37:47 2022, MaxMem= 10066329600 cpu:              10.1 elap:               0.5
 (Enter /sw/apps/gaussian-16.0/g16/l401.exe)
 ExpMin= 3.36D-02 ExpMax= 4.95D+03 ExpMxC= 7.45D+02 IAcc=3 IRadAn=         5 AccDes= 0.00D+00
 Harris functional with IExCor= 1009 and IRadAn=       5 diagonalized for initial guess.
 HarFok:  IExCor= 1009 AccDes= 0.00D+00 IRadAn=         5 IDoV= 1 UseB2=F ITyADJ=14
 ICtDFT=  3500011 ScaDFX=  1.000000  1.000000  1.000000  1.000000
 FoFCou: FMM=F IPFlag=           0 FMFlag=      100000 FMFlg1=        2001
         NFxFlg=           0 DoJE=T BraDBF=F KetDBF=T FulRan=T
         wScrn=  0.000000 ICntrl=       500 IOpCl=  0 I1Cent=   200000004 NGrid=           0
         NMat0=    1 NMatS0=      1 NMatT0=    0 NMatD0=    1 NMtDS0=    0 NMtDT0=    0
 Petite list used in FoFCou.
 Harris En= -3006.15028293989    
 JPrj=0 DoOrth=F DoCkMO=F.
 Leave Link  401 at Sat Apr 30 10:37:53 2022, MaxMem= 10066329600 cpu:             131.2 elap:               5.5
 (Enter /sw/apps/gaussian-16.0/g16/l502.exe)
 Integral symmetry usage will be decided dynamically.
 Closed shell SCF:
 Using DIIS extrapolation, IDIIS=  1040.
 NGot= 10066329600 LenX= 10062561258 LenY= 10060699398
 Requested convergence on RMS density matrix=1.00D-08 within 128 cycles.
 Requested convergence on MAX density matrix=1.00D-06.
 Requested convergence on             energy=1.00D-06.
 No special actions if energy rises.
 Fock matrices will be formed incrementally for  20 cycles.

 Cycle   1  Pass 1  IDiag  1:
 FoFJK:  IHMeth= 1 ICntrl=       0 DoSepK=F KAlg= 0 I1Cent=           0 FoldK=F
 IRaf= 510000000 NMat=       1 IRICut=       1 DoRegI=T DoRafI=F ISym2E= 0 IDoP0=0 IntGTp=1.
 FoFCou: FMM=T IPFlag=           0 FMFlag=      100000 FMFlg1=        2001
         NFxFlg=           0 DoJE=F BraDBF=F KetDBF=F FulRan=T
         wScrn=  0.000000 ICntrl=         0 IOpCl=  0 I1Cent=           0 NGrid=           0
         NMat0=    1 NMatS0=      1 NMatT0=    0 NMatD0=    1 NMtDS0=    0 NMtDT0=    0
 Symmetry not used in FoFCou.
 FMM levels:  10  Number of levels for PrismC:   9
 E= -3003.81077528103    
 DIIS: error= 2.35D-02 at cycle   1 NSaved=   1.
 NSaved= 1 IEnMin= 1 EnMin= -3003.81077528103     IErMin= 1 ErrMin= 2.35D-02
 ErrMax= 2.35D-02  0.00D+00 EMaxC= 1.00D-01 BMatC= 1.46D+00 BMatP= 1.46D+00
 IDIUse=3 WtCom= 7.65D-01 WtEn= 2.35D-01
 Coeff-Com:  0.100D+01
 Coeff-En:   0.100D+01
 Coeff:      0.100D+01
 Gap=     0.092 Goal=   None    Shift=    0.000
 GapD=    0.092 DampG=0.500 DampE=0.500 DampFc=0.2500 IDamp=-1.
 Damping current iteration by 2.50D-01
 RMSDP=2.73D-03 MaxDP=6.59D-01              OVMax= 2.47D-01

 Cycle   2  Pass 1  IDiag  1:
 RMSU=  6.76D-04    CP:  9.90D-01
 E= -3004.36029898297     Delta-E=       -0.549523701940 Rises=F Damp=T
 DIIS: error= 1.24D-02 at cycle   2 NSaved=   2.
 NSaved= 2 IEnMin= 2 EnMin= -3004.36029898297     IErMin= 2 ErrMin= 1.24D-02
 ErrMax= 1.24D-02  0.00D+00 EMaxC= 1.00D-01 BMatC= 3.67D-01 BMatP= 1.46D+00
 IDIUse=3 WtCom= 8.76D-01 WtEn= 1.24D-01
 Coeff-Com: -0.788D+00 0.179D+01
 Coeff-En:   0.000D+00 0.100D+01
 Coeff:     -0.691D+00 0.169D+01
 Gap=     0.169 Goal=   None    Shift=    0.000
 RMSDP=9.99D-04 MaxDP=5.44D-02 DE=-5.50D-01 OVMax= 2.71D-01

 Cycle   3  Pass 1  IDiag  1:
 RMSU=  8.09D-04    CP:  9.64D-01  1.79D+00
 E= -3005.20244776830     Delta-E=       -0.842148785323 Rises=F Damp=F
 DIIS: error= 1.16D-02 at cycle   3 NSaved=   3.
 NSaved= 3 IEnMin= 3 EnMin= -3005.20244776830     IErMin= 3 ErrMin= 1.16D-02
 ErrMax= 1.16D-02  0.00D+00 EMaxC= 1.00D-01 BMatC= 1.52D-01 BMatP= 3.67D-01
 IDIUse=3 WtCom= 8.84D-01 WtEn= 1.16D-01
 Coeff-Com: -0.482D+00 0.103D+01 0.449D+00
 Coeff-En:   0.000D+00 0.000D+00 0.100D+01
 Coeff:     -0.426D+00 0.914D+00 0.513D+00
 Gap=     0.082 Goal=   None    Shift=    0.000
 RMSDP=5.50D-04 MaxDP=7.20D-02 DE=-8.42D-01 OVMax= 1.89D-01

 Cycle   4  Pass 1  IDiag  1:
 RMSU=  3.88D-04    CP:  9.70D-01  1.97D+00  5.44D-01
 E= -3005.30491664814     Delta-E=       -0.102468879844 Rises=F Damp=F
 DIIS: error= 5.95D-03 at cycle   4 NSaved=   4.
 NSaved= 4 IEnMin= 4 EnMin= -3005.30491664814     IErMin= 4 ErrMin= 5.95D-03
 ErrMax= 5.95D-03  0.00D+00 EMaxC= 1.00D-01 BMatC= 4.13D-02 BMatP= 1.52D-01
 IDIUse=3 WtCom= 9.41D-01 WtEn= 5.95D-02
 Coeff-Com: -0.990D-01 0.222D+00 0.338D+00 0.539D+00
 Coeff-En:   0.000D+00 0.000D+00 0.267D+00 0.733D+00
 Coeff:     -0.931D-01 0.208D+00 0.334D+00 0.551D+00
 Gap=     0.080 Goal=   None    Shift=    0.000
 RMSDP=2.90D-04 MaxDP=3.25D-02 DE=-1.02D-01 OVMax= 1.57D-01

 Cycle   5  Pass 1  IDiag  1:
 RMSU=  1.50D-04    CP:  9.68D-01  1.87D+00  7.12D-01  4.92D-01
 E= -3005.33793697060     Delta-E=       -0.033020322460 Rises=F Damp=F
 DIIS: error= 2.51D-03 at cycle   5 NSaved=   5.
 NSaved= 5 IEnMin= 5 EnMin= -3005.33793697060     IErMin= 5 ErrMin= 2.51D-03
 ErrMax= 2.51D-03  0.00D+00 EMaxC= 1.00D-01 BMatC= 6.64D-03 BMatP= 4.13D-02
 IDIUse=3 WtCom= 9.75D-01 WtEn= 2.51D-02
 Coeff-Com: -0.210D-01 0.526D-01 0.194D+00 0.393D+00 0.381D+00
 Coeff-En:   0.000D+00 0.000D+00 0.000D+00 0.186D+00 0.814D+00
 Coeff:     -0.204D-01 0.512D-01 0.189D+00 0.388D+00 0.392D+00
 Gap=     0.080 Goal=   None    Shift=    0.000
 RMSDP=1.32D-04 MaxDP=9.72D-03 DE=-3.30D-02 OVMax= 8.35D-02

 Cycle   6  Pass 1  IDiag  1:
 RMSU=  4.92D-05    CP:  9.68D-01  1.88D+00  6.86D-01  6.42D-01  2.99D-01
 E= -3005.34606938700     Delta-E=       -0.008132416395 Rises=F Damp=F
 DIIS: error= 6.63D-04 at cycle   6 NSaved=   6.
 NSaved= 6 IEnMin= 6 EnMin= -3005.34606938700     IErMin= 6 ErrMin= 6.63D-04
 ErrMax= 6.63D-04  0.00D+00 EMaxC= 1.00D-01 BMatC= 6.21D-04 BMatP= 6.64D-03
 IDIUse=3 WtCom= 9.93D-01 WtEn= 6.63D-03
 Coeff-Com:  0.238D-02-0.177D-02 0.646D-01 0.154D+00 0.262D+00 0.519D+00
 Coeff-En:   0.000D+00 0.000D+00 0.000D+00 0.000D+00 0.105D+00 0.895D+00
 Coeff:      0.237D-02-0.176D-02 0.642D-01 0.153D+00 0.261D+00 0.521D+00
 Gap=     0.079 Goal=   None    Shift=    0.000
 RMSDP=3.61D-05 MaxDP=2.75D-03 DE=-8.13D-03 OVMax= 2.02D-02

 Cycle   7  Pass 1  IDiag  1:
 RMSU=  1.73D-05    CP:  9.68D-01  1.87D+00  6.96D-01  6.13D-01  4.37D-01
                    CP:  6.03D-01
 E= -3005.34681200473     Delta-E=       -0.000742617738 Rises=F Damp=F
 DIIS: error= 3.12D-04 at cycle   7 NSaved=   7.
 NSaved= 7 IEnMin= 7 EnMin= -3005.34681200473     IErMin= 7 ErrMin= 3.12D-04
 ErrMax= 3.12D-04  0.00D+00 EMaxC= 1.00D-01 BMatC= 6.01D-05 BMatP= 6.21D-04
 IDIUse=3 WtCom= 9.97D-01 WtEn= 3.12D-03
 Coeff-Com:  0.322D-02-0.587D-02 0.179D-01 0.477D-01 0.116D+00 0.318D+00
 Coeff-Com:  0.503D+00
 Coeff-En:   0.000D+00 0.000D+00 0.000D+00 0.000D+00 0.000D+00 0.197D-01
 Coeff-En:   0.980D+00
 Coeff:      0.321D-02-0.585D-02 0.178D-01 0.476D-01 0.116D+00 0.317D+00
 Coeff:      0.505D+00
 Gap=     0.080 Goal=   None    Shift=    0.000
 RMSDP=9.59D-06 MaxDP=1.57D-03 DE=-7.43D-04 OVMax= 3.13D-03

 Cycle   8  Pass 1  IDiag  1:
 RMSU=  6.14D-06    CP:  9.68D-01  1.88D+00  6.95D-01  6.18D-01  4.32D-01
                    CP:  6.34D-01  6.19D-01
 E= -3005.34686183484     Delta-E=       -0.000049830107 Rises=F Damp=F
 DIIS: error= 8.08D-05 at cycle   8 NSaved=   8.
 NSaved= 8 IEnMin= 8 EnMin= -3005.34686183484     IErMin= 8 ErrMin= 8.08D-05
 ErrMax= 8.08D-05  0.00D+00 EMaxC= 1.00D-01 BMatC= 6.96D-06 BMatP= 6.01D-05
 IDIUse=1 WtCom= 1.00D+00 WtEn= 0.00D+00
 Coeff-Com:  0.154D-02-0.304D-02 0.364D-02 0.109D-01 0.413D-01 0.136D+00
 Coeff-Com:  0.307D+00 0.503D+00
 Coeff:      0.154D-02-0.304D-02 0.364D-02 0.109D-01 0.413D-01 0.136D+00
 Coeff:      0.307D+00 0.503D+00
 Gap=     0.080 Goal=   None    Shift=    0.000
 RMSDP=3.94D-06 MaxDP=6.34D-04 DE=-4.98D-05 OVMax= 1.96D-03

 Cycle   9  Pass 1  IDiag  1:
 RMSU=  2.29D-06    CP:  9.68D-01  1.88D+00  6.96D-01  6.18D-01  4.34D-01
                    CP:  6.47D-01  6.54D-01  5.32D-01
 E= -3005.34686743856     Delta-E=       -0.000005603715 Rises=F Damp=F
 DIIS: error= 2.72D-05 at cycle   9 NSaved=   9.
 NSaved= 9 IEnMin= 9 EnMin= -3005.34686743856     IErMin= 9 ErrMin= 2.72D-05
 ErrMax= 2.72D-05  0.00D+00 EMaxC= 1.00D-01 BMatC= 1.08D-06 BMatP= 6.96D-06
 IDIUse=1 WtCom= 1.00D+00 WtEn= 0.00D+00
 Coeff-Com:  0.565D-03-0.115D-02 0.421D-03 0.137D-02 0.136D-01 0.509D-01
 Coeff-Com:  0.140D+00 0.325D+00 0.470D+00
 Coeff:      0.565D-03-0.115D-02 0.421D-03 0.137D-02 0.136D-01 0.509D-01
 Coeff:      0.140D+00 0.325D+00 0.470D+00
 Gap=     0.080 Goal=   None    Shift=    0.000
 RMSDP=1.79D-06 MaxDP=1.76D-04 DE=-5.60D-06 OVMax= 1.22D-03

 Cycle  10  Pass 1  IDiag  1:
 RMSU=  1.22D-06    CP:  9.68D-01  1.88D+00  6.96D-01  6.18D-01  4.35D-01
                    CP:  6.52D-01  6.53D-01  6.51D-01  5.47D-01
 E= -3005.34686831047     Delta-E=       -0.000000871914 Rises=F Damp=F
 DIIS: error= 1.63D-05 at cycle  10 NSaved=  10.
 NSaved=10 IEnMin=10 EnMin= -3005.34686831047     IErMin=10 ErrMin= 1.63D-05
 ErrMax= 1.63D-05  0.00D+00 EMaxC= 1.00D-01 BMatC= 2.92D-07 BMatP= 1.08D-06
 IDIUse=1 WtCom= 1.00D+00 WtEn= 0.00D+00
 Coeff-Com:  0.103D-03-0.224D-03-0.404D-03-0.133D-02 0.182D-02 0.984D-02
 Coeff-Com:  0.415D-01 0.144D+00 0.353D+00 0.451D+00
 Coeff:      0.103D-03-0.224D-03-0.404D-03-0.133D-02 0.182D-02 0.984D-02
 Coeff:      0.415D-01 0.144D+00 0.353D+00 0.451D+00
 Gap=     0.080 Goal=   None    Shift=    0.000
 RMSDP=9.22D-07 MaxDP=8.23D-05 DE=-8.72D-07 OVMax= 6.72D-04

 Cycle  11  Pass 1  IDiag  1:
 RMSU=  4.31D-07    CP:  9.68D-01  1.88D+00  6.96D-01  6.18D-01  4.35D-01
                    CP:  6.51D-01  6.59D-01  6.30D-01  7.51D-01  4.75D-01
 E= -3005.34686865009     Delta-E=       -0.000000339622 Rises=F Damp=F
 DIIS: error= 6.15D-06 at cycle  11 NSaved=  11.
 NSaved=11 IEnMin=11 EnMin= -3005.34686865009     IErMin=11 ErrMin= 6.15D-06
 ErrMax= 6.15D-06  0.00D+00 EMaxC= 1.00D-01 BMatC= 4.98D-08 BMatP= 2.92D-07
 IDIUse=1 WtCom= 1.00D+00 WtEn= 0.00D+00
 Coeff-Com: -0.153D-04 0.237D-04-0.364D-03-0.126D-02-0.916D-03-0.178D-02
 Coeff-Com:  0.632D-02 0.490D-01 0.171D+00 0.331D+00 0.447D+00
 Coeff:     -0.153D-04 0.237D-04-0.364D-03-0.126D-02-0.916D-03-0.178D-02
 Coeff:      0.632D-02 0.490D-01 0.171D+00 0.331D+00 0.447D+00
 Gap=     0.080 Goal=   None    Shift=    0.000
 RMSDP=3.32D-07 MaxDP=5.10D-05 DE=-3.40D-07 OVMax= 1.93D-04

 Cycle  12  Pass 1  IDiag  1:
 RMSU=  1.64D-07    CP:  9.68D-01  1.88D+00  6.96D-01  6.17D-01  4.35D-01
                    CP:  6.52D-01  6.62D-01  6.49D-01  7.24D-01  6.33D-01
                    CP:  6.89D-01
 E= -3005.34686871030     Delta-E=       -0.000000060205 Rises=F Damp=F
 DIIS: error= 1.14D-06 at cycle  12 NSaved=  12.
 NSaved=12 IEnMin=12 EnMin= -3005.34686871030     IErMin=12 ErrMin= 1.14D-06
 ErrMax= 1.14D-06  0.00D+00 EMaxC= 1.00D-01 BMatC= 2.95D-09 BMatP= 4.98D-08
 IDIUse=1 WtCom= 1.00D+00 WtEn= 0.00D+00
 Coeff-Com: -0.176D-04 0.366D-04-0.128D-03-0.484D-03-0.632D-03-0.247D-02
 Coeff-Com: -0.234D-02 0.576D-02 0.360D-01 0.109D+00 0.223D+00 0.632D+00
 Coeff:     -0.176D-04 0.366D-04-0.128D-03-0.484D-03-0.632D-03-0.247D-02
 Coeff:     -0.234D-02 0.576D-02 0.360D-01 0.109D+00 0.223D+00 0.632D+00
 Gap=     0.080 Goal=   None    Shift=    0.000
 RMSDP=9.83D-08 MaxDP=1.22D-05 DE=-6.02D-08 OVMax= 5.47D-05

 Cycle  13  Pass 1  IDiag  1:
 RMSU=  7.03D-08    CP:  9.68D-01  1.88D+00  6.96D-01  6.17D-01  4.35D-01
                    CP:  6.52D-01  6.62D-01  6.50D-01  7.42D-01  6.42D-01
                    CP:  7.79D-01  8.83D-01
 E= -3005.34686871362     Delta-E=       -0.000000003318 Rises=F Damp=F
 DIIS: error= 7.13D-07 at cycle  13 NSaved=  13.
 NSaved=13 IEnMin=13 EnMin= -3005.34686871362     IErMin=13 ErrMin= 7.13D-07
 ErrMax= 7.13D-07  0.00D+00 EMaxC= 1.00D-01 BMatC= 9.54D-10 BMatP= 2.95D-09
 IDIUse=1 WtCom= 1.00D+00 WtEn= 0.00D+00
 Coeff-Com: -0.608D-05 0.154D-04-0.444D-05-0.503D-04-0.189D-03-0.137D-02
 Coeff-Com: -0.299D-02-0.738D-02-0.165D-01-0.139D-02 0.383D-01 0.408D+00
 Coeff-Com:  0.583D+00
 Coeff:     -0.608D-05 0.154D-04-0.444D-05-0.503D-04-0.189D-03-0.137D-02
 Coeff:     -0.299D-02-0.738D-02-0.165D-01-0.139D-02 0.383D-01 0.408D+00
 Coeff:      0.583D+00
 Gap=     0.080 Goal=   None    Shift=    0.000
 RMSDP=5.50D-08 MaxDP=3.95D-06 DE=-3.32D-09 OVMax= 2.21D-05

 Cycle  14  Pass 1  IDiag  1:
 RMSU=  2.96D-08    CP:  9.68D-01  1.88D+00  6.96D-01  6.17D-01  4.35D-01
                    CP:  6.52D-01  6.62D-01  6.53D-01  7.46D-01  6.60D-01
                    CP:  8.03D-01  1.05D+00  7.92D-01
 E= -3005.34686871476     Delta-E=       -0.000000001144 Rises=F Damp=F
 DIIS: error= 2.56D-07 at cycle  14 NSaved=  14.
 NSaved=14 IEnMin=14 EnMin= -3005.34686871476     IErMin=14 ErrMin= 2.56D-07
 ErrMax= 2.56D-07  0.00D+00 EMaxC= 1.00D-01 BMatC= 1.29D-10 BMatP= 9.54D-10
 IDIUse=1 WtCom= 1.00D+00 WtEn= 0.00D+00
 Coeff-Com:  0.750D-06 0.428D-06 0.209D-04 0.571D-04 0.182D-04-0.406D-03
 Coeff-Com: -0.134D-02-0.547D-02-0.172D-01-0.210D-01-0.200D-01 0.130D+00
 Coeff-Com:  0.331D+00 0.604D+00
 Coeff:      0.750D-06 0.428D-06 0.209D-04 0.571D-04 0.182D-04-0.406D-03
 Coeff:     -0.134D-02-0.547D-02-0.172D-01-0.210D-01-0.200D-01 0.130D+00
 Coeff:      0.331D+00 0.604D+00
 Gap=     0.080 Goal=   None    Shift=    0.000
 RMSDP=2.19D-08 MaxDP=3.23D-06 DE=-1.14D-09 OVMax= 1.06D-05

 Cycle  15  Pass 1  IDiag  1:
 RMSU=  1.20D-08    CP:  9.68D-01  1.88D+00  6.96D-01  6.17D-01  4.35D-01
                    CP:  6.52D-01  6.63D-01  6.53D-01  7.48D-01  6.64D-01
                    CP:  8.24D-01  1.09D+00  9.09D-01  8.17D-01
 E= -3005.34686871503     Delta-E=       -0.000000000267 Rises=F Damp=F
 DIIS: error= 8.55D-08 at cycle  15 NSaved=  15.
 NSaved=15 IEnMin=15 EnMin= -3005.34686871503     IErMin=15 ErrMin= 8.55D-08
 ErrMax= 8.55D-08  0.00D+00 EMaxC= 1.00D-01 BMatC= 2.41D-11 BMatP= 1.29D-10
 IDIUse=1 WtCom= 1.00D+00 WtEn= 0.00D+00
 Coeff-Com:  0.143D-05-0.215D-05 0.119D-04 0.356D-04 0.475D-04-0.124D-04
 Coeff-Com: -0.188D-03-0.151D-02-0.630D-02-0.961D-02-0.154D-01 0.875D-02
 Coeff-Com:  0.760D-01 0.353D+00 0.595D+00
 Coeff:      0.143D-05-0.215D-05 0.119D-04 0.356D-04 0.475D-04-0.124D-04
 Coeff:     -0.188D-03-0.151D-02-0.630D-02-0.961D-02-0.154D-01 0.875D-02
 Coeff:      0.760D-01 0.353D+00 0.595D+00
 Gap=     0.080 Goal=   None    Shift=    0.000
 RMSDP=8.17D-09 MaxDP=7.86D-07 DE=-2.67D-10 OVMax= 3.89D-06

 SCF Done:  E(RPBE1PBE) =  -3005.34686872     A.U. after   15 cycles
            NFock= 15  Conv=0.82D-08     -V/T= 2.0101
 KE= 2.975431186173D+03 PE=-2.606091095335D+04 EE= 1.054549090291D+04
 Leave Link  502 at Sat Apr 30 10:42:34 2022, MaxMem= 10066329600 cpu:            6702.9 elap:             280.9
 (Enter /sw/apps/gaussian-16.0/g16/l801.exe)
 DoSCS=F DFT=T ScalE2(SS,OS)=  1.000000  1.000000
 ExpMin= 3.36D-02 ExpMax= 4.95D+03 ExpMxC= 7.45D+02 IAcc=3 IRadAn=         5 AccDes= 0.00D+00
 HarFok:  IExCor=  205 AccDes= 0.00D+00 IRadAn=         5 IDoV=-2 UseB2=F ITyADJ=14
 ICtDFT= 12500011 ScaDFX=  1.000000  1.000000  1.000000  1.000000
 GSVD:  LWork=       -5460 too small for GESVD, short by       25550 words or       25550 for optimal perf.
 Largest valence mixing into a core orbital is  1.60D-04
 Largest core mixing into a valence orbital is  5.80D-05
 Range of M.O.s used for correlation:    71  1298
 NBasis=  1298 NAE=   246 NBE=   246 NFC=    70 NFV=     0
 NROrb=   1228 NOA=   176 NOB=   176 NVA=  1052 NVB=  1052

 **** Warning!!: The smallest alpha delta epsilon is  0.79616950D-01

 Leave Link  801 at Sat Apr 30 10:42:34 2022, MaxMem= 10066329600 cpu:               6.9 elap:               0.3
 (Enter /sw/apps/gaussian-16.0/g16/l914.exe)
 RHF ground state
 Two-electron integrals replicated using symmetry.
 MDV= 10066329600 DFT=T DoStab=F Mixed=T DoRPA=T DoScal=F NonHer=T
 Making orbital integer symmetry assigments:
 Orbital symmetries:
       Occupied  (A) (A) (A) (A) (A) (A) (A) (A) (A) (A) (A) (A)
                 (A) (A) (A) (A) (A) (A) (A) (A) (A) (A) (A) (A)
                 (A) (A) (A) (A) (A) (A) (A) (A) (A) (A) (A) (A)
                 (A) (A) (A) (A) (A) (A) (A) (A) (A) (A) (A) (A)
                 (A) (A) (A) (A) (A) (A) (A) (A) (A) (A) (A) (A)
                 (A) (A) (A) (A) (A) (A) (A) (A) (A) (A) (A) (A)
                 (A) (A) (A) (A) (A) (A) (A) (A) (A) (A) (A) (A)
                 (A) (A) (A) (A) (A) (A) (A) (A) (A) (A) (A) (A)
                 (A) (A) (A) (A) (A) (A) (A) (A) (A) (A) (A) (A)
                 (A) (A) (A) (A) (A) (A) (A) (A) (A) (A) (A) (A)
                 (A) (A) (A) (A) (A) (A) (A) (A) (A) (A) (A) (A)
                 (A) (A) (A) (A) (A) (A) (A) (A) (A) (A) (A) (A)
                 (A) (A) (A) (A) (A) (A) (A) (A) (A) (A) (A) (A)
                 (A) (A) (A) (A) (A) (A) (A) (A) (A) (A) (A) (A)
                 (A) (A) (A) (A) (A) (A) (A) (A) (A) (A) (A) (A)
                 (A) (A) (A) (A) (A) (A) (A) (A) (A) (A) (A) (A)
                 (A) (A) (A) (A) (A) (A) (A) (A) (A) (A) (A) (A)
                 (A) (A) (A) (A) (A) (A) (A) (A) (A) (A) (A) (A)
                 (A) (A) (A) (A) (A) (A) (A) (A) (A) (A) (A) (A)
                 (A) (A) (A) (A) (A) (A) (A) (A) (A) (A) (A) (A)
                 (A) (A) (A) (A) (A) (A)
       Virtual   (A) (A) (A) (A) (A) (A) (A) (A) (A) (A) (A) (A)
                 (A) (A) (A) (A) (A) (A) (A) (A) (A) (A) (A) (A)
                 (A) (A) (A) (A) (A) (A) (A) (A) (A) (A) (A) (A)
                 (A) (A) (A) (A) (A) (A) (A) (A) (A) (A) (A) (A)
                 (A) (A) (A) (A) (A) (A) (A) (A) (A) (A) (A) (A)
                 (A) (A) (A) (A) (A) (A) (A) (A) (A) (A) (A) (A)
                 (A) (A) (A) (A) (A) (A) (A) (A) (A) (A) (A) (A)
                 (A) (A) (A) (A) (A) (A) (A) (A) (A) (A) (A) (A)
                 (A) (A) (A) (A) (A) (A) (A) (A) (A) (A) (A) (A)
                 (A) (A) (A) (A) (A) (A) (A) (A) (A) (A) (A) (A)
                 (A) (A) (A) (A) (A) (A) (A) (A) (A) (A) (A) (A)
                 (A) (A) (A) (A) (A) (A) (A) (A) (A) (A) (A) (A)
                 (A) (A) (A) (A) (A) (A) (A) (A) (A) (A) (A) (A)
                 (A) (A) (A) (A) (A) (A) (A) (A) (A) (A) (A) (A)
                 (A) (A) (A) (A) (A) (A) (A) (A) (A) (A) (A) (A)
                 (A) (A) (A) (A) (A) (A) (A) (A) (A) (A) (A) (A)
                 (A) (A) (A) (A) (A) (A) (A) (A) (A) (A) (A) (A)
                 (A) (A) (A) (A) (A) (A) (A) (A) (A) (A) (A) (A)
                 (A) (A) (A) (A) (A) (A) (A) (A) (A) (A) (A) (A)
                 (A) (A) (A) (A) (A) (A) (A) (A) (A) (A) (A) (A)
                 (A) (A) (A) (A) (A) (A) (A) (A) (A) (A) (A) (A)
                 (A) (A) (A) (A) (A) (A) (A) (A) (A) (A) (A) (A)
                 (A) (A) (A) (A) (A) (A) (A) (A) (A) (A) (A) (A)
                 (A) (A) (A) (A) (A) (A) (A) (A) (A) (A) (A) (A)
                 (A) (A) (A) (A) (A) (A) (A) (A) (A) (A) (A) (A)
                 (A) (A) (A) (A) (A) (A) (A) (A) (A) (A) (A) (A)
                 (A) (A) (A) (A) (A) (A) (A) (A) (A) (A) (A) (A)
                 (A) (A) (A) (A) (A) (A) (A) (A) (A) (A) (A) (A)
                 (A) (A) (A) (A) (A) (A) (A) (A) (A) (A) (A) (A)
                 (A) (A) (A) (A) (A) (A) (A) (A) (A) (A) (A) (A)
                 (A) (A) (A) (A) (A) (A) (A) (A) (A) (A) (A) (A)
                 (A) (A) (A) (A) (A) (A) (A) (A) (A) (A) (A) (A)
                 (A) (A) (A) (A) (A) (A) (A) (A) (A) (A) (A) (A)
                 (A) (A) (A) (A) (A) (A) (A) (A) (A) (A) (A) (A)
                 (A) (A) (A) (A) (A) (A) (A) (A) (A) (A) (A) (A)
                 (A) (A) (A) (A) (A) (A) (A) (A) (A) (A) (A) (A)
                 (A) (A) (A) (A) (A) (A) (A) (A) (A) (A) (A) (A)
                 (A) (A) (A) (A) (A) (A) (A) (A) (A) (A) (A) (A)
                 (A) (A) (A) (A) (A) (A) (A) (A) (A) (A) (A) (A)
                 (A) (A) (A) (A) (A) (A) (A) (A) (A) (A) (A) (A)
                 (A) (A) (A) (A) (A) (A) (A) (A) (A) (A) (A) (A)
                 (A) (A) (A) (A) (A) (A) (A) (A) (A) (A) (A) (A)
                 (A) (A) (A) (A) (A) (A) (A) (A) (A) (A) (A) (A)
                 (A) (A) (A) (A) (A) (A) (A) (A) (A) (A) (A) (A)
                 (A) (A) (A) (A) (A) (A) (A) (A) (A) (A) (A) (A)
                 (A) (A) (A) (A) (A) (A) (A) (A) (A) (A) (A) (A)
                 (A) (A) (A) (A) (A) (A) (A) (A) (A) (A) (A) (A)
                 (A) (A) (A) (A) (A) (A) (A) (A) (A) (A) (A) (A)
                 (A) (A) (A) (A) (A) (A) (A) (A) (A) (A) (A) (A)
                 (A) (A) (A) (A) (A) (A) (A) (A) (A) (A) (A) (A)
                 (A) (A) (A) (A) (A) (A) (A) (A) (A) (A) (A) (A)
                 (A) (A) (A) (A) (A) (A) (A) (A) (A) (A) (A) (A)
                 (A) (A) (A) (A) (A) (A) (A) (A) (A) (A) (A) (A)
                 (A) (A) (A) (A) (A) (A) (A) (A) (A) (A) (A) (A)
                 (A) (A) (A) (A) (A) (A) (A) (A) (A) (A) (A) (A)
                 (A) (A) (A) (A) (A) (A) (A) (A) (A) (A) (A) (A)
                 (A) (A) (A) (A) (A) (A) (A) (A) (A) (A) (A) (A)
                 (A) (A) (A) (A) (A) (A) (A) (A) (A) (A) (A) (A)
                 (A) (A) (A) (A) (A) (A) (A) (A) (A) (A) (A) (A)
                 (A) (A) (A) (A) (A) (A) (A) (A) (A) (A) (A) (A)
                 (A) (A) (A) (A) (A) (A) (A) (A) (A) (A) (A) (A)
                 (A) (A) (A) (A) (A) (A) (A) (A) (A) (A) (A) (A)
                 (A) (A) (A) (A) (A) (A) (A) (A) (A) (A) (A) (A)
                 (A) (A) (A) (A) (A) (A) (A) (A) (A) (A) (A) (A)
                 (A) (A) (A) (A) (A) (A) (A) (A) (A) (A) (A) (A)
                 (A) (A) (A) (A) (A) (A) (A) (A) (A) (A) (A) (A)
                 (A) (A) (A) (A) (A) (A) (A) (A) (A) (A) (A) (A)
                 (A) (A) (A) (A) (A) (A) (A) (A) (A) (A) (A) (A)
                 (A) (A) (A) (A) (A) (A) (A) (A) (A) (A) (A) (A)
                 (A) (A) (A) (A) (A) (A) (A) (A) (A) (A) (A) (A)
                 (A) (A) (A) (A) (A) (A) (A) (A) (A) (A) (A) (A)
                 (A) (A) (A) (A) (A) (A) (A) (A) (A) (A) (A) (A)
                 (A) (A) (A) (A) (A) (A) (A) (A) (A) (A) (A) (A)
                 (A) (A) (A) (A) (A) (A) (A) (A) (A) (A) (A) (A)
                 (A) (A) (A) (A) (A) (A) (A) (A) (A) (A) (A) (A)
                 (A) (A) (A) (A) (A) (A) (A) (A) (A) (A) (A) (A)
                 (A) (A) (A) (A) (A) (A) (A) (A) (A) (A) (A) (A)
                 (A) (A) (A) (A) (A) (A) (A) (A) (A) (A) (A) (A)
                 (A) (A) (A) (A) (A) (A) (A) (A) (A) (A) (A) (A)
                 (A) (A) (A) (A) (A) (A) (A) (A) (A) (A) (A) (A)
                 (A) (A) (A) (A) (A) (A) (A) (A) (A) (A) (A) (A)
                 (A) (A) (A) (A) (A) (A) (A) (A) (A) (A) (A) (A)
                 (A) (A) (A) (A) (A) (A) (A) (A) (A) (A) (A) (A)
                 (A) (A) (A) (A) (A) (A) (A) (A) (A) (A) (A) (A)
                 (A) (A) (A) (A) (A) (A) (A) (A) (A) (A) (A) (A)
                 (A) (A) (A) (A) (A) (A) (A) (A) (A) (A) (A) (A)
                 (A) (A) (A) (A) (A) (A) (A) (A) (A) (A) (A) (A)
                 (A) (A) (A) (A) (A) (A) (A) (A)
    20 initial guesses have been made.
 Convergence on wavefunction:    0.001000000000000
 Davidson Disk Diagonalization:  ConvIn= 1.00D-03 SkipCon=T Conv= 1.00D-03.
 Max sub-space:  2000 roots to seek:    20 dimension of matrix:       370304
 Iteration     1 Dimension    20 NMult     0 NNew     20
 CISAX will form    20 AO SS matrices at one time.
 NMat=    20 NSing=    20 JSym2X= 0.
 FoFJK:  IHMeth= 1 ICntrl=       0 DoSepK=F KAlg= 0 I1Cent=           0 FoldK=F
 IRaf= 510000000 NMat=      40 IRICut=       1 DoRegI=T DoRafI=F ISym2E= 0 IDoP0=3 IntGTp=3.
 FoFCou: FMM=T IPFlag=           0 FMFlag=      100000 FMFlg1=        2001
         NFxFlg=           0 DoJE=F BraDBF=F KetDBF=F FulRan=T
         wScrn=  0.000000 ICntrl=         0 IOpCl=  0 I1Cent=           0 NGrid=           0
         NMat0=   40 NMatS0=     20 NMatT0=    0 NMatD0=   40 NMtDS0=    0 NMtDT0=    0
 Symmetry not used in FoFCou.
 FMM levels:  10  Number of levels for PrismC:   9
 New state      3 was old state      4
 New state      4 was old state      5
 New state      5 was old state      8
 Excitation Energies [eV] at current iteration:
 Root      1 :     2.274796036893895
 Root      2 :     2.555644007501218
 Root      3 :     3.029102645562036
 Root      4 :     3.311134834980393
 Root      5 :     3.334791585377061
 Root      6 :     3.546769399543926
 Root      7 :     3.572502490494634
 Root      8 :     3.791630315154376
 Root      9 :     3.899998877129847
 Root     10 :     4.048642364771116
 Root     11 :     4.194754757542378
 Root     12 :     4.244098566242951
 Root     13 :     4.281605018473961
 Root     14 :     4.435592158869003
 Root     15 :     4.459025055759199
 Root     16 :     4.584637007745905
 Root     17 :     4.716778746589847
 Root     18 :     4.792553517215087
 Root     19 :     4.905934487545482
 Root     20 :     5.011656096243116
 Iteration     2 Dimension    30 NMult    20 NNew     10
 CISAX will form    10 AO SS matrices at one time.
 NMat=    10 NSing=    10 JSym2X= 0.
 Root      1 not converged, maximum delta is    0.054462311133112
 Root      2 not converged, maximum delta is    0.057967874753567
 Root      3 not converged, maximum delta is    0.118940214710651
 Root      4 not converged, maximum delta is    0.081270059292765
 Root      5 not converged, maximum delta is    0.151384670038473
 Excitation Energies [eV] at current iteration:
 Root      1 :     1.951700262205690   Change is   -0.323095774688205
 Root      2 :     2.269153772595944   Change is   -0.286490234905273
 Root      3 :     2.913587384833040   Change is   -0.115515260728996
 Root      4 :     3.074314224463112   Change is   -0.236820610517281
 Root      5 :     3.210897873123384   Change is   -0.123893712253677
 Iteration     3 Dimension    40 NMult    30 NNew     10
 CISAX will form    10 AO SS matrices at one time.
 NMat=    10 NSing=    10 JSym2X= 0.
 Root      1 not converged, maximum delta is    0.026560869687734
 Root      2 not converged, maximum delta is    0.023851719642854
 Root      3 not converged, maximum delta is    0.015196133829874
 Root      4 not converged, maximum delta is    0.012202759246232
 Root      5 not converged, maximum delta is    0.033883908218712
 Excitation Energies [eV] at current iteration:
 Root      1 :     1.922139571164184   Change is   -0.029560691041506
 Root      2 :     2.249499316864501   Change is   -0.019654455731444
 Root      3 :     2.903983296590383   Change is   -0.009604088242658
 Root      4 :     3.062313249548108   Change is   -0.012000974915004
 Root      5 :     3.189532690342984   Change is   -0.021365182780400
 Iteration     4 Dimension    50 NMult    40 NNew     10
 CISAX will form    10 AO SS matrices at one time.
 NMat=    10 NSing=    10 JSym2X= 0.
 Root      1 not converged, maximum delta is    0.002658628016369
 Root      2 not converged, maximum delta is    0.007641821197417
 Root      3 not converged, maximum delta is    0.004932900396374
 Root      4 not converged, maximum delta is    0.003780827800131
 Root      5 not converged, maximum delta is    0.009623986590961
 Excitation Energies [eV] at current iteration:
 Root      1 :     1.919351874519439   Change is   -0.002787696644745
 Root      2 :     2.246735560053626   Change is   -0.002763756810875
 Root      3 :     2.902837969453360   Change is   -0.001145327137023
 Root      4 :     3.060529295242780   Change is   -0.001783954305328
 Root      5 :     3.187876354811168   Change is   -0.001656335531816
 Iteration     5 Dimension    60 NMult    50 NNew     10
 CISAX will form    10 AO SS matrices at one time.
 NMat=    10 NSing=    10 JSym2X= 0.
 Root      1 has converged.
 Root      2 not converged, maximum delta is    0.001245653208467
 Root      3 has converged.
 Root      4 not converged, maximum delta is    0.001534312867648
 Root      5 not converged, maximum delta is    0.008869296887409
 Excitation Energies [eV] at current iteration:
 Root      1 :     1.919042532464549   Change is   -0.000309342054890
 Root      2 :     2.246505800867882   Change is   -0.000229759185744
 Root      3 :     2.902715294815224   Change is   -0.000122674638136
 Root      4 :     3.060275874453668   Change is   -0.000253420789112
 Root      5 :     3.187642085242376   Change is   -0.000234269568792
 Iteration     6 Dimension    66 NMult    60 NNew      6
 CISAX will form     6 AO SS matrices at one time.
 NMat=     6 NSing=     6 JSym2X= 0.
 Root      1 has converged.
 Root      2 has converged.
 Root      3 has converged.
 Root      4 has converged.
 Root      5 not converged, maximum delta is    0.009246786960324
 Excitation Energies [eV] at current iteration:
 Root      1 :     1.919041208085685   Change is   -0.000001324378864
 Root      2 :     2.246475350432847   Change is   -0.000030450435035
 Root      3 :     2.902714065734483   Change is   -0.000001229080741
 Root      4 :     3.060254211774641   Change is   -0.000021662679027
 Root      5 :     3.187575039989344   Change is   -0.000067045253032
 Iteration     7 Dimension    68 NMult    66 NNew      2
 CISAX will form     2 AO SS matrices at one time.
 NMat=     2 NSing=     2 JSym2X= 0.
 Root      1 has converged.
 Root      2 has converged.
 Root      3 has converged.
 Root      4 has converged.
 Root      5 not converged, maximum delta is    0.013195676649227
 Excitation Energies [eV] at current iteration:
 Root      1 :     1.919040972776057   Change is   -0.000000235309628
 Root      2 :     2.246475301769196   Change is   -0.000000048663651
 Root      3 :     2.902714020737903   Change is   -0.000000044996580
 Root      4 :     3.060254192021923   Change is   -0.000000019752718
 Root      5 :     3.187527410353034   Change is   -0.000047629636310
 Iteration     8 Dimension    70 NMult    68 NNew      2
 CISAX will form     2 AO SS matrices at one time.
 NMat=     2 NSing=     2 JSym2X= 0.
 Root      1 has converged.
 Root      2 has converged.
 Root      3 has converged.
 Root      4 has converged.
 Root      5 not converged, maximum delta is    0.005549051844490
 Excitation Energies [eV] at current iteration:
 Root      1 :     1.919037633181817   Change is   -0.000003339594240
 Root      2 :     2.246475202890780   Change is   -0.000000098878416
 Root      3 :     2.902713535569159   Change is   -0.000000485168744
 Root      4 :     3.060254172980832   Change is   -0.000000019041091
 Root      5 :     3.187511299688401   Change is   -0.000016110664633
 Iteration     9 Dimension    72 NMult    70 NNew      2
 CISAX will form     2 AO SS matrices at one time.
 NMat=     2 NSing=     2 JSym2X= 0.
 Root      1 has converged.
 Root      2 has converged.
 Root      3 has converged.
 Root      4 has converged.
 Root      5 not converged, maximum delta is    0.001630477758417
 Excitation Energies [eV] at current iteration:
 Root      1 :     1.919035218066246   Change is   -0.000002415115571
 Root      2 :     2.246475195193891   Change is   -0.000000007696889
 Root      3 :     2.902713465945378   Change is   -0.000000069623781
 Root      4 :     3.060254142424472   Change is   -0.000000030556360
 Root      5 :     3.187507647853078   Change is   -0.000003651835322
 Convergence on energies, max DE= 3.65D-06.
 Convergence on expansion vectors.
 ***********************************************************************
 Excited states from <AA,BB:AA,BB> singles matrix:
 ***********************************************************************
 
 1PDM for each excited state written to RWF  633
 Ground to excited state transition densities written to RWF  633
 Ground to excited state transition electric dipole moments (Au):
       state          X           Y           Z        Dip. S.      Osc.
         1         1.2496      2.4451     -0.0646      7.5443      0.3547
         2        -1.2115      0.7571      0.0491      2.0432      0.1125
         3         0.0931      0.0001      0.0155      0.0089      0.0006
         4         0.1286     -0.0955     -0.0205      0.0261      0.0020
         5        -0.0233      0.0552      0.0079      0.0037      0.0003
 Ground to excited state transition velocity dipole moments (Au):
       state          X           Y           Z        Dip. S.      Osc.
         1        -0.0856     -0.1676      0.0034      0.0354      0.3349
         2         0.0952     -0.0593     -0.0030      0.0126      0.1016
         3        -0.0103      0.0010      0.0007      0.0001      0.0007
         4        -0.0156      0.0102      0.0014      0.0004      0.0021
         5         0.0024     -0.0064      0.0015      0.0000      0.0003
 Ground to excited state transition magnetic dipole moments (Au):
       state          X           Y           Z
         1        -0.0988      0.0919      2.0771
         2        -0.0259      0.0455      0.3184
         3        -0.0035      0.4106     -0.4680
         4        -0.0979     -0.1783     -0.7875
         5        -0.4213      0.2186      0.0065
 Ground to excited state transition velocity quadrupole moments (Au):
       state          XX          YY          ZZ          XY          XZ          YZ
         1         1.7164     -0.5357      0.0290      1.4663     -0.0846     -0.1735
         2        -1.7822     -0.0769      0.0320      0.6238      0.0099     -0.0335
         3         0.2442     -0.0906      0.0013      0.0621     -0.0514      0.0089
         4         0.4575     -0.2499      0.0126      0.0727     -0.0506      0.0189
         5        -0.0537     -0.0471      0.0031      0.0603      0.0026     -0.0156
 <0|del|b> * <b|rxdel|0> + <0|del|b> * <b|delr+rdel|0>
 Rotatory Strengths (R) in cgs (10**-40 erg-esu-cm/Gauss)
       state          XX          YY          ZZ    R(velocity)    E-M Angle
         1       -88.6281    127.2014    -38.2227      0.1169       90.00
         2       -20.9967    -20.3616    -10.9730    -17.4437       99.72
         3         0.5539     -1.4896      1.6308      0.2317       89.07
         4        -7.3098      0.0422     -1.6205     -2.9627       95.32
         5        -3.8495     -3.4401     -7.2180     -4.8359      136.55
 1/2[<0|r|b>*<b|rxdel|0> + (<0|rxdel|b>*<b|r|0>)*]
 Rotatory Strengths (R) in cgs (10**-40 erg-esu-cm/Gauss)
       state          XX          YY          ZZ     R(length)
         1        87.2784   -158.9177     94.8904      7.7503
         2       -22.2109    -24.3860    -11.0607    -19.2192
         3         0.2300     -0.0189      5.1266      1.7792
         4         8.9077    -12.0436    -11.4016     -4.8458
         5        -6.9403     -8.5360     -0.0363     -5.1708
  1/2[<0|del|b>*<b|r|0> + (<0|r|b>*<b|del|0>)*] (Au)
       state          X           Y           Z        Dip. S.   Osc.(frdel)
         1        -0.1070     -0.4098     -0.0002      0.5170      0.3447
         2        -0.1153     -0.0449     -0.0001      0.1603      0.1069
         3        -0.0010      0.0000      0.0000      0.0009      0.0006
         4        -0.0020     -0.0010     -0.0000      0.0030      0.0020
         5        -0.0001     -0.0004      0.0000      0.0004      0.0003

 Excitation energies and oscillator strengths:
 
 Excited State   1:      Singlet-A      1.9190 eV  646.08 nm  f=0.3547  <S**2>=0.000
     245 -> 248       -0.19006
     246 -> 247        0.68690
 This state for optimization and/or second-order correction.
 Total Energy, E(TD-HF/TD-DFT) =  -3005.27634547    
 Copying the excited state density for this state as the 1-particle RhoCI density.
 
 Excited State   2:      Singlet-A      2.2465 eV  551.91 nm  f=0.1125  <S**2>=0.000
     245 -> 247        0.65056
     246 -> 248        0.26172
 
 Excited State   3:      Singlet-A      2.9027 eV  427.13 nm  f=0.0006  <S**2>=0.000
     243 -> 247       -0.20006
     244 -> 247        0.65384
     244 -> 249       -0.10140
 
 Excited State   4:      Singlet-A      3.0603 eV  405.14 nm  f=0.0020  <S**2>=0.000
     241 -> 247       -0.12821
     243 -> 247        0.65225
     244 -> 247        0.21415
 
 Excited State   5:      Singlet-A      3.1875 eV  388.97 nm  f=0.0003  <S**2>=0.000
     240 -> 247        0.65029
     240 -> 248        0.11100
     240 -> 249        0.17779
     241 -> 247       -0.14350
 SavETr:  write IOETrn=   770 NScale= 10 NData=  16 NLR=1 NState=    5 LETran=     100.
 Leave Link  914 at Sat Apr 30 11:01:17 2022, MaxMem= 10066329600 cpu:           26910.8 elap:            1123.0
 (Enter /sw/apps/gaussian-16.0/g16/l601.exe)
 Copying SCF densities to generalized density rwf, IOpCl= 0 IROHF=0.
 Hyperfine terms turned off by default for NAtoms > 100.

 **********************************************************************

            Population analysis using the SCF density.

 **********************************************************************

 Orbital symmetries:
       Occupied  (A) (A) (A) (A) (A) (A) (A) (A) (A) (A) (A) (A)
                 (A) (A) (A) (A) (A) (A) (A) (A) (A) (A) (A) (A)
                 (A) (A) (A) (A) (A) (A) (A) (A) (A) (A) (A) (A)
                 (A) (A) (A) (A) (A) (A) (A) (A) (A) (A) (A) (A)
                 (A) (A) (A) (A) (A) (A) (A) (A) (A) (A) (A) (A)
                 (A) (A) (A) (A) (A) (A) (A) (A) (A) (A) (A) (A)
                 (A) (A) (A) (A) (A) (A) (A) (A) (A) (A) (A) (A)
                 (A) (A) (A) (A) (A) (A) (A) (A) (A) (A) (A) (A)
                 (A) (A) (A) (A) (A) (A) (A) (A) (A) (A) (A) (A)
                 (A) (A) (A) (A) (A) (A) (A) (A) (A) (A) (A) (A)
                 (A) (A) (A) (A) (A) (A) (A) (A) (A) (A) (A) (A)
                 (A) (A) (A) (A) (A) (A) (A) (A) (A) (A) (A) (A)
                 (A) (A) (A) (A) (A) (A) (A) (A) (A) (A) (A) (A)
                 (A) (A) (A) (A) (A) (A) (A) (A) (A) (A) (A) (A)
                 (A) (A) (A) (A) (A) (A) (A) (A) (A) (A) (A) (A)
                 (A) (A) (A) (A) (A) (A) (A) (A) (A) (A) (A) (A)
                 (A) (A) (A) (A) (A) (A) (A) (A) (A) (A) (A) (A)
                 (A) (A) (A) (A) (A) (A) (A) (A) (A) (A) (A) (A)
                 (A) (A) (A) (A) (A) (A) (A) (A) (A) (A) (A) (A)
                 (A) (A) (A) (A) (A) (A) (A) (A) (A) (A) (A) (A)
                 (A) (A) (A) (A) (A) (A)
       Virtual   (A) (A) (A) (A) (A) (A) (A) (A) (A) (A) (A) (A)
                 (A) (A) (A) (A) (A) (A) (A) (A) (A) (A) (A) (A)
                 (A) (A) (A) (A) (A) (A) (A) (A) (A) (A) (A) (A)
                 (A) (A) (A) (A) (A) (A) (A) (A) (A) (A) (A) (A)
                 (A) (A) (A) (A) (A) (A) (A) (A) (A) (A) (A) (A)
                 (A) (A) (A) (A) (A) (A) (A) (A) (A) (A) (A) (A)
                 (A) (A) (A) (A) (A) (A) (A) (A) (A) (A) (A) (A)
                 (A) (A) (A) (A) (A) (A) (A) (A) (A) (A) (A) (A)
                 (A) (A) (A) (A) (A) (A) (A) (A) (A) (A) (A) (A)
                 (A) (A) (A) (A) (A) (A) (A) (A) (A) (A) (A) (A)
                 (A) (A) (A) (A) (A) (A) (A) (A) (A) (A) (A) (A)
                 (A) (A) (A) (A) (A) (A) (A) (A) (A) (A) (A) (A)
                 (A) (A) (A) (A) (A) (A) (A) (A) (A) (A) (A) (A)
                 (A) (A) (A) (A) (A) (A) (A) (A) (A) (A) (A) (A)
                 (A) (A) (A) (A) (A) (A) (A) (A) (A) (A) (A) (A)
                 (A) (A) (A) (A) (A) (A) (A) (A) (A) (A) (A) (A)
                 (A) (A) (A) (A) (A) (A) (A) (A) (A) (A) (A) (A)
                 (A) (A) (A) (A) (A) (A) (A) (A) (A) (A) (A) (A)
                 (A) (A) (A) (A) (A) (A) (A) (A) (A) (A) (A) (A)
                 (A) (A) (A) (A) (A) (A) (A) (A) (A) (A) (A) (A)
                 (A) (A) (A) (A) (A) (A) (A) (A) (A) (A) (A) (A)
                 (A) (A) (A) (A) (A) (A) (A) (A) (A) (A) (A) (A)
                 (A) (A) (A) (A) (A) (A) (A) (A) (A) (A) (A) (A)
                 (A) (A) (A) (A) (A) (A) (A) (A) (A) (A) (A) (A)
                 (A) (A) (A) (A) (A) (A) (A) (A) (A) (A) (A) (A)
                 (A) (A) (A) (A) (A) (A) (A) (A) (A) (A) (A) (A)
                 (A) (A) (A) (A) (A) (A) (A) (A) (A) (A) (A) (A)
                 (A) (A) (A) (A) (A) (A) (A) (A) (A) (A) (A) (A)
                 (A) (A) (A) (A) (A) (A) (A) (A) (A) (A) (A) (A)
[...]
 Alpha virt. eigenvalues --    1.10708   1.11125   1.11769   1.12176   1.12695
 Alpha virt. eigenvalues --    1.13015   1.13461   1.13638   1.14265   1.14418
 Alpha virt. eigenvalues --    1.14579   1.15618   1.16437   1.16691   1.16997
 Alpha virt. eigenvalues --    1.17284   1.17697   1.18358   1.19073   1.19281
 Alpha virt. eigenvalues --    1.19703   1.20636   1.21174   1.21457   1.21740
 Alpha virt. eigenvalues --    1.21811   1.22618   1.22853   1.23508   1.24720
 Alpha virt. eigenvalues --    1.25069   1.25166   1.25487   1.25701   1.26024
 Alpha virt. eigenvalues --    1.26227   1.27110   1.27512   1.28251   1.28648
 Alpha virt. eigenvalues --    1.29063   1.29719   1.29786   1.30223   1.30313
 Alpha virt. eigenvalues --    1.30923   1.31141   1.31298   1.31630   1.32463
 Alpha virt. eigenvalues --    1.32562   1.32911   1.33121   1.33930   1.33999
 Alpha virt. eigenvalues --    1.34502   1.35135   1.35583   1.35645   1.35941
 Alpha virt. eigenvalues --    1.36223   1.36646   1.37216   1.37346   1.37400
 Alpha virt. eigenvalues --    1.38347   1.39399   1.39529   1.39741   1.39926
 Alpha virt. eigenvalues --    1.40718   1.41269   1.41593   1.41682   1.41779
 Alpha virt. eigenvalues --    1.42093   1.42480   1.42595   1.43183   1.43342
 Alpha virt. eigenvalues --    1.43602   1.44079   1.45074   1.45269   1.45548
 Alpha virt. eigenvalues --    1.45785   1.46702   1.47913   1.49070   1.49551
 Alpha virt. eigenvalues --    1.49888   1.50234   1.50390   1.51312   1.51505
 Alpha virt. eigenvalues --    1.52037   1.52674   1.52981   1.53173   1.53605
 Alpha virt. eigenvalues --    1.53708   1.53914   1.54102   1.54215   1.54426
 Alpha virt. eigenvalues --    1.54874   1.55134   1.55363   1.55449   1.55778
 Alpha virt. eigenvalues --    1.55792   1.56355   1.56403   1.56539   1.56810
 Alpha virt. eigenvalues --    1.56946   1.56999   1.57027   1.57470   1.57712
 Alpha virt. eigenvalues --    1.58133   1.58208   1.58389   1.58725   1.59330
 Alpha virt. eigenvalues --    1.59612   1.59978   1.60586   1.61017   1.61598
 Alpha virt. eigenvalues --    1.61669   1.61975   1.62801   1.63050   1.63347
 Alpha virt. eigenvalues --    1.63837   1.63918   1.64597   1.65173   1.65577
 Alpha virt. eigenvalues --    1.65786   1.66556   1.66820   1.67488   1.67822
 Alpha virt. eigenvalues --    1.68142   1.68374   1.69376   1.69680   1.70049
 Alpha virt. eigenvalues --    1.70627   1.70858   1.71528   1.71605   1.71820
 Alpha virt. eigenvalues --    1.71932   1.72065   1.72122   1.73110   1.73453
 Alpha virt. eigenvalues --    1.73520   1.73931   1.74068   1.74249   1.74427
 Alpha virt. eigenvalues --    1.74738   1.74996   1.75229   1.75629   1.75876
 Alpha virt. eigenvalues --    1.76093   1.76270   1.76514   1.76660   1.77029
 Alpha virt. eigenvalues --    1.77157   1.77286   1.77470   1.77779   1.77873
 Alpha virt. eigenvalues --    1.78360   1.78624   1.78781   1.78951   1.79296
 Alpha virt. eigenvalues --    1.79394   1.79600   1.79635   1.79808   1.79972
 Alpha virt. eigenvalues --    1.80042   1.80414   1.80664   1.80727   1.80994
 Alpha virt. eigenvalues --    1.81134   1.81307   1.81454   1.81712   1.81846
 Alpha virt. eigenvalues --    1.82048   1.82137   1.82338   1.82749   1.82970
 Alpha virt. eigenvalues --    1.83103   1.83296   1.83594   1.83903   1.84022
 Alpha virt. eigenvalues --    1.84114   1.84322   1.84444   1.84923   1.85221
 Alpha virt. eigenvalues --    1.85296   1.85376   1.85762   1.85995   1.86216
 Alpha virt. eigenvalues --    1.86367   1.86485   1.86662   1.86934   1.87371
 Alpha virt. eigenvalues --    1.87574   1.87731   1.87834   1.88156   1.88437
 Alpha virt. eigenvalues --    1.88723   1.88857   1.89024   1.89518   1.89560
 Alpha virt. eigenvalues --    1.90232   1.90395   1.90511   1.90628   1.90815
 Alpha virt. eigenvalues --    1.90906   1.91503   1.92031   1.92090   1.92259
 Alpha virt. eigenvalues --    1.92627   1.92755   1.93118   1.93158   1.93325
 Alpha virt. eigenvalues --    1.93811   1.93910   1.94073   1.94093   1.94295
 Alpha virt. eigenvalues --    1.94516   1.94595   1.94866   1.95052   1.95397
 Alpha virt. eigenvalues --    1.95651   1.95880   1.96075   1.96442   1.96769
 Alpha virt. eigenvalues --    1.97119   1.97269   1.97663   1.97942   1.98284
 Alpha virt. eigenvalues --    1.98327   1.98741   1.99084   1.99254   1.99569
 Alpha virt. eigenvalues --    2.00085   2.00283   2.00792   2.00871   2.01153
 Alpha virt. eigenvalues --    2.01533   2.01601   2.01773   2.02011   2.02571
 Alpha virt. eigenvalues --    2.02617   2.03163   2.03447   2.03629   2.03845
 Alpha virt. eigenvalues --    2.04265   2.04428   2.04778   2.05525   2.05733
 Alpha virt. eigenvalues --    2.05821   2.06100   2.06534   2.06843   2.07013
 Alpha virt. eigenvalues --    2.07392   2.07591   2.08287   2.08400   2.08640
 Alpha virt. eigenvalues --    2.08807   2.09336   2.09474   2.09860   2.10178
 Alpha virt. eigenvalues --    2.10408   2.10610   2.11018   2.11336   2.11363
 Alpha virt. eigenvalues --    2.11609   2.12145   2.12303   2.12445   2.12710
 Alpha virt. eigenvalues --    2.12937   2.13819   2.13920   2.14267   2.14562
 Alpha virt. eigenvalues --    2.15122   2.15292   2.15639   2.16361   2.16512
 Alpha virt. eigenvalues --    2.16926   2.17011   2.18063   2.18298   2.18378
 Alpha virt. eigenvalues --    2.18716   2.20024   2.20817   2.21384   2.21763
 Alpha virt. eigenvalues --    2.22225   2.22472   2.22926   2.23582   2.24077
 Alpha virt. eigenvalues --    2.24339   2.24415   2.24873   2.25043   2.25669
 Alpha virt. eigenvalues --    2.25908   2.26387   2.26724   2.26978   2.27718
 Alpha virt. eigenvalues --    2.28280   2.28412   2.29250   2.29700   2.29978
 Alpha virt. eigenvalues --    2.30189   2.30346   2.30955   2.31315   2.32373
 Alpha virt. eigenvalues --    2.32682   2.32953   2.33190   2.33340   2.33717
 Alpha virt. eigenvalues --    2.34425   2.34735   2.35062   2.35300   2.35340
 Alpha virt. eigenvalues --    2.35912   2.36121   2.36939   2.37067   2.37649
 Alpha virt. eigenvalues --    2.37867   2.37915   2.38455   2.38618   2.38864
 Alpha virt. eigenvalues --    2.39250   2.39338   2.39744   2.40035   2.40170
 Alpha virt. eigenvalues --    2.40369   2.40674   2.40931   2.41539   2.41668
 Alpha virt. eigenvalues --    2.42190   2.42478   2.43023   2.43342   2.43439
 Alpha virt. eigenvalues --    2.43675   2.43863   2.44115   2.44762   2.44932
 Alpha virt. eigenvalues --    2.45497   2.45547   2.45937   2.46336   2.46669
 Alpha virt. eigenvalues --    2.47044   2.47117   2.48177   2.49610   2.49868
 Alpha virt. eigenvalues --    2.49934   2.50105   2.50252   2.50302   2.51275
 Alpha virt. eigenvalues --    2.51687   2.52203   2.52716   2.52939   2.53361
 Alpha virt. eigenvalues --    2.53957   2.55210   2.55249   2.56286   2.56431
 Alpha virt. eigenvalues --    2.56763   2.57127   2.57326   2.58159   2.58510
 Alpha virt. eigenvalues --    2.59286   2.59692   2.60127   2.60509   2.60798
 Alpha virt. eigenvalues --    2.61078   2.61592   2.61749   2.61959   2.62422
 Alpha virt. eigenvalues --    2.62700   2.63033   2.63325   2.63621   2.63751
 Alpha virt. eigenvalues --    2.64372   2.64946   2.65136   2.66189   2.66525
 Alpha virt. eigenvalues --    2.66831   2.67122   2.67781   2.68028   2.68176
 Alpha virt. eigenvalues --    2.68575   2.69173   2.69277   2.69798   2.70125
 Alpha virt. eigenvalues --    2.70809   2.71254   2.71641   2.72058   2.72526
 Alpha virt. eigenvalues --    2.72729   2.73176   2.73355   2.73542   2.74452
 Alpha virt. eigenvalues --    2.74767   2.74900   2.75797   2.75906   2.76415
 Alpha virt. eigenvalues --    2.76918   2.77030   2.77484   2.78103   2.78509
 Alpha virt. eigenvalues --    2.78582   2.78805   2.79093   2.79171   2.79959
 Alpha virt. eigenvalues --    2.81214   2.81275   2.81740   2.81877   2.83575
 Alpha virt. eigenvalues --    2.83854   2.84322   2.84814   2.84954   2.85171
 Alpha virt. eigenvalues --    2.86200   2.86306   2.86630   2.87496   2.87740
 Alpha virt. eigenvalues --    2.89082   2.89259   2.89760   2.90271   2.90344
 Alpha virt. eigenvalues --    2.90903   2.91558   2.92204   2.92544   2.93176
 Alpha virt. eigenvalues --    2.93372   2.93622   2.93927   2.94214   2.94383
 Alpha virt. eigenvalues --    2.94736   2.94835   2.95116   2.95254   2.95626
 Alpha virt. eigenvalues --    2.95901   2.96035   2.96366   2.96681   2.96882
 Alpha virt. eigenvalues --    2.96920   2.97426   2.97893   2.98159   2.98256
 Alpha virt. eigenvalues --    2.99064   2.99317   2.99942   3.00076   3.00399
 Alpha virt. eigenvalues --    3.00668   3.00841   3.01175   3.01636   3.02544
 Alpha virt. eigenvalues --    3.02608   3.02913   3.03096   3.03989   3.04431
 Alpha virt. eigenvalues --    3.04669   3.04856   3.05138   3.05661   3.05778
 Alpha virt. eigenvalues --    3.06075   3.06193   3.06578   3.07726   3.08107
 Alpha virt. eigenvalues --    3.08705   3.08798   3.09220   3.10009   3.10323
 Alpha virt. eigenvalues --    3.10366   3.10916   3.11007   3.11357   3.12489
 Alpha virt. eigenvalues --    3.13045   3.13972   3.14665   3.14911   3.15053
 Alpha virt. eigenvalues --    3.15620   3.16745   3.17678   3.19234   3.20497
 Alpha virt. eigenvalues --    3.20776   3.21162   3.22503   3.23099   3.23435
 Alpha virt. eigenvalues --    3.24369   3.28445   3.39222   3.39547   3.42098
 Alpha virt. eigenvalues --    3.42825   3.46244   3.47587   3.51859   3.53907
 Alpha virt. eigenvalues --    3.56864   3.60226   3.64059   3.64149   3.64663
 Alpha virt. eigenvalues --    3.69041   3.73680
          Condensed to atoms (all electrons):
 Mulliken charges:
               1
     1  Mg   0.974636
     2  C   -0.068005
     3  C   -0.114205
     4  C   -0.050102
     5  C   -0.075850
     6  N   -0.438954
     7  C    0.039342
     8  C   -0.083244
     9  C   -0.101905
    10  C    0.114826
    11  C   -0.004288
    12  C    0.022530
    13  C    0.020608
    14  C    0.223289
    15  O   -0.291260
    16  O   -0.375115
    17  N   -0.510674
    18  C    0.206165
    19  C   -0.179340
    20  C   -0.051852
    21  C    0.171400
    22  C    0.059403
    23  C    0.045155
    24  O   -0.253660
    25  C   -0.007823
    26  N   -0.325697
    27  C    0.043368
    28  C   -0.106066
    29  C   -0.123522
    30  C    0.038808
    31  C    0.002520
    32  C   -0.010771
    33  C   -0.054389
    34  N   -0.514028
    35  C    0.177753
    36  C   -0.190438
    37  C   -0.032326
    38  C    0.210497
    39  C    0.099239
    40  C    0.105317
    41  O   -0.191583
    42  C   -0.098858
    43  C    0.284057
    44  O   -0.221576
    45  O   -0.372270
    46  C    0.114794
    47  C    0.260196
    48  C   -0.166364
    49  C   -0.201685
    50  C    0.000042
    51  C    0.003550
    52  C   -0.027605
    53  C   -0.024146
    54  C   -0.244246
    55  C   -0.021687
    56  C   -0.019185
    57  C   -0.060465
    58  C    0.019035
    59  C   -0.203032
    60  C   -0.006092
    61  C   -0.031817
    62  C   -0.063500
    63  C   -0.024617
    64  C   -0.184313
    65  C   -0.031064
    66  C   -0.026691
    67  H    0.019395
    68  H    0.035378
    69  H   -0.000824
    70  H    0.073311
    71  H    0.051378
    72  H    0.024238
    73  H    0.033437
    74  H    0.035895
    75  H    0.038290
    76  H    0.048780
    77  H    0.050334
    78  H    0.073920
    79  H    0.046773
    80  H    0.056916
    81  H    0.027187
    82  H    0.071750
    83  H    0.063310
    84  H    0.050612
    85  H    0.037849
    86  H    0.039069
    87  H    0.050555
    88  H    0.035805
    89  H    0.054932
    90  H    0.037084
    91  H    0.035513
    92  H    0.045982
    93  H    0.036523
    94  H    0.041669
    95  H    0.045462
    96  H   -0.000184
    97  H    0.080073
    98  H    0.060346
    99  H    0.044772
   100  H    0.059804
   101  H    0.067215
   102  H    0.072658
   103  H    0.077973
   104  H    0.033552
   105  H    0.026393
   106  H    0.056695
   107  H    0.065098
   108  H    0.034719
   109  H    0.015829
   110  H    0.035708
   111  H    0.040744
   112  H    0.035698
   113  H    0.034007
   114  H    0.031560
   115  H    0.047995
   116  H    0.035693
   117  H    0.036466
   118  H    0.023898
   119  H    0.033446
   120  H    0.040954
   121  H    0.041459
   122  H    0.021141
   123  H    0.037008
   124  H    0.032849
   125  H    0.023519
   126  H    0.027351
   127  H    0.043456
   128  H    0.031053
   129  H    0.015374
   130  H    0.025809
   131  H    0.020387
   132  H    0.025778
   133  H    0.022845
   134  H    0.037642
   135  H    0.025894
   136  H    0.037283
   137  H    0.028749
   138  H    0.033582
   139  H    0.032562
   140  H    0.032407
 Sum of Mulliken charges =  -0.00000
 Mulliken charges with hydrogens summed into heavy atoms:
               1
     1  Mg   0.974636
     2  C   -0.068005
     3  C   -0.094810
     4  C   -0.014724
     5  C   -0.076674
     6  N   -0.438954
     7  C    0.039342
     8  C   -0.009933
     9  C   -0.050527
    10  C    0.114826
    11  C    0.089281
    12  C    0.109600
    13  C    0.144861
    14  C    0.223289
    15  O   -0.291260
    16  O   -0.375115
    17  N   -0.510674
    18  C    0.206165
    19  C   -0.179340
    20  C   -0.051852
    21  C    0.171400
    22  C    0.190279
    23  C    0.045155
    24  O   -0.253660
    25  C    0.177850
    26  N   -0.325697
    27  C    0.043368
    28  C   -0.068217
    29  C   -0.084453
    30  C    0.038808
    31  C    0.143812
    32  C    0.061825
    33  C    0.069784
    34  N   -0.514028
    35  C    0.177753
    36  C   -0.190438
    37  C   -0.032326
    38  C    0.210497
    39  C    0.224590
    40  C    0.105317
    41  O   -0.191583
    42  C   -0.038512
    43  C    0.284057
    44  O   -0.221576
    45  O   -0.372270
    46  C    0.286585
    47  C    0.410827
    48  C   -0.132812
    49  C   -0.201685
    50  C    0.148228
    51  C    0.054098
    52  C    0.048847
    53  C    0.045559
    54  C   -0.212686
    55  C    0.098467
    56  C    0.038159
    57  C    0.021948
    58  C    0.077184
    59  C   -0.170183
    60  C    0.088234
    61  C    0.014610
    62  C   -0.017304
    63  C    0.024006
    64  C   -0.146671
    65  C    0.060861
    66  C    0.071861
 Electronic spatial extent (au):  <R**2>=         122223.8099
 Charge=             -0.0000 electrons
 Dipole moment (field-independent basis, Debye):
    X=              4.8888    Y=              3.7187    Z=             -3.6791  Tot=              7.1599
 Quadrupole moment (field-independent basis, Debye-Ang):
   XX=           -371.7921   YY=           -430.8009   ZZ=           -398.6129
   XY=            -16.8751   XZ=             11.1531   YZ=             14.2481
 Traceless Quadrupole moment (field-independent basis, Debye-Ang):
   XX=             28.6099   YY=            -30.3989   ZZ=              1.7891
   XY=            -16.8751   XZ=             11.1531   YZ=             14.2481
 Octapole moment (field-independent basis, Debye-Ang**2):
  XXX=           -331.1816  YYY=             53.2132  ZZZ=             -4.6288  XYY=            251.1720
  XXY=            116.6112  XXZ=            -76.6808  XZZ=             21.7867  YZZ=            -21.7725
  YYZ=            -12.5687  XYZ=            -20.0565
 Hexadecapole moment (field-independent basis, Debye-Ang**3):
 XXXX=        -129450.7550 YYYY=         -24621.9740 ZZZZ=          -8158.2439 XXXY=           -964.1332
 XXXZ=            438.2250 YYYX=           -257.2001 YYYZ=            155.4035 ZZZX=            -20.0821
 ZZZY=            -74.3057 XXYY=         -28323.0007 XXZZ=         -24133.8163 YYZZ=          -5083.4565
 XXYZ=            295.2599 YYXZ=             93.4948 ZZXY=             45.4741
 N-N= 9.534641995549D+03 E-N=-2.606091096681D+04  KE= 2.975431186173D+03
 Leave Link  601 at Sat Apr 30 11:01:20 2022, MaxMem= 10066329600 cpu:              48.1 elap:               2.2
 (Enter /sw/apps/gaussian-16.0/g16/l9999.exe)
 1\1\GINC-BP1-COMPUTE180\SP\RPBE1PBE TD-FC\def2SVP\C55H74Mg1N4O6\OF1564
 1\30-Apr-2022\0\\#p PBE1PBE/Def2SVP td=(nstates=5)\\step_701_chromopho
 re_3 TDDFT with PBE1PBE functional\\0,1\Mg,0,1.669,7.998,27.045\C,0,1.
 664,10.332,29.575\C,0,2.256,5.454,29.28\C,0,2.203,5.891,24.465\C,0,1.5
 99,10.649,24.703\N,0,1.676,7.912,29.179\C,0,1.653,8.981,30.059\C,0,1.5
 66,8.5,31.485\C,0,1.868,6.905,31.351\C,0,1.927,6.693,29.824\C,0,3.153,
 6.435,32.089\C,0,0.176,8.832,32.199\C,0,0.294,9.076,33.677\C,0,1.438,8
 .396,34.457\O,0,2.536,8.896,34.798\O,0,1.103,7.097,34.666\N,0,2.203,6.
 003,26.926\C,0,2.399,5.111,27.955\C,0,2.956,3.928,27.418\C,0,2.911,3.9
 9,26.015\C,0,2.433,5.332,25.738\C,0,3.423,2.826,28.316\C,0,3.269,2.943
 ,24.978\O,0,2.987,3.188,23.8\C,0,3.79,1.594,25.348\N,0,1.823,8.28,24.8
 51\C,0,1.89,7.211,24.071\C,0,1.882,7.638,22.577\C,0,1.477,9.09,22.61\C
 ,0,1.6,9.388,24.139\C,0,3.225,7.428,21.823\C,0,0.068,9.398,22.118\C,0,
 -0.116,10.582,21.22\N,0,1.727,10.041,27.067\C,0,1.738,11.01,26.039\C,0
 ,1.862,12.304,26.66\C,0,1.87,12.058,28.059\C,0,1.667,10.714,28.239\C,0
 ,1.933,13.684,26.014\C,0,1.884,12.697,29.352\O,0,1.934,13.823,29.762\C
 ,0,1.802,11.579,30.424\C,0,3.172,11.651,31.062\O,0,4.208,11.575,30.46\
 O,0,3.018,11.808,32.451\C,0,4.284,11.824,33.153\C,0,1.847,6.371,35.686
 \C,0,0.952,5.337,36.205\C,0,1.074,4.683,37.414\C,0,2.064,5.066,38.439\
 C,0,0.068,3.688,37.951\C,0,0.254,2.154,37.688\C,0,0.14,1.192,38.907\C,
 0,1.42,0.265,39.177\C,0,2.666,1.158,39.345\C,0,1.349,-0.778,40.408\C,0
 ,2.242,-2.048,40.12\C,0,2.705,-2.651,41.465\C,0,4.201,-3.176,41.385\C,
 0,4.636,-4.638,41.567\C,0,5.257,-2.279,42.155\C,0,6.422,-1.812,41.303\
 C,0,7.215,-0.757,42.043\C,0,8.637,-0.362,41.525\C,0,9.584,-0.42,42.733
 \C,0,8.694,0.999,40.75\H,0,2.324,4.651,30.017\H,0,2.281,5.245,23.588\H
 ,0,1.582,11.452,23.964\H,0,2.422,8.987,31.952\H,0,0.994,6.411,31.775\H
 ,0,3.612,5.561,31.627\H,0,3.218,6.265,33.164\H,0,3.974,7.135,31.933\H,
 0,-0.588,8.061,32.104\H,0,-0.264,9.685,31.682\H,0,-0.578,8.526,34.031\
 H,0,0.316,10.142,33.906\H,0,4.491,2.735,28.119\H,0,2.983,1.832,28.241\
 H,0,3.419,3.097,29.372\H,0,2.972,1.07,25.842\H,0,4.747,1.56,25.868\H,0
 ,3.99,1.095,24.4\H,0,1.125,7.123,21.985\H,0,2.127,9.686,21.969\H,0,3.8
 72,7.285,22.688\H,0,3.55,8.326,21.297\H,0,3.311,6.614,21.104\H,0,-0.45
 3,9.668,23.036\H,0,-0.411,8.495,21.738\H,0,-0.405,10.281,20.213\H,0,0.
 781,11.2,21.178\H,0,-0.923,11.183,21.639\H,0,0.966,14.151,25.828\H,0,2
 .04,13.474,24.949\H,0,2.727,14.362,26.326\H,0,1.036,11.741,31.183\H,0,
 4.639,12.854,33.207\H,0,5.168,11.306,32.782\H,0,4.001,11.475,34.146\H,
 0,1.995,7.087,36.494\H,0,2.689,5.882,35.196\H,0,0.05,5.234,35.602\H,0,
 2.792,5.757,38.014\H,0,2.718,4.286,38.829\H,0,1.493,5.56,39.225\H,0,-0
 .908,4.042,37.62\H,0,0.013,3.693,39.04\H,0,1.241,2.024,37.245\H,0,-0.5
 38,1.944,36.968\H,0,-0.726,0.55,38.742\H,0,0.063,1.694,39.872\H,0,1.60
 3,-0.223,38.22\H,0,3.192,1.109,38.391\H,0,3.33,0.84,40.149\H,0,2.279,2
 .114,39.698\H,0,0.331,-1.159,40.499\H,0,1.514,-0.266,41.356\H,0,3.095,
 -1.853,39.47\H,0,1.616,-2.786,39.618\H,0,2.065,-3.516,41.644\H,0,2.607
 ,-1.952,42.295\H,0,4.436,-2.956,40.343\H,0,3.709,-5.21,41.539\H,0,5.06
 1,-4.956,42.519\H,0,5.387,-4.942,40.838\H,0,5.69,-2.812,43.001\H,0,4.7
 81,-1.343,42.448\H,0,6.018,-1.523,40.333\H,0,7.178,-2.587,41.178\H,0,7
 .325,-1.158,43.051\H,0,6.507,0.07,42.096\H,0,8.975,-1.011,40.718\H,0,1
 0.274,-1.263,42.767\H,0,9.215,-0.578,43.747\H,0,10.209,0.472,42.686\H,
 0,9.233,1.816,41.228\H,0,7.697,1.38,40.528\H,0,9.213,0.825,39.807\\Ver
 sion=ES64L-G16RevA.03\State=1-A\HF=-3005.3468687\RMSD=8.165e-09\PG=C01
  [X(C55H74Mg1N4O6)]\\@


 HEAVEN'S NET CASTS WIDE.
 THOUGH ITS MESHES ARE COARSE, NOTHING SLIPS THROUGH.

                                          -- LAO-TSU
 Job cpu time:       0 days  9 hours 25 minutes 15.9 seconds.
 Elapsed time:       0 days  0 hours 23 minutes 37.1 seconds.
 File lengths (MBytes):  RWF=   8929 Int=      0 D2E=      0 Chk=    390 Scr=      1
 Normal termination of Gaussian 16 at Sat Apr 30 11:01:21 2022.
