 Entering Gaussian System, Link 0=g16
 Initial command:
 /sw/apps/gaussian-16.0/g16/l1.exe "/tmp/Gau-157411.inp" -scrdir="/tmp/"
 Entering Link 1 = /sw/apps/gaussian-16.0/g16/l1.exe PID=    157412.
  
 Copyright (c) 1988,1990,1992,1993,1995,1998,2003,2009,2016,
            Gaussian, Inc.  All Rights Reserved.
  
 This is part of the Gaussian(R) 16 program.  It is based on
 the Gaussian(R) 09 system (copyright 2009, Gaussian, Inc.),
 the Gaussian(R) 03 system (copyright 2003, Gaussian, Inc.),
 the Gaussian(R) 98 system (copyright 1998, Gaussian, Inc.),
 the Gaussian(R) 94 system (copyright 1995, Gaussian, Inc.),
 the Gaussian 92(TM) system (copyright 1992, Gaussian, Inc.),
 the Gaussian 90(TM) system (copyright 1990, Gaussian, Inc.),
 the Gaussian 88(TM) system (copyright 1988, Gaussian, Inc.),
 the Gaussian 86(TM) system (copyright 1986, Carnegie Mellon
 University), and the Gaussian 82(TM) system (copyright 1983,
 Carnegie Mellon University). Gaussian is a federally registered
 trademark of Gaussian, Inc.
  
 This software contains proprietary and confidential information,
 including trade secrets, belonging to Gaussian, Inc.
  
 This software is provided under written license and may be
 used, copied, transmitted, or stored only in accord with that
 written license.
  
 The following legend is applicable only to US Government
 contracts under FAR:
  
                    RESTRICTED RIGHTS LEGEND
  
 Use, reproduction and disclosure by the US Government is
 subject to restrictions as set forth in subparagraphs (a)
 and (c) of the Commercial Computer Software - Restricted
 Rights clause in FAR 52.227-19.
  
 Gaussian, Inc.
 340 Quinnipiac St., Bldg. 40, Wallingford CT 06492
  
  
 ---------------------------------------------------------------
 Warning -- This program may not be used in any manner that
 competes with the business of Gaussian, Inc. or will provide
 assistance to any competitor of Gaussian, Inc.  The licensee
 of this program is prohibited from giving any competitor of
 Gaussian, Inc. access to this program.  By using this program,
 the user acknowledges that Gaussian, Inc. is engaged in the
 business of creating and licensing software in the field of
 computational chemistry and represents and warrants to the
 licensee that it is not a competitor of Gaussian, Inc. and that
 it will not use this program in any manner prohibited above.
 ---------------------------------------------------------------
  

 Cite this work as:
 Gaussian 16, Revision A.03,
 M. J. Frisch, G. W. Trucks, H. B. Schlegel, G. E. Scuseria, 
 M. A. Robb, J. R. Cheeseman, G. Scalmani, V. Barone, 
 G. A. Petersson, H. Nakatsuji, X. Li, M. Caricato, A. V. Marenich, 
 J. Bloino, B. G. Janesko, R. Gomperts, B. Mennucci, H. P. Hratchian, 
 J. V. Ortiz, A. F. Izmaylov, J. L. Sonnenberg, D. Williams-Young, 
 F. Ding, F. Lipparini, F. Egidi, J. Goings, B. Peng, A. Petrone, 
 T. Henderson, D. Ranasinghe, V. G. Zakrzewski, J. Gao, N. Rega, 
 G. Zheng, W. Liang, M. Hada, M. Ehara, K. Toyota, R. Fukuda, 
 J. Hasegawa, M. Ishida, T. Nakajima, Y. Honda, O. Kitao, H. Nakai, 
 T. Vreven, K. Throssell, J. A. Montgomery, Jr., J. E. Peralta, 
 F. Ogliaro, M. J. Bearpark, J. J. Heyd, E. N. Brothers, K. N. Kudin, 
 V. N. Staroverov, T. A. Keith, R. Kobayashi, J. Normand, 
 K. Raghavachari, A. P. Rendell, J. C. Burant, S. S. Iyengar, 
 J. Tomasi, M. Cossi, J. M. Millam, M. Klene, C. Adamo, R. Cammi, 
 J. W. Ochterski, R. L. Martin, K. Morokuma, O. Farkas, 
 J. B. Foresman, and D. J. Fox, Gaussian, Inc., Wallingford CT, 2016.
 
 ******************************************
 Gaussian 16:  ES64L-G16RevA.03 25-Dec-2016
                28-Apr-2022 
 ******************************************
 %nproc=24
 Will use up to   24 processors via shared memory.
 %mem=75GB
 ------------------------------
 #p blyp/Def2SVP td=(nstates=5)
 ------------------------------
 1/38=1,172=1/1;
 2/12=2,17=6,18=5,40=1/2;
 3/5=43,7=101,11=9,25=1,30=1,74=402/1,2,3,8;
 4//1;
 5/5=2,38=5/2;
 8/6=1,10=1,108=5/1;
 9/41=5,42=1,70=2/14;
 6/7=2,8=2,9=2,10=2/1;
 99/5=1,9=1/99;
 Leave Link    1 at Thu Apr 28 16:14:16 2022, MaxMem= 10066329600 cpu:               1.9 elap:               0.1
 (Enter /sw/apps/gaussian-16.0/g16/l101.exe)
 --------------------------------------------------
 step_1601_chromophore_9 TDDFT with blyp functional
 --------------------------------------------------
 Symbolic Z-matrix:
 Charge =  0 Multiplicity = 1
 Mg                    35.836    0.839     29.889 
 C                     33.794    2.089     32.507 
 C                     38.454    0.799     32.146 
 C                     37.883   -0.24      27.384 
 C                     33.301    1.455     27.637 
 N                     35.99     1.335     32.092 
 C                     35.052    1.742     32.992 
 C                     35.64     2.014     34.352 
 C                     37.153    1.762     34.195 
 C                     37.238    1.178     32.737 
 C                     38.087    3.043     34.425 
 C                     34.873    1.188     35.472 
 C                     34.35     1.95      36.785 
 C                     35.083    3.083     37.394 
 O                     35.034    4.198     37.016 
 O                     35.774    2.628     38.485 
 N                     37.887    0.196     29.768 
 C                     38.813    0.363     30.787 
 C                     40.172    0.115     30.321 
 C                     39.965   -0.361     28.946 
 C                     38.544   -0.185     28.614 
 C                     41.456    0.304     31.122 
 C                     41.082   -0.866     27.955 
 O                     40.793   -1.212     26.799 
 C                     42.492   -0.925     28.488 
 N                     35.628    0.645     27.814 
 C                     36.568    0.097     26.991 
 C                     36.126    0.01      25.537 
 C                     34.625    0.565     25.653 
 C                     34.521    0.914     27.129 
 C                     37.058    0.602     24.465 
 C                     33.563   -0.379     25.175 
 C                     33.303   -1.648     25.941 
 N                     34.033    1.728     29.975 
 C                     33.063    1.818     28.97 
 C                     31.827    2.195     29.514 
 C                     32.093    2.461     30.9 
 C                     33.421    2.025     31.15 
 C                     30.53     2.436     28.77 
 C                     31.524    2.855     32.151 
 O                     30.316    3.113     32.344 
 C                     32.592    2.709     33.238 
 C                     32.926    4.054     33.782 
 O                     33.707    4.862     33.246 
 O                     32.12     4.35      34.818 
 C                     32.325    5.633     35.558 
 C                     36.76     3.544     38.924 
 C                     37.894    2.722     39.623 
 C                     38.073    2.455     40.932 
 C                     36.981    2.769     42.011 
 C                     39.363    1.961     41.527 
 C                     39.637    0.502     41.357 
 C                     39.884   -0.209     42.721 
 C                     41.39    -0.382     43.084 
 C                     41.79    -1.725     43.561 
 C                     41.807    0.794     44.089 
 C                     43.197    1.35      43.707 
 C                     43.507    2.598     44.381 
 C                     44.571    3.48      43.746 
 C                     46.035    3.004     44.054 
 C                     44.435    4.945     44.117 
 C                     43.914    5.75      42.869 
 C                     43.611    7.174     43.338 
 C                     44.057    8.195     42.32 
 C                     44.36     9.529     42.967 
 C                     43.067    8.26      41.161 
 H                     39.278    0.923     32.852 
 H                     38.538   -0.589     26.583 
 H                     32.453    1.537     26.954 
 H                     35.446    3.065     34.564 
 H                     37.569    1.029     34.886 
 H                     37.491    3.938     34.248 
 H                     38.943    3.009     33.751 
 H                     38.623    2.992     35.373 
 H                     35.582    0.414     35.765 
 H                     33.97     0.723     35.076 
 H                     34.193    1.178     37.538 
 H                     33.373    2.384     36.57 
 H                     41.325    0.982     31.966 
 H                     42.209    0.855     30.557 
 H                     41.951   -0.622     31.414 
 H                     42.911    0.079     28.421 
 H                     43.029   -1.626     27.849 
 H                     42.645   -1.355     29.478 
 H                     36.05    -1.032     25.224 
 H                     34.602    1.572     25.235 
 H                     37.585   -0.114     23.834 
 H                     37.913    1.204     24.773 
 H                     36.47     1.277     23.842 
 H                     33.953   -0.673     24.201 
 H                     32.656    0.197     24.99 
 H                     34.005   -1.765     26.767 
 H                     33.355   -2.507     25.273 
 H                     32.336   -1.576     26.437 
 H                     29.724    1.902     29.274 
 H                     30.65     2.014     27.772 
 H                     30.219    3.474     28.659 
 H                     32.196    2.103     34.052 
 H                     33.32     6.057     35.422 
 H                     32.212    5.496     36.633 
 H                     31.548    6.332     35.248 
 H                     36.285    4.129     39.711 
 H                     37.094    4.24      38.154 
 H                     38.637    2.224     39. 
 H                     36.067    3.34      41.851 
 H                     37.476    3.12      42.916 
 H                     36.621    1.775     42.278 
 H                     39.394    2.34      42.548 
 H                     40.125    2.502     40.966 
 H                     40.548    0.406     40.766 
 H                     38.784    0.069     40.833 
 H                     39.298   -1.123     42.63 
 H                     39.457    0.314     43.576 
 H                     41.995   -0.119     42.216 
 H                     42.202   -1.565     44.558 
 H                     42.443   -2.137     42.793 
 H                     40.973   -2.443     43.625 
 H                     41.962    0.444     45.11 
 H                     41.175    1.682     44.074 
 H                     43.273    1.553     42.638 
 H                     43.917    0.618     44.073 
 H                     43.861    2.305     45.369 
 H                     42.641    3.247     44.511 
 H                     44.544    3.272     42.677 
 H                     46.513    2.873     43.083 
 H                     46.083    2.089     44.644 
 H                     46.553    3.741     44.669 
 H                     45.357    5.399     44.478 
 H                     43.601    5.006     44.817 
 H                     43.041    5.332     42.368 
 H                     44.78     5.805     42.209 
 H                     44.065    7.467     44.284 
 H                     42.556    7.287     43.588 
 H                     45.027    7.953     41.886 
 H                     44.129    9.569     44.031 
 H                     43.764    10.391    42.669 
 H                     45.443    9.643     42.926 
 H                     42.613    9.241     41.023 
 H                     42.226    7.589     41.337 
 H                     43.51     8.026     40.193 
 
 ITRead=  0  0  0  0  0  0  0  0  0  0  0  0  0  0  0  0  0  0  0  0
 ITRead=  0  0  0  0  0  0  0  0  0  0  0  0  0  0  0  0  0  0  0  0
 ITRead=  0  0  0  0  0  0  0  0  0  0  0  0  0  0  0  0  0  0  0  0
 ITRead=  0  0  0  0  0  0  0  0  0  0  0  0  0  0  0  0  0  0  0  0
 ITRead=  0  0  0  0  0  0  0  0  0  0  0  0  0  0  0  0  0  0  0  0
 ITRead=  0  0  0  0  0  0  0  0  0  0  0  0  0  0  0  0  0  0  0  0
 ITRead=  0  0  0  0  0  0  0  0  0  0  0  0  0  0  0  0  0  0  0  0
 MicOpt= -1 -1 -1 -1 -1 -1 -1 -1 -1 -1 -1 -1 -1 -1 -1 -1 -1 -1 -1 -1
 MicOpt= -1 -1 -1 -1 -1 -1 -1 -1 -1 -1 -1 -1 -1 -1 -1 -1 -1 -1 -1 -1
 MicOpt= -1 -1 -1 -1 -1 -1 -1 -1 -1 -1 -1 -1 -1 -1 -1 -1 -1 -1 -1 -1
 MicOpt= -1 -1 -1 -1 -1 -1 -1 -1 -1 -1 -1 -1 -1 -1 -1 -1 -1 -1 -1 -1
 MicOpt= -1 -1 -1 -1 -1 -1 -1 -1 -1 -1 -1 -1 -1 -1 -1 -1 -1 -1 -1 -1
 MicOpt= -1 -1 -1 -1 -1 -1 -1 -1 -1 -1 -1 -1 -1 -1 -1 -1 -1 -1 -1 -1
 MicOpt= -1 -1 -1 -1 -1 -1 -1 -1 -1 -1 -1 -1 -1 -1 -1 -1 -1 -1 -1 -1
 NAtoms=    140 NQM=      140 NQMF=       0 NMMI=      0 NMMIF=      0
                NMic=       0 NMicF=      0.
                    Isotopes and Nuclear Properties:
 (Nuclear quadrupole moments (NQMom) in fm**2, nuclear magnetic moments (NMagM)
  in nuclear magnetons)

  Atom         1           2           3           4           5           6           7           8           9          10
 IAtWgt=          24          12          12          12          12          14          12          12          12          12
 AtmWgt=  23.9850450  12.0000000  12.0000000  12.0000000  12.0000000  14.0030740  12.0000000  12.0000000  12.0000000  12.0000000
 NucSpn=           0           0           0           0           0           2           0           0           0           0
 AtZEff=  -0.0000000  -0.0000000  -0.0000000  -0.0000000  -0.0000000  -0.0000000  -0.0000000  -0.0000000  -0.0000000  -0.0000000
 NQMom=    0.0000000   0.0000000   0.0000000   0.0000000   0.0000000   2.0440000   0.0000000   0.0000000   0.0000000   0.0000000
 NMagM=    0.0000000   0.0000000   0.0000000   0.0000000   0.0000000   0.4037610   0.0000000   0.0000000   0.0000000   0.0000000
 AtZNuc=  12.0000000   6.0000000   6.0000000   6.0000000   6.0000000   7.0000000   6.0000000   6.0000000   6.0000000   6.0000000

  Atom        11          12          13          14          15          16          17          18          19          20
 IAtWgt=          12          12          12          12          16          16          14          12          12          12
 AtmWgt=  12.0000000  12.0000000  12.0000000  12.0000000  15.9949146  15.9949146  14.0030740  12.0000000  12.0000000  12.0000000
 NucSpn=           0           0           0           0           0           0           2           0           0           0
 AtZEff=  -0.0000000  -0.0000000  -0.0000000  -0.0000000  -0.0000000  -0.0000000  -0.0000000  -0.0000000  -0.0000000  -0.0000000
 NQMom=    0.0000000   0.0000000   0.0000000   0.0000000   0.0000000   0.0000000   2.0440000   0.0000000   0.0000000   0.0000000
 NMagM=    0.0000000   0.0000000   0.0000000   0.0000000   0.0000000   0.0000000   0.4037610   0.0000000   0.0000000   0.0000000
 AtZNuc=   6.0000000   6.0000000   6.0000000   6.0000000   8.0000000   8.0000000   7.0000000   6.0000000   6.0000000   6.0000000

  Atom        21          22          23          24          25          26          27          28          29          30
 IAtWgt=          12          12          12          16          12          14          12          12          12          12
 AtmWgt=  12.0000000  12.0000000  12.0000000  15.9949146  12.0000000  14.0030740  12.0000000  12.0000000  12.0000000  12.0000000
 NucSpn=           0           0           0           0           0           2           0           0           0           0
 AtZEff=  -0.0000000  -0.0000000  -0.0000000  -0.0000000  -0.0000000  -0.0000000  -0.0000000  -0.0000000  -0.0000000  -0.0000000
 NQMom=    0.0000000   0.0000000   0.0000000   0.0000000   0.0000000   2.0440000   0.0000000   0.0000000   0.0000000   0.0000000
 NMagM=    0.0000000   0.0000000   0.0000000   0.0000000   0.0000000   0.4037610   0.0000000   0.0000000   0.0000000   0.0000000
 AtZNuc=   6.0000000   6.0000000   6.0000000   8.0000000   6.0000000   7.0000000   6.0000000   6.0000000   6.0000000   6.0000000

  Atom        31          32          33          34          35          36          37          38          39          40
 IAtWgt=          12          12          12          14          12          12          12          12          12          12
 AtmWgt=  12.0000000  12.0000000  12.0000000  14.0030740  12.0000000  12.0000000  12.0000000  12.0000000  12.0000000  12.0000000
 NucSpn=           0           0           0           2           0           0           0           0           0           0
 AtZEff=  -0.0000000  -0.0000000  -0.0000000  -0.0000000  -0.0000000  -0.0000000  -0.0000000  -0.0000000  -0.0000000  -0.0000000
 NQMom=    0.0000000   0.0000000   0.0000000   2.0440000   0.0000000   0.0000000   0.0000000   0.0000000   0.0000000   0.0000000
 NMagM=    0.0000000   0.0000000   0.0000000   0.4037610   0.0000000   0.0000000   0.0000000   0.0000000   0.0000000   0.0000000
 AtZNuc=   6.0000000   6.0000000   6.0000000   7.0000000   6.0000000   6.0000000   6.0000000   6.0000000   6.0000000   6.0000000

  Atom        41          42          43          44          45          46          47          48          49          50
 IAtWgt=          16          12          12          16          16          12          12          12          12          12
 AtmWgt=  15.9949146  12.0000000  12.0000000  15.9949146  15.9949146  12.0000000  12.0000000  12.0000000  12.0000000  12.0000000
 NucSpn=           0           0           0           0           0           0           0           0           0           0
 AtZEff=  -0.0000000  -0.0000000  -0.0000000  -0.0000000  -0.0000000  -0.0000000  -0.0000000  -0.0000000  -0.0000000  -0.0000000
 NQMom=    0.0000000   0.0000000   0.0000000   0.0000000   0.0000000   0.0000000   0.0000000   0.0000000   0.0000000   0.0000000
 NMagM=    0.0000000   0.0000000   0.0000000   0.0000000   0.0000000   0.0000000   0.0000000   0.0000000   0.0000000   0.0000000
 AtZNuc=   8.0000000   6.0000000   6.0000000   8.0000000   8.0000000   6.0000000   6.0000000   6.0000000   6.0000000   6.0000000

  Atom        51          52          53          54          55          56          57          58          59          60
 IAtWgt=          12          12          12          12          12          12          12          12          12          12
 AtmWgt=  12.0000000  12.0000000  12.0000000  12.0000000  12.0000000  12.0000000  12.0000000  12.0000000  12.0000000  12.0000000
 NucSpn=           0           0           0           0           0           0           0           0           0           0
 AtZEff=  -0.0000000  -0.0000000  -0.0000000  -0.0000000  -0.0000000  -0.0000000  -0.0000000  -0.0000000  -0.0000000  -0.0000000
 NQMom=    0.0000000   0.0000000   0.0000000   0.0000000   0.0000000   0.0000000   0.0000000   0.0000000   0.0000000   0.0000000
 NMagM=    0.0000000   0.0000000   0.0000000   0.0000000   0.0000000   0.0000000   0.0000000   0.0000000   0.0000000   0.0000000
 AtZNuc=   6.0000000   6.0000000   6.0000000   6.0000000   6.0000000   6.0000000   6.0000000   6.0000000   6.0000000   6.0000000

  Atom        61          62          63          64          65          66          67          68          69          70
 IAtWgt=          12          12          12          12          12          12           1           1           1           1
 AtmWgt=  12.0000000  12.0000000  12.0000000  12.0000000  12.0000000  12.0000000   1.0078250   1.0078250   1.0078250   1.0078250
 NucSpn=           0           0           0           0           0           0           1           1           1           1
 AtZEff=  -0.0000000  -0.0000000  -0.0000000  -0.0000000  -0.0000000  -0.0000000  -0.0000000  -0.0000000  -0.0000000  -0.0000000
 NQMom=    0.0000000   0.0000000   0.0000000   0.0000000   0.0000000   0.0000000   0.0000000   0.0000000   0.0000000   0.0000000
 NMagM=    0.0000000   0.0000000   0.0000000   0.0000000   0.0000000   0.0000000   2.7928460   2.7928460   2.7928460   2.7928460
 AtZNuc=   6.0000000   6.0000000   6.0000000   6.0000000   6.0000000   6.0000000   1.0000000   1.0000000   1.0000000   1.0000000

  Atom        71          72          73          74          75          76          77          78          79          80
 IAtWgt=           1           1           1           1           1           1           1           1           1           1
 AtmWgt=   1.0078250   1.0078250   1.0078250   1.0078250   1.0078250   1.0078250   1.0078250   1.0078250   1.0078250   1.0078250
 NucSpn=           1           1           1           1           1           1           1           1           1           1
 AtZEff=  -0.0000000  -0.0000000  -0.0000000  -0.0000000  -0.0000000  -0.0000000  -0.0000000  -0.0000000  -0.0000000  -0.0000000
 NQMom=    0.0000000   0.0000000   0.0000000   0.0000000   0.0000000   0.0000000   0.0000000   0.0000000   0.0000000   0.0000000
 NMagM=    2.7928460   2.7928460   2.7928460   2.7928460   2.7928460   2.7928460   2.7928460   2.7928460   2.7928460   2.7928460
 AtZNuc=   1.0000000   1.0000000   1.0000000   1.0000000   1.0000000   1.0000000   1.0000000   1.0000000   1.0000000   1.0000000

  Atom        81          82          83          84          85          86          87          88          89          90
 IAtWgt=           1           1           1           1           1           1           1           1           1           1
 AtmWgt=   1.0078250   1.0078250   1.0078250   1.0078250   1.0078250   1.0078250   1.0078250   1.0078250   1.0078250   1.0078250
 NucSpn=           1           1           1           1           1           1           1           1           1           1
 AtZEff=  -0.0000000  -0.0000000  -0.0000000  -0.0000000  -0.0000000  -0.0000000  -0.0000000  -0.0000000  -0.0000000  -0.0000000
 NQMom=    0.0000000   0.0000000   0.0000000   0.0000000   0.0000000   0.0000000   0.0000000   0.0000000   0.0000000   0.0000000
 NMagM=    2.7928460   2.7928460   2.7928460   2.7928460   2.7928460   2.7928460   2.7928460   2.7928460   2.7928460   2.7928460
 AtZNuc=   1.0000000   1.0000000   1.0000000   1.0000000   1.0000000   1.0000000   1.0000000   1.0000000   1.0000000   1.0000000

  Atom        91          92          93          94          95          96          97          98          99         100
 IAtWgt=           1           1           1           1           1           1           1           1           1           1
 AtmWgt=   1.0078250   1.0078250   1.0078250   1.0078250   1.0078250   1.0078250   1.0078250   1.0078250   1.0078250   1.0078250
 NucSpn=           1           1           1           1           1           1           1           1           1           1
 AtZEff=  -0.0000000  -0.0000000  -0.0000000  -0.0000000  -0.0000000  -0.0000000  -0.0000000  -0.0000000  -0.0000000  -0.0000000
 NQMom=    0.0000000   0.0000000   0.0000000   0.0000000   0.0000000   0.0000000   0.0000000   0.0000000   0.0000000   0.0000000
 NMagM=    2.7928460   2.7928460   2.7928460   2.7928460   2.7928460   2.7928460   2.7928460   2.7928460   2.7928460   2.7928460
 AtZNuc=   1.0000000   1.0000000   1.0000000   1.0000000   1.0000000   1.0000000   1.0000000   1.0000000   1.0000000   1.0000000

  Atom       101         102         103         104         105         106         107         108         109         110
 IAtWgt=           1           1           1           1           1           1           1           1           1           1
 AtmWgt=   1.0078250   1.0078250   1.0078250   1.0078250   1.0078250   1.0078250   1.0078250   1.0078250   1.0078250   1.0078250
 NucSpn=           1           1           1           1           1           1           1           1           1           1
 AtZEff=  -0.0000000  -0.0000000  -0.0000000  -0.0000000  -0.0000000  -0.0000000  -0.0000000  -0.0000000  -0.0000000  -0.0000000
 NQMom=    0.0000000   0.0000000   0.0000000   0.0000000   0.0000000   0.0000000   0.0000000   0.0000000   0.0000000   0.0000000
 NMagM=    2.7928460   2.7928460   2.7928460   2.7928460   2.7928460   2.7928460   2.7928460   2.7928460   2.7928460   2.7928460
 AtZNuc=   1.0000000   1.0000000   1.0000000   1.0000000   1.0000000   1.0000000   1.0000000   1.0000000   1.0000000   1.0000000

  Atom       111         112         113         114         115         116         117         118         119         120
 IAtWgt=           1           1           1           1           1           1           1           1           1           1
 AtmWgt=   1.0078250   1.0078250   1.0078250   1.0078250   1.0078250   1.0078250   1.0078250   1.0078250   1.0078250   1.0078250
 NucSpn=           1           1           1           1           1           1           1           1           1           1
 AtZEff=  -0.0000000  -0.0000000  -0.0000000  -0.0000000  -0.0000000  -0.0000000  -0.0000000  -0.0000000  -0.0000000  -0.0000000
 NQMom=    0.0000000   0.0000000   0.0000000   0.0000000   0.0000000   0.0000000   0.0000000   0.0000000   0.0000000   0.0000000
 NMagM=    2.7928460   2.7928460   2.7928460   2.7928460   2.7928460   2.7928460   2.7928460   2.7928460   2.7928460   2.7928460
 AtZNuc=   1.0000000   1.0000000   1.0000000   1.0000000   1.0000000   1.0000000   1.0000000   1.0000000   1.0000000   1.0000000

  Atom       121         122         123         124         125         126         127         128         129         130
 IAtWgt=           1           1           1           1           1           1           1           1           1           1
 AtmWgt=   1.0078250   1.0078250   1.0078250   1.0078250   1.0078250   1.0078250   1.0078250   1.0078250   1.0078250   1.0078250
 NucSpn=           1           1           1           1           1           1           1           1           1           1
 AtZEff=  -0.0000000  -0.0000000  -0.0000000  -0.0000000  -0.0000000  -0.0000000  -0.0000000  -0.0000000  -0.0000000  -0.0000000
 NQMom=    0.0000000   0.0000000   0.0000000   0.0000000   0.0000000   0.0000000   0.0000000   0.0000000   0.0000000   0.0000000
 NMagM=    2.7928460   2.7928460   2.7928460   2.7928460   2.7928460   2.7928460   2.7928460   2.7928460   2.7928460   2.7928460
 AtZNuc=   1.0000000   1.0000000   1.0000000   1.0000000   1.0000000   1.0000000   1.0000000   1.0000000   1.0000000   1.0000000

  Atom       131         132         133         134         135         136         137         138         139         140
 IAtWgt=           1           1           1           1           1           1           1           1           1           1
 AtmWgt=   1.0078250   1.0078250   1.0078250   1.0078250   1.0078250   1.0078250   1.0078250   1.0078250   1.0078250   1.0078250
 NucSpn=           1           1           1           1           1           1           1           1           1           1
 AtZEff=  -0.0000000  -0.0000000  -0.0000000  -0.0000000  -0.0000000  -0.0000000  -0.0000000  -0.0000000  -0.0000000  -0.0000000
 NQMom=    0.0000000   0.0000000   0.0000000   0.0000000   0.0000000   0.0000000   0.0000000   0.0000000   0.0000000   0.0000000
 NMagM=    2.7928460   2.7928460   2.7928460   2.7928460   2.7928460   2.7928460   2.7928460   2.7928460   2.7928460   2.7928460
 AtZNuc=   1.0000000   1.0000000   1.0000000   1.0000000   1.0000000   1.0000000   1.0000000   1.0000000   1.0000000   1.0000000
 Leave Link  101 at Thu Apr 28 16:14:16 2022, MaxMem= 10066329600 cpu:               3.8 elap:               0.2
 (Enter /sw/apps/gaussian-16.0/g16/l202.exe)
 Stoichiometry    C55H74MgN4O6
 Framework group  C1[X(C55H74MgN4O6)]
 Deg. of freedom   414
 Full point group                 C1      NOp   1
 Largest Abelian subgroup         C1      NOp   1
 Largest concise Abelian subgroup C1      NOp   1
                         Standard orientation:                         
 ---------------------------------------------------------------------
 Center     Atomic      Atomic             Coordinates (Angstroms)
 Number     Number       Type             X           Y           Z
 ---------------------------------------------------------------------
      1         12           0       -5.213245    0.650502   -0.134527
      2          6           0       -3.584920   -2.499567   -0.243205
      3          6           0       -2.081350    2.110124   -0.236063
      4          6           0       -6.709900    3.705781    0.099502
      5          6           0       -8.203541   -0.933835    0.517541
      6          7           0       -3.117694   -0.188404   -0.301387
      7          6           0       -2.665578   -1.468314   -0.415035
      8          6           0       -1.161335   -1.547139   -0.434208
      9          6           0       -0.679044   -0.092382   -0.265678
     10          6           0       -2.028536    0.711455   -0.347926
     11          6           0        0.157968    0.200237    1.068488
     12          6           0       -0.655869   -2.341957   -1.713948
     13          6           0        0.404561   -3.532910   -1.526165
     14          6           0        1.461339   -3.502968   -0.489737
     15          8           0        1.301731   -3.784623    0.643270
     16          8           0        2.646669   -3.148255   -1.076218
     17          7           0       -4.531254    2.690974   -0.212325
     18          6           0       -3.197351    3.065357   -0.147014
     19          6           0       -3.054290    4.498067    0.081934
     20          6           0       -4.440042    4.981811    0.006227
     21          6           0       -5.326084    3.811164   -0.064181
     22          6           0       -1.751349    5.255108    0.316907
     23          6           0       -4.910841    6.483352    0.098515
     24          8           0       -6.116914    6.772009    0.058039
     25          6           0       -3.832062    7.531460    0.214170
     26          7           0       -7.166920    1.293652    0.260488
     27          6           0       -7.574968    2.594874    0.221107
     28          6           0       -9.065544    2.772063    0.473764
     29          6           0       -9.525701    1.240179    0.600523
     30          6           0       -8.209793    0.492794    0.455624
     31          6           0       -9.497148    3.771612    1.561372
     32          6           0      -10.578536    0.813121   -0.377549
     33          6           0      -10.239727    0.737176   -1.841843
     34          7           0       -5.774103   -1.245334    0.239332
     35          6           0       -7.070057   -1.749937    0.397143
     36          6           0       -7.067793   -3.148107    0.292861
     37          6           0       -5.683152   -3.513655    0.184909
     38          6           0       -4.955690   -2.305749    0.017752
     39          6           0       -8.251021   -4.082720    0.435321
     40          6           0       -4.761918   -4.597354    0.040269
     41          8           0       -5.077444   -5.802777   -0.062083
     42          6           0       -3.360450   -4.018765   -0.170991
     43          6           0       -2.499162   -4.382840    0.987520
     44          8           0       -2.487039   -3.783100    2.078523
     45          8           0       -1.888631   -5.560394    0.761316
     46          6           0       -0.922155   -6.086959    1.773426
     47          6           0        3.626854   -2.763390   -0.130126
     48          6           0        4.597216   -1.757139   -0.834468
     49          6           0        5.782577   -1.989689   -1.432507
     50          6           0        6.308498   -3.437073   -1.721971
     51          6           0        6.787196   -0.921129   -1.765797
     52          6           0        6.502629   -0.127801   -2.999615
     53          6           0        7.688681   -0.171253   -4.008783
     54          6           0        8.639905    1.060773   -3.925001
     55          6           0        9.001077    1.687810   -5.216340
     56          6           0        9.914309    0.657473   -3.041748
     57          6           0       10.285607    1.814378   -2.087354
     58          6           0       11.233936    1.414822   -1.063192
     59          6           0       11.296097    2.271120    0.192250
     60          6           0       12.127418    3.589320    0.002546
     61          6           0       11.819450    1.522026    1.403581
     62          6           0       10.631674    1.253679    2.400651
     63          6           0       11.160841    0.337830    3.505526
     64          6           0       10.638329    0.751032    4.859752
     65          6           0       11.574832    0.326172    5.969901
     66          6           0        9.193521    0.293791    5.036008
     67          1           0       -1.075575    2.524919   -0.140411
     68          1           0       -7.188970    4.684475    0.170762
     69          1           0       -9.163568   -1.447539    0.599836
     70          1           0       -0.875964   -2.148393    0.428484
     71          1           0       -0.015602    0.263991   -1.053503
     72          1           0       -0.103316   -0.554791    1.809591
     73          1           0       -0.065805    1.200291    1.439953
     74          1           0        1.219850    0.336077    0.862199
     75          1           0       -0.221569   -1.572235   -2.351535
     76          1           0       -1.482830   -2.823127   -2.236499
     77          1           0        0.864080   -3.682923   -2.502884
     78          1           0       -0.138208   -4.448517   -1.289152
     79          1           0       -0.946650    4.603842    0.659678
     80          1           0       -1.822024    5.928106    1.172427
     81          1           0       -1.438528    5.891028   -0.511051
     82          1           0       -3.531442    7.579639    1.260770
     83          1           0       -4.281784    8.467735   -0.116331
     84          1           0       -2.967712    7.448024   -0.444881
     85          1           0       -9.556954    3.173005   -0.413519
     86          1           0       -9.728020    1.032221    1.651771
     87          1           0       -9.946838    4.701367    1.212257
     88          1           0       -8.744857    4.196947    2.225781
     89          1           0      -10.186380    3.260856    2.234860
     90          1           0      -11.316845    1.606574   -0.265554
     91          1           0      -11.039285   -0.100778   -0.001850
     92          1           0       -9.223959    1.083870   -2.033640
     93          1           0      -10.955706    1.316880   -2.423330
     94          1           0      -10.214917   -0.306984   -2.150718
     95          1           0       -8.254407   -4.785153   -0.398576
     96          1           0       -9.151481   -3.471355    0.372927
     97          1           0       -8.303934   -4.663068    1.355583
     98          1           0       -2.923150   -4.454494   -1.068520
     99          1           0       -0.530713   -5.317814    2.439374
    100          1           0       -0.048530   -6.531258    1.297464
    101          1           0       -1.414424   -6.884071    2.330843
    102          1           0        4.213937   -3.660708    0.063195
    103          1           0        3.216825   -2.427950    0.822884
    104          1           0        4.287594   -0.716733   -0.933820
    105          1           0        5.865828   -4.364482   -1.360042
    106          1           0        7.384780   -3.457088   -1.553246
    107          1           0        6.211776   -3.510518   -2.805565
    108          1           0        7.766740   -1.395393   -1.714700
    109          1           0        6.722251   -0.238404   -0.918616
    110          1           0        6.365311    0.910612   -2.697521
    111          1           0        5.590444   -0.529682   -3.442428
    112          1           0        7.191213   -0.337001   -4.963836
    113          1           0        8.345927   -1.030804   -3.881967
    114          1           0        8.186859    1.813525   -3.279453
    115          1           0       10.088558    1.626828   -5.271290
    116          1           0        8.539190    2.674030   -5.213710
    117          1           0        8.572979    1.198800   -6.090817
    118          1           0       10.820842    0.537383   -3.635669
    119          1           0        9.778730   -0.185580   -2.364198
    120          1           0        9.412556    2.202068   -1.560833
    121          1           0       10.796408    2.552766   -2.705451
    122          1           0       12.208786    1.460085   -1.547886
    123          1           0       11.081525    0.396728   -0.704984
    124          1           0       10.305920    2.708532    0.314618
    125          1           0       11.458918    4.402850    0.284969
    126          1           0       12.508365    3.725010   -1.009431
    127          1           0       13.025777    3.564585    0.620655
    128          1           0       12.621995    2.036180    1.930922
    129          1           0       12.080519    0.522421    1.054428
    130          1           0        9.733591    0.820977    1.960116
    131          1           0       10.440194    2.227182    2.852547
    132          1           0       12.245094    0.286904    3.598706
    133          1           0       10.937400   -0.706666    3.287822
    134          1           0       10.639739    1.832662    4.993522
    135          1           0       12.417878   -0.276328    5.633264
    136          1           0       11.201159   -0.373496    6.716826
    137          1           0       12.034430    1.241814    6.341295
    138          1           0        9.044026   -0.381428    5.878179
    139          1           0        8.861786   -0.272843    4.165734
    140          1           0        8.494275    1.110718    5.214094
 ---------------------------------------------------------------------
 Rotational constants (GHZ):           0.0406469           0.0109762           0.0097206
 Leave Link  202 at Thu Apr 28 16:14:16 2022, MaxMem= 10066329600 cpu:               0.6 elap:               0.0
 (Enter /sw/apps/gaussian-16.0/g16/l301.exe)
 Standard basis: def2SVP (5D, 7F)
 Ernie: Thresh=  0.10000D-02 Tol=  0.10000D-05 Strict=F.
 There are  1364 symmetry adapted cartesian basis functions of A   symmetry.
 There are  1298 symmetry adapted basis functions of A   symmetry.
  1298 basis functions,  2180 primitive gaussians,  1364 cartesian basis functions
   246 alpha electrons      246 beta electrons
       nuclear repulsion energy      9618.1367490201 Hartrees.
 IExCor=  402 DFT=T Ex=B Corr=LYP ExCW=0 ScaHFX=  0.000000
 ScaDFX=  1.000000  1.000000  1.000000  1.000000 ScalE2=  1.000000  1.000000
 IRadAn=      5 IRanWt=     -1 IRanGd=            0 ICorTp=0 IEmpDi=  4
 NAtoms=  140 NActive=  140 NUniq=  140 SFac= 1.00D+00 NAtFMM=   60 NAOKFM=T Big=T
 Integral buffers will be    131072 words long.
 Regular integral format.
 Two-electron integral symmetry is turned on.
 Leave Link  301 at Thu Apr 28 16:14:16 2022, MaxMem= 10066329600 cpu:               1.2 elap:               0.1
 (Enter /sw/apps/gaussian-16.0/g16/l302.exe)
 NPDir=0 NMtPBC=     1 NCelOv=     1 NCel=       1 NClECP=     1 NCelD=      1
         NCelK=      1 NCelE2=     1 NClLst=     1 CellRange=     0.0.
 One-electron integrals computed using PRISM.
 One-electron integral symmetry used in STVInt
   1 Symmetry operations used in ECPInt.
 ECPInt:  NShTT=  192510 NPrTT=  683786 LenC2=   95391 LenP2D=  208186.
 LDataN:  DoStor=T MaxTD1= 4 Len=   56
 NBasis=  1298 RedAO= T EigKep=  2.90D-04  NBF=  1298
 NBsUse=  1298 1.00D-06 EigRej= -1.00D+00 NBFU=  1298
 Precomputing XC quadrature grid using
 IXCGrd= 4 IRadAn=           5 IRanWt=          -1 IRanGd=           0 AccXCQ= 0.00D+00.
 Generated NRdTot=       0 NPtTot=           0 NUsed=           0 NTot=          32
 NSgBfM=  1117  1107  1108  1117  1117 MxSgAt=   140 MxSgA2=   140.
 Leave Link  302 at Thu Apr 28 16:14:20 2022, MaxMem= 10066329600 cpu:              97.1 elap:               4.1
 (Enter /sw/apps/gaussian-16.0/g16/l303.exe)
 DipDrv:  MaxL=1.
 Leave Link  303 at Thu Apr 28 16:14:21 2022, MaxMem= 10066329600 cpu:               7.9 elap:               0.4
 (Enter /sw/apps/gaussian-16.0/g16/l308.exe)
 Leave Link  308 at Thu Apr 28 16:14:21 2022, MaxMem= 10066329600 cpu:              10.2 elap:               0.5
 (Enter /sw/apps/gaussian-16.0/g16/l401.exe)
 ExpMin= 3.36D-02 ExpMax= 4.95D+03 ExpMxC= 7.45D+02 IAcc=3 IRadAn=         5 AccDes= 0.00D+00
 Harris functional with IExCor=  402 and IRadAn=       5 diagonalized for initial guess.
 HarFok:  IExCor=  402 AccDes= 0.00D+00 IRadAn=         5 IDoV= 1 UseB2=F ITyADJ=14
 ICtDFT=  3500011 ScaDFX=  1.000000  1.000000  1.000000  1.000000
 FoFCou: FMM=F IPFlag=           0 FMFlag=      100000 FMFlg1=        2001
         NFxFlg=           0 DoJE=T BraDBF=F KetDBF=T FulRan=T
         wScrn=  0.000000 ICntrl=       500 IOpCl=  0 I1Cent=   200000004 NGrid=           0
         NMat0=    1 NMatS0=      1 NMatT0=    0 NMatD0=    1 NMtDS0=    0 NMtDT0=    0
 Petite list used in FoFCou.
 Harris En= -3008.77736454844    
 JPrj=0 DoOrth=F DoCkMO=F.
 Leave Link  401 at Thu Apr 28 16:14:28 2022, MaxMem= 10066329600 cpu:             160.6 elap:               6.7
 (Enter /sw/apps/gaussian-16.0/g16/l502.exe)
 Integral symmetry usage will be decided dynamically.
 Closed shell SCF:
 Using DIIS extrapolation, IDIIS=  1040.
 NGot= 10066329600 LenX= 10062561258 LenY= 10060699398
 Requested convergence on RMS density matrix=1.00D-08 within 128 cycles.
 Requested convergence on MAX density matrix=1.00D-06.
 Requested convergence on             energy=1.00D-06.
 No special actions if energy rises.
 Fock matrices will be formed incrementally for  20 cycles.

 Cycle   1  Pass 1  IDiag  1:
 FoFJK:  IHMeth= 1 ICntrl=     500 DoSepK=F KAlg= 0 I1Cent=           0 FoldK=F
 IRaf= 520000000 NMat=       1 IRICut=       1 DoRegI=T DoRafI=F ISym2E= 0 IDoP0=0 IntGTp=1.
 FoFCou: FMM=T IPFlag=           0 FMFlag=      100000 FMFlg1=        2001
         NFxFlg=           0 DoJE=T BraDBF=F KetDBF=F FulRan=T
         wScrn=  0.000000 ICntrl=       500 IOpCl=  0 I1Cent=           0 NGrid=           0
         NMat0=    1 NMatS0=      1 NMatT0=    0 NMatD0=    1 NMtDS0=    0 NMtDT0=    0
 Symmetry not used in FoFCou.
 FMM levels:  10  Number of levels for PrismC:   9
 E= -3005.67611829223    
 DIIS: error= 2.25D-02 at cycle   1 NSaved=   1.
 NSaved= 1 IEnMin= 1 EnMin= -3005.67611829223     IErMin= 1 ErrMin= 2.25D-02
 ErrMax= 2.25D-02  0.00D+00 EMaxC= 1.00D-01 BMatC= 1.55D+00 BMatP= 1.55D+00
 IDIUse=3 WtCom= 7.75D-01 WtEn= 2.25D-01
 Coeff-Com:  0.100D+01
 Coeff-En:   0.100D+01
 Coeff:      0.100D+01
 Gap=     0.053 Goal=   None    Shift=    0.000
 GapD=    0.053 DampG=0.500 DampE=0.500 DampFc=0.2500 IDamp=-1.
 Damping current iteration by 2.50D-01
 RMSDP=3.83D-03 MaxDP=5.36D-01              OVMax= 9.18D-01

 Cycle   2  Pass 1  IDiag  1:
 RMSU=  9.51D-04    CP:  9.89D-01
 E= -3006.17762523029     Delta-E=       -0.501506938066 Rises=F Damp=T
 DIIS: error= 8.36D-03 at cycle   2 NSaved=   2.
 NSaved= 2 IEnMin= 2 EnMin= -3006.17762523029     IErMin= 2 ErrMin= 8.36D-03
 ErrMax= 8.36D-03  0.00D+00 EMaxC= 1.00D-01 BMatC= 2.60D-01 BMatP= 1.55D+00
 IDIUse=3 WtCom= 9.16D-01 WtEn= 8.36D-02
 Coeff-Com: -0.289D+00 0.129D+01
 Coeff-En:   0.884D-01 0.912D+00
 Coeff:     -0.258D+00 0.126D+01
 Gap=     0.059 Goal=   None    Shift=    0.000
 RMSDP=1.56D-03 MaxDP=2.53D-01 DE=-5.02D-01 OVMax= 5.63D-01

 Cycle   3  Pass 1  IDiag  1:
 RMSU=  1.53D-03    CP:  9.66D-01  1.22D+00
 E= -3005.40565040524     Delta-E=        0.771974825051 Rises=F Damp=F
 DIIS: error= 4.80D-02 at cycle   3 NSaved=   3.
 NSaved= 3 IEnMin= 2 EnMin= -3006.17762523029     IErMin= 2 ErrMin= 8.36D-03
 ErrMax= 4.80D-02  0.00D+00 EMaxC= 1.00D-01 BMatC= 1.50D+00 BMatP= 2.60D-01
 IDIUse=2 WtCom= 0.00D+00 WtEn= 1.00D+00
 Coeff-En:   0.000D+00 0.655D+00 0.345D+00
 Coeff:      0.000D+00 0.655D+00 0.345D+00
 Gap=     0.076 Goal=   None    Shift=    0.000
 RMSDP=2.26D-03 MaxDP=4.86D-01 DE= 7.72D-01 OVMax= 9.14D-01

 Cycle   4  Pass 1  IDiag  1:
 RMSU=  1.36D-03    CP:  9.65D-01  1.91D+00 -9.77D-02
 E= -3002.17647892784     Delta-E=        3.229171477400 Rises=F Damp=F
 DIIS: error= 6.83D-02 at cycle   4 NSaved=   4.
 NSaved= 4 IEnMin= 2 EnMin= -3006.17762523029     IErMin= 2 ErrMin= 8.36D-03
 ErrMax= 6.83D-02  0.00D+00 EMaxC= 1.00D-01 BMatC= 2.94D+00 BMatP= 2.60D-01
 IDIUse=2 WtCom= 0.00D+00 WtEn= 1.00D+00
 EnCoef did     1 forward-backward iterations
 Coeff-En:   0.121D+00 0.000D+00 0.563D+00 0.315D+00
 Coeff:      0.121D+00 0.000D+00 0.563D+00 0.315D+00
 Gap=    -0.040 Goal=   None    Shift=    0.000
 RMSDP=1.70D-03 MaxDP=3.34D-01 DE= 3.23D+00 OVMax= 8.87D-01

 Cycle   5  Pass 1  IDiag  1:
 RMSU=  8.72D-04    CP:  9.80D-01  1.31D+00  3.88D-02  3.42D-02
 E= -3006.91857473417     Delta-E=       -4.742095806329 Rises=F Damp=F
 DIIS: error= 4.07D-02 at cycle   5 NSaved=   5.
 NSaved= 5 IEnMin= 5 EnMin= -3006.91857473417     IErMin= 2 ErrMin= 8.36D-03
 ErrMax= 4.07D-02  0.00D+00 EMaxC= 1.00D-01 BMatC= 5.08D-01 BMatP= 2.60D-01
 IDIUse=2 WtCom= 0.00D+00 WtEn= 1.00D+00
 EnCoef did     3 forward-backward iterations
 Coeff-En:   0.000D+00 0.000D+00 0.273D+00 0.123D+00 0.604D+00
 Coeff:      0.000D+00 0.000D+00 0.273D+00 0.123D+00 0.604D+00
 Gap=     0.173 Goal=   None    Shift=    0.000
 RMSDP=1.55D-03 MaxDP=2.23D-01 DE=-4.74D+00 OVMax= 5.81D-01

 Cycle   6  Pass 1  IDiag  1:
 RMSU=  1.21D-03    CP:  9.73D-01  9.39D-01  2.68D-01  1.99D-01  8.90D-02
 E= -3006.19685464541     Delta-E=        0.721720088761 Rises=F Damp=F
 DIIS: error= 5.41D-02 at cycle   6 NSaved=   6.
 NSaved= 6 IEnMin= 5 EnMin= -3006.91857473417     IErMin= 2 ErrMin= 8.36D-03
 ErrMax= 5.41D-02  0.00D+00 EMaxC= 1.00D-01 BMatC= 1.13D+00 BMatP= 2.60D-01
 IDIUse=2 WtCom= 0.00D+00 WtEn= 1.00D+00
 EnCoef did     2 forward-backward iterations
 Coeff-En:   0.000D+00 0.000D+00 0.614D-01 0.000D+00 0.621D+00 0.318D+00
 Coeff:      0.000D+00 0.000D+00 0.614D-01 0.000D+00 0.621D+00 0.318D+00
 Gap=     0.101 Goal=   None    Shift=    0.000
 RMSDP=1.08D-03 MaxDP=1.04D-01 DE= 7.22D-01 OVMax= 5.37D-01

 Cycle   7  Pass 1  IDiag  1:
 RMSU=  5.18D-04    CP:  9.75D-01  1.14D+00  3.27D-01 -5.64D-03  5.21D-01
                    CP:  3.41D-01
 E= -3007.20154758409     Delta-E=       -1.004692938681 Rises=F Damp=F
 DIIS: error= 1.79D-02 at cycle   7 NSaved=   7.
 NSaved= 7 IEnMin= 7 EnMin= -3007.20154758409     IErMin= 2 ErrMin= 8.36D-03
 ErrMax= 1.79D-02  0.00D+00 EMaxC= 1.00D-01 BMatC= 1.65D-01 BMatP= 2.60D-01
 IDIUse=3 WtCom= 8.21D-01 WtEn= 1.79D-01
 EnCoef did   100 forward-backward iterations
 Coeff-Com: -0.634D-01 0.185D+00 0.500D-01 0.775D-02 0.334D+00 0.150D+00
 Coeff-Com:  0.336D+00
 Coeff-En:   0.000D+00 0.000D+00 0.000D+00 0.333D-02 0.331D+00 0.941D-01
 Coeff-En:   0.572D+00
 Coeff:     -0.521D-01 0.152D+00 0.410D-01 0.696D-02 0.334D+00 0.140D+00
 Coeff:      0.378D+00
 Gap=     0.041 Goal=   None    Shift=    0.000
 RMSDP=7.06D-04 MaxDP=7.25D-02 DE=-1.00D+00 OVMax= 5.07D-01

 Cycle   8  Pass 1  IDiag  1:
 RMSU=  4.04D-04    CP:  9.76D-01  1.17D+00  2.01D-01  9.22D-02  5.34D-01
                    CP:  4.53D-01  1.23D-02
 E= -3007.24611794537     Delta-E=       -0.044570361280 Rises=F Damp=F
 DIIS: error= 9.36D-03 at cycle   8 NSaved=   8.
 NSaved= 8 IEnMin= 8 EnMin= -3007.24611794537     IErMin= 2 ErrMin= 8.36D-03
 ErrMax= 9.36D-03  0.00D+00 EMaxC= 1.00D-01 BMatC= 8.96D-02 BMatP= 1.65D-01
 IDIUse=3 WtCom= 9.06D-01 WtEn= 9.36D-02
 EnCoef did     3 forward-backward iterations
 Coeff-Com: -0.493D-01 0.159D+00-0.119D-01-0.205D-02 0.170D+00 0.258D-01
 Coeff-Com:  0.402D+00 0.306D+00
 Coeff-En:   0.000D+00 0.000D+00 0.000D+00 0.000D+00 0.117D+00 0.000D+00
 Coeff-En:   0.407D+00 0.476D+00
 Coeff:     -0.447D-01 0.145D+00-0.108D-01-0.186D-02 0.165D+00 0.233D-01
 Coeff:      0.403D+00 0.322D+00
 Gap=     0.043 Goal=   None    Shift=    0.000
 RMSDP=4.63D-04 MaxDP=5.47D-02 DE=-4.46D-02 OVMax= 3.23D-01

 Cycle   9  Pass 1  IDiag  1:
 RMSU=  1.54D-04    CP:  9.78D-01  1.16D+00  1.98D-01  1.97D-02  7.16D-01
                    CP:  3.54D-01  5.12D-01  3.27D-01
 E= -3007.37666340031     Delta-E=       -0.130545454942 Rises=F Damp=F
 DIIS: error= 2.41D-03 at cycle   9 NSaved=   9.
 NSaved= 9 IEnMin= 9 EnMin= -3007.37666340031     IErMin= 9 ErrMin= 2.41D-03
 ErrMax= 2.41D-03  0.00D+00 EMaxC= 1.00D-01 BMatC= 6.56D-03 BMatP= 8.96D-02
 IDIUse=3 WtCom= 9.76D-01 WtEn= 2.41D-02
 Coeff-Com: -0.198D-01 0.682D-01-0.115D-01 0.274D-02 0.516D-01-0.130D-01
 Coeff-Com:  0.210D+00 0.242D+00 0.471D+00
 Coeff-En:   0.000D+00 0.000D+00 0.000D+00 0.000D+00 0.000D+00 0.000D+00
 Coeff-En:   0.000D+00 0.942D-01 0.906D+00
 Coeff:     -0.193D-01 0.666D-01-0.112D-01 0.267D-02 0.504D-01-0.127D-01
 Coeff:      0.205D+00 0.238D+00 0.481D+00
 Gap=     0.042 Goal=   None    Shift=    0.000
 RMSDP=1.48D-04 MaxDP=3.29D-02 DE=-1.31D-01 OVMax= 9.31D-02

 Cycle  10  Pass 1  IDiag  1:
 RMSU=  8.92D-05    CP:  9.77D-01  1.17D+00  1.93D-01  3.58D-02  6.60D-01
                    CP:  3.52D-01  4.60D-01  4.61D-01  4.59D-01
 E= -3007.38095984962     Delta-E=       -0.004296449310 Rises=F Damp=F
 DIIS: error= 1.89D-03 at cycle  10 NSaved=  10.
 NSaved=10 IEnMin=10 EnMin= -3007.38095984962     IErMin=10 ErrMin= 1.89D-03
 ErrMax= 1.89D-03  0.00D+00 EMaxC= 1.00D-01 BMatC= 2.92D-03 BMatP= 6.56D-03
 IDIUse=3 WtCom= 9.81D-01 WtEn= 1.89D-02
 Coeff-Com: -0.160D-01 0.424D-01-0.275D-02-0.186D-03 0.561D-02-0.658D-02
 Coeff-Com:  0.585D-01 0.107D+00 0.408D+00 0.404D+00
 Coeff-En:   0.000D+00 0.000D+00 0.000D+00 0.000D+00 0.000D+00 0.000D+00
 Coeff-En:   0.000D+00 0.000D+00 0.354D+00 0.646D+00
 Coeff:     -0.157D-01 0.416D-01-0.270D-02-0.183D-03 0.550D-02-0.645D-02
 Coeff:      0.574D-01 0.105D+00 0.407D+00 0.408D+00
 Gap=     0.043 Goal=   None    Shift=    0.000
 RMSDP=1.02D-04 MaxDP=1.23D-02 DE=-4.30D-03 OVMax= 6.57D-02

 Cycle  11  Pass 1  IDiag  1:
 RMSU=  5.68D-05    CP:  9.77D-01  1.17D+00  1.97D-01  2.76D-02  6.79D-01
                    CP:  3.55D-01  4.59D-01  4.38D-01  6.91D-01  1.82D-01
 E= -3007.38230805698     Delta-E=       -0.001348207359 Rises=F Damp=F
 DIIS: error= 1.84D-03 at cycle  11 NSaved=  11.
 NSaved=11 IEnMin=11 EnMin= -3007.38230805698     IErMin=11 ErrMin= 1.84D-03
 ErrMax= 1.84D-03  0.00D+00 EMaxC= 1.00D-01 BMatC= 1.49D-03 BMatP= 2.92D-03
 IDIUse=3 WtCom= 9.82D-01 WtEn= 1.84D-02
 EnCoef did     6 forward-backward iterations
 Coeff-Com: -0.123D-01 0.267D-01 0.212D-03-0.510D-03-0.680D-02-0.682D-03
 Coeff-Com:  0.768D-03 0.361D-01 0.276D+00 0.397D+00 0.284D+00
 Coeff-En:   0.000D+00 0.000D+00 0.000D+00 0.000D+00 0.000D+00 0.000D+00
 Coeff-En:   0.000D+00 0.000D+00 0.916D-01 0.414D+00 0.495D+00
 Coeff:     -0.121D-01 0.262D-01 0.208D-03-0.501D-03-0.667D-02-0.670D-03
 Coeff:      0.754D-03 0.354D-01 0.272D+00 0.397D+00 0.288D+00
 Gap=     0.043 Goal=   None    Shift=    0.000
 RMSDP=5.89D-05 MaxDP=7.94D-03 DE=-1.35D-03 OVMax= 4.22D-02

 Cycle  12  Pass 1  IDiag  1:
 RMSU=  1.85D-05    CP:  9.77D-01  1.17D+00  1.93D-01  2.87D-02  6.77D-01
                    CP:  3.62D-01  4.59D-01  4.50D-01  6.78D-01  5.32D-01
                    CP:  2.10D-01
 E= -3007.38437788350     Delta-E=       -0.002069826520 Rises=F Damp=F
 DIIS: error= 4.01D-04 at cycle  12 NSaved=  12.
 NSaved=12 IEnMin=12 EnMin= -3007.38437788350     IErMin=12 ErrMin= 4.01D-04
 ErrMax= 4.01D-04  0.00D+00 EMaxC= 1.00D-01 BMatC= 1.50D-04 BMatP= 1.49D-03
 IDIUse=3 WtCom= 9.96D-01 WtEn= 4.01D-03
 Coeff-Com: -0.807D-02 0.158D-01 0.537D-03-0.381D-03-0.615D-02 0.141D-02
 Coeff-Com: -0.100D-01 0.888D-02 0.162D+00 0.261D+00 0.241D+00 0.334D+00
 Coeff-En:   0.000D+00 0.000D+00 0.000D+00 0.000D+00 0.000D+00 0.000D+00
 Coeff-En:   0.000D+00 0.000D+00 0.000D+00 0.000D+00 0.115D+00 0.885D+00
 Coeff:     -0.804D-02 0.157D-01 0.535D-03-0.380D-03-0.613D-02 0.141D-02
 Coeff:     -0.999D-02 0.885D-02 0.161D+00 0.260D+00 0.241D+00 0.336D+00
 Gap=     0.043 Goal=   None    Shift=    0.000
 RMSDP=1.56D-05 MaxDP=1.81D-03 DE=-2.07D-03 OVMax= 8.49D-03

 Cycle  13  Pass 1  IDiag  1:
 RMSU=  6.78D-06    CP:  9.77D-01  1.17D+00  1.93D-01  2.89D-02  6.78D-01
                    CP:  3.62D-01  4.61D-01  4.47D-01  6.88D-01  4.99D-01
                    CP:  3.52D-01  4.16D-01
 E= -3007.38455241487     Delta-E=       -0.000174531368 Rises=F Damp=F
 DIIS: error= 1.16D-04 at cycle  13 NSaved=  13.
 NSaved=13 IEnMin=13 EnMin= -3007.38455241487     IErMin=13 ErrMin= 1.16D-04
 ErrMax= 1.16D-04  0.00D+00 EMaxC= 1.00D-01 BMatC= 1.60D-05 BMatP= 1.50D-04
 IDIUse=3 WtCom= 9.99D-01 WtEn= 1.16D-03
 Coeff-Com: -0.411D-02 0.750D-02-0.101D-03-0.155D-03-0.329D-02 0.143D-02
 Coeff-Com: -0.770D-02-0.210D-02 0.659D-01 0.110D+00 0.124D+00 0.246D+00
 Coeff-Com:  0.462D+00
 Coeff-En:   0.000D+00 0.000D+00 0.000D+00 0.000D+00 0.000D+00 0.000D+00
 Coeff-En:   0.000D+00 0.000D+00 0.000D+00 0.000D+00 0.000D+00 0.543D-01
 Coeff-En:   0.946D+00
 Coeff:     -0.410D-02 0.749D-02-0.101D-03-0.154D-03-0.329D-02 0.143D-02
 Coeff:     -0.769D-02-0.210D-02 0.658D-01 0.110D+00 0.124D+00 0.246D+00
 Coeff:      0.462D+00
 Gap=     0.043 Goal=   None    Shift=    0.000
 RMSDP=4.89D-06 MaxDP=8.82D-04 DE=-1.75D-04 OVMax= 1.71D-03

 Cycle  14  Pass 1  IDiag  1:
 RMSU=  2.88D-06    CP:  9.77D-01  1.17D+00  1.93D-01  2.86D-02  6.80D-01
                    CP:  3.63D-01  4.62D-01  4.45D-01  6.97D-01  5.00D-01
                    CP:  3.32D-01  4.95D-01  6.50D-01
 E= -3007.38456675363     Delta-E=       -0.000014338764 Rises=F Damp=F
 DIIS: error= 4.29D-05 at cycle  14 NSaved=  14.
 NSaved=14 IEnMin=14 EnMin= -3007.38456675363     IErMin=14 ErrMin= 4.29D-05
 ErrMax= 4.29D-05  0.00D+00 EMaxC= 1.00D-01 BMatC= 2.83D-06 BMatP= 1.60D-05
 IDIUse=1 WtCom= 1.00D+00 WtEn= 0.00D+00
 Coeff-Com: -0.195D-02 0.330D-02-0.253D-03-0.902D-05-0.162D-02 0.915D-03
 Coeff-Com: -0.457D-02-0.312D-02 0.243D-01 0.384D-01 0.541D-01 0.122D+00
 Coeff-Com:  0.308D+00 0.461D+00
 Coeff:     -0.195D-02 0.330D-02-0.253D-03-0.902D-05-0.162D-02 0.915D-03
 Coeff:     -0.457D-02-0.312D-02 0.243D-01 0.384D-01 0.541D-01 0.122D+00
 Coeff:      0.308D+00 0.461D+00
 Gap=     0.043 Goal=   None    Shift=    0.000
 RMSDP=2.02D-06 MaxDP=2.89D-04 DE=-1.43D-05 OVMax= 7.64D-04

 Cycle  15  Pass 1  IDiag  1:
 RMSU=  1.60D-06    CP:  9.77D-01  1.17D+00  1.93D-01  2.88D-02  6.80D-01
                    CP:  3.63D-01  4.62D-01  4.45D-01  6.99D-01  4.99D-01
                    CP:  3.37D-01  4.96D-01  7.20D-01  7.68D-01
 E= -3007.38456891519     Delta-E=       -0.000002161558 Rises=F Damp=F
 DIIS: error= 3.06D-05 at cycle  15 NSaved=  15.
 NSaved=15 IEnMin=15 EnMin= -3007.38456891519     IErMin=15 ErrMin= 3.06D-05
 ErrMax= 3.06D-05  0.00D+00 EMaxC= 1.00D-01 BMatC= 1.07D-06 BMatP= 2.83D-06
 IDIUse=1 WtCom= 1.00D+00 WtEn= 0.00D+00
 Coeff-Com: -0.490D-03 0.721D-03-0.121D-03 0.133D-04-0.367D-03 0.316D-03
 Coeff-Com: -0.156D-02-0.154D-02-0.144D-02-0.756D-02 0.115D-03 0.418D-02
 Coeff-Com:  0.482D-01 0.380D+00 0.580D+00
 Coeff:     -0.490D-03 0.721D-03-0.121D-03 0.133D-04-0.367D-03 0.316D-03
 Coeff:     -0.156D-02-0.154D-02-0.144D-02-0.756D-02 0.115D-03 0.418D-02
 Coeff:      0.482D-01 0.380D+00 0.580D+00
 Gap=     0.043 Goal=   None    Shift=    0.000
 RMSDP=1.36D-06 MaxDP=2.56D-04 DE=-2.16D-06 OVMax= 4.11D-04

 Cycle  16  Pass 1  IDiag  1:
 RMSU=  8.43D-07    CP:  9.77D-01  1.17D+00  1.93D-01  2.88D-02  6.81D-01
                    CP:  3.63D-01  4.62D-01  4.45D-01  7.02D-01  4.99D-01
                    CP:  3.40D-01  5.08D-01  7.29D-01  9.18D-01  6.19D-01
 E= -3007.38456965469     Delta-E=       -0.000000739501 Rises=F Damp=F
 DIIS: error= 1.74D-05 at cycle  16 NSaved=  16.
 NSaved=16 IEnMin=16 EnMin= -3007.38456965469     IErMin=16 ErrMin= 1.74D-05
 ErrMax= 1.74D-05  0.00D+00 EMaxC= 1.00D-01 BMatC= 3.10D-07 BMatP= 1.07D-06
 IDIUse=1 WtCom= 1.00D+00 WtEn= 0.00D+00
 Coeff-Com: -0.123D-03 0.179D-03-0.304D-04-0.198D-05-0.402D-04 0.808D-04
 Coeff-Com: -0.460D-03-0.481D-03-0.525D-02-0.134D-01-0.105D-01-0.215D-01
 Coeff-Com: -0.301D-01 0.210D+00 0.473D+00 0.399D+00
 Coeff:     -0.123D-03 0.179D-03-0.304D-04-0.198D-05-0.402D-04 0.808D-04
 Coeff:     -0.460D-03-0.481D-03-0.525D-02-0.134D-01-0.105D-01-0.215D-01
 Coeff:     -0.301D-01 0.210D+00 0.473D+00 0.399D+00
 Gap=     0.043 Goal=   None    Shift=    0.000
 RMSDP=7.48D-07 MaxDP=1.34D-04 DE=-7.40D-07 OVMax= 3.27D-04

 Cycle  17  Pass 1  IDiag  1:
 RMSU=  3.61D-07    CP:  9.77D-01  1.17D+00  1.92D-01  2.87D-02  6.81D-01
                    CP:  3.64D-01  4.62D-01  4.46D-01  7.03D-01  4.98D-01
                    CP:  3.38D-01  5.11D-01  7.47D-01  9.47D-01  7.66D-01
                    CP:  4.63D-01
 E= -3007.38456995582     Delta-E=       -0.000000301123 Rises=F Damp=F
 DIIS: error= 4.37D-06 at cycle  17 NSaved=  17.
 NSaved=17 IEnMin=17 EnMin= -3007.38456995582     IErMin=17 ErrMin= 4.37D-06
 ErrMax= 4.37D-06  0.00D+00 EMaxC= 1.00D-01 BMatC= 4.08D-08 BMatP= 3.10D-07
 IDIUse=1 WtCom= 1.00D+00 WtEn= 0.00D+00
 Coeff-Com: -0.491D-04 0.719D-04-0.101D-04-0.121D-05 0.512D-05 0.254D-04
 Coeff-Com: -0.178D-03-0.195D-03-0.341D-02-0.875D-02-0.743D-02-0.162D-01
 Coeff-Com: -0.293D-01 0.109D+00 0.279D+00 0.306D+00 0.371D+00
 Coeff:     -0.491D-04 0.719D-04-0.101D-04-0.121D-05 0.512D-05 0.254D-04
 Coeff:     -0.178D-03-0.195D-03-0.341D-02-0.875D-02-0.743D-02-0.162D-01
 Coeff:     -0.293D-01 0.109D+00 0.279D+00 0.306D+00 0.371D+00
 Gap=     0.043 Goal=   None    Shift=    0.000
 RMSDP=2.36D-07 MaxDP=2.90D-05 DE=-3.01D-07 OVMax= 8.76D-05

 Cycle  18  Pass 1  IDiag  1:
 RMSU=  1.09D-07    CP:  9.77D-01  1.17D+00  1.92D-01  2.87D-02  6.81D-01
                    CP:  3.64D-01  4.62D-01  4.46D-01  7.03D-01  4.98D-01
                    CP:  3.39D-01  5.10D-01  7.44D-01  9.58D-01  7.58D-01
                    CP:  5.23D-01  4.81D-01
 E= -3007.38456999962     Delta-E=       -0.000000043801 Rises=F Damp=F
 DIIS: error= 1.27D-06 at cycle  18 NSaved=  18.
 NSaved=18 IEnMin=18 EnMin= -3007.38456999962     IErMin=18 ErrMin= 1.27D-06
 ErrMax= 1.27D-06  0.00D+00 EMaxC= 1.00D-01 BMatC= 3.51D-09 BMatP= 4.08D-08
 IDIUse=1 WtCom= 1.00D+00 WtEn= 0.00D+00
 Coeff-Com: -0.257D-04 0.423D-04-0.995D-06-0.637D-06 0.473D-05 0.696D-05
 Coeff-Com: -0.580D-04-0.542D-04-0.133D-02-0.370D-02-0.326D-02-0.762D-02
 Coeff-Com: -0.161D-01 0.401D-01 0.115D+00 0.149D+00 0.251D+00 0.477D+00
 Coeff:     -0.257D-04 0.423D-04-0.995D-06-0.637D-06 0.473D-05 0.696D-05
 Coeff:     -0.580D-04-0.542D-04-0.133D-02-0.370D-02-0.326D-02-0.762D-02
 Coeff:     -0.161D-01 0.401D-01 0.115D+00 0.149D+00 0.251D+00 0.477D+00
 Gap=     0.043 Goal=   None    Shift=    0.000
 RMSDP=7.54D-08 MaxDP=8.53D-06 DE=-4.38D-08 OVMax= 1.91D-05

 Cycle  19  Pass 1  IDiag  1:
 RMSU=  3.88D-08    CP:  9.77D-01  1.17D+00  1.92D-01  2.87D-02  6.81D-01
                    CP:  3.64D-01  4.62D-01  4.46D-01  7.03D-01  4.98D-01
                    CP:  3.39D-01  5.10D-01  7.43D-01  9.62D-01  7.66D-01
                    CP:  5.13D-01  5.02D-01  5.13D-01
 E= -3007.38457000271     Delta-E=       -0.000000003094 Rises=F Damp=F
 DIIS: error= 6.12D-07 at cycle  19 NSaved=  19.
 NSaved=19 IEnMin=19 EnMin= -3007.38457000271     IErMin=19 ErrMin= 6.12D-07
 ErrMax= 6.12D-07  0.00D+00 EMaxC= 1.00D-01 BMatC= 5.42D-10 BMatP= 3.51D-09
 IDIUse=1 WtCom= 1.00D+00 WtEn= 0.00D+00
 Coeff-Com: -0.116D-04 0.197D-04 0.118D-06-0.547D-06 0.875D-06 0.190D-05
 Coeff-Com: -0.197D-04-0.173D-04-0.492D-03-0.144D-02-0.132D-02-0.331D-02
 Coeff-Com: -0.790D-02 0.126D-01 0.423D-01 0.632D-01 0.123D+00 0.325D+00
 Coeff-Com:  0.449D+00
 Coeff:     -0.116D-04 0.197D-04 0.118D-06-0.547D-06 0.875D-06 0.190D-05
 Coeff:     -0.197D-04-0.173D-04-0.492D-03-0.144D-02-0.132D-02-0.331D-02
 Coeff:     -0.790D-02 0.126D-01 0.423D-01 0.632D-01 0.123D+00 0.325D+00
 Coeff:      0.449D+00
 Gap=     0.043 Goal=   None    Shift=    0.000
 RMSDP=2.91D-08 MaxDP=4.66D-06 DE=-3.09D-09 OVMax= 8.68D-06

 Cycle  20  Pass 1  IDiag  1:
 RMSU=  1.64D-08    CP:  9.77D-01  1.17D+00  1.92D-01  2.87D-02  6.81D-01
                    CP:  3.64D-01  4.62D-01  4.46D-01  7.03D-01  4.98D-01
                    CP:  3.39D-01  5.10D-01  7.44D-01  9.64D-01  7.66D-01
                    CP:  5.21D-01  4.99D-01  5.72D-01  5.78D-01
 E= -3007.38457000300     Delta-E=       -0.000000000286 Rises=F Damp=F
 DIIS: error= 2.76D-07 at cycle  20 NSaved=  20.
 NSaved=20 IEnMin=20 EnMin= -3007.38457000300     IErMin=20 ErrMin= 2.76D-07
 ErrMax= 2.76D-07  0.00D+00 EMaxC= 1.00D-01 BMatC= 9.19D-11 BMatP= 5.42D-10
 IDIUse=1 WtCom= 1.00D+00 WtEn= 0.00D+00
 Coeff-Com: -0.409D-05 0.698D-05-0.167D-07-0.939D-07-0.437D-06 0.163D-06
 Coeff-Com: -0.493D-05-0.402D-05-0.157D-03-0.488D-03-0.468D-03-0.128D-02
 Coeff-Com: -0.344D-02 0.264D-02 0.127D-01 0.225D-01 0.507D-01 0.163D+00
 Coeff-Com:  0.329D+00 0.425D+00
 Coeff:     -0.409D-05 0.698D-05-0.167D-07-0.939D-07-0.437D-06 0.163D-06
 Coeff:     -0.493D-05-0.402D-05-0.157D-03-0.488D-03-0.468D-03-0.128D-02
 Coeff:     -0.344D-02 0.264D-02 0.127D-01 0.225D-01 0.507D-01 0.163D+00
 Coeff:      0.329D+00 0.425D+00
 Gap=     0.043 Goal=   None    Shift=    0.000
 RMSDP=1.14D-08 MaxDP=1.47D-06 DE=-2.86D-10 OVMax= 3.75D-06

 Cycle  21  Pass 1  IDiag  1:
 Restarting incremental Fock formation.
 E= -3007.38457000307     Delta-E=       -0.000000000078 Rises=F Damp=F
 DIIS: error= 1.43D-07 at cycle  21 NSaved=  20.
 NSaved=20 IEnMin=20 EnMin= -3007.38457000307     IErMin=20 ErrMin= 1.43D-07
 ErrMax= 1.43D-07  0.00D+00 EMaxC= 1.00D-01 BMatC= 1.51D-11 BMatP= 9.19D-11
 IDIUse=1 WtCom= 1.00D+00 WtEn= 0.00D+00
 Coeff-Com: -0.137D-05 0.232D-05 0.581D-07-0.359D-06-0.885D-07-0.110D-05
 Coeff-Com: -0.949D-06-0.468D-04-0.155D-03-0.160D-03-0.476D-03-0.149D-02
 Coeff-Com: -0.404D-04 0.309D-02 0.735D-02 0.200D-01 0.744D-01 0.182D+00
 Coeff-Com:  0.318D+00 0.397D+00
 Coeff:     -0.137D-05 0.232D-05 0.581D-07-0.359D-06-0.885D-07-0.110D-05
 Coeff:     -0.949D-06-0.468D-04-0.155D-03-0.160D-03-0.476D-03-0.149D-02
 Coeff:     -0.404D-04 0.309D-02 0.735D-02 0.200D-01 0.744D-01 0.182D+00
 Coeff:      0.318D+00 0.397D+00
 Gap=     0.043 Goal=   None    Shift=    0.000
 RMSDP=4.55D-09 MaxDP=1.04D-06 DE=-7.82D-11 OVMax= 1.03D-06

 Cycle  22  Pass 1  IDiag  1:
 RMSU=  4.55D-09    CP:  1.00D+00
 E= -3007.38457000303     Delta-E=        0.000000000042 Rises=F Damp=F
 DIIS: error= 4.02D-08 at cycle  22 NSaved=  20.
 NSaved=20 IEnMin=19 EnMin= -3007.38457000307     IErMin=20 ErrMin= 4.02D-08
 ErrMax= 4.02D-08  0.00D+00 EMaxC= 1.00D-01 BMatC= 1.40D-12 BMatP= 1.51D-11
 IDIUse=1 WtCom= 1.00D+00 WtEn= 0.00D+00
 Coeff-Com: -0.484D-06 0.838D-06-0.138D-06-0.402D-07-0.627D-07-0.313D-06
 Coeff-Com: -0.105D-04-0.388D-04-0.452D-04-0.146D-03-0.552D-03-0.392D-03
 Coeff-Com:  0.337D-03 0.183D-02 0.665D-02 0.274D-01 0.775D-01 0.155D+00
 Coeff-Com:  0.266D+00 0.467D+00
 Coeff:     -0.484D-06 0.838D-06-0.138D-06-0.402D-07-0.627D-07-0.313D-06
 Coeff:     -0.105D-04-0.388D-04-0.452D-04-0.146D-03-0.552D-03-0.392D-03
 Coeff:      0.337D-03 0.183D-02 0.665D-02 0.274D-01 0.775D-01 0.155D+00
 Coeff:      0.266D+00 0.467D+00
 Gap=     0.043 Goal=   None    Shift=    0.000
 RMSDP=1.48D-09 MaxDP=1.94D-07 DE= 4.18D-11 OVMax= 3.32D-07

 SCF Done:  E(RB-LYP) =  -3007.38457000     A.U. after   22 cycles
            NFock= 22  Conv=0.15D-08     -V/T= 2.0099
 KE= 2.978049155308D+03 PE=-2.623226692275D+04 EE= 1.062869644842D+04
 Leave Link  502 at Thu Apr 28 16:19:20 2022, MaxMem= 10066329600 cpu:            6992.7 elap:             292.2
 (Enter /sw/apps/gaussian-16.0/g16/l801.exe)
 DoSCS=F DFT=T ScalE2(SS,OS)=  1.000000  1.000000
 ExpMin= 3.36D-02 ExpMax= 4.95D+03 ExpMxC= 7.45D+02 IAcc=3 IRadAn=         5 AccDes= 0.00D+00
 HarFok:  IExCor=  205 AccDes= 0.00D+00 IRadAn=         5 IDoV=-2 UseB2=F ITyADJ=14
 ICtDFT= 12500011 ScaDFX=  1.000000  1.000000  1.000000  1.000000
 GSVD:  LWork=       -5460 too small for GESVD, short by       25550 words or       25550 for optimal perf.
 Largest valence mixing into a core orbital is  1.61D-04
 Largest core mixing into a valence orbital is  4.77D-05
 Range of M.O.s used for correlation:    71  1298
 NBasis=  1298 NAE=   246 NBE=   246 NFC=    70 NFV=     0
 NROrb=   1228 NOA=   176 NOB=   176 NVA=  1052 NVB=  1052

 **** Warning!!: The largest alpha MO coefficient is  0.10815436D+02


 **** Warning!!: The smallest alpha delta epsilon is  0.42958760D-01

 Leave Link  801 at Thu Apr 28 16:19:21 2022, MaxMem= 10066329600 cpu:               7.9 elap:               0.4
 (Enter /sw/apps/gaussian-16.0/g16/l914.exe)
 RHF ground state
 Two-electron integrals replicated using symmetry.
 MDV= 10066329600 DFT=T DoStab=F Mixed=F DoRPA=T DoScal=T NonHer=F
 Making orbital integer symmetry assigments:
 Orbital symmetries:
       Occupied  (A) (A) (A) (A) (A) (A) (A) (A) (A) (A) (A) (A)
                 (A) (A) (A) (A) (A) (A) (A) (A) (A) (A) (A) (A)
                 (A) (A) (A) (A) (A) (A) (A) (A) (A) (A) (A) (A)
                 (A) (A) (A) (A) (A) (A) (A) (A) (A) (A) (A) (A)
                 (A) (A) (A) (A) (A) (A) (A) (A) (A) (A) (A) (A)
                 (A) (A) (A) (A) (A) (A) (A) (A) (A) (A) (A) (A)
                 (A) (A) (A) (A) (A) (A) (A) (A) (A) (A) (A) (A)
                 (A) (A) (A) (A) (A) (A) (A) (A) (A) (A) (A) (A)
                 (A) (A) (A) (A) (A) (A) (A) (A) (A) (A) (A) (A)
                 (A) (A) (A) (A) (A) (A) (A) (A) (A) (A) (A) (A)
                 (A) (A) (A) (A) (A) (A) (A) (A) (A) (A) (A) (A)
                 (A) (A) (A) (A) (A) (A) (A) (A) (A) (A) (A) (A)
                 (A) (A) (A) (A) (A) (A) (A) (A) (A) (A) (A) (A)
                 (A) (A) (A) (A) (A) (A) (A) (A) (A) (A) (A) (A)
                 (A) (A) (A) (A) (A) (A) (A) (A) (A) (A) (A) (A)
                 (A) (A) (A) (A) (A) (A) (A) (A) (A) (A) (A) (A)
                 (A) (A) (A) (A) (A) (A) (A) (A) (A) (A) (A) (A)
                 (A) (A) (A) (A) (A) (A) (A) (A) (A) (A) (A) (A)
                 (A) (A) (A) (A) (A) (A) (A) (A) (A) (A) (A) (A)
                 (A) (A) (A) (A) (A) (A) (A) (A) (A) (A) (A) (A)
                 (A) (A) (A) (A) (A) (A)
       Virtual   (A) (A) (A) (A) (A) (A) (A) (A) (A) (A) (A) (A)
                 (A) (A) (A) (A) (A) (A) (A) (A) (A) (A) (A) (A)
                 (A) (A) (A) (A) (A) (A) (A) (A) (A) (A) (A) (A)
                 (A) (A) (A) (A) (A) (A) (A) (A) (A) (A) (A) (A)
                 (A) (A) (A) (A) (A) (A) (A) (A) (A) (A) (A) (A)
                 (A) (A) (A) (A) (A) (A) (A) (A) (A) (A) (A) (A)
                 (A) (A) (A) (A) (A) (A) (A) (A) (A) (A) (A) (A)
                 (A) (A) (A) (A) (A) (A) (A) (A) (A) (A) (A) (A)
                 (A) (A) (A) (A) (A) (A) (A) (A) (A) (A) (A) (A)
                 (A) (A) (A) (A) (A) (A) (A) (A) (A) (A) (A) (A)
                 (A) (A) (A) (A) (A) (A) (A) (A) (A) (A) (A) (A)
                 (A) (A) (A) (A) (A) (A) (A) (A) (A) (A) (A) (A)
                 (A) (A) (A) (A) (A) (A) (A) (A) (A) (A) (A) (A)
                 (A) (A) (A) (A) (A) (A) (A) (A) (A) (A) (A) (A)
                 (A) (A) (A) (A) (A) (A) (A) (A) (A) (A) (A) (A)
                 (A) (A) (A) (A) (A) (A) (A) (A) (A) (A) (A) (A)
                 (A) (A) (A) (A) (A) (A) (A) (A) (A) (A) (A) (A)
                 (A) (A) (A) (A) (A) (A) (A) (A) (A) (A) (A) (A)
                 (A) (A) (A) (A) (A) (A) (A) (A) (A) (A) (A) (A)
                 (A) (A) (A) (A) (A) (A) (A) (A) (A) (A) (A) (A)
                 (A) (A) (A) (A) (A) (A) (A) (A) (A) (A) (A) (A)
                 (A) (A) (A) (A) (A) (A) (A) (A) (A) (A) (A) (A)
                 (A) (A) (A) (A) (A) (A) (A) (A) (A) (A) (A) (A)
                 (A) (A) (A) (A) (A) (A) (A) (A) (A) (A) (A) (A)
                 (A) (A) (A) (A) (A) (A) (A) (A) (A) (A) (A) (A)
                 (A) (A) (A) (A) (A) (A) (A) (A) (A) (A) (A) (A)
                 (A) (A) (A) (A) (A) (A) (A) (A) (A) (A) (A) (A)
                 (A) (A) (A) (A) (A) (A) (A) (A) (A) (A) (A) (A)
                 (A) (A) (A) (A) (A) (A) (A) (A) (A) (A) (A) (A)
                 (A) (A) (A) (A) (A) (A) (A) (A) (A) (A) (A) (A)
                 (A) (A) (A) (A) (A) (A) (A) (A) (A) (A) (A) (A)
                 (A) (A) (A) (A) (A) (A) (A) (A) (A) (A) (A) (A)
                 (A) (A) (A) (A) (A) (A) (A) (A) (A) (A) (A) (A)
                 (A) (A) (A) (A) (A) (A) (A) (A) (A) (A) (A) (A)
                 (A) (A) (A) (A) (A) (A) (A) (A) (A) (A) (A) (A)
                 (A) (A) (A) (A) (A) (A) (A) (A) (A) (A) (A) (A)
                 (A) (A) (A) (A) (A) (A) (A) (A) (A) (A) (A) (A)
                 (A) (A) (A) (A) (A) (A) (A) (A) (A) (A) (A) (A)
                 (A) (A) (A) (A) (A) (A) (A) (A) (A) (A) (A) (A)
                 (A) (A) (A) (A) (A) (A) (A) (A) (A) (A) (A) (A)
                 (A) (A) (A) (A) (A) (A) (A) (A) (A) (A) (A) (A)
                 (A) (A) (A) (A) (A) (A) (A) (A) (A) (A) (A) (A)
                 (A) (A) (A) (A) (A) (A) (A) (A) (A) (A) (A) (A)
                 (A) (A) (A) (A) (A) (A) (A) (A) (A) (A) (A) (A)
                 (A) (A) (A) (A) (A) (A) (A) (A) (A) (A) (A) (A)
                 (A) (A) (A) (A) (A) (A) (A) (A) (A) (A) (A) (A)
                 (A) (A) (A) (A) (A) (A) (A) (A) (A) (A) (A) (A)
                 (A) (A) (A) (A) (A) (A) (A) (A) (A) (A) (A) (A)
                 (A) (A) (A) (A) (A) (A) (A) (A) (A) (A) (A) (A)
                 (A) (A) (A) (A) (A) (A) (A) (A) (A) (A) (A) (A)
                 (A) (A) (A) (A) (A) (A) (A) (A) (A) (A) (A) (A)
                 (A) (A) (A) (A) (A) (A) (A) (A) (A) (A) (A) (A)
                 (A) (A) (A) (A) (A) (A) (A) (A) (A) (A) (A) (A)
                 (A) (A) (A) (A) (A) (A) (A) (A) (A) (A) (A) (A)
                 (A) (A) (A) (A) (A) (A) (A) (A) (A) (A) (A) (A)
                 (A) (A) (A) (A) (A) (A) (A) (A) (A) (A) (A) (A)
                 (A) (A) (A) (A) (A) (A) (A) (A) (A) (A) (A) (A)
                 (A) (A) (A) (A) (A) (A) (A) (A) (A) (A) (A) (A)
                 (A) (A) (A) (A) (A) (A) (A) (A) (A) (A) (A) (A)
                 (A) (A) (A) (A) (A) (A) (A) (A) (A) (A) (A) (A)
                 (A) (A) (A) (A) (A) (A) (A) (A) (A) (A) (A) (A)
                 (A) (A) (A) (A) (A) (A) (A) (A) (A) (A) (A) (A)
                 (A) (A) (A) (A) (A) (A) (A) (A) (A) (A) (A) (A)
                 (A) (A) (A) (A) (A) (A) (A) (A) (A) (A) (A) (A)
                 (A) (A) (A) (A) (A) (A) (A) (A) (A) (A) (A) (A)
                 (A) (A) (A) (A) (A) (A) (A) (A) (A) (A) (A) (A)
                 (A) (A) (A) (A) (A) (A) (A) (A) (A) (A) (A) (A)
                 (A) (A) (A) (A) (A) (A) (A) (A) (A) (A) (A) (A)
                 (A) (A) (A) (A) (A) (A) (A) (A) (A) (A) (A) (A)
                 (A) (A) (A) (A) (A) (A) (A) (A) (A) (A) (A) (A)
                 (A) (A) (A) (A) (A) (A) (A) (A) (A) (A) (A) (A)
                 (A) (A) (A) (A) (A) (A) (A) (A) (A) (A) (A) (A)
                 (A) (A) (A) (A) (A) (A) (A) (A) (A) (A) (A) (A)
                 (A) (A) (A) (A) (A) (A) (A) (A) (A) (A) (A) (A)
                 (A) (A) (A) (A) (A) (A) (A) (A) (A) (A) (A) (A)
                 (A) (A) (A) (A) (A) (A) (A) (A) (A) (A) (A) (A)
                 (A) (A) (A) (A) (A) (A) (A) (A) (A) (A) (A) (A)
                 (A) (A) (A) (A) (A) (A) (A) (A) (A) (A) (A) (A)
                 (A) (A) (A) (A) (A) (A) (A) (A) (A) (A) (A) (A)
                 (A) (A) (A) (A) (A) (A) (A) (A) (A) (A) (A) (A)
                 (A) (A) (A) (A) (A) (A) (A) (A) (A) (A) (A) (A)
                 (A) (A) (A) (A) (A) (A) (A) (A) (A) (A) (A) (A)
                 (A) (A) (A) (A) (A) (A) (A) (A) (A) (A) (A) (A)
                 (A) (A) (A) (A) (A) (A) (A) (A) (A) (A) (A) (A)
                 (A) (A) (A) (A) (A) (A) (A) (A) (A) (A) (A) (A)
                 (A) (A) (A) (A) (A) (A) (A) (A) (A) (A) (A) (A)
                 (A) (A) (A) (A) (A) (A) (A) (A) (A) (A) (A) (A)
                 (A) (A) (A) (A) (A) (A) (A) (A)
    20 initial guesses have been made.
 Convergence on wavefunction:    0.001000000000000
 Davidson Disk Diagonalization:  ConvIn= 1.00D-03 SkipCon=T Conv= 1.00D-03.
 Max sub-space:  2000 roots to seek:    20 dimension of matrix:       370304
 Iteration     1 Dimension    20 NMult     0 NNew     20
 CISAX will form    20 AO SS matrices at one time.
 NMat=    20 NSing=    20 JSym2X= 0.
 FoFJK:  IHMeth= 1 ICntrl=     500 DoSepK=F KAlg= 0 I1Cent=           0 FoldK=F
 IRaf= 520000000 NMat=      20 IRICut=       1 DoRegI=T DoRafI=F ISym2E= 0 IDoP0=0 IntGTp=1.
 FoFCou: FMM=T IPFlag=           0 FMFlag=      100000 FMFlg1=        2001
         NFxFlg=           0 DoJE=F BraDBF=F KetDBF=F FulRan=T
         wScrn=  0.000000 ICntrl=       500 IOpCl=  0 I1Cent=           0 NGrid=           0
         NMat0=   20 NMatS0=     20 NMatT0=    0 NMatD0=   20 NMtDS0=    0 NMtDT0=    0
 Symmetry not used in FoFCou.
 FMM levels:  10  Number of levels for PrismC:   9
 New state      1 was old state      3
 New state      2 was old state      4
 New state      3 was old state      1
 New state      4 was old state      2
 New state      5 was old state      7
 Excitation Energies [eV] at current iteration:
 Root      1 :     1.803098845848372
 Root      2 :     2.058654637149649
 Root      3 :     2.121474806030125
 Root      4 :     2.325463572521841
 Root      5 :     2.377587186342048
 Root      6 :     2.574088923642507
 Root      7 :     2.780885096098701
 Root      8 :     2.926211402676558
 Root      9 :     3.012650612921383
 Root     10 :     3.068588111992611
 Root     11 :     3.183309049130494
 Root     12 :     3.246058525176576
 Root     13 :     3.253049155969209
 Root     14 :     3.366495624625493
 Root     15 :     3.390921591755272
 Root     16 :     3.425788417176041
 Root     17 :     3.761273196081242
 Root     18 :     3.918943371787480
 Root     19 :     3.939451143673631
 Root     20 :     4.366538196721258
 Iteration     2 Dimension    40 NMult    20 NNew     20
 CISAX will form    20 AO SS matrices at one time.
 NMat=    20 NSing=    20 JSym2X= 0.
 Root      1 not converged, maximum delta is    0.070209125355184
 New state      2 was old state      3
 Root      2 not converged, maximum delta is    0.115835920238733
 New state      3 was old state      4
 Root      3 not converged, maximum delta is    0.283297806258732
 New state      4 was old state      2
 Root      4 not converged, maximum delta is    0.234962382220072
 Root      5 not converged, maximum delta is    0.013316271340110
 Excitation Energies [eV] at current iteration:
 Root      1 :     1.795008964342124   Change is   -0.008089881506249
 Root      2 :     1.876897053830190   Change is   -0.244577752199935
 Root      3 :     2.048773601139763   Change is   -0.276689971382077
 Root      4 :     2.056507527200838   Change is   -0.002147109948811
 Root      5 :     2.377328360574211   Change is   -0.000258825767837
 Root      6 :     2.497963766212885   Change is   -0.282921329885816
 Root      7 :     2.558652965519621   Change is   -0.015435958122885
 Root      8 :     2.601419398507650   Change is   -0.324792004168908
 Root      9 :     2.872639197294735   Change is   -0.310669851835759
 Root     10 :     2.944230043406043   Change is   -0.068420569515340
 Root     11 :     3.044262202573180   Change is   -0.024325909419431
 Root     12 :     3.075094085169179   Change is   -0.350694332006862
 Root     13 :     3.237978139498616   Change is   -0.015071016470593
 Root     14 :     3.246701101750068   Change is    0.000642576573492
 Root     15 :     3.281197216739005   Change is   -0.658253926934627
 Root     16 :     3.347619626095373   Change is   -0.018875998530120
 Root     17 :     3.372949499509549   Change is   -0.017972092245723
 Root     18 :     3.474763211595521   Change is   -0.286509984485721
 Root     19 :     3.608429399311579   Change is   -0.310513972475901
 Root     20 :     3.818568860310025   Change is   -0.547969336411233
 Iteration     3 Dimension    45 NMult    40 NNew      5
 CISAX will form     5 AO SS matrices at one time.
 NMat=     5 NSing=     5 JSym2X= 0.
 Root      1 not converged, maximum delta is    0.082923837988597
 Root      2 not converged, maximum delta is    0.086399906937029
 Root      3 not converged, maximum delta is    0.220532362504981
 Root      4 not converged, maximum delta is    0.194632109004487
 Root      5 not converged, maximum delta is    0.002814631725887
 Excitation Energies [eV] at current iteration:
 Root      1 :     1.791990884040464   Change is   -0.003018080301660
 Root      2 :     1.837063448390229   Change is   -0.039833605439960
 Root      3 :     2.011537568658434   Change is   -0.037236032481330
 Root      4 :     2.054373884214954   Change is   -0.002133642985884
 Root      5 :     2.377288373788615   Change is   -0.000039986785596
 Iteration     4 Dimension    50 NMult    45 NNew      5
 CISAX will form     5 AO SS matrices at one time.
 NMat=     5 NSing=     5 JSym2X= 0.
 Root      1 not converged, maximum delta is    0.084388117986492
 Root      2 not converged, maximum delta is    0.087487201561098
 Root      3 not converged, maximum delta is    0.011792068800581
 Root      4 not converged, maximum delta is    0.010311541553494
 Root      5 not converged, maximum delta is    0.001522332780416
 Excitation Energies [eV] at current iteration:
 Root      1 :     1.789428354307068   Change is   -0.002562529733396
 Root      2 :     1.821898944901953   Change is   -0.015164503488276
 Root      3 :     1.994224515595857   Change is   -0.017313053062577
 Root      4 :     2.053911073341526   Change is   -0.000462810873428
 Root      5 :     2.377270981051307   Change is   -0.000017392737308
 Iteration     5 Dimension    55 NMult    50 NNew      5
 CISAX will form     5 AO SS matrices at one time.
 NMat=     5 NSing=     5 JSym2X= 0.
 Root      1 not converged, maximum delta is    0.035575283975766
 Root      2 not converged, maximum delta is    0.036613779121915
 Root      3 not converged, maximum delta is    0.004774797743127
 Root      4 not converged, maximum delta is    0.002233096454551
 Root      5 has converged.
 Excitation Energies [eV] at current iteration:
 Root      1 :     1.788275738200244   Change is   -0.001152616106824
 Root      2 :     1.817657914826929   Change is   -0.004241030075025
 Root      3 :     1.988881295496645   Change is   -0.005343220099212
 Root      4 :     2.053750306018463   Change is   -0.000160767323063
 Root      5 :     2.377263886158587   Change is   -0.000007094892721
 Iteration     6 Dimension    59 NMult    55 NNew      4
 CISAX will form     4 AO SS matrices at one time.
 NMat=     4 NSing=     4 JSym2X= 0.
 Root      1 not converged, maximum delta is    0.017428620775087
 Root      2 not converged, maximum delta is    0.017954723120832
 Root      3 not converged, maximum delta is    0.002549963676858
 Root      4 has converged.
 Root      5 has converged.
 Excitation Energies [eV] at current iteration:
 Root      1 :     1.787642556017173   Change is   -0.000633182183071
 Root      2 :     1.815880032476692   Change is   -0.001777882350237
 Root      3 :     1.986830194955025   Change is   -0.002051100541620
 Root      4 :     2.053672418080076   Change is   -0.000077887938387
 Root      5 :     2.377263618482746   Change is   -0.000000267675840
 Iteration     7 Dimension    62 NMult    59 NNew      3
 CISAX will form     3 AO SS matrices at one time.
 NMat=     3 NSing=     3 JSym2X= 0.
 Root      1 not converged, maximum delta is    0.007377012119840
 Root      2 not converged, maximum delta is    0.007673271651555
 Root      3 has converged.
 Root      4 has converged.
 Root      5 has converged.
 Excitation Energies [eV] at current iteration:
 Root      1 :     1.787350462386152   Change is   -0.000292093631021
 Root      2 :     1.815156219497603   Change is   -0.000723812979089
 Root      3 :     1.986088149276706   Change is   -0.000742045678319
 Root      4 :     2.053668851601570   Change is   -0.000003566478505
 Root      5 :     2.377263572693569   Change is   -0.000000045789177
 Iteration     8 Dimension    64 NMult    62 NNew      2
 CISAX will form     2 AO SS matrices at one time.
 NMat=     2 NSing=     2 JSym2X= 0.
[...]
 Alpha virt. eigenvalues --    1.06233   1.06652   1.07277   1.07596   1.08478
 Alpha virt. eigenvalues --    1.08964   1.09060   1.09607   1.09830   1.10672
 Alpha virt. eigenvalues --    1.11169   1.11440   1.12387   1.12834   1.13082
 Alpha virt. eigenvalues --    1.13325   1.13776   1.14264   1.14534   1.15254
 Alpha virt. eigenvalues --    1.15742   1.16317   1.17073   1.17143   1.18376
 Alpha virt. eigenvalues --    1.18575   1.19285   1.19799   1.20603   1.20916
 Alpha virt. eigenvalues --    1.21258   1.21446   1.21752   1.21962   1.22430
 Alpha virt. eigenvalues --    1.22871   1.23246   1.23717   1.24175   1.25024
 Alpha virt. eigenvalues --    1.25084   1.25508   1.26202   1.26529   1.26841
 Alpha virt. eigenvalues --    1.27291   1.27585   1.27761   1.28707   1.28864
 Alpha virt. eigenvalues --    1.28976   1.29163   1.29810   1.30412   1.30587
 Alpha virt. eigenvalues --    1.30679   1.30888   1.31406   1.31429   1.32019
 Alpha virt. eigenvalues --    1.32295   1.32841   1.32941   1.33200   1.33496
 Alpha virt. eigenvalues --    1.33699   1.33917   1.34058   1.34738   1.35015
 Alpha virt. eigenvalues --    1.35416   1.35569   1.36052   1.36543   1.37818
 Alpha virt. eigenvalues --    1.37983   1.38552   1.39523   1.39706   1.40007
 Alpha virt. eigenvalues --    1.40287   1.40458   1.40768   1.41878   1.42424
 Alpha virt. eigenvalues --    1.42741   1.43008   1.43270   1.43495   1.44194
 Alpha virt. eigenvalues --    1.44399   1.44672   1.45145   1.45299   1.45802
 Alpha virt. eigenvalues --    1.46478   1.46890   1.47368   1.47398   1.47752
 Alpha virt. eigenvalues --    1.48269   1.48371   1.48424   1.48582   1.48771
 Alpha virt. eigenvalues --    1.49020   1.49039   1.49145   1.49787   1.50232
 Alpha virt. eigenvalues --    1.50336   1.50513   1.50708   1.50968   1.51290
 Alpha virt. eigenvalues --    1.51395   1.51758   1.51936   1.52182   1.52850
 Alpha virt. eigenvalues --    1.53030   1.53243   1.53419   1.54018   1.54347
 Alpha virt. eigenvalues --    1.54521   1.54838   1.54992   1.56052   1.56734
 Alpha virt. eigenvalues --    1.57101   1.57550   1.58413   1.59019   1.60031
 Alpha virt. eigenvalues --    1.60356   1.60920   1.61230   1.61658   1.62531
 Alpha virt. eigenvalues --    1.62877   1.62934   1.63237   1.63646   1.63968
 Alpha virt. eigenvalues --    1.64768   1.64845   1.64931   1.65262   1.65374
 Alpha virt. eigenvalues --    1.65541   1.65742   1.65796   1.66229   1.66431
 Alpha virt. eigenvalues --    1.66476   1.66830   1.66941   1.67146   1.67239
 Alpha virt. eigenvalues --    1.67405   1.67573   1.68016   1.68360   1.68570
 Alpha virt. eigenvalues --    1.68597   1.69038   1.69276   1.69607   1.69734
 Alpha virt. eigenvalues --    1.69759   1.69914   1.70264   1.70487   1.70946
 Alpha virt. eigenvalues --    1.70957   1.71403   1.71749   1.72033   1.72144
 Alpha virt. eigenvalues --    1.72201   1.72747   1.72850   1.73122   1.73299
 Alpha virt. eigenvalues --    1.73346   1.73570   1.73635   1.73844   1.73888
 Alpha virt. eigenvalues --    1.74073   1.74515   1.74533   1.74833   1.74946
 Alpha virt. eigenvalues --    1.75033   1.75206   1.75335   1.75393   1.75611
 Alpha virt. eigenvalues --    1.75766   1.75898   1.76153   1.76391   1.76545
 Alpha virt. eigenvalues --    1.76896   1.77368   1.77468   1.77737   1.77978
 Alpha virt. eigenvalues --    1.78297   1.78550   1.78563   1.78668   1.78771
 Alpha virt. eigenvalues --    1.78992   1.79432   1.79652   1.80220   1.80322
 Alpha virt. eigenvalues --    1.80570   1.80777   1.81060   1.81159   1.81269
 Alpha virt. eigenvalues --    1.81307   1.81380   1.81833   1.82122   1.82355
 Alpha virt. eigenvalues --    1.82470   1.82710   1.82728   1.82959   1.83232
 Alpha virt. eigenvalues --    1.83811   1.84067   1.84155   1.84262   1.84801
 Alpha virt. eigenvalues --    1.84911   1.85103   1.85273   1.85574   1.85710
 Alpha virt. eigenvalues --    1.86018   1.86148   1.86249   1.86686   1.86882
 Alpha virt. eigenvalues --    1.87027   1.87467   1.87922   1.88081   1.88298
 Alpha virt. eigenvalues --    1.88626   1.88891   1.89013   1.89328   1.89477
 Alpha virt. eigenvalues --    1.90062   1.90159   1.90249   1.90336   1.90782
 Alpha virt. eigenvalues --    1.91187   1.91565   1.91962   1.92284   1.92636
 Alpha virt. eigenvalues --    1.92972   1.93255   1.93481   1.93590   1.94228
 Alpha virt. eigenvalues --    1.94489   1.94666   1.94859   1.95138   1.95885
 Alpha virt. eigenvalues --    1.96223   1.96498   1.96781   1.96916   1.97405
 Alpha virt. eigenvalues --    1.97512   1.98042   1.98123   1.98489   1.98952
 Alpha virt. eigenvalues --    1.98986   1.99295   1.99645   1.99781   2.00054
 Alpha virt. eigenvalues --    2.00170   2.00345   2.00733   2.00922   2.01618
 Alpha virt. eigenvalues --    2.01815   2.02175   2.02220   2.02662   2.02997
 Alpha virt. eigenvalues --    2.03132   2.03548   2.03565   2.03819   2.03852
 Alpha virt. eigenvalues --    2.04389   2.04530   2.04777   2.05627   2.05927
 Alpha virt. eigenvalues --    2.06082   2.06559   2.06640   2.06847   2.07015
 Alpha virt. eigenvalues --    2.07561   2.07812   2.08122   2.08773   2.09121
 Alpha virt. eigenvalues --    2.09291   2.09634   2.09874   2.10449   2.10583
 Alpha virt. eigenvalues --    2.11190   2.11599   2.11851   2.12478   2.12927
 Alpha virt. eigenvalues --    2.13256   2.13434   2.13814   2.14602   2.14770
 Alpha virt. eigenvalues --    2.16309   2.16493   2.17354   2.17865   2.17971
 Alpha virt. eigenvalues --    2.18060   2.18443   2.18910   2.19317   2.19819
 Alpha virt. eigenvalues --    2.20398   2.20533   2.20657   2.21117   2.21219
 Alpha virt. eigenvalues --    2.22096   2.22326   2.22556   2.22596   2.22811
 Alpha virt. eigenvalues --    2.23100   2.23184   2.23546   2.23941   2.24638
 Alpha virt. eigenvalues --    2.24818   2.25600   2.25771   2.26152   2.27173
 Alpha virt. eigenvalues --    2.27579   2.27827   2.28094   2.28744   2.29090
 Alpha virt. eigenvalues --    2.29349   2.29714   2.29929   2.30569   2.30689
 Alpha virt. eigenvalues --    2.31228   2.31451   2.31845   2.31977   2.32094
 Alpha virt. eigenvalues --    2.32906   2.33130   2.33506   2.33649   2.33981
 Alpha virt. eigenvalues --    2.34207   2.34750   2.35166   2.35338   2.35427
 Alpha virt. eigenvalues --    2.35930   2.36225   2.36504   2.36699   2.37351
 Alpha virt. eigenvalues --    2.37449   2.37842   2.38267   2.38982   2.39128
 Alpha virt. eigenvalues --    2.39428   2.39710   2.40679   2.40950   2.41477
 Alpha virt. eigenvalues --    2.41769   2.42341   2.42863   2.43307   2.43864
 Alpha virt. eigenvalues --    2.44275   2.44497   2.44531   2.44723   2.45541
 Alpha virt. eigenvalues --    2.46000   2.46624   2.47121   2.47453   2.48194
 Alpha virt. eigenvalues --    2.48524   2.48660   2.49168   2.49370   2.49874
 Alpha virt. eigenvalues --    2.50195   2.50479   2.50867   2.51379   2.51678
 Alpha virt. eigenvalues --    2.52128   2.52452   2.53018   2.53231   2.53955
 Alpha virt. eigenvalues --    2.54267   2.54509   2.54921   2.55043   2.55305
 Alpha virt. eigenvalues --    2.56031   2.56421   2.56429   2.56960   2.57061
 Alpha virt. eigenvalues --    2.57917   2.58471   2.59069   2.59206   2.59422
 Alpha virt. eigenvalues --    2.59780   2.60229   2.60435   2.61318   2.61453
 Alpha virt. eigenvalues --    2.61821   2.61955   2.62652   2.62829   2.62938
 Alpha virt. eigenvalues --    2.63731   2.63912   2.64162   2.64789   2.64827
 Alpha virt. eigenvalues --    2.65050   2.65462   2.66199   2.66265   2.66657
 Alpha virt. eigenvalues --    2.66921   2.67141   2.67923   2.68368   2.68479
 Alpha virt. eigenvalues --    2.68856   2.70691   2.70975   2.71342   2.71542
 Alpha virt. eigenvalues --    2.71819   2.72465   2.72873   2.73405   2.73681
 Alpha virt. eigenvalues --    2.74629   2.75589   2.76646   2.76983   2.77780
 Alpha virt. eigenvalues --    2.78167   2.78405   2.78913   2.79274   2.79515
 Alpha virt. eigenvalues --    2.80498   2.81117   2.81535   2.81766   2.82041
 Alpha virt. eigenvalues --    2.82411   2.82608   2.82958   2.83159   2.83580
 Alpha virt. eigenvalues --    2.84183   2.84396   2.84816   2.84897   2.85217
 Alpha virt. eigenvalues --    2.85535   2.85611   2.85922   2.86009   2.86121
 Alpha virt. eigenvalues --    2.86436   2.86650   2.86987   2.87308   2.87520
 Alpha virt. eigenvalues --    2.87686   2.88435   2.88849   2.89157   2.89314
 Alpha virt. eigenvalues --    2.89427   2.89687   2.90031   2.90119   2.90454
 Alpha virt. eigenvalues --    2.90585   2.90824   2.90960   2.91208   2.91676
 Alpha virt. eigenvalues --    2.92146   2.92786   2.92871   2.93233   2.93792
 Alpha virt. eigenvalues --    2.94016   2.94184   2.94514   2.94910   2.95648
 Alpha virt. eigenvalues --    2.96323   2.96338   2.96656   2.96838   2.97633
 Alpha virt. eigenvalues --    2.98233   2.98440   2.98827   2.98993   2.99155
 Alpha virt. eigenvalues --    2.99671   2.99805   3.00181   3.00936   3.03057
 Alpha virt. eigenvalues --    3.03386   3.03871   3.04442   3.04509   3.04745
 Alpha virt. eigenvalues --    3.05361   3.06301   3.06881   3.07547   3.09630
 Alpha virt. eigenvalues --    3.09977   3.10449   3.12435   3.12647   3.14950
 Alpha virt. eigenvalues --    3.15045   3.18173   3.25786   3.29096   3.29988
 Alpha virt. eigenvalues --    3.32411   3.34297   3.35016   3.38160   3.40231
 Alpha virt. eigenvalues --    3.46111   3.51684   3.51740   3.54474   3.56813
 Alpha virt. eigenvalues --    3.57330   3.60856
          Condensed to atoms (all electrons):
 Mulliken charges:
               1
     1  Mg   0.693221
     2  C    0.005665
     3  C   -0.049921
     4  C   -0.038353
     5  C   -0.100039
     6  N   -0.224020
     7  C   -0.091795
     8  C    0.021585
     9  C   -0.000518
    10  C    0.028274
    11  C    0.109288
    12  C    0.113089
    13  C    0.125555
    14  C    0.032866
    15  O   -0.153022
    16  O   -0.250232
    17  N   -0.282356
    18  C    0.126831
    19  C   -0.133077
    20  C    0.000733
    21  C    0.091361
    22  C    0.166455
    23  C   -0.048745
    24  O   -0.172506
    25  C    0.122886
    26  N   -0.197922
    27  C    0.020611
    28  C    0.031758
    29  C    0.046689
    30  C   -0.011810
    31  C    0.117888
    32  C    0.089857
    33  C    0.092294
    34  N   -0.299270
    35  C    0.174594
    36  C   -0.183449
    37  C    0.115030
    38  C    0.103184
    39  C    0.180074
    40  C   -0.075080
    41  O   -0.163519
    42  C    0.097330
    43  C    0.115394
    44  O   -0.211875
    45  O   -0.257959
    46  C    0.214076
    47  C    0.319916
    48  C   -0.085043
    49  C   -0.170796
    50  C    0.126381
    51  C    0.135549
    52  C    0.103876
    53  C    0.102406
    54  C   -0.069695
    55  C    0.160674
    56  C    0.064921
    57  C    0.056293
    58  C    0.109217
    59  C   -0.068657
    60  C    0.093282
    61  C    0.121977
    62  C    0.056979
    63  C    0.109631
    64  C   -0.096269
    65  C    0.113906
    66  C    0.119144
    67  H   -0.066163
    68  H   -0.050871
    69  H   -0.066105
    70  H    0.018071
    71  H   -0.028651
    72  H    0.022955
    73  H   -0.022333
    74  H   -0.012077
    75  H   -0.017683
    76  H   -0.003190
    77  H   -0.011412
    78  H   -0.002011
    79  H   -0.013553
    80  H   -0.012978
    81  H    0.012649
    82  H    0.024031
    83  H   -0.009930
    84  H    0.001024
    85  H   -0.019140
    86  H   -0.025761
    87  H   -0.007590
    88  H   -0.007488
    89  H   -0.016551
    90  H   -0.027310
    91  H   -0.017428
    92  H   -0.001697
    93  H   -0.002419
    94  H   -0.008232
    95  H    0.006227
    96  H   -0.033668
    97  H    0.016738
    98  H   -0.009421
    99  H    0.033909
   100  H    0.012985
   101  H    0.018990
   102  H   -0.027756
   103  H    0.004262
   104  H   -0.053469
   105  H   -0.002064
   106  H   -0.016932
   107  H   -0.008018
   108  H   -0.022222
   109  H   -0.025378
   110  H   -0.029486
   111  H   -0.019793
   112  H   -0.044578
   113  H   -0.029827
   114  H   -0.037338
   115  H   -0.016259
   116  H   -0.013338
   117  H   -0.023865
   118  H   -0.033300
   119  H   -0.031202
   120  H   -0.034411
   121  H   -0.031777
   122  H   -0.046485
   123  H   -0.049418
   124  H   -0.043329
   125  H   -0.011866
   126  H   -0.025010
   127  H   -0.024995
   128  H   -0.021644
   129  H   -0.032688
   130  H   -0.018423
   131  H   -0.030829
   132  H   -0.045427
   133  H   -0.039476
   134  H   -0.038346
   135  H   -0.038047
   136  H   -0.022859
   137  H   -0.014559
   138  H   -0.027243
   139  H   -0.023248
   140  H   -0.018085
 Sum of Mulliken charges =  -0.00000
 Mulliken charges with hydrogens summed into heavy atoms:
               1
     1  Mg   0.693221
     2  C    0.005665
     3  C   -0.116084
     4  C   -0.089224
     5  C   -0.166144
     6  N   -0.224020
     7  C   -0.091795
     8  C    0.039657
     9  C   -0.029168
    10  C    0.028274
    11  C    0.097832
    12  C    0.092216
    13  C    0.112132
    14  C    0.032866
    15  O   -0.153022
    16  O   -0.250232
    17  N   -0.282356
    18  C    0.126831
    19  C   -0.133077
    20  C    0.000733
    21  C    0.091361
    22  C    0.152573
    23  C   -0.048745
    24  O   -0.172506
    25  C    0.138011
    26  N   -0.197922
    27  C    0.020611
    28  C    0.012618
    29  C    0.020929
    30  C   -0.011810
    31  C    0.086259
    32  C    0.045118
    33  C    0.079946
    34  N   -0.299270
    35  C    0.174594
    36  C   -0.183449
    37  C    0.115030
    38  C    0.103184
    39  C    0.169371
    40  C   -0.075080
    41  O   -0.163519
    42  C    0.087909
    43  C    0.115394
    44  O   -0.211875
    45  O   -0.257959
    46  C    0.279960
    47  C    0.296421
    48  C   -0.138513
    49  C   -0.170796
    50  C    0.099367
    51  C    0.087948
    52  C    0.054597
    53  C    0.028001
    54  C   -0.107033
    55  C    0.107212
    56  C    0.000419
    57  C   -0.009895
    58  C    0.013314
    59  C   -0.111986
    60  C    0.031411
    61  C    0.067645
    62  C    0.007728
    63  C    0.024729
    64  C   -0.134615
    65  C    0.038442
    66  C    0.050567
 Electronic spatial extent (au):  <R**2>=         110880.9691
 Charge=             -0.0000 electrons
 Dipole moment (field-independent basis, Debye):
    X=              4.2053    Y=              2.5989    Z=             -2.1482  Tot=              5.3902
 Quadrupole moment (field-independent basis, Debye-Ang):
   XX=           -371.8829   YY=           -431.5152   ZZ=           -407.1435
   XY=             -6.7424   XZ=             -2.2010   YZ=              7.5305
 Traceless Quadrupole moment (field-independent basis, Debye-Ang):
   XX=             31.6310   YY=            -28.0013   ZZ=             -3.6297
   XY=             -6.7424   XZ=             -2.2010   YZ=              7.5305
 Octapole moment (field-independent basis, Debye-Ang**2):
  XXX=           -344.1179  YYY=            -28.2448  ZZZ=            -11.5403  XYY=            294.1276
  XXY=            -73.8905  XXZ=            -18.7360  XZZ=            -25.3390  YZZ=            -21.3723
  YYZ=             42.0061  XYZ=             -6.1708
 Hexadecapole moment (field-independent basis, Debye-Ang**3):
 XXXX=        -114317.8679 YYYY=         -25300.7569 ZZZZ=         -10082.4860 XXXY=             90.9807
 XXXZ=           -505.0071 YYYX=           -126.3046 YYYZ=           -199.4580 ZZZX=           -160.5193
 ZZZY=              3.6135 XXYY=         -25946.1069 XXZZ=         -21766.4156 YYZZ=          -5563.5610
 XXYZ=            166.9370 YYXZ=            -61.5968 ZZXY=            -61.0985
 N-N= 9.618136749020D+03 E-N=-2.623226694054D+04  KE= 2.978049155308D+03
 Leave Link  601 at Thu Apr 28 16:27:59 2022, MaxMem= 10066329600 cpu:               9.5 elap:               0.5
 (Enter /sw/apps/gaussian-16.0/g16/l9999.exe)
 1\1\GINC-BP1-COMPUTE150\SP\RBLYP TD-FC\def2SVP\C55H74Mg1N4O6\OF15641\2
 8-Apr-2022\0\\#p blyp/Def2SVP td=(nstates=5)\\step_1601_chromophore_9 
 TDDFT with blyp functional\\0,1\Mg,0,35.836,0.839,29.889\C,0,33.794,2.
 089,32.507\C,0,38.454,0.799,32.146\C,0,37.883,-0.24,27.384\C,0,33.301,
 1.455,27.637\N,0,35.99,1.335,32.092\C,0,35.052,1.742,32.992\C,0,35.64,
 2.014,34.352\C,0,37.153,1.762,34.195\C,0,37.238,1.178,32.737\C,0,38.08
 7,3.043,34.425\C,0,34.873,1.188,35.472\C,0,34.35,1.95,36.785\C,0,35.08
 3,3.083,37.394\O,0,35.034,4.198,37.016\O,0,35.774,2.628,38.485\N,0,37.
 887,0.196,29.768\C,0,38.813,0.363,30.787\C,0,40.172,0.115,30.321\C,0,3
 9.965,-0.361,28.946\C,0,38.544,-0.185,28.614\C,0,41.456,0.304,31.122\C
 ,0,41.082,-0.866,27.955\O,0,40.793,-1.212,26.799\C,0,42.492,-0.925,28.
 488\N,0,35.628,0.645,27.814\C,0,36.568,0.097,26.991\C,0,36.126,0.01,25
 .537\C,0,34.625,0.565,25.653\C,0,34.521,0.914,27.129\C,0,37.058,0.602,
 24.465\C,0,33.563,-0.379,25.175\C,0,33.303,-1.648,25.941\N,0,34.033,1.
 728,29.975\C,0,33.063,1.818,28.97\C,0,31.827,2.195,29.514\C,0,32.093,2
 .461,30.9\C,0,33.421,2.025,31.15\C,0,30.53,2.436,28.77\C,0,31.524,2.85
 5,32.151\O,0,30.316,3.113,32.344\C,0,32.592,2.709,33.238\C,0,32.926,4.
 054,33.782\O,0,33.707,4.862,33.246\O,0,32.12,4.35,34.818\C,0,32.325,5.
 633,35.558\C,0,36.76,3.544,38.924\C,0,37.894,2.722,39.623\C,0,38.073,2
 .455,40.932\C,0,36.981,2.769,42.011\C,0,39.363,1.961,41.527\C,0,39.637
 ,0.502,41.357\C,0,39.884,-0.209,42.721\C,0,41.39,-0.382,43.084\C,0,41.
 79,-1.725,43.561\C,0,41.807,0.794,44.089\C,0,43.197,1.35,43.707\C,0,43
 .507,2.598,44.381\C,0,44.571,3.48,43.746\C,0,46.035,3.004,44.054\C,0,4
 4.435,4.945,44.117\C,0,43.914,5.75,42.869\C,0,43.611,7.174,43.338\C,0,
 44.057,8.195,42.32\C,0,44.36,9.529,42.967\C,0,43.067,8.26,41.161\H,0,3
 9.278,0.923,32.852\H,0,38.538,-0.589,26.583\H,0,32.453,1.537,26.954\H,
 0,35.446,3.065,34.564\H,0,37.569,1.029,34.886\H,0,37.491,3.938,34.248\
 H,0,38.943,3.009,33.751\H,0,38.623,2.992,35.373\H,0,35.582,0.414,35.76
 5\H,0,33.97,0.723,35.076\H,0,34.193,1.178,37.538\H,0,33.373,2.384,36.5
 7\H,0,41.325,0.982,31.966\H,0,42.209,0.855,30.557\H,0,41.951,-0.622,31
 .414\H,0,42.911,0.079,28.421\H,0,43.029,-1.626,27.849\H,0,42.645,-1.35
 5,29.478\H,0,36.05,-1.032,25.224\H,0,34.602,1.572,25.235\H,0,37.585,-0
 .114,23.834\H,0,37.913,1.204,24.773\H,0,36.47,1.277,23.842\H,0,33.953,
 -0.673,24.201\H,0,32.656,0.197,24.99\H,0,34.005,-1.765,26.767\H,0,33.3
 55,-2.507,25.273\H,0,32.336,-1.576,26.437\H,0,29.724,1.902,29.274\H,0,
 30.65,2.014,27.772\H,0,30.219,3.474,28.659\H,0,32.196,2.103,34.052\H,0
 ,33.32,6.057,35.422\H,0,32.212,5.496,36.633\H,0,31.548,6.332,35.248\H,
 0,36.285,4.129,39.711\H,0,37.094,4.24,38.154\H,0,38.637,2.224,39.\H,0,
 36.067,3.34,41.851\H,0,37.476,3.12,42.916\H,0,36.621,1.775,42.278\H,0,
 39.394,2.34,42.548\H,0,40.125,2.502,40.966\H,0,40.548,0.406,40.766\H,0
 ,38.784,0.069,40.833\H,0,39.298,-1.123,42.63\H,0,39.457,0.314,43.576\H
 ,0,41.995,-0.119,42.216\H,0,42.202,-1.565,44.558\H,0,42.443,-2.137,42.
 793\H,0,40.973,-2.443,43.625\H,0,41.962,0.444,45.11\H,0,41.175,1.682,4
 4.074\H,0,43.273,1.553,42.638\H,0,43.917,0.618,44.073\H,0,43.861,2.305
 ,45.369\H,0,42.641,3.247,44.511\H,0,44.544,3.272,42.677\H,0,46.513,2.8
 73,43.083\H,0,46.083,2.089,44.644\H,0,46.553,3.741,44.669\H,0,45.357,5
 .399,44.478\H,0,43.601,5.006,44.817\H,0,43.041,5.332,42.368\H,0,44.78,
 5.805,42.209\H,0,44.065,7.467,44.284\H,0,42.556,7.287,43.588\H,0,45.02
 7,7.953,41.886\H,0,44.129,9.569,44.031\H,0,43.764,10.391,42.669\H,0,45
 .443,9.643,42.926\H,0,42.613,9.241,41.023\H,0,42.226,7.589,41.337\H,0,
 43.51,8.026,40.193\\Version=ES64L-G16RevA.03\State=1-A\HF=-3007.38457\
 RMSD=1.483e-09\PG=C01 [X(C55H74Mg1N4O6)]\\@


 IF I HAVE SEEN FARTHER, IT IS BY STANDING ON THE
 SHOULDERS OF GIANTS. -- SIR ISAAC NEWTON
 Job cpu time:       0 days  5 hours 27 minutes 53.1 seconds.
 Elapsed time:       0 days  0 hours 13 minutes 43.1 seconds.
 File lengths (MBytes):  RWF=   8011 Int=      0 D2E=      0 Chk=    390 Scr=      1
 Normal termination of Gaussian 16 at Thu Apr 28 16:28:00 2022.
