 Entering Gaussian System, Link 0=g16
 Initial command:
 /sw/apps/gaussian-16.0/g16/l1.exe "/tmp/Gau-70510.inp" -scrdir="/tmp/"
 Entering Link 1 = /sw/apps/gaussian-16.0/g16/l1.exe PID=     70511.
  
 Copyright (c) 1988,1990,1992,1993,1995,1998,2003,2009,2016,
            Gaussian, Inc.  All Rights Reserved.
  
 This is part of the Gaussian(R) 16 program.  It is based on
 the Gaussian(R) 09 system (copyright 2009, Gaussian, Inc.),
 the Gaussian(R) 03 system (copyright 2003, Gaussian, Inc.),
 the Gaussian(R) 98 system (copyright 1998, Gaussian, Inc.),
 the Gaussian(R) 94 system (copyright 1995, Gaussian, Inc.),
 the Gaussian 92(TM) system (copyright 1992, Gaussian, Inc.),
 the Gaussian 90(TM) system (copyright 1990, Gaussian, Inc.),
 the Gaussian 88(TM) system (copyright 1988, Gaussian, Inc.),
 the Gaussian 86(TM) system (copyright 1986, Carnegie Mellon
 University), and the Gaussian 82(TM) system (copyright 1983,
 Carnegie Mellon University). Gaussian is a federally registered
 trademark of Gaussian, Inc.
  
 This software contains proprietary and confidential information,
 including trade secrets, belonging to Gaussian, Inc.
  
 This software is provided under written license and may be
 used, copied, transmitted, or stored only in accord with that
 written license.
  
 The following legend is applicable only to US Government
 contracts under FAR:
  
                    RESTRICTED RIGHTS LEGEND
  
 Use, reproduction and disclosure by the US Government is
 subject to restrictions as set forth in subparagraphs (a)
 and (c) of the Commercial Computer Software - Restricted
 Rights clause in FAR 52.227-19.
  
 Gaussian, Inc.
 340 Quinnipiac St., Bldg. 40, Wallingford CT 06492
  
  
 ---------------------------------------------------------------
 Warning -- This program may not be used in any manner that
 competes with the business of Gaussian, Inc. or will provide
 assistance to any competitor of Gaussian, Inc.  The licensee
 of this program is prohibited from giving any competitor of
 Gaussian, Inc. access to this program.  By using this program,
 the user acknowledges that Gaussian, Inc. is engaged in the
 business of creating and licensing software in the field of
 computational chemistry and represents and warrants to the
 licensee that it is not a competitor of Gaussian, Inc. and that
 it will not use this program in any manner prohibited above.
 ---------------------------------------------------------------
  

 Cite this work as:
 Gaussian 16, Revision A.03,
 M. J. Frisch, G. W. Trucks, H. B. Schlegel, G. E. Scuseria, 
 M. A. Robb, J. R. Cheeseman, G. Scalmani, V. Barone, 
 G. A. Petersson, H. Nakatsuji, X. Li, M. Caricato, A. V. Marenich, 
 J. Bloino, B. G. Janesko, R. Gomperts, B. Mennucci, H. P. Hratchian, 
 J. V. Ortiz, A. F. Izmaylov, J. L. Sonnenberg, D. Williams-Young, 
 F. Ding, F. Lipparini, F. Egidi, J. Goings, B. Peng, A. Petrone, 
 T. Henderson, D. Ranasinghe, V. G. Zakrzewski, J. Gao, N. Rega, 
 G. Zheng, W. Liang, M. Hada, M. Ehara, K. Toyota, R. Fukuda, 
 J. Hasegawa, M. Ishida, T. Nakajima, Y. Honda, O. Kitao, H. Nakai, 
 T. Vreven, K. Throssell, J. A. Montgomery, Jr., J. E. Peralta, 
 F. Ogliaro, M. J. Bearpark, J. J. Heyd, E. N. Brothers, K. N. Kudin, 
 V. N. Staroverov, T. A. Keith, R. Kobayashi, J. Normand, 
 K. Raghavachari, A. P. Rendell, J. C. Burant, S. S. Iyengar, 
 J. Tomasi, M. Cossi, J. M. Millam, M. Klene, C. Adamo, R. Cammi, 
 J. W. Ochterski, R. L. Martin, K. Morokuma, O. Farkas, 
 J. B. Foresman, and D. J. Fox, Gaussian, Inc., Wallingford CT, 2016.
 
 ******************************************
 Gaussian 16:  ES64L-G16RevA.03 25-Dec-2016
                30-Apr-2022 
 ******************************************
 %nproc=24
 Will use up to   24 processors via shared memory.
 %mem=75GB
 ------------------------------
 #p blyp/Def2SVP td=(nstates=5)
 ------------------------------
 1/38=1,172=1/1;
 2/12=2,17=6,18=5,40=1/2;
 3/5=43,7=101,11=9,25=1,30=1,74=402/1,2,3,8;
 4//1;
 5/5=2,38=5/2;
 8/6=1,10=1,108=5/1;
 9/41=5,42=1,70=2/14;
 6/7=2,8=2,9=2,10=2/1;
 99/5=1,9=1/99;
 Leave Link    1 at Sat Apr 30 04:39:57 2022, MaxMem= 10066329600 cpu:               1.3 elap:               0.1
 (Enter /sw/apps/gaussian-16.0/g16/l101.exe)
 -------------------------------------------------
 step_551_chromophore_8 TDDFT with blyp functional
 -------------------------------------------------
 Symbolic Z-matrix:
 Charge =  0 Multiplicity = 1
 Mg                    43.976    3.385     47.283 
 C                     41.633    5.991     46.689 
 C                     41.273    1.134     47.222 
 C                     46.134    0.921     47.216 
 C                     46.47     5.738     47.051 
 N                     41.74     3.527     46.813 
 C                     41.004    4.691     46.69 
 C                     39.516    4.389     46.428 
 C                     39.463    2.932     47.061 
 C                     40.935    2.432     46.896 
 C                     38.888    2.92      48.497 
 C                     39.069    4.496     44.946 
 C                     38.211    5.689     44.43 
 C                     38.902    6.161     43.14 
 O                     39.782    7.008     43.199 
 O                     38.422    5.474     42.054 
 N                     43.761    1.315     47.327 
 C                     42.568    0.623     47.267 
 C                     42.892   -0.749     47.269 
 C                     44.272   -0.87      47.243 
 C                     44.77     0.429     47.15 
 C                     41.738   -1.818     47.389 
 C                     45.064   -2.153     47.208 
 O                     44.536   -3.199     47.528 
 C                     46.479   -2.175     46.868 
 N                     45.998    3.332     47.063 
 C                     46.73     2.179     47.171 
 C                     48.271    2.488     47.282 
 C                     48.321    4.057     46.936 
 C                     46.825    4.408     47.065 
 C                     48.886    2.113     48.655 
 C                     48.798    4.329     45.583 
 C                     50.268    3.961     45.288 
 N                     44.136    5.469     46.983 
 C                     45.185    6.287     46.925 
 C                     44.785    7.633     46.613 
 C                     43.381    7.587     46.57 
 C                     43.024    6.207     46.804 
 C                     45.656    8.793     46.494 
 C                     42.218    8.371     46.224 
 O                     42.129    9.543     45.867 
 C                     40.967    7.368     46.532 
 C                     40.305    7.826     47.799 
 O                     40.871    8.111     48.807 
 O                     38.931    7.823     47.651 
 C                     38.146    7.905     48.889 
 C                     39.032    6.005     40.785 
 C                     40.05     5.063     40.203 
 C                     41.086    5.406     39.37 
 C                     41.368    6.677     38.615 
 C                     41.923    4.202     38.883 
 C                     41.17     3.482     37.675 
 C                     41.912    2.221     37.347 
 C                     41.402    1.473     36.004 
 C                     41.05    -0.03      36.14 
 C                     42.365    1.662     34.795 
 C                     42.038    2.969     33.997 
 C                     43.033    4.113     34.284 
 C                     44.082    3.992     33.193 
 C                     45.487    4.189     33.893 
 C                     43.842    5.098     32.101 
 C                     43.017    4.583     30.867 
 C                     43.236    5.462     29.576 
 C                     43.699    4.685     28.326 
 C                     42.508    4.698     27.312 
 C                     45.006    5.274     27.72 
 H                     40.375    0.513     47.247 
 H                     46.959    0.207     47.265 
 H                     47.333    6.404     46.99 
 H                     38.91     5.111     46.974 
 H                     38.744    2.311     46.527 
 H                     38.621    3.933     48.801 
 H                     39.699    2.568     49.133 
 H                     38.096    2.177     48.591 
 H                     38.582    3.579     44.613 
 H                     39.963    4.492     44.324 
 H                     38.135    6.476     45.18 
 H                     37.241    5.234     44.227 
 H                     41.806   -2.6       46.633 
 H                     40.733   -1.405     47.311 
 H                     41.771   -2.228     48.399 
 H                     47.086   -1.905     47.732 
 H                     46.44    -1.419     46.084 
 H                     46.849   -3.092     46.409 
 H                     48.754    1.915     46.491 
 H                     48.847    4.63      47.7 
 H                     49.472    1.195     48.605 
 H                     48.147    1.981     49.445 
 H                     49.582    2.911     48.914 
 H                     48.756    5.408     45.436 
 H                     48.021    3.843     44.992 
 H                     50.396    2.885     45.169 
 H                     50.745    4.097     46.258 
 H                     50.742    4.653     44.592 
 H                     46.251    8.692     45.587 
 H                     46.403    8.861     47.286 
 H                     44.99     9.647     46.618 
 H                     40.221    7.31      45.739 
 H                     38.563    8.623     49.596 
 H                     38.032    6.967     49.432 
 H                     37.137    8.203     48.605 
 H                     39.515    6.98      40.844 
 H                     38.172    6.182     40.139 
 H                     39.924    4.01      40.454 
 H                     42.235    7.163     39.061 
 H                     40.565    7.402     38.745 
 H                     41.55     6.404     37.575 
 H                     42.017    3.496     39.708 
 H                     42.961    4.453     38.663 
 H                     41.105    4.188     36.848 
 H                     40.187    3.118     37.975 
 H                     41.901    1.481     38.147 
 H                     42.981    2.407     37.241 
 H                     40.481    2.024     35.814 
 H                     40.      -0.276     35.985 
 H                     41.22    -0.39      37.154 
 H                     41.646   -0.636     35.457 
 H                     42.101    0.855     34.112 
 H                     43.423    1.552     35.033 
 H                     41.126    3.406     34.403 
 H                     41.866    2.737     32.946 
 H                     43.42     3.976     35.293 
 H                     42.526    5.075     34.361 
 H                     44.053    2.992     32.759 
 H                     45.798    5.233     33.906 
 H                     46.287    3.659     33.375 
 H                     45.46     3.909     34.946 
 H                     44.805    5.284     31.626 
 H                     43.62     6.059     32.566 
 H                     41.978    4.554     31.195 
 H                     43.349    3.577     30.608 
 H                     44.039    6.171     29.778 
 H                     42.359    6.082     29.388 
 H                     43.847    3.621     28.512 
 H                     42.758    5.132     26.344 
 H                     41.605    5.158     27.714 
 H                     42.075    3.722     27.093 
 H                     45.139    4.942     26.69 
 H                     45.867    4.821     28.211 
 H                     45.028    6.363     27.772 
 
 ITRead=  0  0  0  0  0  0  0  0  0  0  0  0  0  0  0  0  0  0  0  0
 ITRead=  0  0  0  0  0  0  0  0  0  0  0  0  0  0  0  0  0  0  0  0
 ITRead=  0  0  0  0  0  0  0  0  0  0  0  0  0  0  0  0  0  0  0  0
 ITRead=  0  0  0  0  0  0  0  0  0  0  0  0  0  0  0  0  0  0  0  0
 ITRead=  0  0  0  0  0  0  0  0  0  0  0  0  0  0  0  0  0  0  0  0
 ITRead=  0  0  0  0  0  0  0  0  0  0  0  0  0  0  0  0  0  0  0  0
 ITRead=  0  0  0  0  0  0  0  0  0  0  0  0  0  0  0  0  0  0  0  0
 MicOpt= -1 -1 -1 -1 -1 -1 -1 -1 -1 -1 -1 -1 -1 -1 -1 -1 -1 -1 -1 -1
 MicOpt= -1 -1 -1 -1 -1 -1 -1 -1 -1 -1 -1 -1 -1 -1 -1 -1 -1 -1 -1 -1
 MicOpt= -1 -1 -1 -1 -1 -1 -1 -1 -1 -1 -1 -1 -1 -1 -1 -1 -1 -1 -1 -1
 MicOpt= -1 -1 -1 -1 -1 -1 -1 -1 -1 -1 -1 -1 -1 -1 -1 -1 -1 -1 -1 -1
 MicOpt= -1 -1 -1 -1 -1 -1 -1 -1 -1 -1 -1 -1 -1 -1 -1 -1 -1 -1 -1 -1
 MicOpt= -1 -1 -1 -1 -1 -1 -1 -1 -1 -1 -1 -1 -1 -1 -1 -1 -1 -1 -1 -1
 MicOpt= -1 -1 -1 -1 -1 -1 -1 -1 -1 -1 -1 -1 -1 -1 -1 -1 -1 -1 -1 -1
 NAtoms=    140 NQM=      140 NQMF=       0 NMMI=      0 NMMIF=      0
                NMic=       0 NMicF=      0.
                    Isotopes and Nuclear Properties:
 (Nuclear quadrupole moments (NQMom) in fm**2, nuclear magnetic moments (NMagM)
  in nuclear magnetons)

  Atom         1           2           3           4           5           6           7           8           9          10
 IAtWgt=          24          12          12          12          12          14          12          12          12          12
 AtmWgt=  23.9850450  12.0000000  12.0000000  12.0000000  12.0000000  14.0030740  12.0000000  12.0000000  12.0000000  12.0000000
 NucSpn=           0           0           0           0           0           2           0           0           0           0
 AtZEff=  -0.0000000  -0.0000000  -0.0000000  -0.0000000  -0.0000000  -0.0000000  -0.0000000  -0.0000000  -0.0000000  -0.0000000
 NQMom=    0.0000000   0.0000000   0.0000000   0.0000000   0.0000000   2.0440000   0.0000000   0.0000000   0.0000000   0.0000000
 NMagM=    0.0000000   0.0000000   0.0000000   0.0000000   0.0000000   0.4037610   0.0000000   0.0000000   0.0000000   0.0000000
 AtZNuc=  12.0000000   6.0000000   6.0000000   6.0000000   6.0000000   7.0000000   6.0000000   6.0000000   6.0000000   6.0000000

  Atom        11          12          13          14          15          16          17          18          19          20
 IAtWgt=          12          12          12          12          16          16          14          12          12          12
 AtmWgt=  12.0000000  12.0000000  12.0000000  12.0000000  15.9949146  15.9949146  14.0030740  12.0000000  12.0000000  12.0000000
 NucSpn=           0           0           0           0           0           0           2           0           0           0
 AtZEff=  -0.0000000  -0.0000000  -0.0000000  -0.0000000  -0.0000000  -0.0000000  -0.0000000  -0.0000000  -0.0000000  -0.0000000
 NQMom=    0.0000000   0.0000000   0.0000000   0.0000000   0.0000000   0.0000000   2.0440000   0.0000000   0.0000000   0.0000000
 NMagM=    0.0000000   0.0000000   0.0000000   0.0000000   0.0000000   0.0000000   0.4037610   0.0000000   0.0000000   0.0000000
 AtZNuc=   6.0000000   6.0000000   6.0000000   6.0000000   8.0000000   8.0000000   7.0000000   6.0000000   6.0000000   6.0000000

  Atom        21          22          23          24          25          26          27          28          29          30
 IAtWgt=          12          12          12          16          12          14          12          12          12          12
 AtmWgt=  12.0000000  12.0000000  12.0000000  15.9949146  12.0000000  14.0030740  12.0000000  12.0000000  12.0000000  12.0000000
 NucSpn=           0           0           0           0           0           2           0           0           0           0
 AtZEff=  -0.0000000  -0.0000000  -0.0000000  -0.0000000  -0.0000000  -0.0000000  -0.0000000  -0.0000000  -0.0000000  -0.0000000
 NQMom=    0.0000000   0.0000000   0.0000000   0.0000000   0.0000000   2.0440000   0.0000000   0.0000000   0.0000000   0.0000000
 NMagM=    0.0000000   0.0000000   0.0000000   0.0000000   0.0000000   0.4037610   0.0000000   0.0000000   0.0000000   0.0000000
 AtZNuc=   6.0000000   6.0000000   6.0000000   8.0000000   6.0000000   7.0000000   6.0000000   6.0000000   6.0000000   6.0000000

  Atom        31          32          33          34          35          36          37          38          39          40
 IAtWgt=          12          12          12          14          12          12          12          12          12          12
 AtmWgt=  12.0000000  12.0000000  12.0000000  14.0030740  12.0000000  12.0000000  12.0000000  12.0000000  12.0000000  12.0000000
 NucSpn=           0           0           0           2           0           0           0           0           0           0
 AtZEff=  -0.0000000  -0.0000000  -0.0000000  -0.0000000  -0.0000000  -0.0000000  -0.0000000  -0.0000000  -0.0000000  -0.0000000
 NQMom=    0.0000000   0.0000000   0.0000000   2.0440000   0.0000000   0.0000000   0.0000000   0.0000000   0.0000000   0.0000000
 NMagM=    0.0000000   0.0000000   0.0000000   0.4037610   0.0000000   0.0000000   0.0000000   0.0000000   0.0000000   0.0000000
 AtZNuc=   6.0000000   6.0000000   6.0000000   7.0000000   6.0000000   6.0000000   6.0000000   6.0000000   6.0000000   6.0000000

  Atom        41          42          43          44          45          46          47          48          49          50
 IAtWgt=          16          12          12          16          16          12          12          12          12          12
 AtmWgt=  15.9949146  12.0000000  12.0000000  15.9949146  15.9949146  12.0000000  12.0000000  12.0000000  12.0000000  12.0000000
 NucSpn=           0           0           0           0           0           0           0           0           0           0
 AtZEff=  -0.0000000  -0.0000000  -0.0000000  -0.0000000  -0.0000000  -0.0000000  -0.0000000  -0.0000000  -0.0000000  -0.0000000
 NQMom=    0.0000000   0.0000000   0.0000000   0.0000000   0.0000000   0.0000000   0.0000000   0.0000000   0.0000000   0.0000000
 NMagM=    0.0000000   0.0000000   0.0000000   0.0000000   0.0000000   0.0000000   0.0000000   0.0000000   0.0000000   0.0000000
 AtZNuc=   8.0000000   6.0000000   6.0000000   8.0000000   8.0000000   6.0000000   6.0000000   6.0000000   6.0000000   6.0000000

  Atom        51          52          53          54          55          56          57          58          59          60
 IAtWgt=          12          12          12          12          12          12          12          12          12          12
 AtmWgt=  12.0000000  12.0000000  12.0000000  12.0000000  12.0000000  12.0000000  12.0000000  12.0000000  12.0000000  12.0000000
 NucSpn=           0           0           0           0           0           0           0           0           0           0
 AtZEff=  -0.0000000  -0.0000000  -0.0000000  -0.0000000  -0.0000000  -0.0000000  -0.0000000  -0.0000000  -0.0000000  -0.0000000
 NQMom=    0.0000000   0.0000000   0.0000000   0.0000000   0.0000000   0.0000000   0.0000000   0.0000000   0.0000000   0.0000000
 NMagM=    0.0000000   0.0000000   0.0000000   0.0000000   0.0000000   0.0000000   0.0000000   0.0000000   0.0000000   0.0000000
 AtZNuc=   6.0000000   6.0000000   6.0000000   6.0000000   6.0000000   6.0000000   6.0000000   6.0000000   6.0000000   6.0000000

  Atom        61          62          63          64          65          66          67          68          69          70
 IAtWgt=          12          12          12          12          12          12           1           1           1           1
 AtmWgt=  12.0000000  12.0000000  12.0000000  12.0000000  12.0000000  12.0000000   1.0078250   1.0078250   1.0078250   1.0078250
 NucSpn=           0           0           0           0           0           0           1           1           1           1
 AtZEff=  -0.0000000  -0.0000000  -0.0000000  -0.0000000  -0.0000000  -0.0000000  -0.0000000  -0.0000000  -0.0000000  -0.0000000
 NQMom=    0.0000000   0.0000000   0.0000000   0.0000000   0.0000000   0.0000000   0.0000000   0.0000000   0.0000000   0.0000000
 NMagM=    0.0000000   0.0000000   0.0000000   0.0000000   0.0000000   0.0000000   2.7928460   2.7928460   2.7928460   2.7928460
 AtZNuc=   6.0000000   6.0000000   6.0000000   6.0000000   6.0000000   6.0000000   1.0000000   1.0000000   1.0000000   1.0000000

  Atom        71          72          73          74          75          76          77          78          79          80
 IAtWgt=           1           1           1           1           1           1           1           1           1           1
 AtmWgt=   1.0078250   1.0078250   1.0078250   1.0078250   1.0078250   1.0078250   1.0078250   1.0078250   1.0078250   1.0078250
 NucSpn=           1           1           1           1           1           1           1           1           1           1
 AtZEff=  -0.0000000  -0.0000000  -0.0000000  -0.0000000  -0.0000000  -0.0000000  -0.0000000  -0.0000000  -0.0000000  -0.0000000
 NQMom=    0.0000000   0.0000000   0.0000000   0.0000000   0.0000000   0.0000000   0.0000000   0.0000000   0.0000000   0.0000000
 NMagM=    2.7928460   2.7928460   2.7928460   2.7928460   2.7928460   2.7928460   2.7928460   2.7928460   2.7928460   2.7928460
 AtZNuc=   1.0000000   1.0000000   1.0000000   1.0000000   1.0000000   1.0000000   1.0000000   1.0000000   1.0000000   1.0000000

  Atom        81          82          83          84          85          86          87          88          89          90
 IAtWgt=           1           1           1           1           1           1           1           1           1           1
 AtmWgt=   1.0078250   1.0078250   1.0078250   1.0078250   1.0078250   1.0078250   1.0078250   1.0078250   1.0078250   1.0078250
 NucSpn=           1           1           1           1           1           1           1           1           1           1
 AtZEff=  -0.0000000  -0.0000000  -0.0000000  -0.0000000  -0.0000000  -0.0000000  -0.0000000  -0.0000000  -0.0000000  -0.0000000
 NQMom=    0.0000000   0.0000000   0.0000000   0.0000000   0.0000000   0.0000000   0.0000000   0.0000000   0.0000000   0.0000000
 NMagM=    2.7928460   2.7928460   2.7928460   2.7928460   2.7928460   2.7928460   2.7928460   2.7928460   2.7928460   2.7928460
 AtZNuc=   1.0000000   1.0000000   1.0000000   1.0000000   1.0000000   1.0000000   1.0000000   1.0000000   1.0000000   1.0000000

  Atom        91          92          93          94          95          96          97          98          99         100
 IAtWgt=           1           1           1           1           1           1           1           1           1           1
 AtmWgt=   1.0078250   1.0078250   1.0078250   1.0078250   1.0078250   1.0078250   1.0078250   1.0078250   1.0078250   1.0078250
 NucSpn=           1           1           1           1           1           1           1           1           1           1
 AtZEff=  -0.0000000  -0.0000000  -0.0000000  -0.0000000  -0.0000000  -0.0000000  -0.0000000  -0.0000000  -0.0000000  -0.0000000
 NQMom=    0.0000000   0.0000000   0.0000000   0.0000000   0.0000000   0.0000000   0.0000000   0.0000000   0.0000000   0.0000000
 NMagM=    2.7928460   2.7928460   2.7928460   2.7928460   2.7928460   2.7928460   2.7928460   2.7928460   2.7928460   2.7928460
 AtZNuc=   1.0000000   1.0000000   1.0000000   1.0000000   1.0000000   1.0000000   1.0000000   1.0000000   1.0000000   1.0000000

  Atom       101         102         103         104         105         106         107         108         109         110
 IAtWgt=           1           1           1           1           1           1           1           1           1           1
 AtmWgt=   1.0078250   1.0078250   1.0078250   1.0078250   1.0078250   1.0078250   1.0078250   1.0078250   1.0078250   1.0078250
 NucSpn=           1           1           1           1           1           1           1           1           1           1
 AtZEff=  -0.0000000  -0.0000000  -0.0000000  -0.0000000  -0.0000000  -0.0000000  -0.0000000  -0.0000000  -0.0000000  -0.0000000
 NQMom=    0.0000000   0.0000000   0.0000000   0.0000000   0.0000000   0.0000000   0.0000000   0.0000000   0.0000000   0.0000000
 NMagM=    2.7928460   2.7928460   2.7928460   2.7928460   2.7928460   2.7928460   2.7928460   2.7928460   2.7928460   2.7928460
 AtZNuc=   1.0000000   1.0000000   1.0000000   1.0000000   1.0000000   1.0000000   1.0000000   1.0000000   1.0000000   1.0000000

  Atom       111         112         113         114         115         116         117         118         119         120
 IAtWgt=           1           1           1           1           1           1           1           1           1           1
 AtmWgt=   1.0078250   1.0078250   1.0078250   1.0078250   1.0078250   1.0078250   1.0078250   1.0078250   1.0078250   1.0078250
 NucSpn=           1           1           1           1           1           1           1           1           1           1
 AtZEff=  -0.0000000  -0.0000000  -0.0000000  -0.0000000  -0.0000000  -0.0000000  -0.0000000  -0.0000000  -0.0000000  -0.0000000
 NQMom=    0.0000000   0.0000000   0.0000000   0.0000000   0.0000000   0.0000000   0.0000000   0.0000000   0.0000000   0.0000000
 NMagM=    2.7928460   2.7928460   2.7928460   2.7928460   2.7928460   2.7928460   2.7928460   2.7928460   2.7928460   2.7928460
 AtZNuc=   1.0000000   1.0000000   1.0000000   1.0000000   1.0000000   1.0000000   1.0000000   1.0000000   1.0000000   1.0000000

  Atom       121         122         123         124         125         126         127         128         129         130
 IAtWgt=           1           1           1           1           1           1           1           1           1           1
 AtmWgt=   1.0078250   1.0078250   1.0078250   1.0078250   1.0078250   1.0078250   1.0078250   1.0078250   1.0078250   1.0078250
 NucSpn=           1           1           1           1           1           1           1           1           1           1
 AtZEff=  -0.0000000  -0.0000000  -0.0000000  -0.0000000  -0.0000000  -0.0000000  -0.0000000  -0.0000000  -0.0000000  -0.0000000
 NQMom=    0.0000000   0.0000000   0.0000000   0.0000000   0.0000000   0.0000000   0.0000000   0.0000000   0.0000000   0.0000000
 NMagM=    2.7928460   2.7928460   2.7928460   2.7928460   2.7928460   2.7928460   2.7928460   2.7928460   2.7928460   2.7928460
 AtZNuc=   1.0000000   1.0000000   1.0000000   1.0000000   1.0000000   1.0000000   1.0000000   1.0000000   1.0000000   1.0000000

  Atom       131         132         133         134         135         136         137         138         139         140
 IAtWgt=           1           1           1           1           1           1           1           1           1           1
 AtmWgt=   1.0078250   1.0078250   1.0078250   1.0078250   1.0078250   1.0078250   1.0078250   1.0078250   1.0078250   1.0078250
 NucSpn=           1           1           1           1           1           1           1           1           1           1
 AtZEff=  -0.0000000  -0.0000000  -0.0000000  -0.0000000  -0.0000000  -0.0000000  -0.0000000  -0.0000000  -0.0000000  -0.0000000
 NQMom=    0.0000000   0.0000000   0.0000000   0.0000000   0.0000000   0.0000000   0.0000000   0.0000000   0.0000000   0.0000000
 NMagM=    2.7928460   2.7928460   2.7928460   2.7928460   2.7928460   2.7928460   2.7928460   2.7928460   2.7928460   2.7928460
 AtZNuc=   1.0000000   1.0000000   1.0000000   1.0000000   1.0000000   1.0000000   1.0000000   1.0000000   1.0000000   1.0000000
 Leave Link  101 at Sat Apr 30 04:39:57 2022, MaxMem= 10066329600 cpu:               3.4 elap:               0.2
 (Enter /sw/apps/gaussian-16.0/g16/l202.exe)
 Stoichiometry    C55H74MgN4O6
 Framework group  C1[X(C55H74MgN4O6)]
 Deg. of freedom   414
 Full point group                 C1      NOp   1
 Largest Abelian subgroup         C1      NOp   1
 Largest concise Abelian subgroup C1      NOp   1
                         Standard orientation:                         
 ---------------------------------------------------------------------
 Center     Atomic      Atomic             Coordinates (Angstroms)
 Number     Number       Type             X           Y           Z
 ---------------------------------------------------------------------
      1         12           0        4.599011    0.965894    0.249177
      2          6           0        3.822692   -2.483635    0.612214
      3          6           0        4.517148    0.471943   -3.233098
      4          6           0        4.703087    4.217899   -0.133426
      5          6           0        4.376664    1.252020    3.666656
      6          7           0        4.039778   -0.761892   -1.144657
      7          6           0        3.846915   -2.079948   -0.774182
      8          6           0        3.539817   -2.967066   -1.995945
      9          6           0        4.222684   -2.064477   -3.111907
     10          6           0        4.131797   -0.630144   -2.496735
     11          6           0        5.635354   -2.557882   -3.504056
     12          6           0        2.039040   -3.292359   -2.218285
     13          6           0        1.448044   -4.699663   -1.908627
     14          6           0        0.168917   -4.435760   -1.097114
     15          8           0        0.230523   -4.353391    0.121373
     16          8           0       -0.908910   -4.274908   -1.930288
     17          7           0        4.709740    2.189486   -1.431187
     18          6           0        4.629663    1.771439   -2.744403
     19          6           0        4.693608    2.929645   -3.545549
     20          6           0        4.724322    4.034873   -2.710537
     21          6           0        4.603297    3.539574   -1.412814
     22          6           0        4.808409    2.783367   -5.112169
     23          6           0        4.765832    5.482351   -3.132036
     24          8           0        5.103249    5.774211   -4.261756
     25          6           0        4.480721    6.563721   -2.200553
     26          7           0        4.457861    2.511647    1.564631
     27          6           0        4.635194    3.820163    1.199617
     28          6           0        4.793255    4.749792    2.461873
     29          6           0        4.392825    3.754993    3.659373
     30          6           0        4.452247    2.404468    2.917476
     31          6           0        6.201251    5.384669    2.597736
     32          6           0        3.049915    3.997415    4.178935
     33          6           0        2.824352    5.348741    4.890546
     34          7           0        4.230043   -0.294422    1.902695
     35          6           0        4.182264   -0.061250    3.212747
     36          6           0        3.806806   -1.242149    3.943205
     37          6           0        3.712323   -2.249794    2.968061
     38          6           0        3.982430   -1.603163    1.704924
     39          6           0        3.678984   -1.366588    5.387704
     40          6           0        3.294341   -3.618372    2.770006
     41          8           0        2.892030   -4.449950    3.579684
     42          6           0        3.590818   -3.890566    1.187639
     43          6           0        4.814409   -4.754132    1.085766
     44          8           0        5.832156   -4.578131    1.678100
     45          8           0        4.614649   -5.762815    0.162488
     46          6           0        5.818230   -6.464411   -0.300925
     47          6           0       -2.172272   -4.111628   -1.129239
     48          6           0       -2.680790   -2.696175   -1.146994
     49          6           0       -3.485801   -2.114163   -0.199337
     50          6           0       -4.275089   -2.716147    0.931871
     51          6           0       -3.896825   -0.662517   -0.532709
     52          6           0       -5.105636   -0.675545   -1.573515
     53          6           0       -5.359415    0.735500   -2.012626
     54          6           0       -6.692818    0.928401   -2.911558
     55          6           0       -6.515934    1.666184   -4.262779
     56          6           0       -7.870503    1.579060   -2.127676
     57          6           0       -8.727115    0.503830   -1.377955
     58          6           0       -8.444216    0.460741    0.138370
     59          6           0       -9.489582    1.376417    0.749982
     60          6           0       -8.744429    2.249334    1.838834
     61          6           0      -10.629215    0.515588    1.408395
     62          6           0      -11.874141    0.313367    0.471446
     63          6           0      -13.186888   -0.044904    1.268703
     64          6           0      -14.389495    0.883745    1.000475
     65          6           0      -15.447708    0.045367    0.210440
     66          6           0      -14.966453    1.490111    2.312666
     67          1           0        4.530563    0.220591   -4.295789
     68          1           0        4.809133    5.304658   -0.110376
     69          1           0        4.324343    1.449201    4.739236
     70          1           0        4.035963   -3.928021   -1.865410
     71          1           0        3.684651   -2.153865   -4.055458
     72          1           0        5.892145   -3.449624   -2.930706
     73          1           0        6.313958   -1.754506   -3.220851
     74          1           0        5.726108   -2.652636   -4.586153
     75          1           0        1.721239   -3.022226   -3.225746
     76          1           0        1.451920   -2.594440   -1.623024
     77          1           0        2.165643   -5.321955   -1.374351
     78          1           0        1.225035   -5.103527   -2.896703
     79          1           0        4.084334    3.396697   -5.648105
     80          1           0        4.677478    1.766138   -5.479294
     81          1           0        5.833114    3.029289   -5.392865
     82          1           0        5.356763    6.787695   -1.592086
     83          1           0        3.668952    6.069965   -1.666747
     84          1           0        4.069571    7.475685   -2.633851
     85          1           0        4.042391    5.532700    2.359131
     86          1           0        5.154966    3.721396    4.438292
     87          1           0        6.206761    6.435980    2.309057
     88          1           0        6.966938    4.883851    2.005663
     89          1           0        6.457383    5.352965    3.656836
     90          1           0        2.862464    3.251910    4.951397
     91          1           0        2.447875    3.777680    3.296626
     92          1           0        2.749319    6.169920    4.177555
     93          1           0        3.806173    5.560476    5.312591
     94          1           0        2.122220    5.273453    5.720786
     95          1           0        2.799436   -0.810452    5.710167
     96          1           0        4.495744   -0.899890    5.939968
     97          1           0        3.746658   -2.438244    5.575376
     98          1           0        2.772736   -4.363162    0.643466
     99          1           0        6.514069   -6.672850    0.512477
    100          1           0        6.390121   -5.949640   -1.072703
    101          1           0        5.485594   -7.396853   -0.756386
    102          1           0       -2.130345   -4.409184   -0.081815
    103          1           0       -2.856384   -4.833689   -1.575181
    104          1           0       -2.396790   -2.098043   -2.012596
    105          1           0       -3.814439   -2.422105    1.874284
    106          1           0       -4.201945   -3.803338    0.931994
    107          1           0       -5.296879   -2.344066    0.849695
    108          1           0       -3.043838   -0.163602   -0.992485
    109          1           0       -4.086271   -0.049570    0.348909
    110          1           0       -5.959521   -1.152859   -1.094307
    111          1           0       -4.830124   -1.176295   -2.502024
    112          1           0       -4.534142    1.180649   -2.568043
    113          1           0       -5.431490    1.408951   -1.158307
    114          1           0       -6.937408   -0.113048   -3.120130
    115          1           0       -6.701607    1.060642   -5.149280
    116          1           0       -5.483852    1.979985   -4.414544
    117          1           0       -7.153470    2.549277   -4.314123
    118          1           0       -8.533355    1.959209   -2.904560
    119          1           0       -7.588753    2.424421   -1.499911
    120          1           0       -8.372055   -0.485882   -1.664228
    121          1           0       -9.774790    0.586657   -1.666963
    122          1           0       -7.416977    0.786416    0.297537
    123          1           0       -8.421362   -0.562873    0.512689
    124          1           0       -9.887882    2.046867   -0.012285
    125          1           0       -8.757456    1.780521    2.822130
    126          1           0       -9.212213    3.224132    1.980857
    127          1           0       -7.683763    2.361533    1.614476
    128          1           0      -11.073801    1.129801    2.191132
    129          1           0      -10.208057   -0.316434    1.973546
    130          1           0      -11.584917   -0.454544   -0.245916
    131          1           0      -12.083784    1.246246   -0.053080
    132          1           0      -12.980401    0.065249    2.333374
    133          1           0      -13.430311   -1.100019    1.140834
    134          1           0      -14.159623    1.695739    0.310243
    135          1           0      -16.420615   -0.009050    0.698673
    136          1           0      -15.097135   -0.952856   -0.052736
    137          1           0      -15.647484    0.389037   -0.804452
    138          1           0      -15.977978    1.864832    2.153876
    139          1           0      -14.427099    2.405735    2.554205
    140          1           0      -14.953115    0.774926    3.135734
 ---------------------------------------------------------------------
 Rotational constants (GHZ):           0.0334286           0.0124760           0.0113674
 Leave Link  202 at Sat Apr 30 04:39:58 2022, MaxMem= 10066329600 cpu:               1.4 elap:               0.1
 (Enter /sw/apps/gaussian-16.0/g16/l301.exe)
 Standard basis: def2SVP (5D, 7F)
 Ernie: Thresh=  0.10000D-02 Tol=  0.10000D-05 Strict=F.
 There are  1364 symmetry adapted cartesian basis functions of A   symmetry.
 There are  1298 symmetry adapted basis functions of A   symmetry.
  1298 basis functions,  2180 primitive gaussians,  1364 cartesian basis functions
   246 alpha electrons      246 beta electrons
       nuclear repulsion energy      9787.3405494027 Hartrees.
 IExCor=  402 DFT=T Ex=B Corr=LYP ExCW=0 ScaHFX=  0.000000
 ScaDFX=  1.000000  1.000000  1.000000  1.000000 ScalE2=  1.000000  1.000000
 IRadAn=      5 IRanWt=     -1 IRanGd=            0 ICorTp=0 IEmpDi=  4
 NAtoms=  140 NActive=  140 NUniq=  140 SFac= 1.00D+00 NAtFMM=   60 NAOKFM=T Big=T
 Integral buffers will be    131072 words long.
 Regular integral format.
 Two-electron integral symmetry is turned on.
 Leave Link  301 at Sat Apr 30 04:39:58 2022, MaxMem= 10066329600 cpu:               1.8 elap:               0.1
 (Enter /sw/apps/gaussian-16.0/g16/l302.exe)
 NPDir=0 NMtPBC=     1 NCelOv=     1 NCel=       1 NClECP=     1 NCelD=      1
         NCelK=      1 NCelE2=     1 NClLst=     1 CellRange=     0.0.
 One-electron integrals computed using PRISM.
 One-electron integral symmetry used in STVInt
   1 Symmetry operations used in ECPInt.
 ECPInt:  NShTT=  192510 NPrTT=  683786 LenC2=  100483 LenP2D=  216619.
 LDataN:  DoStor=T MaxTD1= 4 Len=   56
 NBasis=  1298 RedAO= T EigKep=  3.12D-04  NBF=  1298
 NBsUse=  1298 1.00D-06 EigRej= -1.00D+00 NBFU=  1298
 Precomputing XC quadrature grid using
 IXCGrd= 4 IRadAn=           5 IRanWt=          -1 IRanGd=           0 AccXCQ= 0.00D+00.
 Generated NRdTot=       0 NPtTot=           0 NUsed=           0 NTot=          32
 NSgBfM=  1092  1085  1089  1091  1092 MxSgAt=   140 MxSgA2=   140.
 Leave Link  302 at Sat Apr 30 04:40:02 2022, MaxMem= 10066329600 cpu:             106.6 elap:               4.5
 (Enter /sw/apps/gaussian-16.0/g16/l303.exe)
 DipDrv:  MaxL=1.
 Leave Link  303 at Sat Apr 30 04:40:03 2022, MaxMem= 10066329600 cpu:               8.2 elap:               0.4
 (Enter /sw/apps/gaussian-16.0/g16/l308.exe)
 Leave Link  308 at Sat Apr 30 04:40:03 2022, MaxMem= 10066329600 cpu:              13.5 elap:               0.6
 (Enter /sw/apps/gaussian-16.0/g16/l401.exe)
 ExpMin= 3.36D-02 ExpMax= 4.95D+03 ExpMxC= 7.45D+02 IAcc=3 IRadAn=         5 AccDes= 0.00D+00
 Harris functional with IExCor=  402 and IRadAn=       5 diagonalized for initial guess.
 HarFok:  IExCor=  402 AccDes= 0.00D+00 IRadAn=         5 IDoV= 1 UseB2=F ITyADJ=14
 ICtDFT=  3500011 ScaDFX=  1.000000  1.000000  1.000000  1.000000
 FoFCou: FMM=F IPFlag=           0 FMFlag=      100000 FMFlg1=        2001
         NFxFlg=           0 DoJE=T BraDBF=F KetDBF=T FulRan=T
         wScrn=  0.000000 ICntrl=       500 IOpCl=  0 I1Cent=   200000004 NGrid=           0
         NMat0=    1 NMatS0=      1 NMatT0=    0 NMatD0=    1 NMtDS0=    0 NMtDT0=    0
 Petite list used in FoFCou.
 Harris En= -3008.78132287878    
 JPrj=0 DoOrth=F DoCkMO=F.
 Leave Link  401 at Sat Apr 30 04:40:10 2022, MaxMem= 10066329600 cpu:             157.4 elap:               6.6
 (Enter /sw/apps/gaussian-16.0/g16/l502.exe)
 Integral symmetry usage will be decided dynamically.
 Closed shell SCF:
 Using DIIS extrapolation, IDIIS=  1040.
 NGot= 10066329600 LenX= 10062561258 LenY= 10060699398
 Requested convergence on RMS density matrix=1.00D-08 within 128 cycles.
 Requested convergence on MAX density matrix=1.00D-06.
 Requested convergence on             energy=1.00D-06.
 No special actions if energy rises.
 Fock matrices will be formed incrementally for  20 cycles.

 Cycle   1  Pass 1  IDiag  1:
 FoFJK:  IHMeth= 1 ICntrl=     500 DoSepK=F KAlg= 0 I1Cent=           0 FoldK=F
 IRaf= 530000000 NMat=       1 IRICut=       1 DoRegI=T DoRafI=F ISym2E= 0 IDoP0=0 IntGTp=1.
 FoFCou: FMM=T IPFlag=           0 FMFlag=      100000 FMFlg1=        2001
         NFxFlg=           0 DoJE=T BraDBF=F KetDBF=F FulRan=T
         wScrn=  0.000000 ICntrl=       500 IOpCl=  0 I1Cent=           0 NGrid=           0
         NMat0=    1 NMatS0=      1 NMatT0=    0 NMatD0=    1 NMtDS0=    0 NMtDT0=    0
 Symmetry not used in FoFCou.
 FMM levels:  10  Number of levels for PrismC:   9
 E= -3005.68735238736    
 DIIS: error= 2.54D-02 at cycle   1 NSaved=   1.
 NSaved= 1 IEnMin= 1 EnMin= -3005.68735238736     IErMin= 1 ErrMin= 2.54D-02
 ErrMax= 2.54D-02  0.00D+00 EMaxC= 1.00D-01 BMatC= 1.54D+00 BMatP= 1.54D+00
 IDIUse=3 WtCom= 7.46D-01 WtEn= 2.54D-01
 Coeff-Com:  0.100D+01
 Coeff-En:   0.100D+01
 Coeff:      0.100D+01
 Gap=     0.057 Goal=   None    Shift=    0.000
 GapD=    0.057 DampG=0.500 DampE=0.500 DampFc=0.2500 IDamp=-1.
 Damping current iteration by 2.50D-01
 RMSDP=3.80D-03 MaxDP=8.35D-01              OVMax= 9.14D-01

 Cycle   2  Pass 1  IDiag  1:
 RMSU=  9.44D-04    CP:  9.90D-01
 E= -3006.17462446632     Delta-E=       -0.487272078966 Rises=F Damp=T
 DIIS: error= 9.52D-03 at cycle   2 NSaved=   2.
 NSaved= 2 IEnMin= 2 EnMin= -3006.17462446632     IErMin= 2 ErrMin= 9.52D-03
 ErrMax= 9.52D-03  0.00D+00 EMaxC= 1.00D-01 BMatC= 2.61D-01 BMatP= 1.54D+00
 IDIUse=3 WtCom= 9.05D-01 WtEn= 9.52D-02
 Coeff-Com: -0.272D+00 0.127D+01
 Coeff-En:   0.109D+00 0.891D+00
 Coeff:     -0.235D+00 0.124D+01
 Gap=     0.174 Goal=   None    Shift=    0.000
 RMSDP=1.69D-03 MaxDP=2.76D-01 DE=-4.87D-01 OVMax= 5.04D-01

 Cycle   3  Pass 1  IDiag  1:
 RMSU=  1.66D-03    CP:  9.65D-01  1.20D+00
 E= -3004.64865729314     Delta-E=        1.525967173187 Rises=F Damp=F
 DIIS: error= 4.54D-02 at cycle   3 NSaved=   3.
 NSaved= 3 IEnMin= 2 EnMin= -3006.17462446632     IErMin= 2 ErrMin= 9.52D-03
 ErrMax= 4.54D-02  0.00D+00 EMaxC= 1.00D-01 BMatC= 1.87D+00 BMatP= 2.61D-01
 IDIUse=2 WtCom= 0.00D+00 WtEn= 1.00D+00
 Coeff-En:   0.000D+00 0.733D+00 0.267D+00
 Coeff:      0.000D+00 0.733D+00 0.267D+00
 Gap=    -0.024 Goal=   None    Shift=    0.000
 RMSDP=2.16D-03 MaxDP=4.47D-01 DE= 1.53D+00 OVMax= 8.28D-01

 Cycle   4  Pass 1  IDiag  1:
 RMSU=  1.03D-03    CP:  9.69D-01  1.96D+00 -5.50D-02
 E= -3005.01477167164     Delta-E=       -0.366114378503 Rises=F Damp=F
 DIIS: error= 4.33D-02 at cycle   4 NSaved=   4.
 NSaved= 4 IEnMin= 2 EnMin= -3006.17462446632     IErMin= 2 ErrMin= 9.52D-03
 ErrMax= 4.33D-02  0.00D+00 EMaxC= 1.00D-01 BMatC= 1.38D+00 BMatP= 2.61D-01
 IDIUse=2 WtCom= 0.00D+00 WtEn= 1.00D+00
 EnCoef did     2 forward-backward iterations
 Coeff-En:   0.135D+00 0.000D+00 0.402D+00 0.463D+00
 Coeff:      0.135D+00 0.000D+00 0.402D+00 0.463D+00
 Gap=     0.074 Goal=   None    Shift=    0.000
 RMSDP=1.49D-03 MaxDP=3.52D-01 DE=-3.66D-01 OVMax= 8.12D-01

 Cycle   5  Pass 1  IDiag  1:
 RMSU=  7.51D-04    CP:  9.79D-01  1.18D+00  1.48D-01  4.52D-02
 E= -3007.02944111803     Delta-E=       -2.014669446391 Rises=F Damp=F
 DIIS: error= 1.42D-02 at cycle   5 NSaved=   5.
 NSaved= 5 IEnMin= 5 EnMin= -3007.02944111803     IErMin= 2 ErrMin= 9.52D-03
 ErrMax= 1.42D-02  0.00D+00 EMaxC= 1.00D-01 BMatC= 3.25D-01 BMatP= 2.61D-01
 IDIUse=2 WtCom= 0.00D+00 WtEn= 1.00D+00
 EnCoef did     9 forward-backward iterations
 Coeff-En:   0.000D+00 0.000D+00 0.109D+00 0.203D+00 0.687D+00
 Coeff:      0.000D+00 0.000D+00 0.109D+00 0.203D+00 0.687D+00
 Gap=     0.173 Goal=   None    Shift=    0.000
 RMSDP=1.55D-03 MaxDP=1.82D-01 DE=-2.01D+00 OVMax= 7.09D-01

 Cycle   6  Pass 1  IDiag  1:
 RMSU=  1.16D-03    CP:  9.73D-01  9.17D-01  3.35D-01  3.68D-01 -1.67D-01
 E= -3006.05564082320     Delta-E=        0.973800294836 Rises=F Damp=F
 DIIS: error= 2.89D-02 at cycle   6 NSaved=   6.
 NSaved= 6 IEnMin= 5 EnMin= -3007.02944111803     IErMin= 2 ErrMin= 9.52D-03
 ErrMax= 2.89D-02  0.00D+00 EMaxC= 1.00D-01 BMatC= 1.16D+00 BMatP= 2.61D-01
 IDIUse=2 WtCom= 0.00D+00 WtEn= 1.00D+00
 EnCoef did     4 forward-backward iterations
 Coeff-En:   0.000D+00 0.000D+00 0.000D+00 0.532D-01 0.688D+00 0.258D+00
 Coeff:      0.000D+00 0.000D+00 0.000D+00 0.532D-01 0.688D+00 0.258D+00
 Gap=     0.071 Goal=   None    Shift=    0.000
 RMSDP=1.07D-03 MaxDP=1.19D-01 DE= 9.74D-01 OVMax= 6.81D-01

 Cycle   7  Pass 1  IDiag  1:
 RMSU=  6.39D-04    CP:  9.75D-01  1.20D+00  2.11D-01  1.69D-01  4.52D-01
                    CP:  4.87D-01
 E= -3007.23330189750     Delta-E=       -1.177661074304 Rises=F Damp=F
 DIIS: error= 1.11D-02 at cycle   7 NSaved=   7.
 NSaved= 7 IEnMin= 7 EnMin= -3007.23330189750     IErMin= 2 ErrMin= 9.52D-03
 ErrMax= 1.11D-02  0.00D+00 EMaxC= 1.00D-01 BMatC= 1.63D-01 BMatP= 2.61D-01
 IDIUse=3 WtCom= 8.89D-01 WtEn= 1.11D-01
 Coeff-Com: -0.228D-01 0.532D-01 0.222D-01 0.366D-01 0.442D+00 0.138D+00
 Coeff-Com:  0.331D+00
 Coeff-En:   0.000D+00 0.000D+00 0.000D+00 0.000D+00 0.337D+00 0.000D+00
 Coeff-En:   0.663D+00
 Coeff:     -0.203D-01 0.473D-01 0.198D-01 0.325D-01 0.430D+00 0.123D+00
 Coeff:      0.368D+00
 Gap=     0.072 Goal=   None    Shift=    0.000
 RMSDP=5.65D-04 MaxDP=8.66D-02 DE=-1.18D+00 OVMax= 2.38D-01

 Cycle   8  Pass 1  IDiag  1:
 RMSU=  3.57D-04    CP:  9.77D-01  1.16D+00  1.93D-01  1.91D-01  4.24D-01
                    CP:  4.18D-01  3.32D-01
 E= -3007.31527025226     Delta-E=       -0.081968354758 Rises=F Damp=F
 DIIS: error= 5.99D-03 at cycle   8 NSaved=   8.
 NSaved= 8 IEnMin= 8 EnMin= -3007.31527025226     IErMin= 8 ErrMin= 5.99D-03
 ErrMax= 5.99D-03  0.00D+00 EMaxC= 1.00D-01 BMatC= 4.82D-02 BMatP= 1.63D-01
 IDIUse=3 WtCom= 9.40D-01 WtEn= 5.99D-02
 EnCoef did     4 forward-backward iterations
 Coeff-Com:  0.795D-03 0.246D-01 0.592D-02-0.673D-03 0.234D+00 0.110D-01
 Coeff-Com:  0.361D+00 0.363D+00
 Coeff-En:   0.000D+00 0.000D+00 0.000D+00 0.000D+00 0.146D+00 0.000D+00
 Coeff-En:   0.316D+00 0.538D+00
 Coeff:      0.747D-03 0.231D-01 0.557D-02-0.633D-03 0.229D+00 0.103D-01
 Coeff:      0.358D+00 0.373D+00
 Gap=     0.039 Goal=   None    Shift=    0.000
 RMSDP=3.78D-04 MaxDP=3.18D-02 DE=-8.20D-02 OVMax= 2.89D-01

 Cycle   9  Pass 1  IDiag  1:
 RMSU=  1.41D-04    CP:  9.77D-01  1.14D+00  2.01D-01  1.10D-01  6.12D-01
                    CP:  3.41D-01  5.88D-01  3.11D-01
 E= -3007.37603424535     Delta-E=       -0.060763993093 Rises=F Damp=F
 DIIS: error= 1.79D-03 at cycle   9 NSaved=   9.
 NSaved= 9 IEnMin= 9 EnMin= -3007.37603424535     IErMin= 9 ErrMin= 1.79D-03
 ErrMax= 1.79D-03  0.00D+00 EMaxC= 1.00D-01 BMatC= 7.90D-03 BMatP= 4.82D-02
 IDIUse=3 WtCom= 9.82D-01 WtEn= 1.79D-02
 Coeff-Com:  0.108D-01-0.245D-02-0.951D-03-0.204D-03 0.103D+00-0.171D-01
 Coeff-Com:  0.225D+00 0.318D+00 0.363D+00
 Coeff-En:   0.000D+00 0.000D+00 0.000D+00 0.000D+00 0.000D+00 0.000D+00
 Coeff-En:   0.000D+00 0.189D+00 0.811D+00
 Coeff:      0.106D-01-0.240D-02-0.934D-03-0.200D-03 0.101D+00-0.168D-01
 Coeff:      0.221D+00 0.316D+00 0.371D+00
 Gap=     0.045 Goal=   None    Shift=    0.000
 RMSDP=1.31D-04 MaxDP=1.22D-02 DE=-6.08D-02 OVMax= 8.58D-02

 Cycle  10  Pass 1  IDiag  1:
 RMSU=  5.21D-05    CP:  9.77D-01  1.16D+00  1.88D-01  1.31D-01  5.77D-01
                    CP:  3.52D-01  5.57D-01  4.84D-01  3.54D-01
 E= -3007.38520529357     Delta-E=       -0.009171048219 Rises=F Damp=F
 DIIS: error= 7.60D-04 at cycle  10 NSaved=  10.
 NSaved=10 IEnMin=10 EnMin= -3007.38520529357     IErMin=10 ErrMin= 7.60D-04
 ErrMax= 7.60D-04  0.00D+00 EMaxC= 1.00D-01 BMatC= 8.63D-04 BMatP= 7.90D-03
 IDIUse=3 WtCom= 9.92D-01 WtEn= 7.60D-03
 Coeff-Com:  0.129D-01-0.165D-01-0.796D-03 0.300D-02 0.437D-01-0.151D-01
 Coeff-Com:  0.113D+00 0.172D+00 0.273D+00 0.414D+00
 Coeff-En:   0.000D+00 0.000D+00 0.000D+00 0.000D+00 0.000D+00 0.000D+00
 Coeff-En:   0.000D+00 0.000D+00 0.130D+00 0.870D+00
 Coeff:      0.128D-01-0.164D-01-0.790D-03 0.297D-02 0.434D-01-0.149D-01
 Coeff:      0.112D+00 0.171D+00 0.272D+00 0.418D+00
 Gap=     0.045 Goal=   None    Shift=    0.000
 RMSDP=4.60D-05 MaxDP=6.82D-03 DE=-9.17D-03 OVMax= 3.01D-02

 Cycle  11  Pass 1  IDiag  1:
 RMSU=  2.71D-05    CP:  9.77D-01  1.16D+00  1.89D-01  1.32D-01  5.77D-01
                    CP:  3.46D-01  5.64D-01  4.61D-01  4.91D-01  4.37D-01
 E= -3007.38593382801     Delta-E=       -0.000728534440 Rises=F Damp=F
 DIIS: error= 4.61D-04 at cycle  11 NSaved=  11.
 NSaved=11 IEnMin=11 EnMin= -3007.38593382801     IErMin=11 ErrMin= 4.61D-04
 ErrMax= 4.61D-04  0.00D+00 EMaxC= 1.00D-01 BMatC= 2.55D-04 BMatP= 8.63D-04
 IDIUse=3 WtCom= 9.95D-01 WtEn= 4.61D-03
 Coeff-Com:  0.760D-02-0.114D-01-0.668D-03 0.164D-02 0.130D-01-0.755D-02
 Coeff-Com:  0.424D-01 0.680D-01 0.144D+00 0.350D+00 0.393D+00
 Coeff-En:   0.000D+00 0.000D+00 0.000D+00 0.000D+00 0.000D+00 0.000D+00
 Coeff-En:   0.000D+00 0.000D+00 0.000D+00 0.282D+00 0.718D+00
 Coeff:      0.756D-02-0.114D-01-0.665D-03 0.163D-02 0.130D-01-0.751D-02
 Coeff:      0.422D-01 0.677D-01 0.144D+00 0.349D+00 0.394D+00
 Gap=     0.045 Goal=   None    Shift=    0.000
 RMSDP=3.01D-05 MaxDP=3.75D-03 DE=-7.29D-04 OVMax= 2.17D-02

 Cycle  12  Pass 1  IDiag  1:
 RMSU=  1.58D-05    CP:  9.77D-01  1.16D+00  1.90D-01  1.29D-01  5.81D-01
                    CP:  3.48D-01  5.64D-01  4.60D-01  4.69D-01  6.40D-01
                    CP:  1.85D-01
 E= -3007.38610483949     Delta-E=       -0.000171011479 Rises=F Damp=F
 DIIS: error= 2.75D-04 at cycle  12 NSaved=  12.
 NSaved=12 IEnMin=12 EnMin= -3007.38610483949     IErMin=12 ErrMin= 2.75D-04
 ErrMax= 2.75D-04  0.00D+00 EMaxC= 1.00D-01 BMatC= 1.05D-04 BMatP= 2.55D-04
 IDIUse=3 WtCom= 9.97D-01 WtEn= 2.75D-03
 Coeff-Com:  0.322D-02-0.537D-02-0.580D-03 0.106D-02 0.252D-02-0.188D-02
 Coeff-Com:  0.106D-01 0.183D-01 0.625D-01 0.208D+00 0.367D+00 0.335D+00
 Coeff-En:   0.000D+00 0.000D+00 0.000D+00 0.000D+00 0.000D+00 0.000D+00
 Coeff-En:   0.000D+00 0.000D+00 0.000D+00 0.000D+00 0.369D+00 0.631D+00
 Coeff:      0.321D-02-0.535D-02-0.578D-03 0.105D-02 0.251D-02-0.187D-02
 Coeff:      0.105D-01 0.183D-01 0.623D-01 0.208D+00 0.367D+00 0.336D+00
 Gap=     0.045 Goal=   None    Shift=    0.000
 RMSDP=1.58D-05 MaxDP=1.92D-03 DE=-1.71D-04 OVMax= 1.06D-02

 Cycle  13  Pass 1  IDiag  1:
 RMSU=  5.14D-06    CP:  9.77D-01  1.16D+00  1.89D-01  1.31D-01  5.78D-01
                    CP:  3.48D-01  5.65D-01  4.62D-01  4.68D-01  5.92D-01
                    CP:  4.86D-01  2.59D-01
 E= -3007.38624515591     Delta-E=       -0.000140316424 Rises=F Damp=F
 DIIS: error= 5.38D-05 at cycle  13 NSaved=  13.
 NSaved=13 IEnMin=13 EnMin= -3007.38624515591     IErMin=13 ErrMin= 5.38D-05
 ErrMax= 5.38D-05  0.00D+00 EMaxC= 1.00D-01 BMatC= 1.04D-05 BMatP= 1.05D-04
 IDIUse=1 WtCom= 1.00D+00 WtEn= 0.00D+00
 Coeff-Com:  0.879D-03-0.115D-02-0.309D-03 0.296D-03 0.135D-03-0.318D-03
 Coeff-Com:  0.248D-02 0.490D-02 0.286D-01 0.109D+00 0.230D+00 0.261D+00
 Coeff-Com:  0.364D+00
 Coeff:      0.879D-03-0.115D-02-0.309D-03 0.296D-03 0.135D-03-0.318D-03
 Coeff:      0.248D-02 0.490D-02 0.286D-01 0.109D+00 0.230D+00 0.261D+00
 Coeff:      0.364D+00
 Gap=     0.045 Goal=   None    Shift=    0.000
 RMSDP=4.26D-06 MaxDP=4.90D-04 DE=-1.40D-04 OVMax= 2.04D-03

 Cycle  14  Pass 1  IDiag  1:
 RMSU=  1.55D-06    CP:  9.77D-01  1.16D+00  1.89D-01  1.31D-01  5.79D-01
                    CP:  3.48D-01  5.64D-01  4.62D-01  4.73D-01  5.95D-01
                    CP:  4.64D-01  3.80D-01  3.71D-01
 E= -3007.38625659860     Delta-E=       -0.000011442689 Rises=F Damp=F
 DIIS: error= 2.03D-05 at cycle  14 NSaved=  14.
 NSaved=14 IEnMin=14 EnMin= -3007.38625659860     IErMin=14 ErrMin= 2.03D-05
 ErrMax= 2.03D-05  0.00D+00 EMaxC= 1.00D-01 BMatC= 9.29D-07 BMatP= 1.04D-05
 IDIUse=1 WtCom= 1.00D+00 WtEn= 0.00D+00
 Coeff-Com:  0.255D-03-0.155D-03-0.168D-03 0.118D-03-0.252D-04-0.502D-04
 Coeff-Com:  0.977D-03 0.184D-02 0.141D-01 0.541D-01 0.123D+00 0.147D+00
 Coeff-Com:  0.261D+00 0.398D+00
 Coeff:      0.255D-03-0.155D-03-0.168D-03 0.118D-03-0.252D-04-0.502D-04
 Coeff:      0.977D-03 0.184D-02 0.141D-01 0.541D-01 0.123D+00 0.147D+00
 Coeff:      0.261D+00 0.398D+00
 Gap=     0.045 Goal=   None    Shift=    0.000
 RMSDP=1.26D-06 MaxDP=1.70D-04 DE=-1.14D-05 OVMax= 4.79D-04

 Cycle  15  Pass 1  IDiag  1:
 RMSU=  6.60D-07    CP:  9.77D-01  1.16D+00  1.89D-01  1.31D-01  5.79D-01
                    CP:  3.48D-01  5.64D-01  4.62D-01  4.72D-01  5.94D-01
                    CP:  4.67D-01  3.63D-01  4.25D-01  4.05D-01
 E= -3007.38625749568     Delta-E=       -0.000000897080 Rises=F Damp=F
 DIIS: error= 7.16D-06 at cycle  15 NSaved=  15.
 NSaved=15 IEnMin=15 EnMin= -3007.38625749568     IErMin=15 ErrMin= 7.16D-06
 ErrMax= 7.16D-06  0.00D+00 EMaxC= 1.00D-01 BMatC= 1.53D-07 BMatP= 9.29D-07
 IDIUse=1 WtCom= 1.00D+00 WtEn= 0.00D+00
 Coeff-Com: -0.519D-05 0.180D-03-0.738D-04 0.472D-04-0.338D-04 0.230D-06
 Coeff-Com:  0.352D-03 0.434D-03 0.536D-02 0.195D-01 0.478D-01 0.608D-01
 Coeff-Com:  0.127D+00 0.293D+00 0.446D+00
 Coeff:     -0.519D-05 0.180D-03-0.738D-04 0.472D-04-0.338D-04 0.230D-06
 Coeff:      0.352D-03 0.434D-03 0.536D-02 0.195D-01 0.478D-01 0.608D-01
 Coeff:      0.127D+00 0.293D+00 0.446D+00
 Gap=     0.045 Goal=   None    Shift=    0.000
 RMSDP=4.92D-07 MaxDP=4.90D-05 DE=-8.97D-07 OVMax= 1.95D-04

 Cycle  16  Pass 1  IDiag  1:
 RMSU=  2.88D-07    CP:  9.77D-01  1.16D+00  1.89D-01  1.31D-01  5.79D-01
                    CP:  3.48D-01  5.64D-01  4.62D-01  4.72D-01  5.95D-01
                    CP:  4.68D-01  3.66D-01  4.17D-01  4.86D-01  5.22D-01
 E= -3007.38625762122     Delta-E=       -0.000000125534 Rises=F Damp=F
 DIIS: error= 5.03D-06 at cycle  16 NSaved=  16.
 NSaved=16 IEnMin=16 EnMin= -3007.38625762122     IErMin=16 ErrMin= 5.03D-06
 ErrMax= 5.03D-06  0.00D+00 EMaxC= 1.00D-01 BMatC= 3.56D-08 BMatP= 1.53D-07
 IDIUse=1 WtCom= 1.00D+00 WtEn= 0.00D+00
 Coeff-Com: -0.631D-04 0.197D-03-0.355D-04 0.182D-04-0.461D-05-0.105D-04
 Coeff-Com:  0.187D-03 0.704D-04 0.149D-02 0.393D-02 0.110D-01 0.163D-01
 Coeff-Com:  0.440D-01 0.148D+00 0.339D+00 0.436D+00
 Coeff:     -0.631D-04 0.197D-03-0.355D-04 0.182D-04-0.461D-05-0.105D-04
 Coeff:      0.187D-03 0.704D-04 0.149D-02 0.393D-02 0.110D-01 0.163D-01
 Coeff:      0.440D-01 0.148D+00 0.339D+00 0.436D+00
 Gap=     0.045 Goal=   None    Shift=    0.000
 RMSDP=2.27D-07 MaxDP=2.99D-05 DE=-1.26D-07 OVMax= 6.32D-05

 Cycle  17  Pass 1  IDiag  1:
 RMSU=  1.35D-07    CP:  9.77D-01  1.16D+00  1.89D-01  1.31D-01  5.79D-01
                    CP:  3.48D-01  5.64D-01  4.62D-01  4.73D-01  5.94D-01
                    CP:  4.67D-01  3.66D-01  4.23D-01  4.68D-01  5.83D-01
                    CP:  5.17D-01
 E= -3007.38625765248     Delta-E=       -0.000000031261 Rises=F Damp=F
 DIIS: error= 2.67D-06 at cycle  17 NSaved=  17.
 NSaved=17 IEnMin=17 EnMin= -3007.38625765248     IErMin=17 ErrMin= 2.67D-06
 ErrMax= 2.67D-06  0.00D+00 EMaxC= 1.00D-01 BMatC= 8.07D-09 BMatP= 3.56D-08
 IDIUse=1 WtCom= 1.00D+00 WtEn= 0.00D+00
 Coeff-Com: -0.593D-04 0.136D-03-0.173D-04 0.553D-05 0.630D-05-0.569D-05
 Coeff-Com:  0.894D-04-0.557D-04-0.334D-04-0.153D-02-0.313D-02-0.164D-02
 Coeff-Com:  0.330D-02 0.441D-01 0.140D+00 0.316D+00 0.502D+00
 Coeff:     -0.593D-04 0.136D-03-0.173D-04 0.553D-05 0.630D-05-0.569D-05
 Coeff:      0.894D-04-0.557D-04-0.334D-04-0.153D-02-0.313D-02-0.164D-02
 Coeff:      0.330D-02 0.441D-01 0.140D+00 0.316D+00 0.502D+00
 Gap=     0.045 Goal=   None    Shift=    0.000
 RMSDP=1.00D-07 MaxDP=1.06D-05 DE=-3.13D-08 OVMax= 2.78D-05

 Cycle  18  Pass 1  IDiag  1:
 RMSU=  6.98D-08    CP:  9.77D-01  1.16D+00  1.89D-01  1.31D-01  5.79D-01
                    CP:  3.48D-01  5.64D-01  4.62D-01  4.73D-01  5.94D-01
                    CP:  4.66D-01  3.67D-01  4.24D-01  4.80D-01  5.56D-01
                    CP:  5.87D-01  6.85D-01
 E= -3007.38625765829     Delta-E=       -0.000000005817 Rises=F Damp=F
 DIIS: error= 1.43D-06 at cycle  18 NSaved=  18.
 NSaved=18 IEnMin=18 EnMin= -3007.38625765829     IErMin=18 ErrMin= 1.43D-06
 ErrMax= 1.43D-06  0.00D+00 EMaxC= 1.00D-01 BMatC= 2.11D-09 BMatP= 8.07D-09
 IDIUse=1 WtCom= 1.00D+00 WtEn= 0.00D+00
 Coeff-Com: -0.364D-04 0.696D-04-0.614D-05 0.598D-06 0.766D-05-0.161D-05
 Coeff-Com:  0.340D-04-0.605D-04-0.419D-03-0.242D-02-0.589D-02-0.619D-02
 Coeff-Com: -0.102D-01-0.787D-02 0.615D-02 0.113D+00 0.366D+00 0.548D+00
 Coeff:     -0.364D-04 0.696D-04-0.614D-05 0.598D-06 0.766D-05-0.161D-05
 Coeff:      0.340D-04-0.605D-04-0.419D-03-0.242D-02-0.589D-02-0.619D-02
 Coeff:     -0.102D-01-0.787D-02 0.615D-02 0.113D+00 0.366D+00 0.548D+00
 Gap=     0.045 Goal=   None    Shift=    0.000
 RMSDP=5.63D-08 MaxDP=4.91D-06 DE=-5.82D-09 OVMax= 1.44D-05

 Cycle  19  Pass 1  IDiag  1:
 RMSU=  4.27D-08    CP:  9.77D-01  1.16D+00  1.89D-01  1.31D-01  5.79D-01
                    CP:  3.48D-01  5.64D-01  4.62D-01  4.73D-01  5.94D-01
                    CP:  4.66D-01  3.67D-01  4.24D-01  4.80D-01  5.60D-01
                    CP:  6.06D-01  8.06D-01  7.10D-01
 E= -3007.38625766010     Delta-E=       -0.000000001804 Rises=F Damp=F
 DIIS: error= 6.18D-07 at cycle  19 NSaved=  19.
 NSaved=19 IEnMin=19 EnMin= -3007.38625766010     IErMin=19 ErrMin= 6.18D-07
 ErrMax= 6.18D-07  0.00D+00 EMaxC= 1.00D-01 BMatC= 5.83D-10 BMatP= 2.11D-09
 IDIUse=1 WtCom= 1.00D+00 WtEn= 0.00D+00
 Coeff-Com: -0.149D-04 0.247D-04-0.202D-05 0.339D-06 0.377D-05-0.193D-05
 Coeff-Com:  0.144D-04-0.303D-04-0.283D-03-0.145D-02-0.372D-02-0.426D-02
 Coeff-Com: -0.844D-02-0.163D-01-0.298D-01 0.847D-02 0.151D+00 0.425D+00
 Coeff-Com:  0.480D+00
 Coeff:     -0.149D-04 0.247D-04-0.202D-05 0.339D-06 0.377D-05-0.193D-05
 Coeff:      0.144D-04-0.303D-04-0.283D-03-0.145D-02-0.372D-02-0.426D-02
 Coeff:     -0.844D-02-0.163D-01-0.298D-01 0.847D-02 0.151D+00 0.425D+00
 Coeff:      0.480D+00
 Gap=     0.045 Goal=   None    Shift=    0.000
 RMSDP=3.01D-08 MaxDP=3.02D-06 DE=-1.80D-09 OVMax= 8.48D-06

 Cycle  20  Pass 1  IDiag  1:
 RMSU=  1.81D-08    CP:  9.77D-01  1.16D+00  1.89D-01  1.31D-01  5.79D-01
                    CP:  3.48D-01  5.64D-01  4.62D-01  4.73D-01  5.94D-01
                    CP:  4.66D-01  3.67D-01  4.23D-01  4.81D-01  5.59D-01
                    CP:  6.26D-01  8.34D-01  8.53D-01  6.49D-01
 E= -3007.38625766055     Delta-E=       -0.000000000451 Rises=F Damp=F
 DIIS: error= 3.29D-07 at cycle  20 NSaved=  20.
 NSaved=20 IEnMin=20 EnMin= -3007.38625766055     IErMin=20 ErrMin= 3.29D-07
 ErrMax= 3.29D-07  0.00D+00 EMaxC= 1.00D-01 BMatC= 1.19D-10 BMatP= 5.83D-10
 IDIUse=1 WtCom= 1.00D+00 WtEn= 0.00D+00
 Coeff-Com: -0.420D-05 0.537D-05-0.595D-06-0.429D-08 0.160D-05-0.111D-05
 Coeff-Com:  0.524D-05-0.106D-04-0.119D-03-0.578D-03-0.157D-02-0.188D-02
 Coeff-Com: -0.426D-02-0.109D-01-0.254D-01-0.212D-01 0.284D-01 0.195D+00
 Coeff-Com:  0.366D+00 0.477D+00
 Coeff:     -0.420D-05 0.537D-05-0.595D-06-0.429D-08 0.160D-05-0.111D-05
 Coeff:      0.524D-05-0.106D-04-0.119D-03-0.578D-03-0.157D-02-0.188D-02
 Coeff:     -0.426D-02-0.109D-01-0.254D-01-0.212D-01 0.284D-01 0.195D+00
 Coeff:      0.366D+00 0.477D+00
 Gap=     0.045 Goal=   None    Shift=    0.000
 RMSDP=1.49D-08 MaxDP=2.07D-06 DE=-4.51D-10 OVMax= 4.25D-06

 Cycle  21  Pass 1  IDiag  1:
 Restarting incremental Fock formation.
 E= -3007.38625766077     Delta-E=       -0.000000000216 Rises=F Damp=F
 DIIS: error= 9.98D-08 at cycle  21 NSaved=  20.
 NSaved=20 IEnMin=20 EnMin= -3007.38625766077     IErMin=20 ErrMin= 9.98D-08
 ErrMax= 9.98D-08  0.00D+00 EMaxC= 1.00D-01 BMatC= 2.32D-11 BMatP= 1.19D-10
 IDIUse=1 WtCom= 1.00D+00 WtEn= 0.00D+00
 Coeff-Com: -0.660D-06-0.354D-06 0.251D-07 0.801D-06-0.290D-06 0.103D-05
 Coeff-Com: -0.444D-05-0.443D-04-0.195D-03-0.557D-03-0.702D-03-0.182D-02
 Coeff-Com: -0.563D-02-0.146D-01-0.188D-01-0.710D-02 0.692D-01 0.194D+00
 Coeff-Com:  0.370D+00 0.416D+00
 Coeff:     -0.660D-06-0.354D-06 0.251D-07 0.801D-06-0.290D-06 0.103D-05
 Coeff:     -0.444D-05-0.443D-04-0.195D-03-0.557D-03-0.702D-03-0.182D-02
 Coeff:     -0.563D-02-0.146D-01-0.188D-01-0.710D-02 0.692D-01 0.194D+00
 Coeff:      0.370D+00 0.416D+00
 Gap=     0.045 Goal=   None    Shift=    0.000
 RMSDP=6.05D-09 MaxDP=8.10D-07 DE=-2.16D-10 OVMax= 1.67D-06

 SCF Done:  E(RB-LYP) =  -3007.38625766     A.U. after   21 cycles
            NFock= 21  Conv=0.61D-08     -V/T= 2.0098
 KE= 2.978115710223D+03 PE=-2.657066078003D+04 EE= 1.079781826275D+04
 Leave Link  502 at Sat Apr 30 04:44:34 2022, MaxMem= 10066329600 cpu:            6326.0 elap:             264.7
 (Enter /sw/apps/gaussian-16.0/g16/l801.exe)
 DoSCS=F DFT=T ScalE2(SS,OS)=  1.000000  1.000000
 ExpMin= 3.36D-02 ExpMax= 4.95D+03 ExpMxC= 7.45D+02 IAcc=3 IRadAn=         5 AccDes= 0.00D+00
 HarFok:  IExCor=  205 AccDes= 0.00D+00 IRadAn=         5 IDoV=-2 UseB2=F ITyADJ=14
 ICtDFT= 12500011 ScaDFX=  1.000000  1.000000  1.000000  1.000000
 GSVD:  LWork=       -5460 too small for GESVD, short by       25550 words or       25550 for optimal perf.
 Largest valence mixing into a core orbital is  1.44D-04
 Largest core mixing into a valence orbital is  4.68D-05
 Range of M.O.s used for correlation:    71  1298
 NBasis=  1298 NAE=   246 NBE=   246 NFC=    70 NFV=     0
 NROrb=   1228 NOA=   176 NOB=   176 NVA=  1052 NVB=  1052

 **** Warning!!: The smallest alpha delta epsilon is  0.44863008D-01

 Leave Link  801 at Sat Apr 30 04:44:35 2022, MaxMem= 10066329600 cpu:               9.2 elap:               0.4
 (Enter /sw/apps/gaussian-16.0/g16/l914.exe)
 RHF ground state
 Two-electron integrals replicated using symmetry.
 MDV= 10066329600 DFT=T DoStab=F Mixed=F DoRPA=T DoScal=T NonHer=F
 Making orbital integer symmetry assigments:
 Orbital symmetries:
       Occupied  (A) (A) (A) (A) (A) (A) (A) (A) (A) (A) (A) (A)
                 (A) (A) (A) (A) (A) (A) (A) (A) (A) (A) (A) (A)
                 (A) (A) (A) (A) (A) (A) (A) (A) (A) (A) (A) (A)
                 (A) (A) (A) (A) (A) (A) (A) (A) (A) (A) (A) (A)
                 (A) (A) (A) (A) (A) (A) (A) (A) (A) (A) (A) (A)
                 (A) (A) (A) (A) (A) (A) (A) (A) (A) (A) (A) (A)
                 (A) (A) (A) (A) (A) (A) (A) (A) (A) (A) (A) (A)
                 (A) (A) (A) (A) (A) (A) (A) (A) (A) (A) (A) (A)
                 (A) (A) (A) (A) (A) (A) (A) (A) (A) (A) (A) (A)
                 (A) (A) (A) (A) (A) (A) (A) (A) (A) (A) (A) (A)
                 (A) (A) (A) (A) (A) (A) (A) (A) (A) (A) (A) (A)
                 (A) (A) (A) (A) (A) (A) (A) (A) (A) (A) (A) (A)
                 (A) (A) (A) (A) (A) (A) (A) (A) (A) (A) (A) (A)
                 (A) (A) (A) (A) (A) (A) (A) (A) (A) (A) (A) (A)
                 (A) (A) (A) (A) (A) (A) (A) (A) (A) (A) (A) (A)
                 (A) (A) (A) (A) (A) (A) (A) (A) (A) (A) (A) (A)
                 (A) (A) (A) (A) (A) (A) (A) (A) (A) (A) (A) (A)
                 (A) (A) (A) (A) (A) (A) (A) (A) (A) (A) (A) (A)
                 (A) (A) (A) (A) (A) (A) (A) (A) (A) (A) (A) (A)
                 (A) (A) (A) (A) (A) (A) (A) (A) (A) (A) (A) (A)
                 (A) (A) (A) (A) (A) (A)
       Virtual   (A) (A) (A) (A) (A) (A) (A) (A) (A) (A) (A) (A)
                 (A) (A) (A) (A) (A) (A) (A) (A) (A) (A) (A) (A)
                 (A) (A) (A) (A) (A) (A) (A) (A) (A) (A) (A) (A)
                 (A) (A) (A) (A) (A) (A) (A) (A) (A) (A) (A) (A)
                 (A) (A) (A) (A) (A) (A) (A) (A) (A) (A) (A) (A)
                 (A) (A) (A) (A) (A) (A) (A) (A) (A) (A) (A) (A)
                 (A) (A) (A) (A) (A) (A) (A) (A) (A) (A) (A) (A)
                 (A) (A) (A) (A) (A) (A) (A) (A) (A) (A) (A) (A)
                 (A) (A) (A) (A) (A) (A) (A) (A) (A) (A) (A) (A)
                 (A) (A) (A) (A) (A) (A) (A) (A) (A) (A) (A) (A)
                 (A) (A) (A) (A) (A) (A) (A) (A) (A) (A) (A) (A)
                 (A) (A) (A) (A) (A) (A) (A) (A) (A) (A) (A) (A)
                 (A) (A) (A) (A) (A) (A) (A) (A) (A) (A) (A) (A)
                 (A) (A) (A) (A) (A) (A) (A) (A) (A) (A) (A) (A)
                 (A) (A) (A) (A) (A) (A) (A) (A) (A) (A) (A) (A)
                 (A) (A) (A) (A) (A) (A) (A) (A) (A) (A) (A) (A)
                 (A) (A) (A) (A) (A) (A) (A) (A) (A) (A) (A) (A)
                 (A) (A) (A) (A) (A) (A) (A) (A) (A) (A) (A) (A)
                 (A) (A) (A) (A) (A) (A) (A) (A) (A) (A) (A) (A)
                 (A) (A) (A) (A) (A) (A) (A) (A) (A) (A) (A) (A)
                 (A) (A) (A) (A) (A) (A) (A) (A) (A) (A) (A) (A)
                 (A) (A) (A) (A) (A) (A) (A) (A) (A) (A) (A) (A)
                 (A) (A) (A) (A) (A) (A) (A) (A) (A) (A) (A) (A)
                 (A) (A) (A) (A) (A) (A) (A) (A) (A) (A) (A) (A)
                 (A) (A) (A) (A) (A) (A) (A) (A) (A) (A) (A) (A)
                 (A) (A) (A) (A) (A) (A) (A) (A) (A) (A) (A) (A)
                 (A) (A) (A) (A) (A) (A) (A) (A) (A) (A) (A) (A)
                 (A) (A) (A) (A) (A) (A) (A) (A) (A) (A) (A) (A)
                 (A) (A) (A) (A) (A) (A) (A) (A) (A) (A) (A) (A)
                 (A) (A) (A) (A) (A) (A) (A) (A) (A) (A) (A) (A)
                 (A) (A) (A) (A) (A) (A) (A) (A) (A) (A) (A) (A)
                 (A) (A) (A) (A) (A) (A) (A) (A) (A) (A) (A) (A)
                 (A) (A) (A) (A) (A) (A) (A) (A) (A) (A) (A) (A)
                 (A) (A) (A) (A) (A) (A) (A) (A) (A) (A) (A) (A)
                 (A) (A) (A) (A) (A) (A) (A) (A) (A) (A) (A) (A)
                 (A) (A) (A) (A) (A) (A) (A) (A) (A) (A) (A) (A)
                 (A) (A) (A) (A) (A) (A) (A) (A) (A) (A) (A) (A)
                 (A) (A) (A) (A) (A) (A) (A) (A) (A) (A) (A) (A)
                 (A) (A) (A) (A) (A) (A) (A) (A) (A) (A) (A) (A)
                 (A) (A) (A) (A) (A) (A) (A) (A) (A) (A) (A) (A)
                 (A) (A) (A) (A) (A) (A) (A) (A) (A) (A) (A) (A)
                 (A) (A) (A) (A) (A) (A) (A) (A) (A) (A) (A) (A)
                 (A) (A) (A) (A) (A) (A) (A) (A) (A) (A) (A) (A)
                 (A) (A) (A) (A) (A) (A) (A) (A) (A) (A) (A) (A)
                 (A) (A) (A) (A) (A) (A) (A) (A) (A) (A) (A) (A)
                 (A) (A) (A) (A) (A) (A) (A) (A) (A) (A) (A) (A)
                 (A) (A) (A) (A) (A) (A) (A) (A) (A) (A) (A) (A)
                 (A) (A) (A) (A) (A) (A) (A) (A) (A) (A) (A) (A)
                 (A) (A) (A) (A) (A) (A) (A) (A) (A) (A) (A) (A)
                 (A) (A) (A) (A) (A) (A) (A) (A) (A) (A) (A) (A)
                 (A) (A) (A) (A) (A) (A) (A) (A) (A) (A) (A) (A)
                 (A) (A) (A) (A) (A) (A) (A) (A) (A) (A) (A) (A)
                 (A) (A) (A) (A) (A) (A) (A) (A) (A) (A) (A) (A)
                 (A) (A) (A) (A) (A) (A) (A) (A) (A) (A) (A) (A)
                 (A) (A) (A) (A) (A) (A) (A) (A) (A) (A) (A) (A)
                 (A) (A) (A) (A) (A) (A) (A) (A) (A) (A) (A) (A)
                 (A) (A) (A) (A) (A) (A) (A) (A) (A) (A) (A) (A)
                 (A) (A) (A) (A) (A) (A) (A) (A) (A) (A) (A) (A)
                 (A) (A) (A) (A) (A) (A) (A) (A) (A) (A) (A) (A)
                 (A) (A) (A) (A) (A) (A) (A) (A) (A) (A) (A) (A)
                 (A) (A) (A) (A) (A) (A) (A) (A) (A) (A) (A) (A)
                 (A) (A) (A) (A) (A) (A) (A) (A) (A) (A) (A) (A)
                 (A) (A) (A) (A) (A) (A) (A) (A) (A) (A) (A) (A)
                 (A) (A) (A) (A) (A) (A) (A) (A) (A) (A) (A) (A)
                 (A) (A) (A) (A) (A) (A) (A) (A) (A) (A) (A) (A)
                 (A) (A) (A) (A) (A) (A) (A) (A) (A) (A) (A) (A)
                 (A) (A) (A) (A) (A) (A) (A) (A) (A) (A) (A) (A)
                 (A) (A) (A) (A) (A) (A) (A) (A) (A) (A) (A) (A)
                 (A) (A) (A) (A) (A) (A) (A) (A) (A) (A) (A) (A)
                 (A) (A) (A) (A) (A) (A) (A) (A) (A) (A) (A) (A)
                 (A) (A) (A) (A) (A) (A) (A) (A) (A) (A) (A) (A)
                 (A) (A) (A) (A) (A) (A) (A) (A) (A) (A) (A) (A)
                 (A) (A) (A) (A) (A) (A) (A) (A) (A) (A) (A) (A)
                 (A) (A) (A) (A) (A) (A) (A) (A) (A) (A) (A) (A)
                 (A) (A) (A) (A) (A) (A) (A) (A) (A) (A) (A) (A)
                 (A) (A) (A) (A) (A) (A) (A) (A) (A) (A) (A) (A)
                 (A) (A) (A) (A) (A) (A) (A) (A) (A) (A) (A) (A)
                 (A) (A) (A) (A) (A) (A) (A) (A) (A) (A) (A) (A)
                 (A) (A) (A) (A) (A) (A) (A) (A) (A) (A) (A) (A)
                 (A) (A) (A) (A) (A) (A) (A) (A) (A) (A) (A) (A)
                 (A) (A) (A) (A) (A) (A) (A) (A) (A) (A) (A) (A)
                 (A) (A) (A) (A) (A) (A) (A) (A) (A) (A) (A) (A)
                 (A) (A) (A) (A) (A) (A) (A) (A) (A) (A) (A) (A)
                 (A) (A) (A) (A) (A) (A) (A) (A) (A) (A) (A) (A)
                 (A) (A) (A) (A) (A) (A) (A) (A) (A) (A) (A) (A)
                 (A) (A) (A) (A) (A) (A) (A) (A) (A) (A) (A) (A)
                 (A) (A) (A) (A) (A) (A) (A) (A) (A) (A) (A) (A)
                 (A) (A) (A) (A) (A) (A) (A) (A)
    20 initial guesses have been made.
 Convergence on wavefunction:    0.001000000000000
 Davidson Disk Diagonalization:  ConvIn= 1.00D-03 SkipCon=T Conv= 1.00D-03.
 Max sub-space:  2000 roots to seek:    20 dimension of matrix:       370304
 Iteration     1 Dimension    20 NMult     0 NNew     20
 CISAX will form    20 AO SS matrices at one time.
 NMat=    20 NSing=    20 JSym2X= 0.
 FoFJK:  IHMeth= 1 ICntrl=     500 DoSepK=F KAlg= 0 I1Cent=           0 FoldK=F
 IRaf= 530000000 NMat=      20 IRICut=       1 DoRegI=T DoRafI=F ISym2E= 0 IDoP0=0 IntGTp=1.
 FoFCou: FMM=T IPFlag=           0 FMFlag=      100000 FMFlg1=        2001
         NFxFlg=           0 DoJE=F BraDBF=F KetDBF=F FulRan=T
         wScrn=  0.000000 ICntrl=       500 IOpCl=  0 I1Cent=           0 NGrid=           0
         NMat0=   20 NMatS0=     20 NMatT0=    0 NMatD0=   20 NMtDS0=    0 NMtDT0=    0
 Symmetry not used in FoFCou.
 FMM levels:  10  Number of levels for PrismC:   9
 New state      1 was old state      3
 New state      2 was old state      4
 New state      3 was old state      1
 New state      4 was old state      5
 New state      5 was old state      2
 Excitation Energies [eV] at current iteration:
 Root      1 :     1.626997087779114
 Root      2 :     1.976367572893086
 Root      3 :     2.198556182435857
 Root      4 :     2.222123818994030
 Root      5 :     2.368948319150044
 Root      6 :     2.704469364048087
 Root      7 :     2.780066663339292
 Root      8 :     2.978106778890077
 Root      9 :     3.011964756706617
 Root     10 :     3.049058072801285
 Root     11 :     3.091256500542110
 Root     12 :     3.208755064653511
 Root     13 :     3.238666924403897
 Root     14 :     3.295569652345244
 Root     15 :     3.309784250709684
 Root     16 :     3.548999521424960
 Root     17 :     3.626560367040649
 Root     18 :     4.131845833594235
 Root     19 :     4.158617925438574
 Root     20 :     4.416151495955088
 Iteration     2 Dimension    40 NMult    20 NNew     20
 CISAX will form    20 AO SS matrices at one time.
 NMat=    20 NSing=    20 JSym2X= 0.
 Root      1 not converged, maximum delta is    0.009022076082641
 Root      2 not converged, maximum delta is    0.393966733622019
 Root      3 not converged, maximum delta is    0.338045774164006
 New state      4 was old state      5
 Root      4 not converged, maximum delta is    0.141567098514160
 New state      5 was old state      4
 Root      5 not converged, maximum delta is    0.075278222322217
 Excitation Energies [eV] at current iteration:
 Root      1 :     1.623810463058598   Change is   -0.003186624720516
 Root      2 :     1.925711779714076   Change is   -0.050655793179009
 Root      3 :     1.965253365924558   Change is   -0.233302816511299
 Root      4 :     2.148219809642912   Change is   -0.220728509507132
 Root      5 :     2.221837439791949   Change is   -0.000286379202081
 Root      6 :     2.512478304603035   Change is   -0.191991059445051
 Root      7 :     2.741084456988686   Change is   -0.350172043553424
 Root      8 :     2.747961992121734   Change is   -0.032104671217558
 Root      9 :     2.940201467937712   Change is   -0.071763288768905
 Root     10 :     2.974693025410689   Change is   -0.003413753479388
 Root     11 :     3.049050833225829   Change is   -0.000007239575456
 Root     12 :     3.075711886901827   Change is   -0.133043177751684
 Root     13 :     3.131248559138279   Change is   -0.417750962286680
 Root     14 :     3.226965194438587   Change is   -0.011701729965311
 Root     15 :     3.259710790753611   Change is   -0.035858861591633
 Root     16 :     3.292242276799911   Change is   -0.334318090240739
 Root     17 :     3.327704532239992   Change is    0.017920281530308
 Root     18 :     3.510778912994271   Change is   -0.647839012444304
 Root     19 :     3.765873246092666   Change is   -0.365972587501568
 Root     20 :     4.014744255256973   Change is   -0.401407240698115
 Iteration     3 Dimension    45 NMult    40 NNew      5
 CISAX will form     5 AO SS matrices at one time.
 NMat=     5 NSing=     5 JSym2X= 0.
 Root      1 not converged, maximum delta is    0.004436153263399
 Root      2 not converged, maximum delta is    0.172272013709757
 Root      3 not converged, maximum delta is    0.185934964473405
 Root      4 not converged, maximum delta is    0.043115243881065
 Root      5 not converged, maximum delta is    0.003881604081688
 Excitation Energies [eV] at current iteration:
 Root      1 :     1.622852932481416   Change is   -0.000957530577182
 Root      2 :     1.891177194760907   Change is   -0.034534584953169
 Root      3 :     1.943568008287789   Change is   -0.021685357636770
 Root      4 :     2.118828462458990   Change is   -0.029391347183922
 Root      5 :     2.221818077999202   Change is   -0.000019361792748
 Iteration     4 Dimension    50 NMult    45 NNew      5
 CISAX will form     5 AO SS matrices at one time.
 NMat=     5 NSing=     5 JSym2X= 0.
 Root      1 not converged, maximum delta is    0.001951213407615
 Root      2 not converged, maximum delta is    0.044419623707414
 Root      3 not converged, maximum delta is    0.047778847838182
 Root      4 not converged, maximum delta is    0.018722855655167
 Root      5 has converged.
 Excitation Energies [eV] at current iteration:
 Root      1 :     1.622582334609319   Change is   -0.000270597872097
 Root      2 :     1.876500462463390   Change is   -0.014676732297517
 Root      3 :     1.936275177544132   Change is   -0.007292830743657
 Root      4 :     2.108114001959327   Change is   -0.010714460499663
 Root      5 :     2.221812479321661   Change is   -0.000005598677540
 Iteration     5 Dimension    54 NMult    50 NNew      4
 CISAX will form     4 AO SS matrices at one time.
 NMat=     4 NSing=     4 JSym2X= 0.
 Root      1 has converged.
 Root      2 not converged, maximum delta is    0.011442961440955
 Root      3 not converged, maximum delta is    0.012269543171017
 Root      4 not converged, maximum delta is    0.005347190277178
 Root      5 has converged.
 Excitation Energies [eV] at current iteration:
 Root      1 :     1.622516913581948   Change is   -0.000065421027371
 Root      2 :     1.871626515164433   Change is   -0.004873947298957
 Root      3 :     1.933962019809444   Change is   -0.002313157734687
 Root      4 :     2.105016187355794   Change is   -0.003097814603533
 Root      5 :     2.221811083991642   Change is   -0.000001395330020
 Iteration     6 Dimension    57 NMult    54 NNew      3
 CISAX will form     3 AO SS matrices at one time.
 NMat=     3 NSing=     3 JSym2X= 0.
 Root      1 has converged.
 Root      2 not converged, maximum delta is    0.004935040080873
 Root      3 not converged, maximum delta is    0.005250254920255
 Root      4 not converged, maximum delta is    0.001942435240633
 Root      5 has converged.
 Excitation Energies [eV] at current iteration:
 Root      1 :     1.622509108675870   Change is   -0.000007804906079
 Root      2 :     1.869357020683055   Change is   -0.002269494481379
 Root      3 :     1.932859662232090   Change is   -0.001102357577355
 Root      4 :     2.103779545015979   Change is   -0.001236642339815
 Root      5 :     2.221810823361394   Change is   -0.000000260630248
 Iteration     7 Dimension    60 NMult    57 NNew      3
 CISAX will form     3 AO SS matrices at one time.
 NMat=     3 NSing=     3 JSym2X= 0.
 Root      1 has converged.
 Root      2 not converged, maximum delta is    0.002092908379707
 Root      3 not converged, maximum delta is    0.002373082706203
 Root      4 has converged.
 Root      5 has converged.
 Excitation Energies [eV] at current iteration:
 Root      1 :     1.622506670015121   Change is   -0.000002438660749
 Root      2 :     1.868399031931436   Change is   -0.000957988751619
 Root      3 :     1.932398902843521   Change is   -0.000460759388569
 Root      4 :     2.103327056330058   Change is   -0.000452488685921
 Root      5 :     2.221810789725889   Change is   -0.000000033635505
 Iteration     8 Dimension    62 NMult    60 NNew      2
 CISAX will form     2 AO SS matrices at one time.
 NMat=     2 NSing=     2 JSym2X= 0.
 Root      1 has converged.
 Root      2 not converged, maximum delta is    0.001153427506781
 Root      3 not converged, maximum delta is    0.001191942955949
 Root      4 has converged.
 Root      5 has converged.
 Excitation Energies [eV] at current iteration:
 Root      1 :     1.622506026350119   Change is   -0.000000643665002
 Root      2 :     1.867983981245497   Change is   -0.000415050685939
 Root      3 :     1.932193371115950   Change is   -0.000205531727571
 Root      4 :     2.103260356748380   Change is   -0.000066699581678
 Root      5 :     2.221810780596341   Change is   -0.000000009129549
 Iteration     9 Dimension    64 NMult    62 NNew      2
 CISAX will form     2 AO SS matrices at one time.
 NMat=     2 NSing=     2 JSym2X= 0.
 Root      1 has converged.
 Root      2 has converged.
 Root      3 has converged.
 Root      4 has converged.
 Root      5 has converged.
 Excitation Energies [eV] at current iteration:
 Root      1 :     1.622505808187621   Change is   -0.000000218162498
 Root      2 :     1.867809938351833   Change is   -0.000174042893664
 Root      3 :     1.932107514689171   Change is   -0.000085856426778
 Root      4 :     2.103234966620479   Change is   -0.000025390127901
 Root      5 :     2.221810766566222   Change is   -0.000000014030118
 Convergence achieved on expansion vectors.
 ***********************************************************************
 Excited states from <AA,BB:AA,BB> singles matrix:
[...]
 Alpha virt. eigenvalues --    1.08724   1.08851   1.09635   1.10354   1.11301
 Alpha virt. eigenvalues --    1.11701   1.11907   1.12415   1.12944   1.13305
 Alpha virt. eigenvalues --    1.13456   1.13731   1.13872   1.14815   1.15128
 Alpha virt. eigenvalues --    1.16074   1.16282   1.16498   1.16863   1.17362
 Alpha virt. eigenvalues --    1.17877   1.18294   1.18780   1.19104   1.19896
 Alpha virt. eigenvalues --    1.20213   1.20421   1.20796   1.22124   1.22498
 Alpha virt. eigenvalues --    1.23122   1.23272   1.23614   1.24146   1.24339
 Alpha virt. eigenvalues --    1.24855   1.25272   1.25770   1.26146   1.26498
 Alpha virt. eigenvalues --    1.26624   1.26917   1.27318   1.27696   1.27946
 Alpha virt. eigenvalues --    1.29053   1.29392   1.29737   1.29943   1.30497
 Alpha virt. eigenvalues --    1.30754   1.31161   1.31593   1.31988   1.32238
 Alpha virt. eigenvalues --    1.32543   1.32890   1.33350   1.33488   1.33645
 Alpha virt. eigenvalues --    1.33937   1.34096   1.34429   1.35059   1.35312
 Alpha virt. eigenvalues --    1.36058   1.36414   1.36776   1.36985   1.37359
 Alpha virt. eigenvalues --    1.37377   1.37594   1.38373   1.38813   1.38908
 Alpha virt. eigenvalues --    1.39449   1.40698   1.40769   1.41855   1.42337
 Alpha virt. eigenvalues --    1.43097   1.43756   1.43999   1.44260   1.44635
 Alpha virt. eigenvalues --    1.45117   1.45260   1.45468   1.45646   1.46069
 Alpha virt. eigenvalues --    1.46494   1.46522   1.46961   1.47038   1.47207
 Alpha virt. eigenvalues --    1.47453   1.47538   1.47848   1.47981   1.48487
 Alpha virt. eigenvalues --    1.48625   1.48961   1.49439   1.49668   1.50180
 Alpha virt. eigenvalues --    1.50336   1.50403   1.50549   1.50737   1.50875
 Alpha virt. eigenvalues --    1.51235   1.51561   1.51930   1.52033   1.52196
 Alpha virt. eigenvalues --    1.52635   1.53318   1.53710   1.54393   1.54790
 Alpha virt. eigenvalues --    1.55022   1.55566   1.55970   1.56149   1.56406
 Alpha virt. eigenvalues --    1.56978   1.57029   1.57954   1.58052   1.58642
 Alpha virt. eigenvalues --    1.59277   1.59723   1.60097   1.61336   1.61954
 Alpha virt. eigenvalues --    1.62543   1.62739   1.62889   1.62938   1.63319
 Alpha virt. eigenvalues --    1.63776   1.64199   1.64279   1.64625   1.64891
 Alpha virt. eigenvalues --    1.65049   1.65620   1.65932   1.66222   1.66339
 Alpha virt. eigenvalues --    1.66452   1.66659   1.67264   1.67635   1.67780
 Alpha virt. eigenvalues --    1.67893   1.68141   1.68425   1.68538   1.68771
 Alpha virt. eigenvalues --    1.68962   1.69194   1.69400   1.69543   1.69980
 Alpha virt. eigenvalues --    1.70305   1.70586   1.70727   1.70852   1.70992
 Alpha virt. eigenvalues --    1.71351   1.71394   1.71618   1.71737   1.72179
 Alpha virt. eigenvalues --    1.72389   1.72405   1.72548   1.72702   1.73083
 Alpha virt. eigenvalues --    1.73251   1.73482   1.73539   1.73742   1.73782
 Alpha virt. eigenvalues --    1.73976   1.74181   1.74283   1.74437   1.74681
 Alpha virt. eigenvalues --    1.74728   1.74955   1.75263   1.75378   1.75626
 Alpha virt. eigenvalues --    1.75728   1.75844   1.75891   1.76113   1.76364
 Alpha virt. eigenvalues --    1.76454   1.77031   1.77131   1.77742   1.78007
 Alpha virt. eigenvalues --    1.78120   1.78284   1.78361   1.78423   1.78602
 Alpha virt. eigenvalues --    1.78865   1.79316   1.79430   1.79497   1.79643
 Alpha virt. eigenvalues --    1.79666   1.80155   1.80214   1.80481   1.80570
 Alpha virt. eigenvalues --    1.80610   1.80706   1.80971   1.81190   1.81414
 Alpha virt. eigenvalues --    1.81792   1.81997   1.82123   1.82377   1.82873
 Alpha virt. eigenvalues --    1.83043   1.83207   1.83394   1.83651   1.83847
 Alpha virt. eigenvalues --    1.84047   1.84316   1.84880   1.85006   1.85060
 Alpha virt. eigenvalues --    1.85432   1.85855   1.85953   1.86403   1.86520
 Alpha virt. eigenvalues --    1.86725   1.87017   1.87125   1.87184   1.87425
 Alpha virt. eigenvalues --    1.87995   1.88187   1.88503   1.89202   1.89424
 Alpha virt. eigenvalues --    1.89908   1.89956   1.90418   1.90793   1.90909
 Alpha virt. eigenvalues --    1.91314   1.91465   1.91606   1.92171   1.92216
 Alpha virt. eigenvalues --    1.92516   1.92851   1.92991   1.93406   1.93740
 Alpha virt. eigenvalues --    1.94126   1.94586   1.94775   1.95056   1.95267
 Alpha virt. eigenvalues --    1.95363   1.95766   1.96548   1.96849   1.96977
 Alpha virt. eigenvalues --    1.97191   1.97385   1.97554   1.97703   1.98155
 Alpha virt. eigenvalues --    1.98287   1.98686   1.99137   1.99607   1.99772
 Alpha virt. eigenvalues --    2.00009   2.00212   2.00792   2.01348   2.01423
 Alpha virt. eigenvalues --    2.01543   2.01853   2.02128   2.02245   2.02494
 Alpha virt. eigenvalues --    2.02912   2.03091   2.03496   2.04084   2.04368
 Alpha virt. eigenvalues --    2.04408   2.04468   2.04884   2.05080   2.05223
 Alpha virt. eigenvalues --    2.05587   2.06132   2.06537   2.06757   2.07427
 Alpha virt. eigenvalues --    2.07857   2.07966   2.08099   2.08576   2.09032
 Alpha virt. eigenvalues --    2.09523   2.09764   2.10382   2.10436   2.10670
 Alpha virt. eigenvalues --    2.10724   2.11155   2.12154   2.12825   2.12911
 Alpha virt. eigenvalues --    2.13394   2.13618   2.13939   2.14124   2.14716
 Alpha virt. eigenvalues --    2.15258   2.15321   2.16056   2.16346   2.16457
 Alpha virt. eigenvalues --    2.16953   2.17816   2.17906   2.18769   2.19072
 Alpha virt. eigenvalues --    2.19820   2.20181   2.20933   2.21504   2.21973
 Alpha virt. eigenvalues --    2.22061   2.22541   2.22937   2.23127   2.23587
 Alpha virt. eigenvalues --    2.24158   2.24275   2.24727   2.24739   2.25682
 Alpha virt. eigenvalues --    2.25730   2.26204   2.26512   2.26779   2.27325
 Alpha virt. eigenvalues --    2.27388   2.27615   2.27830   2.28327   2.28580
 Alpha virt. eigenvalues --    2.28965   2.29526   2.29656   2.30256   2.30492
 Alpha virt. eigenvalues --    2.30649   2.30872   2.31373   2.31649   2.32341
 Alpha virt. eigenvalues --    2.32866   2.33022   2.33367   2.33739   2.34308
 Alpha virt. eigenvalues --    2.34568   2.35390   2.35969   2.36555   2.36672
 Alpha virt. eigenvalues --    2.36994   2.37316   2.37697   2.37891   2.38172
 Alpha virt. eigenvalues --    2.38625   2.38680   2.39225   2.39674   2.39817
 Alpha virt. eigenvalues --    2.39836   2.40141   2.40762   2.41559   2.41859
 Alpha virt. eigenvalues --    2.42133   2.42654   2.42818   2.43118   2.43688
 Alpha virt. eigenvalues --    2.43869   2.44471   2.44768   2.44911   2.45767
 Alpha virt. eigenvalues --    2.46285   2.46618   2.46881   2.47142   2.47462
 Alpha virt. eigenvalues --    2.47472   2.47648   2.48589   2.49442   2.49655
 Alpha virt. eigenvalues --    2.50285   2.50582   2.50971   2.51103   2.51176
 Alpha virt. eigenvalues --    2.51543   2.52179   2.52602   2.53133   2.53558
 Alpha virt. eigenvalues --    2.53845   2.54636   2.55174   2.55472   2.55612
 Alpha virt. eigenvalues --    2.55739   2.55869   2.55999   2.56192   2.56648
 Alpha virt. eigenvalues --    2.56900   2.57391   2.57761   2.57982   2.58297
 Alpha virt. eigenvalues --    2.58675   2.58991   2.59745   2.59990   2.60420
 Alpha virt. eigenvalues --    2.60839   2.61360   2.61748   2.62641   2.62911
 Alpha virt. eigenvalues --    2.63072   2.63612   2.64416   2.65033   2.65463
 Alpha virt. eigenvalues --    2.65589   2.65673   2.66146   2.66304   2.66640
 Alpha virt. eigenvalues --    2.67563   2.67905   2.68135   2.68589   2.68857
 Alpha virt. eigenvalues --    2.69147   2.70045   2.70838   2.71158   2.71708
 Alpha virt. eigenvalues --    2.72121   2.72409   2.72791   2.72827   2.74758
 Alpha virt. eigenvalues --    2.75168   2.75387   2.76098   2.76585   2.76720
 Alpha virt. eigenvalues --    2.77148   2.77211   2.77712   2.77948   2.78977
 Alpha virt. eigenvalues --    2.79122   2.79295   2.80024   2.80325   2.80491
 Alpha virt. eigenvalues --    2.81287   2.81723   2.82442   2.82777   2.83007
 Alpha virt. eigenvalues --    2.83471   2.83636   2.84290   2.84380   2.85224
 Alpha virt. eigenvalues --    2.85599   2.85646   2.85773   2.86014   2.86277
 Alpha virt. eigenvalues --    2.86381   2.86781   2.86886   2.87256   2.87440
 Alpha virt. eigenvalues --    2.87763   2.88012   2.88024   2.88291   2.88680
 Alpha virt. eigenvalues --    2.88959   2.89480   2.89490   2.89881   2.90365
 Alpha virt. eigenvalues --    2.90647   2.90885   2.90971   2.91434   2.91785
 Alpha virt. eigenvalues --    2.91857   2.92178   2.92385   2.92525   2.92886
 Alpha virt. eigenvalues --    2.93494   2.93880   2.94389   2.95021   2.95233
 Alpha virt. eigenvalues --    2.95397   2.95536   2.95909   2.96136   2.96545
 Alpha virt. eigenvalues --    2.97434   2.98256   2.99062   2.99196   2.99397
 Alpha virt. eigenvalues --    3.00395   3.01090   3.01385   3.02422   3.02871
 Alpha virt. eigenvalues --    3.03316   3.03667   3.05059   3.05825   3.06139
 Alpha virt. eigenvalues --    3.06639   3.07160   3.09278   3.09751   3.10602
 Alpha virt. eigenvalues --    3.10937   3.11501   3.13232   3.13397   3.14540
 Alpha virt. eigenvalues --    3.16897   3.19306   3.25684   3.29389   3.29776
 Alpha virt. eigenvalues --    3.33928   3.35425   3.37077   3.41111   3.43752
 Alpha virt. eigenvalues --    3.46686   3.51563   3.52588   3.56054   3.56600
 Alpha virt. eigenvalues --    3.58071   3.59216
          Condensed to atoms (all electrons):
 Mulliken charges:
               1
     1  Mg   0.700787
     2  C   -0.039252
     3  C   -0.085403
     4  C   -0.020480
     5  C   -0.099526
     6  N   -0.196890
     7  C   -0.069889
     8  C    0.031416
     9  C   -0.047766
    10  C    0.026010
    11  C    0.140603
    12  C    0.079450
    13  C    0.153603
    14  C    0.076576
    15  O   -0.183911
    16  O   -0.272904
    17  N   -0.294641
    18  C    0.197084
    19  C   -0.139675
    20  C    0.053720
    21  C    0.124431
    22  C    0.183344
    23  C   -0.118357
    24  O   -0.163602
    25  C    0.164371
    26  N   -0.257630
    27  C   -0.043600
    28  C    0.025674
    29  C    0.013124
    30  C    0.024946
    31  C    0.137002
    32  C    0.092140
    33  C    0.114799
    34  N   -0.211508
    35  C    0.127520
    36  C   -0.174828
    37  C    0.068965
    38  C    0.111504
    39  C    0.192155
    40  C   -0.013733
    41  O   -0.127257
    42  C    0.045870
    43  C    0.110508
    44  O   -0.141346
    45  O   -0.276594
    46  C    0.208145
    47  C    0.302649
    48  C   -0.099578
    49  C   -0.130003
    50  C    0.163817
    51  C    0.081420
    52  C    0.075861
    53  C    0.095243
    54  C   -0.070502
    55  C    0.114662
    56  C    0.123531
    57  C    0.031392
    58  C    0.115081
    59  C   -0.058087
    60  C    0.093924
    61  C    0.086386
    62  C    0.069626
    63  C    0.125479
    64  C   -0.088236
    65  C    0.085674
    66  C    0.104239
    67  H   -0.054045
    68  H   -0.089738
    69  H   -0.072040
    70  H   -0.038059
    71  H   -0.042510
    72  H   -0.003289
    73  H   -0.014543
    74  H   -0.003869
    75  H   -0.021410
    76  H   -0.003907
    77  H    0.016260
    78  H   -0.018323
    79  H    0.004743
    80  H   -0.037264
    81  H    0.006044
    82  H    0.031012
    83  H   -0.007331
    84  H   -0.006985
    85  H   -0.024846
    86  H   -0.038861
    87  H   -0.008991
    88  H    0.001729
    89  H   -0.010024
    90  H   -0.033056
    91  H   -0.019773
    92  H   -0.006603
    93  H   -0.034526
    94  H    0.005990
    95  H   -0.001266
    96  H   -0.012693
    97  H    0.016741
    98  H   -0.013274
    99  H    0.023729
   100  H    0.008314
   101  H    0.011757
   102  H    0.010953
   103  H   -0.000632
   104  H   -0.028994
   105  H    0.006006
   106  H   -0.016743
   107  H    0.008889
   108  H   -0.030676
   109  H   -0.030558
   110  H   -0.016319
   111  H   -0.018954
   112  H   -0.044574
   113  H   -0.043985
   114  H   -0.040041
   115  H   -0.016563
   116  H   -0.030748
   117  H   -0.015025
   118  H   -0.045843
   119  H   -0.020683
   120  H   -0.045999
   121  H   -0.018583
   122  H   -0.040259
   123  H   -0.042774
   124  H   -0.031210
   125  H   -0.027072
   126  H   -0.019350
   127  H   -0.024101
   128  H   -0.042713
   129  H   -0.026322
   130  H   -0.018715
   131  H   -0.029991
   132  H   -0.042908
   133  H   -0.028736
   134  H   -0.028011
   135  H   -0.017809
   136  H   -0.026552
   137  H   -0.029798
   138  H   -0.022081
   139  H   -0.017294
   140  H   -0.001861
 Sum of Mulliken charges =  -0.00000
 Mulliken charges with hydrogens summed into heavy atoms:
               1
     1  Mg   0.700787
     2  C   -0.039252
     3  C   -0.139448
     4  C   -0.110218
     5  C   -0.171566
     6  N   -0.196890
     7  C   -0.069889
     8  C   -0.006643
     9  C   -0.090276
    10  C    0.026010
    11  C    0.118902
    12  C    0.054133
    13  C    0.151541
    14  C    0.076576
    15  O   -0.183911
    16  O   -0.272904
    17  N   -0.294641
    18  C    0.197084
    19  C   -0.139675
    20  C    0.053720
    21  C    0.124431
    22  C    0.156867
    23  C   -0.118357
    24  O   -0.163602
    25  C    0.181067
    26  N   -0.257630
    27  C   -0.043600
    28  C    0.000828
    29  C   -0.025737
    30  C    0.024946
    31  C    0.119716
    32  C    0.039311
    33  C    0.079660
    34  N   -0.211508
    35  C    0.127520
    36  C   -0.174828
    37  C    0.068965
    38  C    0.111504
    39  C    0.194936
    40  C   -0.013733
    41  O   -0.127257
    42  C    0.032596
    43  C    0.110508
    44  O   -0.141346
    45  O   -0.276594
    46  C    0.251944
    47  C    0.312969
    48  C   -0.128572
    49  C   -0.130003
    50  C    0.161969
    51  C    0.020186
    52  C    0.040588
    53  C    0.006683
    54  C   -0.110542
    55  C    0.052326
    56  C    0.057005
    57  C   -0.033190
    58  C    0.032049
    59  C   -0.089297
    60  C    0.023401
    61  C    0.017351
    62  C    0.020920
    63  C    0.053835
    64  C   -0.116247
    65  C    0.011516
    66  C    0.063004
 Electronic spatial extent (au):  <R**2>=         100716.3826
 Charge=             -0.0000 electrons
 Dipole moment (field-independent basis, Debye):
    X=             -1.6311    Y=              1.3220    Z=             -0.3617  Tot=              2.1304
 Quadrupole moment (field-independent basis, Debye-Ang):
   XX=           -392.1073   YY=           -411.0035   ZZ=           -410.7564
   XY=             -2.1943   XZ=              5.8825   YZ=             56.1984
 Traceless Quadrupole moment (field-independent basis, Debye-Ang):
   XX=             12.5151   YY=             -6.3811   ZZ=             -6.1341
   XY=             -2.1943   XZ=              5.8825   YZ=             56.1984
 Octapole moment (field-independent basis, Debye-Ang**2):
  XXX=             48.6452  YYY=           -109.4903  ZZZ=             80.4416  XYY=             18.0987
  XXY=            -70.5688  XXZ=             26.4114  XZZ=              4.6681  YZZ=            -50.0826
  YYZ=             18.7538  XYZ=            262.7373
 Hexadecapole moment (field-independent basis, Debye-Ang**3):
 XXXX=         -99008.3788 YYYY=         -24751.7767 ZZZZ=         -15667.4178 XXXY=          -1047.5999
 XXXZ=            273.2468 YYYX=           -688.4533 YYYZ=           1357.2122 ZZZX=            483.7152
 ZZZY=            810.5561 XXYY=         -20301.2883 XXZZ=         -19425.3905 YYZZ=          -7721.3223
 XXYZ=           1157.6983 YYXZ=            363.0638 ZZXY=           -328.9522
 N-N= 9.787340549403D+03 E-N=-2.657066075357D+04  KE= 2.978115710223D+03
 Leave Link  601 at Sat Apr 30 04:52:50 2022, MaxMem= 10066329600 cpu:              41.8 elap:               1.9
 (Enter /sw/apps/gaussian-16.0/g16/l9999.exe)
 1\1\GINC-BP1-COMPUTE150\SP\RBLYP TD-FC\def2SVP\C55H74Mg1N4O6\OF15641\3
 0-Apr-2022\0\\#p blyp/Def2SVP td=(nstates=5)\\step_551_chromophore_8 T
 DDFT with blyp functional\\0,1\Mg,0,43.976,3.385,47.283\C,0,41.633,5.9
 91,46.689\C,0,41.273,1.134,47.222\C,0,46.134,0.921,47.216\C,0,46.47,5.
 738,47.051\N,0,41.74,3.527,46.813\C,0,41.004,4.691,46.69\C,0,39.516,4.
 389,46.428\C,0,39.463,2.932,47.061\C,0,40.935,2.432,46.896\C,0,38.888,
 2.92,48.497\C,0,39.069,4.496,44.946\C,0,38.211,5.689,44.43\C,0,38.902,
 6.161,43.14\O,0,39.782,7.008,43.199\O,0,38.422,5.474,42.054\N,0,43.761
 ,1.315,47.327\C,0,42.568,0.623,47.267\C,0,42.892,-0.749,47.269\C,0,44.
 272,-0.87,47.243\C,0,44.77,0.429,47.15\C,0,41.738,-1.818,47.389\C,0,45
 .064,-2.153,47.208\O,0,44.536,-3.199,47.528\C,0,46.479,-2.175,46.868\N
 ,0,45.998,3.332,47.063\C,0,46.73,2.179,47.171\C,0,48.271,2.488,47.282\
 C,0,48.321,4.057,46.936\C,0,46.825,4.408,47.065\C,0,48.886,2.113,48.65
 5\C,0,48.798,4.329,45.583\C,0,50.268,3.961,45.288\N,0,44.136,5.469,46.
 983\C,0,45.185,6.287,46.925\C,0,44.785,7.633,46.613\C,0,43.381,7.587,4
 6.57\C,0,43.024,6.207,46.804\C,0,45.656,8.793,46.494\C,0,42.218,8.371,
 46.224\O,0,42.129,9.543,45.867\C,0,40.967,7.368,46.532\C,0,40.305,7.82
 6,47.799\O,0,40.871,8.111,48.807\O,0,38.931,7.823,47.651\C,0,38.146,7.
 905,48.889\C,0,39.032,6.005,40.785\C,0,40.05,5.063,40.203\C,0,41.086,5
 .406,39.37\C,0,41.368,6.677,38.615\C,0,41.923,4.202,38.883\C,0,41.17,3
 .482,37.675\C,0,41.912,2.221,37.347\C,0,41.402,1.473,36.004\C,0,41.05,
 -0.03,36.14\C,0,42.365,1.662,34.795\C,0,42.038,2.969,33.997\C,0,43.033
 ,4.113,34.284\C,0,44.082,3.992,33.193\C,0,45.487,4.189,33.893\C,0,43.8
 42,5.098,32.101\C,0,43.017,4.583,30.867\C,0,43.236,5.462,29.576\C,0,43
 .699,4.685,28.326\C,0,42.508,4.698,27.312\C,0,45.006,5.274,27.72\H,0,4
 0.375,0.513,47.247\H,0,46.959,0.207,47.265\H,0,47.333,6.404,46.99\H,0,
 38.91,5.111,46.974\H,0,38.744,2.311,46.527\H,0,38.621,3.933,48.801\H,0
 ,39.699,2.568,49.133\H,0,38.096,2.177,48.591\H,0,38.582,3.579,44.613\H
 ,0,39.963,4.492,44.324\H,0,38.135,6.476,45.18\H,0,37.241,5.234,44.227\
 H,0,41.806,-2.6,46.633\H,0,40.733,-1.405,47.311\H,0,41.771,-2.228,48.3
 99\H,0,47.086,-1.905,47.732\H,0,46.44,-1.419,46.084\H,0,46.849,-3.092,
 46.409\H,0,48.754,1.915,46.491\H,0,48.847,4.63,47.7\H,0,49.472,1.195,4
 8.605\H,0,48.147,1.981,49.445\H,0,49.582,2.911,48.914\H,0,48.756,5.408
 ,45.436\H,0,48.021,3.843,44.992\H,0,50.396,2.885,45.169\H,0,50.745,4.0
 97,46.258\H,0,50.742,4.653,44.592\H,0,46.251,8.692,45.587\H,0,46.403,8
 .861,47.286\H,0,44.99,9.647,46.618\H,0,40.221,7.31,45.739\H,0,38.563,8
 .623,49.596\H,0,38.032,6.967,49.432\H,0,37.137,8.203,48.605\H,0,39.515
 ,6.98,40.844\H,0,38.172,6.182,40.139\H,0,39.924,4.01,40.454\H,0,42.235
 ,7.163,39.061\H,0,40.565,7.402,38.745\H,0,41.55,6.404,37.575\H,0,42.01
 7,3.496,39.708\H,0,42.961,4.453,38.663\H,0,41.105,4.188,36.848\H,0,40.
 187,3.118,37.975\H,0,41.901,1.481,38.147\H,0,42.981,2.407,37.241\H,0,4
 0.481,2.024,35.814\H,0,40.,-0.276,35.985\H,0,41.22,-0.39,37.154\H,0,41
 .646,-0.636,35.457\H,0,42.101,0.855,34.112\H,0,43.423,1.552,35.033\H,0
 ,41.126,3.406,34.403\H,0,41.866,2.737,32.946\H,0,43.42,3.976,35.293\H,
 0,42.526,5.075,34.361\H,0,44.053,2.992,32.759\H,0,45.798,5.233,33.906\
 H,0,46.287,3.659,33.375\H,0,45.46,3.909,34.946\H,0,44.805,5.284,31.626
 \H,0,43.62,6.059,32.566\H,0,41.978,4.554,31.195\H,0,43.349,3.577,30.60
 8\H,0,44.039,6.171,29.778\H,0,42.359,6.082,29.388\H,0,43.847,3.621,28.
 512\H,0,42.758,5.132,26.344\H,0,41.605,5.158,27.714\H,0,42.075,3.722,2
 7.093\H,0,45.139,4.942,26.69\H,0,45.867,4.821,28.211\H,0,45.028,6.363,
 27.772\\Version=ES64L-G16RevA.03\State=1-A\HF=-3007.3862577\RMSD=6.052
 e-09\PG=C01 [X(C55H74Mg1N4O6)]\\@


 I am not a vegetarian because I love animals;
 I am a vegetarian because I hate plants.
                               -- A. Whitney Brown
 Job cpu time:       0 days  5 hours  7 minutes 28.0 seconds.
 Elapsed time:       0 days  0 hours 12 minutes 53.0 seconds.
 File lengths (MBytes):  RWF=   8005 Int=      0 D2E=      0 Chk=    390 Scr=      1
 Normal termination of Gaussian 16 at Sat Apr 30 04:52:51 2022.
