 Entering Gaussian System, Link 0=g16
 Initial command:
 /sw/apps/gaussian-16.0/g16/l1.exe "/tmp/Gau-66286.inp" -scrdir="/tmp/"
 Entering Link 1 = /sw/apps/gaussian-16.0/g16/l1.exe PID=     66287.
  
 Copyright (c) 1988,1990,1992,1993,1995,1998,2003,2009,2016,
            Gaussian, Inc.  All Rights Reserved.
  
 This is part of the Gaussian(R) 16 program.  It is based on
 the Gaussian(R) 09 system (copyright 2009, Gaussian, Inc.),
 the Gaussian(R) 03 system (copyright 2003, Gaussian, Inc.),
 the Gaussian(R) 98 system (copyright 1998, Gaussian, Inc.),
 the Gaussian(R) 94 system (copyright 1995, Gaussian, Inc.),
 the Gaussian 92(TM) system (copyright 1992, Gaussian, Inc.),
 the Gaussian 90(TM) system (copyright 1990, Gaussian, Inc.),
 the Gaussian 88(TM) system (copyright 1988, Gaussian, Inc.),
 the Gaussian 86(TM) system (copyright 1986, Carnegie Mellon
 University), and the Gaussian 82(TM) system (copyright 1983,
 Carnegie Mellon University). Gaussian is a federally registered
 trademark of Gaussian, Inc.
  
 This software contains proprietary and confidential information,
 including trade secrets, belonging to Gaussian, Inc.
  
 This software is provided under written license and may be
 used, copied, transmitted, or stored only in accord with that
 written license.
  
 The following legend is applicable only to US Government
 contracts under FAR:
  
                    RESTRICTED RIGHTS LEGEND
  
 Use, reproduction and disclosure by the US Government is
 subject to restrictions as set forth in subparagraphs (a)
 and (c) of the Commercial Computer Software - Restricted
 Rights clause in FAR 52.227-19.
  
 Gaussian, Inc.
 340 Quinnipiac St., Bldg. 40, Wallingford CT 06492
  
  
 ---------------------------------------------------------------
 Warning -- This program may not be used in any manner that
 competes with the business of Gaussian, Inc. or will provide
 assistance to any competitor of Gaussian, Inc.  The licensee
 of this program is prohibited from giving any competitor of
 Gaussian, Inc. access to this program.  By using this program,
 the user acknowledges that Gaussian, Inc. is engaged in the
 business of creating and licensing software in the field of
 computational chemistry and represents and warrants to the
 licensee that it is not a competitor of Gaussian, Inc. and that
 it will not use this program in any manner prohibited above.
 ---------------------------------------------------------------
  

 Cite this work as:
 Gaussian 16, Revision A.03,
 M. J. Frisch, G. W. Trucks, H. B. Schlegel, G. E. Scuseria, 
 M. A. Robb, J. R. Cheeseman, G. Scalmani, V. Barone, 
 G. A. Petersson, H. Nakatsuji, X. Li, M. Caricato, A. V. Marenich, 
 J. Bloino, B. G. Janesko, R. Gomperts, B. Mennucci, H. P. Hratchian, 
 J. V. Ortiz, A. F. Izmaylov, J. L. Sonnenberg, D. Williams-Young, 
 F. Ding, F. Lipparini, F. Egidi, J. Goings, B. Peng, A. Petrone, 
 T. Henderson, D. Ranasinghe, V. G. Zakrzewski, J. Gao, N. Rega, 
 G. Zheng, W. Liang, M. Hada, M. Ehara, K. Toyota, R. Fukuda, 
 J. Hasegawa, M. Ishida, T. Nakajima, Y. Honda, O. Kitao, H. Nakai, 
 T. Vreven, K. Throssell, J. A. Montgomery, Jr., J. E. Peralta, 
 F. Ogliaro, M. J. Bearpark, J. J. Heyd, E. N. Brothers, K. N. Kudin, 
 V. N. Staroverov, T. A. Keith, R. Kobayashi, J. Normand, 
 K. Raghavachari, A. P. Rendell, J. C. Burant, S. S. Iyengar, 
 J. Tomasi, M. Cossi, J. M. Millam, M. Klene, C. Adamo, R. Cammi, 
 J. W. Ochterski, R. L. Martin, K. Morokuma, O. Farkas, 
 J. B. Foresman, and D. J. Fox, Gaussian, Inc., Wallingford CT, 2016.
 
 ******************************************
 Gaussian 16:  ES64L-G16RevA.03 25-Dec-2016
                30-Apr-2022 
 ******************************************
 %nproc=24
 Will use up to   24 processors via shared memory.
 %mem=75GB
 ---------------------------------
 #p PBE1PBE/Def2SVP td=(nstates=5)
 ---------------------------------
 1/38=1,172=1/1;
 2/12=2,17=6,18=5,40=1/2;
 3/5=43,7=101,11=9,25=1,30=1,74=-13/1,2,3,8;
 4//1;
 5/5=2,38=5/2;
 8/6=1,10=1,108=5/1;
 9/41=5,42=1,70=2/14;
 6/7=2,8=2,9=2,10=2/1;
 99/5=1,9=1/99;
 Leave Link    1 at Sat Apr 30 03:55:49 2022, MaxMem= 10066329600 cpu:               1.6 elap:               0.1
 (Enter /sw/apps/gaussian-16.0/g16/l101.exe)
 ----------------------------------------------------
 step_551_chromophore_8 TDDFT with PBE1PBE functional
 ----------------------------------------------------
 Symbolic Z-matrix:
 Charge =  0 Multiplicity = 1
 Mg                    43.976    3.385     47.283 
 C                     41.633    5.991     46.689 
 C                     41.273    1.134     47.222 
 C                     46.134    0.921     47.216 
 C                     46.47     5.738     47.051 
 N                     41.74     3.527     46.813 
 C                     41.004    4.691     46.69 
 C                     39.516    4.389     46.428 
 C                     39.463    2.932     47.061 
 C                     40.935    2.432     46.896 
 C                     38.888    2.92      48.497 
 C                     39.069    4.496     44.946 
 C                     38.211    5.689     44.43 
 C                     38.902    6.161     43.14 
 O                     39.782    7.008     43.199 
 O                     38.422    5.474     42.054 
 N                     43.761    1.315     47.327 
 C                     42.568    0.623     47.267 
 C                     42.892   -0.749     47.269 
 C                     44.272   -0.87      47.243 
 C                     44.77     0.429     47.15 
 C                     41.738   -1.818     47.389 
 C                     45.064   -2.153     47.208 
 O                     44.536   -3.199     47.528 
 C                     46.479   -2.175     46.868 
 N                     45.998    3.332     47.063 
 C                     46.73     2.179     47.171 
 C                     48.271    2.488     47.282 
 C                     48.321    4.057     46.936 
 C                     46.825    4.408     47.065 
 C                     48.886    2.113     48.655 
 C                     48.798    4.329     45.583 
 C                     50.268    3.961     45.288 
 N                     44.136    5.469     46.983 
 C                     45.185    6.287     46.925 
 C                     44.785    7.633     46.613 
 C                     43.381    7.587     46.57 
 C                     43.024    6.207     46.804 
 C                     45.656    8.793     46.494 
 C                     42.218    8.371     46.224 
 O                     42.129    9.543     45.867 
 C                     40.967    7.368     46.532 
 C                     40.305    7.826     47.799 
 O                     40.871    8.111     48.807 
 O                     38.931    7.823     47.651 
 C                     38.146    7.905     48.889 
 C                     39.032    6.005     40.785 
 C                     40.05     5.063     40.203 
 C                     41.086    5.406     39.37 
 C                     41.368    6.677     38.615 
 C                     41.923    4.202     38.883 
 C                     41.17     3.482     37.675 
 C                     41.912    2.221     37.347 
 C                     41.402    1.473     36.004 
 C                     41.05    -0.03      36.14 
 C                     42.365    1.662     34.795 
 C                     42.038    2.969     33.997 
 C                     43.033    4.113     34.284 
 C                     44.082    3.992     33.193 
 C                     45.487    4.189     33.893 
 C                     43.842    5.098     32.101 
 C                     43.017    4.583     30.867 
 C                     43.236    5.462     29.576 
 C                     43.699    4.685     28.326 
 C                     42.508    4.698     27.312 
 C                     45.006    5.274     27.72 
 H                     40.375    0.513     47.247 
 H                     46.959    0.207     47.265 
 H                     47.333    6.404     46.99 
 H                     38.91     5.111     46.974 
 H                     38.744    2.311     46.527 
 H                     38.621    3.933     48.801 
 H                     39.699    2.568     49.133 
 H                     38.096    2.177     48.591 
 H                     38.582    3.579     44.613 
 H                     39.963    4.492     44.324 
 H                     38.135    6.476     45.18 
 H                     37.241    5.234     44.227 
 H                     41.806   -2.6       46.633 
 H                     40.733   -1.405     47.311 
 H                     41.771   -2.228     48.399 
 H                     47.086   -1.905     47.732 
 H                     46.44    -1.419     46.084 
 H                     46.849   -3.092     46.409 
 H                     48.754    1.915     46.491 
 H                     48.847    4.63      47.7 
 H                     49.472    1.195     48.605 
 H                     48.147    1.981     49.445 
 H                     49.582    2.911     48.914 
 H                     48.756    5.408     45.436 
 H                     48.021    3.843     44.992 
 H                     50.396    2.885     45.169 
 H                     50.745    4.097     46.258 
 H                     50.742    4.653     44.592 
 H                     46.251    8.692     45.587 
 H                     46.403    8.861     47.286 
 H                     44.99     9.647     46.618 
 H                     40.221    7.31      45.739 
 H                     38.563    8.623     49.596 
 H                     38.032    6.967     49.432 
 H                     37.137    8.203     48.605 
 H                     39.515    6.98      40.844 
 H                     38.172    6.182     40.139 
 H                     39.924    4.01      40.454 
 H                     42.235    7.163     39.061 
 H                     40.565    7.402     38.745 
 H                     41.55     6.404     37.575 
 H                     42.017    3.496     39.708 
 H                     42.961    4.453     38.663 
 H                     41.105    4.188     36.848 
 H                     40.187    3.118     37.975 
 H                     41.901    1.481     38.147 
 H                     42.981    2.407     37.241 
 H                     40.481    2.024     35.814 
 H                     40.      -0.276     35.985 
 H                     41.22    -0.39      37.154 
 H                     41.646   -0.636     35.457 
 H                     42.101    0.855     34.112 
 H                     43.423    1.552     35.033 
 H                     41.126    3.406     34.403 
 H                     41.866    2.737     32.946 
 H                     43.42     3.976     35.293 
 H                     42.526    5.075     34.361 
 H                     44.053    2.992     32.759 
 H                     45.798    5.233     33.906 
 H                     46.287    3.659     33.375 
 H                     45.46     3.909     34.946 
 H                     44.805    5.284     31.626 
 H                     43.62     6.059     32.566 
 H                     41.978    4.554     31.195 
 H                     43.349    3.577     30.608 
 H                     44.039    6.171     29.778 
 H                     42.359    6.082     29.388 
 H                     43.847    3.621     28.512 
 H                     42.758    5.132     26.344 
 H                     41.605    5.158     27.714 
 H                     42.075    3.722     27.093 
 H                     45.139    4.942     26.69 
 H                     45.867    4.821     28.211 
 H                     45.028    6.363     27.772 
 
 ITRead=  0  0  0  0  0  0  0  0  0  0  0  0  0  0  0  0  0  0  0  0
 ITRead=  0  0  0  0  0  0  0  0  0  0  0  0  0  0  0  0  0  0  0  0
 ITRead=  0  0  0  0  0  0  0  0  0  0  0  0  0  0  0  0  0  0  0  0
 ITRead=  0  0  0  0  0  0  0  0  0  0  0  0  0  0  0  0  0  0  0  0
 ITRead=  0  0  0  0  0  0  0  0  0  0  0  0  0  0  0  0  0  0  0  0
 ITRead=  0  0  0  0  0  0  0  0  0  0  0  0  0  0  0  0  0  0  0  0
 ITRead=  0  0  0  0  0  0  0  0  0  0  0  0  0  0  0  0  0  0  0  0
 MicOpt= -1 -1 -1 -1 -1 -1 -1 -1 -1 -1 -1 -1 -1 -1 -1 -1 -1 -1 -1 -1
 MicOpt= -1 -1 -1 -1 -1 -1 -1 -1 -1 -1 -1 -1 -1 -1 -1 -1 -1 -1 -1 -1
 MicOpt= -1 -1 -1 -1 -1 -1 -1 -1 -1 -1 -1 -1 -1 -1 -1 -1 -1 -1 -1 -1
 MicOpt= -1 -1 -1 -1 -1 -1 -1 -1 -1 -1 -1 -1 -1 -1 -1 -1 -1 -1 -1 -1
 MicOpt= -1 -1 -1 -1 -1 -1 -1 -1 -1 -1 -1 -1 -1 -1 -1 -1 -1 -1 -1 -1
 MicOpt= -1 -1 -1 -1 -1 -1 -1 -1 -1 -1 -1 -1 -1 -1 -1 -1 -1 -1 -1 -1
 MicOpt= -1 -1 -1 -1 -1 -1 -1 -1 -1 -1 -1 -1 -1 -1 -1 -1 -1 -1 -1 -1
 NAtoms=    140 NQM=      140 NQMF=       0 NMMI=      0 NMMIF=      0
                NMic=       0 NMicF=      0.
                    Isotopes and Nuclear Properties:
 (Nuclear quadrupole moments (NQMom) in fm**2, nuclear magnetic moments (NMagM)
  in nuclear magnetons)

  Atom         1           2           3           4           5           6           7           8           9          10
 IAtWgt=          24          12          12          12          12          14          12          12          12          12
 AtmWgt=  23.9850450  12.0000000  12.0000000  12.0000000  12.0000000  14.0030740  12.0000000  12.0000000  12.0000000  12.0000000
 NucSpn=           0           0           0           0           0           2           0           0           0           0
 AtZEff=  -0.0000000  -0.0000000  -0.0000000  -0.0000000  -0.0000000  -0.0000000  -0.0000000  -0.0000000  -0.0000000  -0.0000000
 NQMom=    0.0000000   0.0000000   0.0000000   0.0000000   0.0000000   2.0440000   0.0000000   0.0000000   0.0000000   0.0000000
 NMagM=    0.0000000   0.0000000   0.0000000   0.0000000   0.0000000   0.4037610   0.0000000   0.0000000   0.0000000   0.0000000
 AtZNuc=  12.0000000   6.0000000   6.0000000   6.0000000   6.0000000   7.0000000   6.0000000   6.0000000   6.0000000   6.0000000

  Atom        11          12          13          14          15          16          17          18          19          20
 IAtWgt=          12          12          12          12          16          16          14          12          12          12
 AtmWgt=  12.0000000  12.0000000  12.0000000  12.0000000  15.9949146  15.9949146  14.0030740  12.0000000  12.0000000  12.0000000
 NucSpn=           0           0           0           0           0           0           2           0           0           0
 AtZEff=  -0.0000000  -0.0000000  -0.0000000  -0.0000000  -0.0000000  -0.0000000  -0.0000000  -0.0000000  -0.0000000  -0.0000000
 NQMom=    0.0000000   0.0000000   0.0000000   0.0000000   0.0000000   0.0000000   2.0440000   0.0000000   0.0000000   0.0000000
 NMagM=    0.0000000   0.0000000   0.0000000   0.0000000   0.0000000   0.0000000   0.4037610   0.0000000   0.0000000   0.0000000
 AtZNuc=   6.0000000   6.0000000   6.0000000   6.0000000   8.0000000   8.0000000   7.0000000   6.0000000   6.0000000   6.0000000

  Atom        21          22          23          24          25          26          27          28          29          30
 IAtWgt=          12          12          12          16          12          14          12          12          12          12
 AtmWgt=  12.0000000  12.0000000  12.0000000  15.9949146  12.0000000  14.0030740  12.0000000  12.0000000  12.0000000  12.0000000
 NucSpn=           0           0           0           0           0           2           0           0           0           0
 AtZEff=  -0.0000000  -0.0000000  -0.0000000  -0.0000000  -0.0000000  -0.0000000  -0.0000000  -0.0000000  -0.0000000  -0.0000000
 NQMom=    0.0000000   0.0000000   0.0000000   0.0000000   0.0000000   2.0440000   0.0000000   0.0000000   0.0000000   0.0000000
 NMagM=    0.0000000   0.0000000   0.0000000   0.0000000   0.0000000   0.4037610   0.0000000   0.0000000   0.0000000   0.0000000
 AtZNuc=   6.0000000   6.0000000   6.0000000   8.0000000   6.0000000   7.0000000   6.0000000   6.0000000   6.0000000   6.0000000

  Atom        31          32          33          34          35          36          37          38          39          40
 IAtWgt=          12          12          12          14          12          12          12          12          12          12
 AtmWgt=  12.0000000  12.0000000  12.0000000  14.0030740  12.0000000  12.0000000  12.0000000  12.0000000  12.0000000  12.0000000
 NucSpn=           0           0           0           2           0           0           0           0           0           0
 AtZEff=  -0.0000000  -0.0000000  -0.0000000  -0.0000000  -0.0000000  -0.0000000  -0.0000000  -0.0000000  -0.0000000  -0.0000000
 NQMom=    0.0000000   0.0000000   0.0000000   2.0440000   0.0000000   0.0000000   0.0000000   0.0000000   0.0000000   0.0000000
 NMagM=    0.0000000   0.0000000   0.0000000   0.4037610   0.0000000   0.0000000   0.0000000   0.0000000   0.0000000   0.0000000
 AtZNuc=   6.0000000   6.0000000   6.0000000   7.0000000   6.0000000   6.0000000   6.0000000   6.0000000   6.0000000   6.0000000

  Atom        41          42          43          44          45          46          47          48          49          50
 IAtWgt=          16          12          12          16          16          12          12          12          12          12
 AtmWgt=  15.9949146  12.0000000  12.0000000  15.9949146  15.9949146  12.0000000  12.0000000  12.0000000  12.0000000  12.0000000
 NucSpn=           0           0           0           0           0           0           0           0           0           0
 AtZEff=  -0.0000000  -0.0000000  -0.0000000  -0.0000000  -0.0000000  -0.0000000  -0.0000000  -0.0000000  -0.0000000  -0.0000000
 NQMom=    0.0000000   0.0000000   0.0000000   0.0000000   0.0000000   0.0000000   0.0000000   0.0000000   0.0000000   0.0000000
 NMagM=    0.0000000   0.0000000   0.0000000   0.0000000   0.0000000   0.0000000   0.0000000   0.0000000   0.0000000   0.0000000
 AtZNuc=   8.0000000   6.0000000   6.0000000   8.0000000   8.0000000   6.0000000   6.0000000   6.0000000   6.0000000   6.0000000

  Atom        51          52          53          54          55          56          57          58          59          60
 IAtWgt=          12          12          12          12          12          12          12          12          12          12
 AtmWgt=  12.0000000  12.0000000  12.0000000  12.0000000  12.0000000  12.0000000  12.0000000  12.0000000  12.0000000  12.0000000
 NucSpn=           0           0           0           0           0           0           0           0           0           0
 AtZEff=  -0.0000000  -0.0000000  -0.0000000  -0.0000000  -0.0000000  -0.0000000  -0.0000000  -0.0000000  -0.0000000  -0.0000000
 NQMom=    0.0000000   0.0000000   0.0000000   0.0000000   0.0000000   0.0000000   0.0000000   0.0000000   0.0000000   0.0000000
 NMagM=    0.0000000   0.0000000   0.0000000   0.0000000   0.0000000   0.0000000   0.0000000   0.0000000   0.0000000   0.0000000
 AtZNuc=   6.0000000   6.0000000   6.0000000   6.0000000   6.0000000   6.0000000   6.0000000   6.0000000   6.0000000   6.0000000

  Atom        61          62          63          64          65          66          67          68          69          70
 IAtWgt=          12          12          12          12          12          12           1           1           1           1
 AtmWgt=  12.0000000  12.0000000  12.0000000  12.0000000  12.0000000  12.0000000   1.0078250   1.0078250   1.0078250   1.0078250
 NucSpn=           0           0           0           0           0           0           1           1           1           1
 AtZEff=  -0.0000000  -0.0000000  -0.0000000  -0.0000000  -0.0000000  -0.0000000  -0.0000000  -0.0000000  -0.0000000  -0.0000000
 NQMom=    0.0000000   0.0000000   0.0000000   0.0000000   0.0000000   0.0000000   0.0000000   0.0000000   0.0000000   0.0000000
 NMagM=    0.0000000   0.0000000   0.0000000   0.0000000   0.0000000   0.0000000   2.7928460   2.7928460   2.7928460   2.7928460
 AtZNuc=   6.0000000   6.0000000   6.0000000   6.0000000   6.0000000   6.0000000   1.0000000   1.0000000   1.0000000   1.0000000

  Atom        71          72          73          74          75          76          77          78          79          80
 IAtWgt=           1           1           1           1           1           1           1           1           1           1
 AtmWgt=   1.0078250   1.0078250   1.0078250   1.0078250   1.0078250   1.0078250   1.0078250   1.0078250   1.0078250   1.0078250
 NucSpn=           1           1           1           1           1           1           1           1           1           1
 AtZEff=  -0.0000000  -0.0000000  -0.0000000  -0.0000000  -0.0000000  -0.0000000  -0.0000000  -0.0000000  -0.0000000  -0.0000000
 NQMom=    0.0000000   0.0000000   0.0000000   0.0000000   0.0000000   0.0000000   0.0000000   0.0000000   0.0000000   0.0000000
 NMagM=    2.7928460   2.7928460   2.7928460   2.7928460   2.7928460   2.7928460   2.7928460   2.7928460   2.7928460   2.7928460
 AtZNuc=   1.0000000   1.0000000   1.0000000   1.0000000   1.0000000   1.0000000   1.0000000   1.0000000   1.0000000   1.0000000

  Atom        81          82          83          84          85          86          87          88          89          90
 IAtWgt=           1           1           1           1           1           1           1           1           1           1
 AtmWgt=   1.0078250   1.0078250   1.0078250   1.0078250   1.0078250   1.0078250   1.0078250   1.0078250   1.0078250   1.0078250
 NucSpn=           1           1           1           1           1           1           1           1           1           1
 AtZEff=  -0.0000000  -0.0000000  -0.0000000  -0.0000000  -0.0000000  -0.0000000  -0.0000000  -0.0000000  -0.0000000  -0.0000000
 NQMom=    0.0000000   0.0000000   0.0000000   0.0000000   0.0000000   0.0000000   0.0000000   0.0000000   0.0000000   0.0000000
 NMagM=    2.7928460   2.7928460   2.7928460   2.7928460   2.7928460   2.7928460   2.7928460   2.7928460   2.7928460   2.7928460
 AtZNuc=   1.0000000   1.0000000   1.0000000   1.0000000   1.0000000   1.0000000   1.0000000   1.0000000   1.0000000   1.0000000

  Atom        91          92          93          94          95          96          97          98          99         100
 IAtWgt=           1           1           1           1           1           1           1           1           1           1
 AtmWgt=   1.0078250   1.0078250   1.0078250   1.0078250   1.0078250   1.0078250   1.0078250   1.0078250   1.0078250   1.0078250
 NucSpn=           1           1           1           1           1           1           1           1           1           1
 AtZEff=  -0.0000000  -0.0000000  -0.0000000  -0.0000000  -0.0000000  -0.0000000  -0.0000000  -0.0000000  -0.0000000  -0.0000000
 NQMom=    0.0000000   0.0000000   0.0000000   0.0000000   0.0000000   0.0000000   0.0000000   0.0000000   0.0000000   0.0000000
 NMagM=    2.7928460   2.7928460   2.7928460   2.7928460   2.7928460   2.7928460   2.7928460   2.7928460   2.7928460   2.7928460
 AtZNuc=   1.0000000   1.0000000   1.0000000   1.0000000   1.0000000   1.0000000   1.0000000   1.0000000   1.0000000   1.0000000

  Atom       101         102         103         104         105         106         107         108         109         110
 IAtWgt=           1           1           1           1           1           1           1           1           1           1
 AtmWgt=   1.0078250   1.0078250   1.0078250   1.0078250   1.0078250   1.0078250   1.0078250   1.0078250   1.0078250   1.0078250
 NucSpn=           1           1           1           1           1           1           1           1           1           1
 AtZEff=  -0.0000000  -0.0000000  -0.0000000  -0.0000000  -0.0000000  -0.0000000  -0.0000000  -0.0000000  -0.0000000  -0.0000000
 NQMom=    0.0000000   0.0000000   0.0000000   0.0000000   0.0000000   0.0000000   0.0000000   0.0000000   0.0000000   0.0000000
 NMagM=    2.7928460   2.7928460   2.7928460   2.7928460   2.7928460   2.7928460   2.7928460   2.7928460   2.7928460   2.7928460
 AtZNuc=   1.0000000   1.0000000   1.0000000   1.0000000   1.0000000   1.0000000   1.0000000   1.0000000   1.0000000   1.0000000

  Atom       111         112         113         114         115         116         117         118         119         120
 IAtWgt=           1           1           1           1           1           1           1           1           1           1
 AtmWgt=   1.0078250   1.0078250   1.0078250   1.0078250   1.0078250   1.0078250   1.0078250   1.0078250   1.0078250   1.0078250
 NucSpn=           1           1           1           1           1           1           1           1           1           1
 AtZEff=  -0.0000000  -0.0000000  -0.0000000  -0.0000000  -0.0000000  -0.0000000  -0.0000000  -0.0000000  -0.0000000  -0.0000000
 NQMom=    0.0000000   0.0000000   0.0000000   0.0000000   0.0000000   0.0000000   0.0000000   0.0000000   0.0000000   0.0000000
 NMagM=    2.7928460   2.7928460   2.7928460   2.7928460   2.7928460   2.7928460   2.7928460   2.7928460   2.7928460   2.7928460
 AtZNuc=   1.0000000   1.0000000   1.0000000   1.0000000   1.0000000   1.0000000   1.0000000   1.0000000   1.0000000   1.0000000

  Atom       121         122         123         124         125         126         127         128         129         130
 IAtWgt=           1           1           1           1           1           1           1           1           1           1
 AtmWgt=   1.0078250   1.0078250   1.0078250   1.0078250   1.0078250   1.0078250   1.0078250   1.0078250   1.0078250   1.0078250
 NucSpn=           1           1           1           1           1           1           1           1           1           1
 AtZEff=  -0.0000000  -0.0000000  -0.0000000  -0.0000000  -0.0000000  -0.0000000  -0.0000000  -0.0000000  -0.0000000  -0.0000000
 NQMom=    0.0000000   0.0000000   0.0000000   0.0000000   0.0000000   0.0000000   0.0000000   0.0000000   0.0000000   0.0000000
 NMagM=    2.7928460   2.7928460   2.7928460   2.7928460   2.7928460   2.7928460   2.7928460   2.7928460   2.7928460   2.7928460
 AtZNuc=   1.0000000   1.0000000   1.0000000   1.0000000   1.0000000   1.0000000   1.0000000   1.0000000   1.0000000   1.0000000

  Atom       131         132         133         134         135         136         137         138         139         140
 IAtWgt=           1           1           1           1           1           1           1           1           1           1
 AtmWgt=   1.0078250   1.0078250   1.0078250   1.0078250   1.0078250   1.0078250   1.0078250   1.0078250   1.0078250   1.0078250
 NucSpn=           1           1           1           1           1           1           1           1           1           1
 AtZEff=  -0.0000000  -0.0000000  -0.0000000  -0.0000000  -0.0000000  -0.0000000  -0.0000000  -0.0000000  -0.0000000  -0.0000000
 NQMom=    0.0000000   0.0000000   0.0000000   0.0000000   0.0000000   0.0000000   0.0000000   0.0000000   0.0000000   0.0000000
 NMagM=    2.7928460   2.7928460   2.7928460   2.7928460   2.7928460   2.7928460   2.7928460   2.7928460   2.7928460   2.7928460
 AtZNuc=   1.0000000   1.0000000   1.0000000   1.0000000   1.0000000   1.0000000   1.0000000   1.0000000   1.0000000   1.0000000
 Leave Link  101 at Sat Apr 30 03:55:50 2022, MaxMem= 10066329600 cpu:               4.1 elap:               0.2
 (Enter /sw/apps/gaussian-16.0/g16/l202.exe)
 Stoichiometry    C55H74MgN4O6
 Framework group  C1[X(C55H74MgN4O6)]
 Deg. of freedom   414
 Full point group                 C1      NOp   1
 Largest Abelian subgroup         C1      NOp   1
 Largest concise Abelian subgroup C1      NOp   1
                         Standard orientation:                         
 ---------------------------------------------------------------------
 Center     Atomic      Atomic             Coordinates (Angstroms)
 Number     Number       Type             X           Y           Z
 ---------------------------------------------------------------------
      1         12           0        4.599011    0.965894    0.249177
      2          6           0        3.822692   -2.483635    0.612214
      3          6           0        4.517148    0.471943   -3.233098
      4          6           0        4.703087    4.217899   -0.133426
      5          6           0        4.376664    1.252020    3.666656
      6          7           0        4.039778   -0.761892   -1.144657
      7          6           0        3.846915   -2.079948   -0.774182
      8          6           0        3.539817   -2.967066   -1.995945
      9          6           0        4.222684   -2.064477   -3.111907
     10          6           0        4.131797   -0.630144   -2.496735
     11          6           0        5.635354   -2.557882   -3.504056
     12          6           0        2.039040   -3.292359   -2.218285
     13          6           0        1.448044   -4.699663   -1.908627
     14          6           0        0.168917   -4.435760   -1.097114
     15          8           0        0.230523   -4.353391    0.121373
     16          8           0       -0.908910   -4.274908   -1.930288
     17          7           0        4.709740    2.189486   -1.431187
     18          6           0        4.629663    1.771439   -2.744403
     19          6           0        4.693608    2.929645   -3.545549
     20          6           0        4.724322    4.034873   -2.710537
     21          6           0        4.603297    3.539574   -1.412814
     22          6           0        4.808409    2.783367   -5.112169
     23          6           0        4.765832    5.482351   -3.132036
     24          8           0        5.103249    5.774211   -4.261756
     25          6           0        4.480721    6.563721   -2.200553
     26          7           0        4.457861    2.511647    1.564631
     27          6           0        4.635194    3.820163    1.199617
     28          6           0        4.793255    4.749792    2.461873
     29          6           0        4.392825    3.754993    3.659373
     30          6           0        4.452247    2.404468    2.917476
     31          6           0        6.201251    5.384669    2.597736
     32          6           0        3.049915    3.997415    4.178935
     33          6           0        2.824352    5.348741    4.890546
     34          7           0        4.230043   -0.294422    1.902695
     35          6           0        4.182264   -0.061250    3.212747
     36          6           0        3.806806   -1.242149    3.943205
     37          6           0        3.712323   -2.249794    2.968061
     38          6           0        3.982430   -1.603163    1.704924
     39          6           0        3.678984   -1.366588    5.387704
     40          6           0        3.294341   -3.618372    2.770006
     41          8           0        2.892030   -4.449950    3.579684
     42          6           0        3.590818   -3.890566    1.187639
     43          6           0        4.814409   -4.754132    1.085766
     44          8           0        5.832156   -4.578131    1.678100
     45          8           0        4.614649   -5.762815    0.162488
     46          6           0        5.818230   -6.464411   -0.300925
     47          6           0       -2.172272   -4.111628   -1.129239
     48          6           0       -2.680790   -2.696175   -1.146994
     49          6           0       -3.485801   -2.114163   -0.199337
     50          6           0       -4.275089   -2.716147    0.931871
     51          6           0       -3.896825   -0.662517   -0.532709
     52          6           0       -5.105636   -0.675545   -1.573515
     53          6           0       -5.359415    0.735500   -2.012626
     54          6           0       -6.692818    0.928401   -2.911558
     55          6           0       -6.515934    1.666184   -4.262779
     56          6           0       -7.870503    1.579060   -2.127676
     57          6           0       -8.727115    0.503830   -1.377955
     58          6           0       -8.444216    0.460741    0.138370
     59          6           0       -9.489582    1.376417    0.749982
     60          6           0       -8.744429    2.249334    1.838834
     61          6           0      -10.629215    0.515588    1.408395
     62          6           0      -11.874141    0.313367    0.471446
     63          6           0      -13.186888   -0.044904    1.268703
     64          6           0      -14.389495    0.883745    1.000475
     65          6           0      -15.447708    0.045367    0.210440
     66          6           0      -14.966453    1.490111    2.312666
     67          1           0        4.530563    0.220591   -4.295789
     68          1           0        4.809133    5.304658   -0.110376
     69          1           0        4.324343    1.449201    4.739236
     70          1           0        4.035963   -3.928021   -1.865410
     71          1           0        3.684651   -2.153865   -4.055458
     72          1           0        5.892145   -3.449624   -2.930706
     73          1           0        6.313958   -1.754506   -3.220851
     74          1           0        5.726108   -2.652636   -4.586153
     75          1           0        1.721239   -3.022226   -3.225746
     76          1           0        1.451920   -2.594440   -1.623024
     77          1           0        2.165643   -5.321955   -1.374351
     78          1           0        1.225035   -5.103527   -2.896703
     79          1           0        4.084334    3.396697   -5.648105
     80          1           0        4.677478    1.766138   -5.479294
     81          1           0        5.833114    3.029289   -5.392865
     82          1           0        5.356763    6.787695   -1.592086
     83          1           0        3.668952    6.069965   -1.666747
     84          1           0        4.069571    7.475685   -2.633851
     85          1           0        4.042391    5.532700    2.359131
     86          1           0        5.154966    3.721396    4.438292
     87          1           0        6.206761    6.435980    2.309057
     88          1           0        6.966938    4.883851    2.005663
     89          1           0        6.457383    5.352965    3.656836
     90          1           0        2.862464    3.251910    4.951397
     91          1           0        2.447875    3.777680    3.296626
     92          1           0        2.749319    6.169920    4.177555
     93          1           0        3.806173    5.560476    5.312591
     94          1           0        2.122220    5.273453    5.720786
     95          1           0        2.799436   -0.810452    5.710167
     96          1           0        4.495744   -0.899890    5.939968
     97          1           0        3.746658   -2.438244    5.575376
     98          1           0        2.772736   -4.363162    0.643466
     99          1           0        6.514069   -6.672850    0.512477
    100          1           0        6.390121   -5.949640   -1.072703
    101          1           0        5.485594   -7.396853   -0.756386
    102          1           0       -2.130345   -4.409184   -0.081815
    103          1           0       -2.856384   -4.833689   -1.575181
    104          1           0       -2.396790   -2.098043   -2.012596
    105          1           0       -3.814439   -2.422105    1.874284
    106          1           0       -4.201945   -3.803338    0.931994
    107          1           0       -5.296879   -2.344066    0.849695
    108          1           0       -3.043838   -0.163602   -0.992485
    109          1           0       -4.086271   -0.049570    0.348909
    110          1           0       -5.959521   -1.152859   -1.094307
    111          1           0       -4.830124   -1.176295   -2.502024
    112          1           0       -4.534142    1.180649   -2.568043
    113          1           0       -5.431490    1.408951   -1.158307
    114          1           0       -6.937408   -0.113048   -3.120130
    115          1           0       -6.701607    1.060642   -5.149280
    116          1           0       -5.483852    1.979985   -4.414544
    117          1           0       -7.153470    2.549277   -4.314123
    118          1           0       -8.533355    1.959209   -2.904560
    119          1           0       -7.588753    2.424421   -1.499911
    120          1           0       -8.372055   -0.485882   -1.664228
    121          1           0       -9.774790    0.586657   -1.666963
    122          1           0       -7.416977    0.786416    0.297537
    123          1           0       -8.421362   -0.562873    0.512689
    124          1           0       -9.887882    2.046867   -0.012285
    125          1           0       -8.757456    1.780521    2.822130
    126          1           0       -9.212213    3.224132    1.980857
    127          1           0       -7.683763    2.361533    1.614476
    128          1           0      -11.073801    1.129801    2.191132
    129          1           0      -10.208057   -0.316434    1.973546
    130          1           0      -11.584917   -0.454544   -0.245916
    131          1           0      -12.083784    1.246246   -0.053080
    132          1           0      -12.980401    0.065249    2.333374
    133          1           0      -13.430311   -1.100019    1.140834
    134          1           0      -14.159623    1.695739    0.310243
    135          1           0      -16.420615   -0.009050    0.698673
    136          1           0      -15.097135   -0.952856   -0.052736
    137          1           0      -15.647484    0.389037   -0.804452
    138          1           0      -15.977978    1.864832    2.153876
    139          1           0      -14.427099    2.405735    2.554205
    140          1           0      -14.953115    0.774926    3.135734
 ---------------------------------------------------------------------
 Rotational constants (GHZ):           0.0334286           0.0124760           0.0113674
 Leave Link  202 at Sat Apr 30 03:55:50 2022, MaxMem= 10066329600 cpu:               2.0 elap:               0.1
 (Enter /sw/apps/gaussian-16.0/g16/l301.exe)
 Standard basis: def2SVP (5D, 7F)
 Ernie: Thresh=  0.10000D-02 Tol=  0.10000D-05 Strict=F.
 There are  1364 symmetry adapted cartesian basis functions of A   symmetry.
 There are  1298 symmetry adapted basis functions of A   symmetry.
  1298 basis functions,  2180 primitive gaussians,  1364 cartesian basis functions
   246 alpha electrons      246 beta electrons
       nuclear repulsion energy      9787.3405494027 Hartrees.
 IExCor= 1009 DFT=T Ex+Corr=PBE1PBE ExCW=0 ScaHFX=  0.250000
 ScaDFX=  0.750000  0.750000  1.000000  1.000000 ScalE2=  1.000000  1.000000
 IRadAn=      5 IRanWt=     -1 IRanGd=            0 ICorTp=0 IEmpDi=  4
 NAtoms=  140 NActive=  140 NUniq=  140 SFac= 1.00D+00 NAtFMM=   60 NAOKFM=T Big=T
 Integral buffers will be    131072 words long.
 Regular integral format.
 Two-electron integral symmetry is turned on.
 Leave Link  301 at Sat Apr 30 03:55:50 2022, MaxMem= 10066329600 cpu:               2.4 elap:               0.1
 (Enter /sw/apps/gaussian-16.0/g16/l302.exe)
 NPDir=0 NMtPBC=     1 NCelOv=     1 NCel=       1 NClECP=     1 NCelD=      1
         NCelK=      1 NCelE2=     1 NClLst=     1 CellRange=     0.0.
 One-electron integrals computed using PRISM.
 One-electron integral symmetry used in STVInt
   1 Symmetry operations used in ECPInt.
 ECPInt:  NShTT=  192510 NPrTT=  683786 LenC2=  100483 LenP2D=  216619.
 LDataN:  DoStor=T MaxTD1= 4 Len=   56
 NBasis=  1298 RedAO= T EigKep=  3.12D-04  NBF=  1298
 NBsUse=  1298 1.00D-06 EigRej= -1.00D+00 NBFU=  1298
 Precomputing XC quadrature grid using
 IXCGrd= 4 IRadAn=           5 IRanWt=          -1 IRanGd=           0 AccXCQ= 0.00D+00.
 Generated NRdTot=       0 NPtTot=           0 NUsed=           0 NTot=          32
 NSgBfM=  1092  1085  1089  1091  1092 MxSgAt=   140 MxSgA2=   140.
 Leave Link  302 at Sat Apr 30 03:55:55 2022, MaxMem= 10066329600 cpu:             109.5 elap:               4.6
 (Enter /sw/apps/gaussian-16.0/g16/l303.exe)
 DipDrv:  MaxL=1.
 Leave Link  303 at Sat Apr 30 03:55:55 2022, MaxMem= 10066329600 cpu:               8.2 elap:               0.4
 (Enter /sw/apps/gaussian-16.0/g16/l308.exe)
 Leave Link  308 at Sat Apr 30 03:55:56 2022, MaxMem= 10066329600 cpu:              15.3 elap:               0.7
 (Enter /sw/apps/gaussian-16.0/g16/l401.exe)
 ExpMin= 3.36D-02 ExpMax= 4.95D+03 ExpMxC= 7.45D+02 IAcc=3 IRadAn=         5 AccDes= 0.00D+00
 Harris functional with IExCor= 1009 and IRadAn=       5 diagonalized for initial guess.
 HarFok:  IExCor= 1009 AccDes= 0.00D+00 IRadAn=         5 IDoV= 1 UseB2=F ITyADJ=14
 ICtDFT=  3500011 ScaDFX=  1.000000  1.000000  1.000000  1.000000
 FoFCou: FMM=F IPFlag=           0 FMFlag=      100000 FMFlg1=        2001
         NFxFlg=           0 DoJE=T BraDBF=F KetDBF=T FulRan=T
         wScrn=  0.000000 ICntrl=       500 IOpCl=  0 I1Cent=   200000004 NGrid=           0
         NMat0=    1 NMatS0=      1 NMatT0=    0 NMatD0=    1 NMtDS0=    0 NMtDT0=    0
 Petite list used in FoFCou.
 Harris En= -3006.17088126410    
 JPrj=0 DoOrth=F DoCkMO=F.
 Leave Link  401 at Sat Apr 30 03:56:03 2022, MaxMem= 10066329600 cpu:             165.2 elap:               6.9
 (Enter /sw/apps/gaussian-16.0/g16/l502.exe)
 Integral symmetry usage will be decided dynamically.
 Closed shell SCF:
 Using DIIS extrapolation, IDIIS=  1040.
 NGot= 10066329600 LenX= 10062561258 LenY= 10060699398
 Requested convergence on RMS density matrix=1.00D-08 within 128 cycles.
 Requested convergence on MAX density matrix=1.00D-06.
 Requested convergence on             energy=1.00D-06.
 No special actions if energy rises.
 Fock matrices will be formed incrementally for  20 cycles.

 Cycle   1  Pass 1  IDiag  1:
 FoFJK:  IHMeth= 1 ICntrl=       0 DoSepK=F KAlg= 0 I1Cent=           0 FoldK=F
 IRaf= 530000000 NMat=       1 IRICut=       1 DoRegI=T DoRafI=F ISym2E= 0 IDoP0=0 IntGTp=1.
 FoFCou: FMM=T IPFlag=           0 FMFlag=      100000 FMFlg1=        2001
         NFxFlg=           0 DoJE=F BraDBF=F KetDBF=F FulRan=T
         wScrn=  0.000000 ICntrl=         0 IOpCl=  0 I1Cent=           0 NGrid=           0
         NMat0=    1 NMatS0=      1 NMatT0=    0 NMatD0=    1 NMtDS0=    0 NMtDT0=    0
 Symmetry not used in FoFCou.
 FMM levels:  10  Number of levels for PrismC:   9
 E= -3003.83976537373    
 DIIS: error= 2.39D-02 at cycle   1 NSaved=   1.
 NSaved= 1 IEnMin= 1 EnMin= -3003.83976537373     IErMin= 1 ErrMin= 2.39D-02
 ErrMax= 2.39D-02  0.00D+00 EMaxC= 1.00D-01 BMatC= 1.45D+00 BMatP= 1.45D+00
 IDIUse=3 WtCom= 7.61D-01 WtEn= 2.39D-01
 Coeff-Com:  0.100D+01
 Coeff-En:   0.100D+01
 Coeff:      0.100D+01
 Gap=     0.087 Goal=   None    Shift=    0.000
 GapD=    0.087 DampG=0.500 DampE=0.500 DampFc=0.2500 IDamp=-1.
 Damping current iteration by 2.50D-01
 RMSDP=2.66D-03 MaxDP=4.82D-01              OVMax= 2.59D-01

 Cycle   2  Pass 1  IDiag  1:
 RMSU=  6.59D-04    CP:  9.90D-01
 E= -3004.38626002645     Delta-E=       -0.546494652721 Rises=F Damp=T
 DIIS: error= 1.17D-02 at cycle   2 NSaved=   2.
 NSaved= 2 IEnMin= 2 EnMin= -3004.38626002645     IErMin= 2 ErrMin= 1.17D-02
 ErrMax= 1.17D-02  0.00D+00 EMaxC= 1.00D-01 BMatC= 3.64D-01 BMatP= 1.45D+00
 IDIUse=3 WtCom= 8.83D-01 WtEn= 1.17D-01
 Coeff-Com: -0.773D+00 0.177D+01
 Coeff-En:   0.000D+00 0.100D+01
 Coeff:     -0.682D+00 0.168D+01
 Gap=     0.174 Goal=   None    Shift=    0.000
 RMSDP=9.83D-04 MaxDP=5.67D-02 DE=-5.46D-01 OVMax= 2.71D-01

 Cycle   3  Pass 1  IDiag  1:
 RMSU=  8.34D-04    CP:  9.65D-01  1.71D+00
 E= -3005.20574917419     Delta-E=       -0.819489147747 Rises=F Damp=F
 DIIS: error= 9.14D-03 at cycle   3 NSaved=   3.
 NSaved= 3 IEnMin= 3 EnMin= -3005.20574917419     IErMin= 3 ErrMin= 9.14D-03
 ErrMax= 9.14D-03  0.00D+00 EMaxC= 1.00D-01 BMatC= 1.74D-01 BMatP= 3.64D-01
 IDIUse=3 WtCom= 9.09D-01 WtEn= 9.14D-02
 Coeff-Com: -0.492D+00 0.105D+01 0.439D+00
 Coeff-En:   0.000D+00 0.000D+00 0.100D+01
 Coeff:     -0.447D+00 0.957D+00 0.490D+00
 Gap=     0.078 Goal=   None    Shift=    0.000
 RMSDP=5.82D-04 MaxDP=1.03D-01 DE=-8.19D-01 OVMax= 1.74D-01

 Cycle   4  Pass 1  IDiag  1:
 RMSU=  3.99D-04    CP:  9.71D-01  1.92D+00  5.25D-01
 E= -3005.33338879695     Delta-E=       -0.127639622753 Rises=F Damp=F
 DIIS: error= 3.77D-03 at cycle   4 NSaved=   4.
 NSaved= 4 IEnMin= 4 EnMin= -3005.33338879695     IErMin= 4 ErrMin= 3.77D-03
 ErrMax= 3.77D-03  0.00D+00 EMaxC= 1.00D-01 BMatC= 3.67D-02 BMatP= 1.74D-01
 IDIUse=3 WtCom= 9.62D-01 WtEn= 3.77D-02
 Coeff-Com: -0.117D+00 0.253D+00 0.316D+00 0.548D+00
 Coeff-En:   0.000D+00 0.000D+00 0.228D+00 0.772D+00
 Coeff:     -0.112D+00 0.244D+00 0.312D+00 0.557D+00
 Gap=     0.079 Goal=   None    Shift=    0.000
 RMSDP=2.96D-04 MaxDP=5.10D-02 DE=-1.28D-01 OVMax= 1.43D-01

 Cycle   5  Pass 1  IDiag  1:
 RMSU=  1.56D-04    CP:  9.69D-01  1.82D+00  6.92D-01  5.03D-01
 E= -3005.36155528652     Delta-E=       -0.028166489577 Rises=F Damp=F
 DIIS: error= 2.18D-03 at cycle   5 NSaved=   5.
 NSaved= 5 IEnMin= 5 EnMin= -3005.36155528652     IErMin= 5 ErrMin= 2.18D-03
 ErrMax= 2.18D-03  0.00D+00 EMaxC= 1.00D-01 BMatC= 8.14D-03 BMatP= 3.67D-02
 IDIUse=3 WtCom= 9.78D-01 WtEn= 2.18D-02
 Coeff-Com: -0.279D-01 0.628D-01 0.180D+00 0.409D+00 0.377D+00
 Coeff-En:   0.000D+00 0.000D+00 0.000D+00 0.231D+00 0.769D+00
 Coeff:     -0.273D-01 0.615D-01 0.176D+00 0.405D+00 0.385D+00
 Gap=     0.078 Goal=   None    Shift=    0.000
 RMSDP=1.36D-04 MaxDP=1.48D-02 DE=-2.82D-02 OVMax= 7.56D-02

 Cycle   6  Pass 1  IDiag  1:
 RMSU=  5.03D-05    CP:  9.69D-01  1.83D+00  6.61D-01  6.57D-01  3.12D-01
 E= -3005.37104630418     Delta-E=       -0.009491017658 Rises=F Damp=F
 DIIS: error= 5.38D-04 at cycle   6 NSaved=   6.
 NSaved= 6 IEnMin= 6 EnMin= -3005.37104630418     IErMin= 6 ErrMin= 5.38D-04
 ErrMax= 5.38D-04  0.00D+00 EMaxC= 1.00D-01 BMatC= 6.56D-04 BMatP= 8.14D-03
 IDIUse=3 WtCom= 9.95D-01 WtEn= 5.38D-03
 Coeff-Com:  0.382D-03 0.930D-03 0.594D-01 0.160D+00 0.252D+00 0.527D+00
 Coeff-En:   0.000D+00 0.000D+00 0.000D+00 0.000D+00 0.895D-01 0.910D+00
 Coeff:      0.380D-03 0.925D-03 0.591D-01 0.159D+00 0.251D+00 0.530D+00
 Gap=     0.079 Goal=   None    Shift=    0.000
 RMSDP=3.84D-05 MaxDP=2.89D-03 DE=-9.49D-03 OVMax= 2.17D-02

 Cycle   7  Pass 1  IDiag  1:
 RMSU=  2.07D-05    CP:  9.69D-01  1.83D+00  6.70D-01  6.34D-01  4.47D-01
                    CP:  5.73D-01
 E= -3005.37175928895     Delta-E=       -0.000712984771 Rises=F Damp=F
 DIIS: error= 2.31D-04 at cycle   7 NSaved=   7.
 NSaved= 7 IEnMin= 7 EnMin= -3005.37175928895     IErMin= 7 ErrMin= 2.31D-04
 ErrMax= 2.31D-04  0.00D+00 EMaxC= 1.00D-01 BMatC= 8.91D-05 BMatP= 6.56D-04
 IDIUse=3 WtCom= 9.98D-01 WtEn= 2.31D-03
 Coeff-Com:  0.308D-02-0.585D-02 0.178D-01 0.531D-01 0.118D+00 0.344D+00
 Coeff-Com:  0.469D+00
 Coeff-En:   0.000D+00 0.000D+00 0.000D+00 0.000D+00 0.000D+00 0.990D-01
 Coeff-En:   0.901D+00
 Coeff:      0.308D-02-0.584D-02 0.177D-01 0.530D-01 0.118D+00 0.344D+00
 Coeff:      0.470D+00
 Gap=     0.079 Goal=   None    Shift=    0.000
 RMSDP=1.58D-05 MaxDP=1.42D-03 DE=-7.13D-04 OVMax= 1.10D-02

 Cycle   8  Pass 1  IDiag  1:
 RMSU=  9.47D-06    CP:  9.69D-01  1.83D+00  6.71D-01  6.37D-01  4.35D-01
                    CP:  6.63D-01  4.39D-01
 E= -3005.37183758840     Delta-E=       -0.000078299448 Rises=F Damp=F
 DIIS: error= 1.20D-04 at cycle   8 NSaved=   8.
 NSaved= 8 IEnMin= 8 EnMin= -3005.37183758840     IErMin= 8 ErrMin= 1.20D-04
 ErrMax= 1.20D-04  0.00D+00 EMaxC= 1.00D-01 BMatC= 2.06D-05 BMatP= 8.91D-05
 IDIUse=3 WtCom= 9.99D-01 WtEn= 1.20D-03
 Coeff-Com:  0.205D-02-0.410D-02 0.459D-02 0.153D-01 0.508D-01 0.178D+00
 Coeff-Com:  0.345D+00 0.409D+00
 Coeff-En:   0.000D+00 0.000D+00 0.000D+00 0.000D+00 0.000D+00 0.000D+00
 Coeff-En:   0.245D+00 0.755D+00
 Coeff:      0.205D-02-0.409D-02 0.458D-02 0.153D-01 0.507D-01 0.178D+00
 Coeff:      0.345D+00 0.409D+00
 Gap=     0.079 Goal=   None    Shift=    0.000
 RMSDP=7.66D-06 MaxDP=6.45D-04 DE=-7.83D-05 OVMax= 5.38D-03

 Cycle   9  Pass 1  IDiag  1:
 RMSU=  3.37D-06    CP:  9.69D-01  1.83D+00  6.71D-01  6.37D-01  4.39D-01
                    CP:  6.53D-01  6.08D-01  3.81D-01
 E= -3005.37186335034     Delta-E=       -0.000025761936 Rises=F Damp=F
 DIIS: error= 3.53D-05 at cycle   9 NSaved=   9.
 NSaved= 9 IEnMin= 9 EnMin= -3005.37186335034     IErMin= 9 ErrMin= 3.53D-05
 ErrMax= 3.53D-05  0.00D+00 EMaxC= 1.00D-01 BMatC= 2.69D-06 BMatP= 2.06D-05
 IDIUse=1 WtCom= 1.00D+00 WtEn= 0.00D+00
 Coeff-Com:  0.825D-03-0.166D-02 0.425D-03 0.167D-02 0.162D-01 0.675D-01
 Coeff-Com:  0.162D+00 0.291D+00 0.462D+00
 Coeff:      0.825D-03-0.166D-02 0.425D-03 0.167D-02 0.162D-01 0.675D-01
 Coeff:      0.162D+00 0.291D+00 0.462D+00
 Gap=     0.079 Goal=   None    Shift=    0.000
 RMSDP=2.49D-06 MaxDP=2.04D-04 DE=-2.58D-05 OVMax= 1.56D-03

 Cycle  10  Pass 1  IDiag  1:
 RMSU=  1.42D-06    CP:  9.69D-01  1.83D+00  6.71D-01  6.37D-01  4.40D-01
                    CP:  6.61D-01  5.77D-01  5.12D-01  5.79D-01
 E= -3005.37186652603     Delta-E=       -0.000003175690 Rises=F Damp=F
 DIIS: error= 9.97D-06 at cycle  10 NSaved=  10.
 NSaved=10 IEnMin=10 EnMin= -3005.37186652603     IErMin=10 ErrMin= 9.97D-06
 ErrMax= 9.97D-06  0.00D+00 EMaxC= 1.00D-01 BMatC= 3.13D-07 BMatP= 2.69D-06
 IDIUse=1 WtCom= 1.00D+00 WtEn= 0.00D+00
 Coeff-Com:  0.156D-03-0.305D-03-0.468D-03-0.180D-02 0.162D-02 0.117D-01
 Coeff-Com:  0.422D-01 0.119D+00 0.295D+00 0.533D+00
 Coeff:      0.156D-03-0.305D-03-0.468D-03-0.180D-02 0.162D-02 0.117D-01
 Coeff:      0.422D-01 0.119D+00 0.295D+00 0.533D+00
 Gap=     0.079 Goal=   None    Shift=    0.000
 RMSDP=8.71D-07 MaxDP=9.23D-05 DE=-3.18D-06 OVMax= 4.00D-04

 Cycle  11  Pass 1  IDiag  1:
 RMSU=  4.86D-07    CP:  9.69D-01  1.83D+00  6.71D-01  6.37D-01  4.40D-01
                    CP:  6.63D-01  5.85D-01  5.10D-01  7.15D-01  6.54D-01
 E= -3005.37186685163     Delta-E=       -0.000000325605 Rises=F Damp=F
 DIIS: error= 5.87D-06 at cycle  11 NSaved=  11.
 NSaved=11 IEnMin=11 EnMin= -3005.37186685163     IErMin=11 ErrMin= 5.87D-06
 ErrMax= 5.87D-06  0.00D+00 EMaxC= 1.00D-01 BMatC= 4.99D-08 BMatP= 3.13D-07
 IDIUse=1 WtCom= 1.00D+00 WtEn= 0.00D+00
 Coeff-Com:  0.539D-05-0.241D-07-0.353D-03-0.146D-02-0.950D-03-0.177D-02
 Coeff-Com:  0.553D-02 0.392D-01 0.124D+00 0.340D+00 0.496D+00
 Coeff:      0.539D-05-0.241D-07-0.353D-03-0.146D-02-0.950D-03-0.177D-02
 Coeff:      0.553D-02 0.392D-01 0.124D+00 0.340D+00 0.496D+00
 Gap=     0.079 Goal=   None    Shift=    0.000
 RMSDP=2.82D-07 MaxDP=2.16D-05 DE=-3.26D-07 OVMax= 1.17D-04

 Cycle  12  Pass 1  IDiag  1:
 RMSU=  1.81D-07    CP:  9.69D-01  1.83D+00  6.71D-01  6.37D-01  4.40D-01
                    CP:  6.63D-01  5.88D-01  5.18D-01  7.03D-01  7.52D-01
                    CP:  7.70D-01
 E= -3005.37186690705     Delta-E=       -0.000000055421 Rises=F Damp=F
 DIIS: error= 1.38D-06 at cycle  12 NSaved=  12.
 NSaved=12 IEnMin=12 EnMin= -3005.37186690705     IErMin=12 ErrMin= 1.38D-06
 ErrMax= 1.38D-06  0.00D+00 EMaxC= 1.00D-01 BMatC= 4.64D-09 BMatP= 4.99D-08
 IDIUse=1 WtCom= 1.00D+00 WtEn= 0.00D+00
 Coeff-Com: -0.107D-04 0.311D-04-0.127D-03-0.594D-03-0.677D-03-0.285D-02
 Coeff-Com: -0.309D-02 0.535D-02 0.228D-01 0.114D+00 0.259D+00 0.607D+00
 Coeff:     -0.107D-04 0.311D-04-0.127D-03-0.594D-03-0.677D-03-0.285D-02
 Coeff:     -0.309D-02 0.535D-02 0.228D-01 0.114D+00 0.259D+00 0.607D+00
 Gap=     0.079 Goal=   None    Shift=    0.000
 RMSDP=1.13D-07 MaxDP=1.96D-05 DE=-5.54D-08 OVMax= 3.79D-05

 Cycle  13  Pass 1  IDiag  1:
 RMSU=  7.30D-08    CP:  9.69D-01  1.83D+00  6.71D-01  6.37D-01  4.40D-01
                    CP:  6.63D-01  5.88D-01  5.20D-01  7.17D-01  7.68D-01
                    CP:  8.65D-01  8.87D-01
 E= -3005.37186691192     Delta-E=       -0.000000004866 Rises=F Damp=F
 DIIS: error= 8.28D-07 at cycle  13 NSaved=  13.
 NSaved=13 IEnMin=13 EnMin= -3005.37186691192     IErMin=13 ErrMin= 8.28D-07
 ErrMax= 8.28D-07  0.00D+00 EMaxC= 1.00D-01 BMatC= 1.19D-09 BMatP= 4.64D-09
 IDIUse=1 WtCom= 1.00D+00 WtEn= 0.00D+00
 Coeff-Com: -0.551D-05 0.160D-04-0.587D-05-0.868D-04-0.197D-03-0.153D-02
 Coeff-Com: -0.315D-02-0.432D-02-0.126D-01 0.278D-02 0.558D-01 0.378D+00
 Coeff-Com:  0.585D+00
 Coeff:     -0.551D-05 0.160D-04-0.587D-05-0.868D-04-0.197D-03-0.153D-02
 Coeff:     -0.315D-02-0.432D-02-0.126D-01 0.278D-02 0.558D-01 0.378D+00
 Coeff:      0.585D+00
 Gap=     0.079 Goal=   None    Shift=    0.000
 RMSDP=5.15D-08 MaxDP=4.94D-06 DE=-4.87D-09 OVMax= 2.47D-05

 Cycle  14  Pass 1  IDiag  1:
 RMSU=  3.04D-08    CP:  9.69D-01  1.83D+00  6.71D-01  6.37D-01  4.40D-01
                    CP:  6.63D-01  5.88D-01  5.21D-01  7.20D-01  7.85D-01
                    CP:  8.87D-01  1.02D+00  8.60D-01
 E= -3005.37186691334     Delta-E=       -0.000000001417 Rises=F Damp=F
 DIIS: error= 3.74D-07 at cycle  14 NSaved=  14.
 NSaved=14 IEnMin=14 EnMin= -3005.37186691334     IErMin=14 ErrMin= 3.74D-07
 ErrMax= 3.74D-07  0.00D+00 EMaxC= 1.00D-01 BMatC= 2.02D-10 BMatP= 1.19D-09
 IDIUse=1 WtCom= 1.00D+00 WtEn= 0.00D+00
 Coeff-Com:  0.895D-07 0.144D-05 0.200D-04 0.564D-04 0.191D-04-0.433D-03
 Coeff-Com: -0.136D-02-0.359D-02-0.128D-01-0.190D-01-0.176D-01 0.108D+00
 Coeff-Com:  0.352D+00 0.596D+00
 Coeff:      0.895D-07 0.144D-05 0.200D-04 0.564D-04 0.191D-04-0.433D-03
 Coeff:     -0.136D-02-0.359D-02-0.128D-01-0.190D-01-0.176D-01 0.108D+00
 Coeff:      0.352D+00 0.596D+00
 Gap=     0.079 Goal=   None    Shift=    0.000
 RMSDP=2.32D-08 MaxDP=3.72D-06 DE=-1.42D-09 OVMax= 9.32D-06

 Cycle  15  Pass 1  IDiag  1:
 RMSU=  1.23D-08    CP:  9.69D-01  1.83D+00  6.71D-01  6.37D-01  4.40D-01
                    CP:  6.63D-01  5.88D-01  5.22D-01  7.21D-01  7.89D-01
                    CP:  9.09D-01  1.06D+00  9.63D-01  8.93D-01
 E= -3005.37186691341     Delta-E=       -0.000000000076 Rises=F Damp=F
 DIIS: error= 1.34D-07 at cycle  15 NSaved=  15.
 NSaved=15 IEnMin=15 EnMin= -3005.37186691341     IErMin=15 ErrMin= 1.34D-07
 ErrMax= 1.34D-07  0.00D+00 EMaxC= 1.00D-01 BMatC= 2.54D-11 BMatP= 2.02D-10
 IDIUse=1 WtCom= 1.00D+00 WtEn= 0.00D+00
 Coeff-Com:  0.100D-05-0.173D-05 0.122D-04 0.439D-04 0.490D-04 0.537D-05
 Coeff-Com: -0.198D-03-0.116D-02-0.505D-02-0.995D-02-0.186D-01-0.161D-02
 Coeff-Com:  0.963D-01 0.328D+00 0.612D+00
 Coeff:      0.100D-05-0.173D-05 0.122D-04 0.439D-04 0.490D-04 0.537D-05
 Coeff:     -0.198D-03-0.116D-02-0.505D-02-0.995D-02-0.186D-01-0.161D-02
 Coeff:      0.963D-01 0.328D+00 0.612D+00
 Gap=     0.079 Goal=   None    Shift=    0.000
 RMSDP=8.28D-09 MaxDP=6.49D-07 DE=-7.64D-11 OVMax= 3.89D-06

 SCF Done:  E(RPBE1PBE) =  -3005.37186691     A.U. after   15 cycles
            NFock= 15  Conv=0.83D-08     -V/T= 2.0101
 KE= 2.975191840130D+03 PE=-2.656611671218D+04 EE= 1.079821245573D+04
 Leave Link  502 at Sat Apr 30 04:00:38 2022, MaxMem= 10066329600 cpu:            6579.2 elap:             275.9
 (Enter /sw/apps/gaussian-16.0/g16/l801.exe)
 DoSCS=F DFT=T ScalE2(SS,OS)=  1.000000  1.000000
 ExpMin= 3.36D-02 ExpMax= 4.95D+03 ExpMxC= 7.45D+02 IAcc=3 IRadAn=         5 AccDes= 0.00D+00
 HarFok:  IExCor=  205 AccDes= 0.00D+00 IRadAn=         5 IDoV=-2 UseB2=F ITyADJ=14
 ICtDFT= 12500011 ScaDFX=  1.000000  1.000000  1.000000  1.000000
 GSVD:  LWork=       -5460 too small for GESVD, short by       25550 words or       25550 for optimal perf.
 Largest valence mixing into a core orbital is  1.38D-04
 Largest core mixing into a valence orbital is  5.62D-05
 Range of M.O.s used for correlation:    71  1298
 NBasis=  1298 NAE=   246 NBE=   246 NFC=    70 NFV=     0
 NROrb=   1228 NOA=   176 NOB=   176 NVA=  1052 NVB=  1052

 **** Warning!!: The smallest alpha delta epsilon is  0.78748603D-01

 Leave Link  801 at Sat Apr 30 04:00:39 2022, MaxMem= 10066329600 cpu:               9.0 elap:               0.4
 (Enter /sw/apps/gaussian-16.0/g16/l914.exe)
 RHF ground state
 Two-electron integrals replicated using symmetry.
 MDV= 10066329600 DFT=T DoStab=F Mixed=T DoRPA=T DoScal=F NonHer=T
 Making orbital integer symmetry assigments:
 Orbital symmetries:
       Occupied  (A) (A) (A) (A) (A) (A) (A) (A) (A) (A) (A) (A)
                 (A) (A) (A) (A) (A) (A) (A) (A) (A) (A) (A) (A)
                 (A) (A) (A) (A) (A) (A) (A) (A) (A) (A) (A) (A)
                 (A) (A) (A) (A) (A) (A) (A) (A) (A) (A) (A) (A)
                 (A) (A) (A) (A) (A) (A) (A) (A) (A) (A) (A) (A)
                 (A) (A) (A) (A) (A) (A) (A) (A) (A) (A) (A) (A)
                 (A) (A) (A) (A) (A) (A) (A) (A) (A) (A) (A) (A)
                 (A) (A) (A) (A) (A) (A) (A) (A) (A) (A) (A) (A)
                 (A) (A) (A) (A) (A) (A) (A) (A) (A) (A) (A) (A)
                 (A) (A) (A) (A) (A) (A) (A) (A) (A) (A) (A) (A)
                 (A) (A) (A) (A) (A) (A) (A) (A) (A) (A) (A) (A)
                 (A) (A) (A) (A) (A) (A) (A) (A) (A) (A) (A) (A)
                 (A) (A) (A) (A) (A) (A) (A) (A) (A) (A) (A) (A)
                 (A) (A) (A) (A) (A) (A) (A) (A) (A) (A) (A) (A)
                 (A) (A) (A) (A) (A) (A) (A) (A) (A) (A) (A) (A)
                 (A) (A) (A) (A) (A) (A) (A) (A) (A) (A) (A) (A)
                 (A) (A) (A) (A) (A) (A) (A) (A) (A) (A) (A) (A)
                 (A) (A) (A) (A) (A) (A) (A) (A) (A) (A) (A) (A)
                 (A) (A) (A) (A) (A) (A) (A) (A) (A) (A) (A) (A)
                 (A) (A) (A) (A) (A) (A) (A) (A) (A) (A) (A) (A)
                 (A) (A) (A) (A) (A) (A)
       Virtual   (A) (A) (A) (A) (A) (A) (A) (A) (A) (A) (A) (A)
                 (A) (A) (A) (A) (A) (A) (A) (A) (A) (A) (A) (A)
                 (A) (A) (A) (A) (A) (A) (A) (A) (A) (A) (A) (A)
                 (A) (A) (A) (A) (A) (A) (A) (A) (A) (A) (A) (A)
                 (A) (A) (A) (A) (A) (A) (A) (A) (A) (A) (A) (A)
                 (A) (A) (A) (A) (A) (A) (A) (A) (A) (A) (A) (A)
                 (A) (A) (A) (A) (A) (A) (A) (A) (A) (A) (A) (A)
                 (A) (A) (A) (A) (A) (A) (A) (A) (A) (A) (A) (A)
                 (A) (A) (A) (A) (A) (A) (A) (A) (A) (A) (A) (A)
                 (A) (A) (A) (A) (A) (A) (A) (A) (A) (A) (A) (A)
                 (A) (A) (A) (A) (A) (A) (A) (A) (A) (A) (A) (A)
                 (A) (A) (A) (A) (A) (A) (A) (A) (A) (A) (A) (A)
                 (A) (A) (A) (A) (A) (A) (A) (A) (A) (A) (A) (A)
                 (A) (A) (A) (A) (A) (A) (A) (A) (A) (A) (A) (A)
                 (A) (A) (A) (A) (A) (A) (A) (A) (A) (A) (A) (A)
                 (A) (A) (A) (A) (A) (A) (A) (A) (A) (A) (A) (A)
                 (A) (A) (A) (A) (A) (A) (A) (A) (A) (A) (A) (A)
                 (A) (A) (A) (A) (A) (A) (A) (A) (A) (A) (A) (A)
                 (A) (A) (A) (A) (A) (A) (A) (A) (A) (A) (A) (A)
                 (A) (A) (A) (A) (A) (A) (A) (A) (A) (A) (A) (A)
                 (A) (A) (A) (A) (A) (A) (A) (A) (A) (A) (A) (A)
                 (A) (A) (A) (A) (A) (A) (A) (A) (A) (A) (A) (A)
                 (A) (A) (A) (A) (A) (A) (A) (A) (A) (A) (A) (A)
                 (A) (A) (A) (A) (A) (A) (A) (A) (A) (A) (A) (A)
                 (A) (A) (A) (A) (A) (A) (A) (A) (A) (A) (A) (A)
                 (A) (A) (A) (A) (A) (A) (A) (A) (A) (A) (A) (A)
                 (A) (A) (A) (A) (A) (A) (A) (A) (A) (A) (A) (A)
                 (A) (A) (A) (A) (A) (A) (A) (A) (A) (A) (A) (A)
                 (A) (A) (A) (A) (A) (A) (A) (A) (A) (A) (A) (A)
                 (A) (A) (A) (A) (A) (A) (A) (A) (A) (A) (A) (A)
                 (A) (A) (A) (A) (A) (A) (A) (A) (A) (A) (A) (A)
                 (A) (A) (A) (A) (A) (A) (A) (A) (A) (A) (A) (A)
                 (A) (A) (A) (A) (A) (A) (A) (A) (A) (A) (A) (A)
                 (A) (A) (A) (A) (A) (A) (A) (A) (A) (A) (A) (A)
                 (A) (A) (A) (A) (A) (A) (A) (A) (A) (A) (A) (A)
                 (A) (A) (A) (A) (A) (A) (A) (A) (A) (A) (A) (A)
                 (A) (A) (A) (A) (A) (A) (A) (A) (A) (A) (A) (A)
                 (A) (A) (A) (A) (A) (A) (A) (A) (A) (A) (A) (A)
                 (A) (A) (A) (A) (A) (A) (A) (A) (A) (A) (A) (A)
                 (A) (A) (A) (A) (A) (A) (A) (A) (A) (A) (A) (A)
                 (A) (A) (A) (A) (A) (A) (A) (A) (A) (A) (A) (A)
                 (A) (A) (A) (A) (A) (A) (A) (A) (A) (A) (A) (A)
                 (A) (A) (A) (A) (A) (A) (A) (A) (A) (A) (A) (A)
                 (A) (A) (A) (A) (A) (A) (A) (A) (A) (A) (A) (A)
                 (A) (A) (A) (A) (A) (A) (A) (A) (A) (A) (A) (A)
                 (A) (A) (A) (A) (A) (A) (A) (A) (A) (A) (A) (A)
                 (A) (A) (A) (A) (A) (A) (A) (A) (A) (A) (A) (A)
                 (A) (A) (A) (A) (A) (A) (A) (A) (A) (A) (A) (A)
                 (A) (A) (A) (A) (A) (A) (A) (A) (A) (A) (A) (A)
                 (A) (A) (A) (A) (A) (A) (A) (A) (A) (A) (A) (A)
                 (A) (A) (A) (A) (A) (A) (A) (A) (A) (A) (A) (A)
                 (A) (A) (A) (A) (A) (A) (A) (A) (A) (A) (A) (A)
                 (A) (A) (A) (A) (A) (A) (A) (A) (A) (A) (A) (A)
                 (A) (A) (A) (A) (A) (A) (A) (A) (A) (A) (A) (A)
                 (A) (A) (A) (A) (A) (A) (A) (A) (A) (A) (A) (A)
                 (A) (A) (A) (A) (A) (A) (A) (A) (A) (A) (A) (A)
                 (A) (A) (A) (A) (A) (A) (A) (A) (A) (A) (A) (A)
                 (A) (A) (A) (A) (A) (A) (A) (A) (A) (A) (A) (A)
                 (A) (A) (A) (A) (A) (A) (A) (A) (A) (A) (A) (A)
                 (A) (A) (A) (A) (A) (A) (A) (A) (A) (A) (A) (A)
                 (A) (A) (A) (A) (A) (A) (A) (A) (A) (A) (A) (A)
                 (A) (A) (A) (A) (A) (A) (A) (A) (A) (A) (A) (A)
                 (A) (A) (A) (A) (A) (A) (A) (A) (A) (A) (A) (A)
                 (A) (A) (A) (A) (A) (A) (A) (A) (A) (A) (A) (A)
                 (A) (A) (A) (A) (A) (A) (A) (A) (A) (A) (A) (A)
                 (A) (A) (A) (A) (A) (A) (A) (A) (A) (A) (A) (A)
                 (A) (A) (A) (A) (A) (A) (A) (A) (A) (A) (A) (A)
                 (A) (A) (A) (A) (A) (A) (A) (A) (A) (A) (A) (A)
                 (A) (A) (A) (A) (A) (A) (A) (A) (A) (A) (A) (A)
                 (A) (A) (A) (A) (A) (A) (A) (A) (A) (A) (A) (A)
                 (A) (A) (A) (A) (A) (A) (A) (A) (A) (A) (A) (A)
                 (A) (A) (A) (A) (A) (A) (A) (A) (A) (A) (A) (A)
                 (A) (A) (A) (A) (A) (A) (A) (A) (A) (A) (A) (A)
                 (A) (A) (A) (A) (A) (A) (A) (A) (A) (A) (A) (A)
                 (A) (A) (A) (A) (A) (A) (A) (A) (A) (A) (A) (A)
                 (A) (A) (A) (A) (A) (A) (A) (A) (A) (A) (A) (A)
                 (A) (A) (A) (A) (A) (A) (A) (A) (A) (A) (A) (A)
                 (A) (A) (A) (A) (A) (A) (A) (A) (A) (A) (A) (A)
                 (A) (A) (A) (A) (A) (A) (A) (A) (A) (A) (A) (A)
                 (A) (A) (A) (A) (A) (A) (A) (A) (A) (A) (A) (A)
                 (A) (A) (A) (A) (A) (A) (A) (A) (A) (A) (A) (A)
                 (A) (A) (A) (A) (A) (A) (A) (A) (A) (A) (A) (A)
                 (A) (A) (A) (A) (A) (A) (A) (A) (A) (A) (A) (A)
                 (A) (A) (A) (A) (A) (A) (A) (A) (A) (A) (A) (A)
                 (A) (A) (A) (A) (A) (A) (A) (A) (A) (A) (A) (A)
                 (A) (A) (A) (A) (A) (A) (A) (A) (A) (A) (A) (A)
                 (A) (A) (A) (A) (A) (A) (A) (A) (A) (A) (A) (A)
                 (A) (A) (A) (A) (A) (A) (A) (A)
    20 initial guesses have been made.
 Convergence on wavefunction:    0.001000000000000
 Davidson Disk Diagonalization:  ConvIn= 1.00D-03 SkipCon=T Conv= 1.00D-03.
 Max sub-space:  2000 roots to seek:    20 dimension of matrix:       370304
 Iteration     1 Dimension    20 NMult     0 NNew     20
 CISAX will form    20 AO SS matrices at one time.
 NMat=    20 NSing=    20 JSym2X= 0.
 FoFJK:  IHMeth= 1 ICntrl=       0 DoSepK=F KAlg= 0 I1Cent=           0 FoldK=F
 IRaf= 530000000 NMat=      40 IRICut=       1 DoRegI=T DoRafI=F ISym2E= 0 IDoP0=3 IntGTp=3.
 FoFCou: FMM=T IPFlag=           0 FMFlag=      100000 FMFlg1=        2001
         NFxFlg=           0 DoJE=F BraDBF=F KetDBF=F FulRan=T
         wScrn=  0.000000 ICntrl=         0 IOpCl=  0 I1Cent=           0 NGrid=           0
         NMat0=   40 NMatS0=     20 NMatT0=    0 NMatD0=   40 NMtDS0=    0 NMtDT0=    0
 Symmetry not used in FoFCou.
 FMM levels:  10  Number of levels for PrismC:   9
 New state      4 was old state      7
 New state      5 was old state      4
 Excitation Energies [eV] at current iteration:
 Root      1 :     2.295923576696175
 Root      2 :     2.561757201250805
 Root      3 :     2.966571734762632
 Root      4 :     3.104997305946180
 Root      5 :     3.213715806372321
 Root      6 :     3.223797997892133
 Root      7 :     3.534131256075231
 Root      8 :     3.875812415029133
 Root      9 :     3.992529624946875
 Root     10 :     4.031955420172362
 Root     11 :     4.112980051442856
 Root     12 :     4.205821837413766
 Root     13 :     4.281822457261447
 Root     14 :     4.326822310087151
 Root     15 :     4.368421954610760
 Root     16 :     4.477280239667161
 Root     17 :     4.692057811277428
 Root     18 :     4.773474067355042
 Root     19 :     4.803108152859043
 Root     20 :     4.961791248914651
 Iteration     2 Dimension    30 NMult    20 NNew     10
 CISAX will form    10 AO SS matrices at one time.
 NMat=    10 NSing=    10 JSym2X= 0.
 Root      1 not converged, maximum delta is    0.058298402777834
 Root      2 not converged, maximum delta is    0.058328810679514
 Root      3 not converged, maximum delta is    0.097222215023244
 Root      4 not converged, maximum delta is    0.113420134572410
 New state      5 was old state      6
 Root      5 not converged, maximum delta is    0.117325082009528
 Excitation Energies [eV] at current iteration:
 Root      1 :     1.949149790134499   Change is   -0.346773786561675
 Root      2 :     2.277128666271236   Change is   -0.284628534979569
 Root      3 :     2.889885941157306   Change is   -0.076685793605326
 Root      4 :     2.969091641806070   Change is   -0.135905664140111
 Root      5 :     3.046290789883408   Change is   -0.177507208008725
 Iteration     3 Dimension    40 NMult    30 NNew     10
 CISAX will form    10 AO SS matrices at one time.
 NMat=    10 NSing=    10 JSym2X= 0.
 Root      1 not converged, maximum delta is    0.024544280092779
 Root      2 not converged, maximum delta is    0.024315599062857
 Root      3 not converged, maximum delta is    0.025380373586389
 Root      4 not converged, maximum delta is    0.033713695177868
 Root      5 not converged, maximum delta is    0.031451988801368
 Excitation Energies [eV] at current iteration:
 Root      1 :     1.919783231473391   Change is   -0.029366558661108
 Root      2 :     2.256448494811314   Change is   -0.020680171459923
 Root      3 :     2.879953225500754   Change is   -0.009932715656553
 Root      4 :     2.955182586566977   Change is   -0.013909055239092
 Root      5 :     3.021091281384566   Change is   -0.025199508498842
 Iteration     4 Dimension    50 NMult    40 NNew     10
 CISAX will form    10 AO SS matrices at one time.
 NMat=    10 NSing=    10 JSym2X= 0.
 Root      1 not converged, maximum delta is    0.003127822010984
 Root      2 not converged, maximum delta is    0.006540616643008
 Root      3 not converged, maximum delta is    0.003266622587885
 Root      4 not converged, maximum delta is    0.005719661882907
 Root      5 not converged, maximum delta is    0.006243962113683
 Excitation Energies [eV] at current iteration:
 Root      1 :     1.916657712011539   Change is   -0.003125519461852
 Root      2 :     2.253837143545778   Change is   -0.002611351265536
 Root      3 :     2.879140052463960   Change is   -0.000813173036793
 Root      4 :     2.953336305248385   Change is   -0.001846281318592
 Root      5 :     3.018455541982778   Change is   -0.002635739401789
 Iteration     5 Dimension    60 NMult    50 NNew     10
 CISAX will form    10 AO SS matrices at one time.
 NMat=    10 NSing=    10 JSym2X= 0.
 Root      1 has converged.
 Root      2 has converged.
 Root      3 has converged.
 Root      4 not converged, maximum delta is    0.001486692680033
 Root      5 not converged, maximum delta is    0.001098665427586
 Excitation Energies [eV] at current iteration:
 Root      1 :     1.916266052635183   Change is   -0.000391659376356
 Root      2 :     2.253603111236739   Change is   -0.000234032309040
 Root      3 :     2.879067801883966   Change is   -0.000072250579994
 Root      4 :     2.953101082308285   Change is   -0.000235222940100
 Root      5 :     3.018200037892497   Change is   -0.000255504090280
 Iteration     6 Dimension    64 NMult    60 NNew      4
 CISAX will form     4 AO SS matrices at one time.
 NMat=     4 NSing=     4 JSym2X= 0.
 Root      1 has converged.
 Root      2 has converged.
 Root      3 has converged.
 Root      4 has converged.
 Root      5 has converged.
 Excitation Energies [eV] at current iteration:
 Root      1 :     1.916265006160370   Change is   -0.000001046474813
 Root      2 :     2.253598105943861   Change is   -0.000005005292877
 Root      3 :     2.879067369183001   Change is   -0.000000432700966
 Root      4 :     2.953069352895250   Change is   -0.000031729413035
 Root      5 :     3.018172848179469   Change is   -0.000027189713029
 Convergence achieved on expansion vectors.
 ***********************************************************************
 Excited states from <AA,BB:AA,BB> singles matrix:
 ***********************************************************************
 
 1PDM for each excited state written to RWF  633
 Ground to excited state transition densities written to RWF  633
 Ground to excited state transition electric dipole moments (Au):
       state          X           Y           Z        Dip. S.      Osc.
         1         0.3779      1.7119     -2.1169      7.5547      0.3547
         2         0.1541      1.2876      0.7509      2.2456      0.1240
         3         0.0010     -0.0486     -0.0277      0.0031      0.0002
         4         0.0714      0.1375     -0.0606      0.0277      0.0020
         5         0.0183     -0.1478     -0.0863      0.0296      0.0022
 Ground to excited state transition velocity dipole moments (Au):
       state          X           Y           Z        Dip. S.      Osc.
         1        -0.0269     -0.1168      0.1449      0.0354      0.3349
         2        -0.0122     -0.1018     -0.0583      0.0139      0.1120
         3         0.0015      0.0044      0.0010      0.0000      0.0001
         4        -0.0048     -0.0145      0.0080      0.0003      0.0018
         5        -0.0010      0.0155      0.0102      0.0003      0.0021
 Ground to excited state transition magnetic dipole moments (Au):
       state          X           Y           Z
         1         0.1177     -1.2191     -0.9714
         2         0.0959      0.5560     -0.9153
         3         0.1013     -0.1952      0.3542
         4        -0.3136      0.2976     -0.3597
         5         0.6608      0.0564     -0.0353
 Ground to excited state transition velocity quadrupole moments (Au):
       state          XX          YY          ZZ          XY          XZ          YZ
         1        -0.3609     -0.2940      0.0936     -1.0013      1.2136      0.2440
         2        -0.0757     -0.2227     -0.1391     -0.8728     -0.5025     -0.2160
         3         0.0193      0.0663     -0.0061      0.0399     -0.0121     -0.0446
         4        -0.0439     -0.0483      0.0073     -0.0792      0.0796      0.0176
         5        -0.0357      0.3139     -0.1369      0.1550      0.0847     -0.0585
 <0|del|b> * <b|rxdel|0> + <0|del|b> * <b|delr+rdel|0>
 Rotatory Strengths (R) in cgs (10**-40 erg-esu-cm/Gauss)
       state          XX          YY          ZZ    R(velocity)    E-M Angle
         1        -8.5647    -27.0926     20.2832     -5.1247       90.30
         2       -15.4170     16.8254    -39.5688    -12.7201       92.02
         3        -1.3542      1.3280     -2.3190     -0.7817      100.29
         4       -21.6897     -2.6379    -12.5832    -12.3036      125.80
         5         2.4972     -8.1814      4.5923     -0.3640       90.80
 1/2[<0|r|b>*<b|rxdel|0> + (<0|rxdel|b>*<b|r|0>)*]
 Rotatory Strengths (R) in cgs (10**-40 erg-esu-cm/Gauss)
       state          XX          YY          ZZ     R(length)
         1       -31.4532   1475.8361  -1454.2039     -3.2737
         2       -10.4466   -506.3064    486.0295    -10.2412
         3        -0.0739     -6.7091      6.9321      0.0497
         4        15.8418    -28.9291    -15.4195     -9.5022
         5        -8.5674      5.8908     -2.1516     -1.6094
  1/2[<0|del|b>*<b|r|0> + (<0|r|b>*<b|del|0>)*] (Au)
       state          X           Y           Z        Dip. S.   Osc.(frdel)
         1        -0.0102     -0.2000     -0.3068      0.5169      0.3446
         2        -0.0019     -0.1311     -0.0437      0.1767      0.1178
         3         0.0000     -0.0002     -0.0000      0.0002      0.0002
         4        -0.0003     -0.0020     -0.0005      0.0028      0.0019
         5        -0.0000     -0.0023     -0.0009      0.0032      0.0021

 Excitation energies and oscillator strengths:
 
 Excited State   1:      Singlet-A      1.9163 eV  647.01 nm  f=0.3547  <S**2>=0.000
     245 -> 248        0.17807
     246 -> 247        0.69188
     246 <- 247       -0.10392
 This state for optimization and/or second-order correction.
 Total Energy, E(TD-HF/TD-DFT) =  -3005.30144547    
 Copying the excited state density for this state as the 1-particle RhoCI density.
 
 Excited State   2:      Singlet-A      2.2536 eV  550.16 nm  f=0.1240  <S**2>=0.000
     245 -> 247        0.65671
     246 -> 248       -0.24999
 
 Excited State   3:      Singlet-A      2.8791 eV  430.64 nm  f=0.0002  <S**2>=0.000
     244 -> 247        0.68434
     244 -> 249        0.10597
     244 -> 250        0.10704
 
 Excited State   4:      Singlet-A      2.9531 eV  419.85 nm  f=0.0020  <S**2>=0.000
     240 -> 247        0.24878
     241 -> 247        0.53217
     241 -> 249       -0.14041
     242 -> 247       -0.32631
 
 Excited State   5:      Singlet-A      3.0182 eV  410.79 nm  f=0.0022  <S**2>=0.000
     241 -> 247        0.30750
     242 -> 247        0.61654
 SavETr:  write IOETrn=   770 NScale= 10 NData=  16 NLR=1 NState=    5 LETran=     100.
 Leave Link  914 at Sat Apr 30 04:12:12 2022, MaxMem= 10066329600 cpu:           16576.8 elap:             692.7
 (Enter /sw/apps/gaussian-16.0/g16/l601.exe)
 Copying SCF densities to generalized density rwf, IOpCl= 0 IROHF=0.
 Hyperfine terms turned off by default for NAtoms > 100.

 **********************************************************************

            Population analysis using the SCF density.

 **********************************************************************

 Orbital symmetries:
       Occupied  (A) (A) (A) (A) (A) (A) (A) (A) (A) (A) (A) (A)
                 (A) (A) (A) (A) (A) (A) (A) (A) (A) (A) (A) (A)
                 (A) (A) (A) (A) (A) (A) (A) (A) (A) (A) (A) (A)
                 (A) (A) (A) (A) (A) (A) (A) (A) (A) (A) (A) (A)
                 (A) (A) (A) (A) (A) (A) (A) (A) (A) (A) (A) (A)
                 (A) (A) (A) (A) (A) (A) (A) (A) (A) (A) (A) (A)
                 (A) (A) (A) (A) (A) (A) (A) (A) (A) (A) (A) (A)
                 (A) (A) (A) (A) (A) (A) (A) (A) (A) (A) (A) (A)
                 (A) (A) (A) (A) (A) (A) (A) (A) (A) (A) (A) (A)
                 (A) (A) (A) (A) (A) (A) (A) (A) (A) (A) (A) (A)
                 (A) (A) (A) (A) (A) (A) (A) (A) (A) (A) (A) (A)
                 (A) (A) (A) (A) (A) (A) (A) (A) (A) (A) (A) (A)
                 (A) (A) (A) (A) (A) (A) (A) (A) (A) (A) (A) (A)
                 (A) (A) (A) (A) (A) (A) (A) (A) (A) (A) (A) (A)
                 (A) (A) (A) (A) (A) (A) (A) (A) (A) (A) (A) (A)
                 (A) (A) (A) (A) (A) (A) (A) (A) (A) (A) (A) (A)
                 (A) (A) (A) (A) (A) (A) (A) (A) (A) (A) (A) (A)
                 (A) (A) (A) (A) (A) (A) (A) (A) (A) (A) (A) (A)
                 (A) (A) (A) (A) (A) (A) (A) (A) (A) (A) (A) (A)
                 (A) (A) (A) (A) (A) (A) (A) (A) (A) (A) (A) (A)
                 (A) (A) (A) (A) (A) (A)
       Virtual   (A) (A) (A) (A) (A) (A) (A) (A) (A) (A) (A) (A)
                 (A) (A) (A) (A) (A) (A) (A) (A) (A) (A) (A) (A)
                 (A) (A) (A) (A) (A) (A) (A) (A) (A) (A) (A) (A)
                 (A) (A) (A) (A) (A) (A) (A) (A) (A) (A) (A) (A)
                 (A) (A) (A) (A) (A) (A) (A) (A) (A) (A) (A) (A)
                 (A) (A) (A) (A) (A) (A) (A) (A) (A) (A) (A) (A)
                 (A) (A) (A) (A) (A) (A) (A) (A) (A) (A) (A) (A)
                 (A) (A) (A) (A) (A) (A) (A) (A) (A) (A) (A) (A)
                 (A) (A) (A) (A) (A) (A) (A) (A) (A) (A) (A) (A)
                 (A) (A) (A) (A) (A) (A) (A) (A) (A) (A) (A) (A)
                 (A) (A) (A) (A) (A) (A) (A) (A) (A) (A) (A) (A)
                 (A) (A) (A) (A) (A) (A) (A) (A) (A) (A) (A) (A)
                 (A) (A) (A) (A) (A) (A) (A) (A) (A) (A) (A) (A)
                 (A) (A) (A) (A) (A) (A) (A) (A) (A) (A) (A) (A)
                 (A) (A) (A) (A) (A) (A) (A) (A) (A) (A) (A) (A)
                 (A) (A) (A) (A) (A) (A) (A) (A) (A) (A) (A) (A)
                 (A) (A) (A) (A) (A) (A) (A) (A) (A) (A) (A) (A)
                 (A) (A) (A) (A) (A) (A) (A) (A) (A) (A) (A) (A)
                 (A) (A) (A) (A) (A) (A) (A) (A) (A) (A) (A) (A)
                 (A) (A) (A) (A) (A) (A) (A) (A) (A) (A) (A) (A)
                 (A) (A) (A) (A) (A) (A) (A) (A) (A) (A) (A) (A)
                 (A) (A) (A) (A) (A) (A) (A) (A) (A) (A) (A) (A)
                 (A) (A) (A) (A) (A) (A) (A) (A) (A) (A) (A) (A)
                 (A) (A) (A) (A) (A) (A) (A) (A) (A) (A) (A) (A)
                 (A) (A) (A) (A) (A) (A) (A) (A) (A) (A) (A) (A)
                 (A) (A) (A) (A) (A) (A) (A) (A) (A) (A) (A) (A)
                 (A) (A) (A) (A) (A) (A) (A) (A) (A) (A) (A) (A)
                 (A) (A) (A) (A) (A) (A) (A) (A) (A) (A) (A) (A)
                 (A) (A) (A) (A) (A) (A) (A) (A) (A) (A) (A) (A)
                 (A) (A) (A) (A) (A) (A) (A) (A) (A) (A) (A) (A)
                 (A) (A) (A) (A) (A) (A) (A) (A) (A) (A) (A) (A)
                 (A) (A) (A) (A) (A) (A) (A) (A) (A) (A) (A) (A)
                 (A) (A) (A) (A) (A) (A) (A) (A) (A) (A) (A) (A)
                 (A) (A) (A) (A) (A) (A) (A) (A) (A) (A) (A) (A)
                 (A) (A) (A) (A) (A) (A) (A) (A) (A) (A) (A) (A)
                 (A) (A) (A) (A) (A) (A) (A) (A) (A) (A) (A) (A)
                 (A) (A) (A) (A) (A) (A) (A) (A) (A) (A) (A) (A)
                 (A) (A) (A) (A) (A) (A) (A) (A) (A) (A) (A) (A)
                 (A) (A) (A) (A) (A) (A) (A) (A) (A) (A) (A) (A)
                 (A) (A) (A) (A) (A) (A) (A) (A) (A) (A) (A) (A)
                 (A) (A) (A) (A) (A) (A) (A) (A) (A) (A) (A) (A)
                 (A) (A) (A) (A) (A) (A) (A) (A) (A) (A) (A) (A)
                 (A) (A) (A) (A) (A) (A) (A) (A) (A) (A) (A) (A)
                 (A) (A) (A) (A) (A) (A) (A) (A) (A) (A) (A) (A)
                 (A) (A) (A) (A) (A) (A) (A) (A) (A) (A) (A) (A)
                 (A) (A) (A) (A) (A) (A) (A) (A) (A) (A) (A) (A)
                 (A) (A) (A) (A) (A) (A) (A) (A) (A) (A) (A) (A)
                 (A) (A) (A) (A) (A) (A) (A) (A) (A) (A) (A) (A)
                 (A) (A) (A) (A) (A) (A) (A) (A) (A) (A) (A) (A)
                 (A) (A) (A) (A) (A) (A) (A) (A) (A) (A) (A) (A)
                 (A) (A) (A) (A) (A) (A) (A) (A) (A) (A) (A) (A)
                 (A) (A) (A) (A) (A) (A) (A) (A) (A) (A) (A) (A)
                 (A) (A) (A) (A) (A) (A) (A) (A) (A) (A) (A) (A)
                 (A) (A) (A) (A) (A) (A) (A) (A) (A) (A) (A) (A)
                 (A) (A) (A) (A) (A) (A) (A) (A) (A) (A) (A) (A)
                 (A) (A) (A) (A) (A) (A) (A) (A) (A) (A) (A) (A)
                 (A) (A) (A) (A) (A) (A) (A) (A) (A) (A) (A) (A)
                 (A) (A) (A) (A) (A) (A) (A) (A) (A) (A) (A) (A)
                 (A) (A) (A) (A) (A) (A) (A) (A) (A) (A) (A) (A)
                 (A) (A) (A) (A) (A) (A) (A) (A) (A) (A) (A) (A)
                 (A) (A) (A) (A) (A) (A) (A) (A) (A) (A) (A) (A)
                 (A) (A) (A) (A) (A) (A) (A) (A) (A) (A) (A) (A)
[...]
 Alpha virt. eigenvalues --    1.14962   1.15209   1.16081   1.16722   1.17683
 Alpha virt. eigenvalues --    1.18060   1.18342   1.18501   1.19425   1.19789
 Alpha virt. eigenvalues --    1.19914   1.20198   1.20273   1.21297   1.21624
 Alpha virt. eigenvalues --    1.22289   1.22498   1.22890   1.23498   1.24130
 Alpha virt. eigenvalues --    1.24379   1.24697   1.24865   1.25652   1.26045
 Alpha virt. eigenvalues --    1.26271   1.26998   1.27089   1.28346   1.28603
 Alpha virt. eigenvalues --    1.29305   1.29410   1.30047   1.30295   1.30589
 Alpha virt. eigenvalues --    1.31002   1.31605   1.31963   1.32418   1.32597
 Alpha virt. eigenvalues --    1.32882   1.32949   1.33400   1.34015   1.34301
 Alpha virt. eigenvalues --    1.35281   1.35565   1.35770   1.36181   1.36653
 Alpha virt. eigenvalues --    1.36984   1.37386   1.37577   1.38241   1.38508
 Alpha virt. eigenvalues --    1.38639   1.38766   1.39488   1.39668   1.39842
 Alpha virt. eigenvalues --    1.39976   1.40429   1.40697   1.41264   1.41579
 Alpha virt. eigenvalues --    1.42267   1.42615   1.42975   1.43469   1.43618
 Alpha virt. eigenvalues --    1.43656   1.43853   1.44670   1.45208   1.45234
 Alpha virt. eigenvalues --    1.45617   1.46950   1.47260   1.48339   1.48811
 Alpha virt. eigenvalues --    1.49340   1.50180   1.50473   1.50682   1.51021
 Alpha virt. eigenvalues --    1.51340   1.51505   1.51723   1.51855   1.52404
 Alpha virt. eigenvalues --    1.52824   1.53019   1.53251   1.53389   1.53528
 Alpha virt. eigenvalues --    1.53800   1.53904   1.54300   1.54441   1.54865
 Alpha virt. eigenvalues --    1.55066   1.55206   1.55943   1.56176   1.56479
 Alpha virt. eigenvalues --    1.56790   1.56837   1.56877   1.57232   1.57382
 Alpha virt. eigenvalues --    1.57652   1.58119   1.58548   1.58689   1.58773
 Alpha virt. eigenvalues --    1.59288   1.59748   1.60331   1.60533   1.61164
 Alpha virt. eigenvalues --    1.61358   1.62127   1.62424   1.62717   1.63000
 Alpha virt. eigenvalues --    1.63323   1.63638   1.64394   1.64591   1.65088
 Alpha virt. eigenvalues --    1.65880   1.66347   1.66647   1.67785   1.68507
 Alpha virt. eigenvalues --    1.69176   1.69514   1.69660   1.69741   1.70004
 Alpha virt. eigenvalues --    1.70726   1.70840   1.71182   1.71355   1.71510
 Alpha virt. eigenvalues --    1.72075   1.72394   1.72836   1.72950   1.73287
 Alpha virt. eigenvalues --    1.73313   1.73774   1.74262   1.74385   1.74458
 Alpha virt. eigenvalues --    1.74740   1.75056   1.75296   1.75484   1.75621
 Alpha virt. eigenvalues --    1.75700   1.76090   1.76179   1.76264   1.76742
 Alpha virt. eigenvalues --    1.77249   1.77350   1.77473   1.77749   1.77931
 Alpha virt. eigenvalues --    1.78115   1.78307   1.78465   1.78738   1.79071
 Alpha virt. eigenvalues --    1.79099   1.79389   1.79522   1.79630   1.80010
 Alpha virt. eigenvalues --    1.80239   1.80478   1.80492   1.80713   1.80758
 Alpha virt. eigenvalues --    1.81017   1.81121   1.81225   1.81417   1.81625
 Alpha virt. eigenvalues --    1.81877   1.81967   1.82331   1.82411   1.82592
 Alpha virt. eigenvalues --    1.82733   1.82900   1.83007   1.83219   1.83391
 Alpha virt. eigenvalues --    1.83538   1.84147   1.84257   1.84779   1.85135
 Alpha virt. eigenvalues --    1.85231   1.85361   1.85494   1.85582   1.85699
 Alpha virt. eigenvalues --    1.86038   1.86415   1.86623   1.86655   1.86686
 Alpha virt. eigenvalues --    1.86982   1.87232   1.87504   1.87587   1.87659
 Alpha virt. eigenvalues --    1.87816   1.87910   1.88110   1.88435   1.88635
 Alpha virt. eigenvalues --    1.89010   1.89166   1.89450   1.89497   1.90216
 Alpha virt. eigenvalues --    1.90370   1.90485   1.90601   1.90974   1.91161
 Alpha virt. eigenvalues --    1.91417   1.91466   1.92085   1.92145   1.92173
 Alpha virt. eigenvalues --    1.92722   1.93063   1.93296   1.93669   1.93766
 Alpha virt. eigenvalues --    1.94271   1.94370   1.94440   1.94529   1.94725
 Alpha virt. eigenvalues --    1.95237   1.95503   1.95836   1.96509   1.96773
 Alpha virt. eigenvalues --    1.97163   1.97590   1.97903   1.98213   1.98247
 Alpha virt. eigenvalues --    1.98646   1.98694   1.98949   1.99294   1.99379
 Alpha virt. eigenvalues --    1.99808   2.00327   2.00531   2.00729   2.01282
 Alpha virt. eigenvalues --    2.01484   2.01873   2.01995   2.02501   2.02679
 Alpha virt. eigenvalues --    2.02912   2.03128   2.04065   2.04274   2.04429
 Alpha virt. eigenvalues --    2.04633   2.04782   2.04971   2.05079   2.05508
 Alpha virt. eigenvalues --    2.05720   2.06124   2.06822   2.06984   2.07165
 Alpha virt. eigenvalues --    2.07587   2.07720   2.08427   2.08797   2.08892
 Alpha virt. eigenvalues --    2.09230   2.09558   2.09610   2.09882   2.10037
 Alpha virt. eigenvalues --    2.10404   2.10540   2.11159   2.11624   2.11891
 Alpha virt. eigenvalues --    2.12167   2.12226   2.12566   2.12713   2.12971
 Alpha virt. eigenvalues --    2.13385   2.13662   2.14151   2.14519   2.14991
 Alpha virt. eigenvalues --    2.15496   2.15661   2.15774   2.16304   2.16714
 Alpha virt. eigenvalues --    2.17097   2.17359   2.17950   2.18209   2.18236
 Alpha virt. eigenvalues --    2.18418   2.18773   2.19792   2.20491   2.20682
 Alpha virt. eigenvalues --    2.20979   2.21270   2.21414   2.21924   2.22534
 Alpha virt. eigenvalues --    2.22835   2.22937   2.23713   2.24047   2.24118
 Alpha virt. eigenvalues --    2.24615   2.25619   2.25704   2.26603   2.26819
 Alpha virt. eigenvalues --    2.27544   2.27843   2.28770   2.29161   2.29771
 Alpha virt. eigenvalues --    2.29942   2.30282   2.30700   2.30791   2.31307
 Alpha virt. eigenvalues --    2.31982   2.32132   2.32630   2.32707   2.33371
 Alpha virt. eigenvalues --    2.33692   2.33953   2.34405   2.34579   2.35064
 Alpha virt. eigenvalues --    2.35271   2.35441   2.35553   2.36189   2.36447
 Alpha virt. eigenvalues --    2.36933   2.37439   2.37596   2.38040   2.38299
 Alpha virt. eigenvalues --    2.38582   2.38731   2.39338   2.39683   2.40226
 Alpha virt. eigenvalues --    2.41101   2.41143   2.41413   2.41861   2.42322
 Alpha virt. eigenvalues --    2.42777   2.43619   2.44089   2.44656   2.44903
 Alpha virt. eigenvalues --    2.45080   2.45729   2.45856   2.45932   2.46073
 Alpha virt. eigenvalues --    2.46860   2.46984   2.47519   2.47630   2.48051
 Alpha virt. eigenvalues --    2.48281   2.48386   2.49243   2.49860   2.50158
 Alpha virt. eigenvalues --    2.50518   2.50805   2.51059   2.51599   2.52074
 Alpha virt. eigenvalues --    2.52311   2.52658   2.53154   2.53248   2.54263
 Alpha virt. eigenvalues --    2.54735   2.54785   2.55083   2.55801   2.55874
 Alpha virt. eigenvalues --    2.55915   2.56247   2.56781   2.57806   2.58036
 Alpha virt. eigenvalues --    2.58731   2.59398   2.59445   2.59487   2.59540
 Alpha virt. eigenvalues --    2.60459   2.60588   2.60949   2.61565   2.61999
 Alpha virt. eigenvalues --    2.62766   2.62987   2.63708   2.64061   2.64129
 Alpha virt. eigenvalues --    2.64290   2.64414   2.64985   2.65407   2.65685
 Alpha virt. eigenvalues --    2.65740   2.66393   2.66521   2.66913   2.67298
 Alpha virt. eigenvalues --    2.67436   2.67763   2.68513   2.68778   2.69262
 Alpha virt. eigenvalues --    2.69483   2.70178   2.70199   2.71489   2.71577
 Alpha virt. eigenvalues --    2.71929   2.72250   2.73107   2.73747   2.74185
 Alpha virt. eigenvalues --    2.74589   2.74866   2.74998   2.75291   2.75430
 Alpha virt. eigenvalues --    2.76261   2.76607   2.76691   2.77547   2.77878
 Alpha virt. eigenvalues --    2.77950   2.79491   2.79634   2.80028   2.80726
 Alpha virt. eigenvalues --    2.81306   2.81785   2.81898   2.82124   2.84160
 Alpha virt. eigenvalues --    2.84544   2.84765   2.85246   2.86060   2.86204
 Alpha virt. eigenvalues --    2.86392   2.86600   2.87159   2.87601   2.88218
 Alpha virt. eigenvalues --    2.88307   2.88943   2.89409   2.89739   2.90028
 Alpha virt. eigenvalues --    2.91138   2.91272   2.92222   2.92384   2.92669
 Alpha virt. eigenvalues --    2.93095   2.93487   2.93841   2.93990   2.94878
 Alpha virt. eigenvalues --    2.95185   2.95464   2.95611   2.95719   2.96053
 Alpha virt. eigenvalues --    2.96276   2.96670   2.96874   2.97073   2.97229
 Alpha virt. eigenvalues --    2.97304   2.97611   2.97859   2.98340   2.98724
 Alpha virt. eigenvalues --    2.98837   2.99196   2.99491   2.99803   3.00071
 Alpha virt. eigenvalues --    3.00259   3.00704   3.00902   3.00983   3.01311
 Alpha virt. eigenvalues --    3.01800   3.01824   3.02143   3.02474   3.02922
 Alpha virt. eigenvalues --    3.02970   3.03807   3.03914   3.04793   3.05055
 Alpha virt. eigenvalues --    3.05317   3.05547   3.05587   3.06070   3.06285
 Alpha virt. eigenvalues --    3.07524   3.07910   3.08587   3.08985   3.09267
 Alpha virt. eigenvalues --    3.10543   3.10872   3.11517   3.11954   3.12900
 Alpha virt. eigenvalues --    3.13288   3.13414   3.15238   3.15627   3.15948
 Alpha virt. eigenvalues --    3.16479   3.16704   3.18734   3.19287   3.20214
 Alpha virt. eigenvalues --    3.20384   3.20998   3.22837   3.23034   3.23837
 Alpha virt. eigenvalues --    3.26293   3.28844   3.35612   3.39278   3.39685
 Alpha virt. eigenvalues --    3.43787   3.45174   3.46906   3.50971   3.53867
 Alpha virt. eigenvalues --    3.56850   3.62021   3.62773   3.66591   3.67508
 Alpha virt. eigenvalues --    3.68711   3.69985
          Condensed to atoms (all electrons):
 Mulliken charges:
               1
     1  Mg   0.981007
     2  C   -0.074451
     3  C   -0.090599
     4  C   -0.061077
     5  C   -0.089864
     6  N   -0.362754
     7  C    0.052715
     8  C   -0.101034
     9  C   -0.184471
    10  C    0.090190
    11  C    0.031028
    12  C   -0.003136
    13  C    0.001115
    14  C    0.212642
    15  O   -0.257267
    16  O   -0.364286
    17  N   -0.493702
    18  C    0.212141
    19  C   -0.167226
    20  C   -0.077920
    21  C    0.184773
    22  C    0.081132
    23  C    0.023206
    24  O   -0.238077
    25  C   -0.004854
    26  N   -0.438907
    27  C    0.026530
    28  C   -0.107113
    29  C   -0.125687
    30  C    0.084088
    31  C    0.023611
    32  C   -0.023889
    33  C   -0.021735
    34  N   -0.432421
    35  C    0.154764
    36  C   -0.182689
    37  C   -0.046366
    38  C    0.197206
    39  C    0.075499
    40  C    0.164708
    41  O   -0.210581
    42  C   -0.142536
    43  C    0.304000
    44  O   -0.214525
    45  O   -0.376556
    46  C    0.113651
    47  C    0.223374
    48  C   -0.130354
    49  C   -0.191676
    50  C    0.036507
    51  C   -0.044959
    52  C   -0.045432
    53  C    0.000633
    54  C   -0.206171
    55  C   -0.004510
    56  C    0.007483
    57  C   -0.087370
    58  C    0.017199
    59  C   -0.208215
    60  C   -0.019874
    61  C   -0.021591
    62  C   -0.041917
    63  C    0.013256
    64  C   -0.242552
    65  C   -0.028937
    66  C   -0.018780
    67  H    0.013299
    68  H   -0.017365
    69  H   -0.004609
    70  H    0.037637
    71  H    0.029847
    72  H    0.046683
    73  H    0.040846
    74  H    0.046820
    75  H    0.041391
    76  H    0.060873
    77  H    0.075772
    78  H    0.051897
    79  H    0.057458
    80  H    0.015192
    81  H    0.060362
    82  H    0.083108
    83  H    0.048527
    84  H    0.056273
    85  H    0.046449
    86  H    0.032488
    87  H    0.042016
    88  H    0.054543
    89  H    0.040496
    90  H    0.031100
    91  H    0.043213
    92  H    0.043761
    93  H    0.018597
    94  H    0.058768
    95  H    0.053711
    96  H    0.042173
    97  H    0.072040
    98  H    0.076944
    99  H    0.070834
   100  H    0.049888
   101  H    0.057087
   102  H    0.069164
   103  H    0.055255
   104  H    0.034131
   105  H    0.060656
   106  H    0.034643
   107  H    0.056554
   108  H    0.033704
   109  H    0.031741
   110  H    0.040191
   111  H    0.041876
   112  H    0.017526
   113  H    0.013452
   114  H    0.032450
   115  H    0.035532
   116  H    0.021300
   117  H    0.035359
   118  H    0.020943
   119  H    0.037026
   120  H    0.015525
   121  H    0.040461
   122  H    0.019553
   123  H    0.017056
   124  H    0.037448
   125  H    0.025022
   126  H    0.033430
   127  H    0.026158
   128  H    0.021560
   129  H    0.032203
   130  H    0.040020
   131  H    0.028791
   132  H    0.019610
   133  H    0.032659
   134  H    0.040071
   135  H    0.032973
   136  H    0.024503
   137  H    0.022977
   138  H    0.030841
   139  H    0.035988
   140  H    0.047134
 Sum of Mulliken charges =  -0.00000
 Mulliken charges with hydrogens summed into heavy atoms:
               1
     1  Mg   0.981007
     2  C   -0.074451
     3  C   -0.077300
     4  C   -0.078443
     5  C   -0.094473
     6  N   -0.362754
     7  C    0.052715
     8  C   -0.063397
     9  C   -0.154624
    10  C    0.090190
    11  C    0.165377
    12  C    0.099128
    13  C    0.128784
    14  C    0.212642
    15  O   -0.257267
    16  O   -0.364286
    17  N   -0.493702
    18  C    0.212141
    19  C   -0.167226
    20  C   -0.077920
    21  C    0.184773
    22  C    0.214144
    23  C    0.023206
    24  O   -0.238077
    25  C    0.183054
    26  N   -0.438907
    27  C    0.026530
    28  C   -0.060664
    29  C   -0.093199
    30  C    0.084088
    31  C    0.160666
    32  C    0.050424
    33  C    0.099390
    34  N   -0.432421
    35  C    0.154764
    36  C   -0.182689
    37  C   -0.046366
    38  C    0.197206
    39  C    0.243424
    40  C    0.164708
    41  O   -0.210581
    42  C   -0.065592
    43  C    0.304000
    44  O   -0.214525
    45  O   -0.376556
    46  C    0.291459
    47  C    0.347794
    48  C   -0.096223
    49  C   -0.191676
    50  C    0.188360
    51  C    0.020485
    52  C    0.036634
    53  C    0.031611
    54  C   -0.173721
    55  C    0.087680
    56  C    0.065451
    57  C   -0.031383
    58  C    0.053809
    59  C   -0.170767
    60  C    0.064736
    61  C    0.032172
    62  C    0.026894
    63  C    0.065526
    64  C   -0.202481
    65  C    0.051518
    66  C    0.095182
 Electronic spatial extent (au):  <R**2>=         100704.3601
 Charge=             -0.0000 electrons
 Dipole moment (field-independent basis, Debye):
    X=             -1.5619    Y=              1.3853    Z=             -0.3693  Tot=              2.1202
 Quadrupole moment (field-independent basis, Debye-Ang):
   XX=           -389.0752   YY=           -404.3854   ZZ=           -404.2360
   XY=             -2.8531   XZ=              5.8288   YZ=             59.5199
 Traceless Quadrupole moment (field-independent basis, Debye-Ang):
   XX=             10.1570   YY=             -5.1532   ZZ=             -5.0038
   XY=             -2.8531   XZ=              5.8288   YZ=             59.5199
 Octapole moment (field-independent basis, Debye-Ang**2):
  XXX=              0.0432  YYY=            -95.2600  ZZZ=             85.4456  XYY=             23.6705
  XXY=            -72.5296  XXZ=             29.1910  XZZ=              4.7494  YZZ=            -46.3863
  YYZ=             18.3160  XYZ=            280.2584
 Hexadecapole moment (field-independent basis, Debye-Ang**3):
 XXXX=         -97716.6643 YYYY=         -24336.2430 ZZZZ=         -15348.7076 XXXY=          -1158.2619
 XXXZ=            269.9168 YYYX=           -682.7560 YYYZ=           1460.1625 ZZZX=            506.1659
 ZZZY=            885.8165 XXYY=         -19974.7127 XXZZ=         -19144.8656 YYZZ=          -7676.9363
 XXYZ=           1260.9258 YYXZ=            378.9400 ZZXY=           -344.5134
 N-N= 9.787340549403D+03 E-N=-2.656611670578D+04  KE= 2.975191840130D+03
 Leave Link  601 at Sat Apr 30 04:12:12 2022, MaxMem= 10066329600 cpu:              15.9 elap:               0.8
 (Enter /sw/apps/gaussian-16.0/g16/l9999.exe)
 1\1\GINC-BP1-COMPUTE150\SP\RPBE1PBE TD-FC\def2SVP\C55H74Mg1N4O6\OF1564
 1\30-Apr-2022\0\\#p PBE1PBE/Def2SVP td=(nstates=5)\\step_551_chromopho
 re_8 TDDFT with PBE1PBE functional\\0,1\Mg,0,43.976,3.385,47.283\C,0,4
 1.633,5.991,46.689\C,0,41.273,1.134,47.222\C,0,46.134,0.921,47.216\C,0
 ,46.47,5.738,47.051\N,0,41.74,3.527,46.813\C,0,41.004,4.691,46.69\C,0,
 39.516,4.389,46.428\C,0,39.463,2.932,47.061\C,0,40.935,2.432,46.896\C,
 0,38.888,2.92,48.497\C,0,39.069,4.496,44.946\C,0,38.211,5.689,44.43\C,
 0,38.902,6.161,43.14\O,0,39.782,7.008,43.199\O,0,38.422,5.474,42.054\N
 ,0,43.761,1.315,47.327\C,0,42.568,0.623,47.267\C,0,42.892,-0.749,47.26
 9\C,0,44.272,-0.87,47.243\C,0,44.77,0.429,47.15\C,0,41.738,-1.818,47.3
 89\C,0,45.064,-2.153,47.208\O,0,44.536,-3.199,47.528\C,0,46.479,-2.175
 ,46.868\N,0,45.998,3.332,47.063\C,0,46.73,2.179,47.171\C,0,48.271,2.48
 8,47.282\C,0,48.321,4.057,46.936\C,0,46.825,4.408,47.065\C,0,48.886,2.
 113,48.655\C,0,48.798,4.329,45.583\C,0,50.268,3.961,45.288\N,0,44.136,
 5.469,46.983\C,0,45.185,6.287,46.925\C,0,44.785,7.633,46.613\C,0,43.38
 1,7.587,46.57\C,0,43.024,6.207,46.804\C,0,45.656,8.793,46.494\C,0,42.2
 18,8.371,46.224\O,0,42.129,9.543,45.867\C,0,40.967,7.368,46.532\C,0,40
 .305,7.826,47.799\O,0,40.871,8.111,48.807\O,0,38.931,7.823,47.651\C,0,
 38.146,7.905,48.889\C,0,39.032,6.005,40.785\C,0,40.05,5.063,40.203\C,0
 ,41.086,5.406,39.37\C,0,41.368,6.677,38.615\C,0,41.923,4.202,38.883\C,
 0,41.17,3.482,37.675\C,0,41.912,2.221,37.347\C,0,41.402,1.473,36.004\C
 ,0,41.05,-0.03,36.14\C,0,42.365,1.662,34.795\C,0,42.038,2.969,33.997\C
 ,0,43.033,4.113,34.284\C,0,44.082,3.992,33.193\C,0,45.487,4.189,33.893
 \C,0,43.842,5.098,32.101\C,0,43.017,4.583,30.867\C,0,43.236,5.462,29.5
 76\C,0,43.699,4.685,28.326\C,0,42.508,4.698,27.312\C,0,45.006,5.274,27
 .72\H,0,40.375,0.513,47.247\H,0,46.959,0.207,47.265\H,0,47.333,6.404,4
 6.99\H,0,38.91,5.111,46.974\H,0,38.744,2.311,46.527\H,0,38.621,3.933,4
 8.801\H,0,39.699,2.568,49.133\H,0,38.096,2.177,48.591\H,0,38.582,3.579
 ,44.613\H,0,39.963,4.492,44.324\H,0,38.135,6.476,45.18\H,0,37.241,5.23
 4,44.227\H,0,41.806,-2.6,46.633\H,0,40.733,-1.405,47.311\H,0,41.771,-2
 .228,48.399\H,0,47.086,-1.905,47.732\H,0,46.44,-1.419,46.084\H,0,46.84
 9,-3.092,46.409\H,0,48.754,1.915,46.491\H,0,48.847,4.63,47.7\H,0,49.47
 2,1.195,48.605\H,0,48.147,1.981,49.445\H,0,49.582,2.911,48.914\H,0,48.
 756,5.408,45.436\H,0,48.021,3.843,44.992\H,0,50.396,2.885,45.169\H,0,5
 0.745,4.097,46.258\H,0,50.742,4.653,44.592\H,0,46.251,8.692,45.587\H,0
 ,46.403,8.861,47.286\H,0,44.99,9.647,46.618\H,0,40.221,7.31,45.739\H,0
 ,38.563,8.623,49.596\H,0,38.032,6.967,49.432\H,0,37.137,8.203,48.605\H
 ,0,39.515,6.98,40.844\H,0,38.172,6.182,40.139\H,0,39.924,4.01,40.454\H
 ,0,42.235,7.163,39.061\H,0,40.565,7.402,38.745\H,0,41.55,6.404,37.575\
 H,0,42.017,3.496,39.708\H,0,42.961,4.453,38.663\H,0,41.105,4.188,36.84
 8\H,0,40.187,3.118,37.975\H,0,41.901,1.481,38.147\H,0,42.981,2.407,37.
 241\H,0,40.481,2.024,35.814\H,0,40.,-0.276,35.985\H,0,41.22,-0.39,37.1
 54\H,0,41.646,-0.636,35.457\H,0,42.101,0.855,34.112\H,0,43.423,1.552,3
 5.033\H,0,41.126,3.406,34.403\H,0,41.866,2.737,32.946\H,0,43.42,3.976,
 35.293\H,0,42.526,5.075,34.361\H,0,44.053,2.992,32.759\H,0,45.798,5.23
 3,33.906\H,0,46.287,3.659,33.375\H,0,45.46,3.909,34.946\H,0,44.805,5.2
 84,31.626\H,0,43.62,6.059,32.566\H,0,41.978,4.554,31.195\H,0,43.349,3.
 577,30.608\H,0,44.039,6.171,29.778\H,0,42.359,6.082,29.388\H,0,43.847,
 3.621,28.512\H,0,42.758,5.132,26.344\H,0,41.605,5.158,27.714\H,0,42.07
 5,3.722,27.093\H,0,45.139,4.942,26.69\H,0,45.867,4.821,28.211\H,0,45.0
 28,6.363,27.772\\Version=ES64L-G16RevA.03\State=1-A\HF=-3005.3718669\R
 MSD=8.285e-09\PG=C01 [X(C55H74Mg1N4O6)]\\@


 HE WHO LOVES TO READ, AND KNOWS HOW TO REFLECT,
 HAS LAID BY A PERPETUAL FEAST FOR HIS OLD AGE.
 -- UNCLE ESEK, "SCRIBNER'S MONTHLY", SEPT. 1880
 Job cpu time:       0 days  6 hours 31 minutes 38.0 seconds.
 Elapsed time:       0 days  0 hours 16 minutes 23.4 seconds.
 File lengths (MBytes):  RWF=   8929 Int=      0 D2E=      0 Chk=    390 Scr=      1
 Normal termination of Gaussian 16 at Sat Apr 30 04:12:13 2022.
