 Entering Gaussian System, Link 0=g16
 Initial command:
 /sw/apps/gaussian-16.0/g16/l1.exe "/tmp/Gau-59550.inp" -scrdir="/tmp/"
 Entering Link 1 = /sw/apps/gaussian-16.0/g16/l1.exe PID=     59551.
  
 Copyright (c) 1988,1990,1992,1993,1995,1998,2003,2009,2016,
            Gaussian, Inc.  All Rights Reserved.
  
 This is part of the Gaussian(R) 16 program.  It is based on
 the Gaussian(R) 09 system (copyright 2009, Gaussian, Inc.),
 the Gaussian(R) 03 system (copyright 2003, Gaussian, Inc.),
 the Gaussian(R) 98 system (copyright 1998, Gaussian, Inc.),
 the Gaussian(R) 94 system (copyright 1995, Gaussian, Inc.),
 the Gaussian 92(TM) system (copyright 1992, Gaussian, Inc.),
 the Gaussian 90(TM) system (copyright 1990, Gaussian, Inc.),
 the Gaussian 88(TM) system (copyright 1988, Gaussian, Inc.),
 the Gaussian 86(TM) system (copyright 1986, Carnegie Mellon
 University), and the Gaussian 82(TM) system (copyright 1983,
 Carnegie Mellon University). Gaussian is a federally registered
 trademark of Gaussian, Inc.
  
 This software contains proprietary and confidential information,
 including trade secrets, belonging to Gaussian, Inc.
  
 This software is provided under written license and may be
 used, copied, transmitted, or stored only in accord with that
 written license.
  
 The following legend is applicable only to US Government
 contracts under FAR:
  
                    RESTRICTED RIGHTS LEGEND
  
 Use, reproduction and disclosure by the US Government is
 subject to restrictions as set forth in subparagraphs (a)
 and (c) of the Commercial Computer Software - Restricted
 Rights clause in FAR 52.227-19.
  
 Gaussian, Inc.
 340 Quinnipiac St., Bldg. 40, Wallingford CT 06492
  
  
 ---------------------------------------------------------------
 Warning -- This program may not be used in any manner that
 competes with the business of Gaussian, Inc. or will provide
 assistance to any competitor of Gaussian, Inc.  The licensee
 of this program is prohibited from giving any competitor of
 Gaussian, Inc. access to this program.  By using this program,
 the user acknowledges that Gaussian, Inc. is engaged in the
 business of creating and licensing software in the field of
 computational chemistry and represents and warrants to the
 licensee that it is not a competitor of Gaussian, Inc. and that
 it will not use this program in any manner prohibited above.
 ---------------------------------------------------------------
  

 Cite this work as:
 Gaussian 16, Revision A.03,
 M. J. Frisch, G. W. Trucks, H. B. Schlegel, G. E. Scuseria, 
 M. A. Robb, J. R. Cheeseman, G. Scalmani, V. Barone, 
 G. A. Petersson, H. Nakatsuji, X. Li, M. Caricato, A. V. Marenich, 
 J. Bloino, B. G. Janesko, R. Gomperts, B. Mennucci, H. P. Hratchian, 
 J. V. Ortiz, A. F. Izmaylov, J. L. Sonnenberg, D. Williams-Young, 
 F. Ding, F. Lipparini, F. Egidi, J. Goings, B. Peng, A. Petrone, 
 T. Henderson, D. Ranasinghe, V. G. Zakrzewski, J. Gao, N. Rega, 
 G. Zheng, W. Liang, M. Hada, M. Ehara, K. Toyota, R. Fukuda, 
 J. Hasegawa, M. Ishida, T. Nakajima, Y. Honda, O. Kitao, H. Nakai, 
 T. Vreven, K. Throssell, J. A. Montgomery, Jr., J. E. Peralta, 
 F. Ogliaro, M. J. Bearpark, J. J. Heyd, E. N. Brothers, K. N. Kudin, 
 V. N. Staroverov, T. A. Keith, R. Kobayashi, J. Normand, 
 K. Raghavachari, A. P. Rendell, J. C. Burant, S. S. Iyengar, 
 J. Tomasi, M. Cossi, J. M. Millam, M. Klene, C. Adamo, R. Cammi, 
 J. W. Ochterski, R. L. Martin, K. Morokuma, O. Farkas, 
 J. B. Foresman, and D. J. Fox, Gaussian, Inc., Wallingford CT, 2016.
 
 ******************************************
 Gaussian 16:  ES64L-G16RevA.03 25-Dec-2016
                27-Apr-2022 
 ******************************************
 %nproc=24
 Will use up to   24 processors via shared memory.
 %mem=50gb
 --------------------
 #p ZINDO=(nstates=5)
 --------------------
 1/38=1,172=1/1;
 2/12=2,17=6,18=5,40=1/2;
 3/5=2,25=1,41=400000/1,2,3,8;
 4/5=3,35=1/1;
 5/5=2,35=1,38=5/2;
 8/6=1,108=5/1;
 9/41=5,42=1,49=10/14;
 6/7=2,8=2,9=2,10=2/1;
 99/5=1,9=1/99;
 Leave Link    1 at Wed Apr 27 11:08:37 2022, MaxMem=  6710886400 cpu:               0.4 elap:               0.0
 (Enter /sw/apps/gaussian-16.0/g16/l101.exe)
 ------------------------------
 step_1151_chromophore_10 ZINDO
 ------------------------------
 Symbolic Z-matrix:
 Charge =  0 Multiplicity = 1
 Mg                    40.811    8.047     29.139 
 C                     42.59     9.716     31.641 
 C                     39.013    6.394     31.605 
 C                     39.099    6.509     26.695 
 C                     43.327    9.131     26.831 
 N                     40.973    7.89      31.482 
 C                     41.574    8.866     32.208 
 C                     41.081    8.839     33.667 
 C                     40.104    7.609     33.683 
 C                     40.018    7.319     32.198 
 C                     40.583    6.481     34.642 
 C                     40.615    10.285    34.185 
 C                     41.288    10.885    35.565 
 C                     41.195    10.081    36.854 
 O                     41.928    9.097     37.112 
 O                     40.38     10.622    37.828 
 N                     39.191    6.803     29.189 
 C                     38.575    6.268     30.271 
 C                     37.44     5.452     29.879 
 C                     37.392    5.594     28.478 
 C                     38.595    6.364     28.013 
 C                     36.399    4.955     30.951 
 C                     36.292    5.259     27.556 
 O                     36.332    5.648     26.417 
 C                     35.115    4.483     28.057 
 N                     41.224    7.839     27.082 
 C                     40.315    7.17      26.291 
 C                     40.909    7.017     24.872 
 C                     42.253    7.849     24.875 
 C                     42.262    8.311     26.33 
 C                     41.076    5.52      24.325 
 C                     42.226    8.981     23.779 
 C                     41.346    10.281    24.148 
 N                     42.551    9.109     29.19 
 C                     43.489    9.492     28.182 
 C                     44.545    10.348    28.727 
 C                     44.094    10.509    30.091 
 C                     42.971    9.721     30.307 
 C                     45.761    10.807    28.017 
 C                     44.536    11.032    31.294 
 O                     45.569    11.703    31.511 
 C                     43.56     10.602    32.362 
 C                     44.341    9.94      33.408 
 O                     44.796    8.786     33.433 
 O                     44.444    10.846    34.445 
 C                     45.036    10.328    35.691 
 C                     40.556    10.032    39.15 
 C                     39.563    10.711    40.087 
 C                     39.58     10.678    41.437 
 C                     40.419    9.873     42.342 
 C                     38.49     11.519    42.21 
 C                     37.123    10.802    42.326 
 C                     36.573    10.53     43.729 
 C                     35.547    11.667    44.145 
 C                     35.493    11.752    45.671 
 C                     34.125    11.299    43.587 
 C                     33.075    12.387    43.71 
 C                     32.683    12.936    42.293 
 C                     31.231    12.599    41.894 
 C                     31.241    12.275    40.379 
 C                     30.259    13.745    42.208 
 C                     28.88     13.053    42.504 
 C                     28.302    13.464    43.821 
 C                     26.963    14.194    43.69 
 C                     26.637    14.99     45.092 
 C                     25.868    13.135    43.522 
 H                     38.448    5.859     32.371 
 H                     38.617    6.113     25.798 
 H                     44.118    9.414     26.133 
 H                     41.869    8.494     34.336 
 H                     39.094    7.902     33.97 
 H                     39.657    6.136     35.101 
 H                     41.345    6.758     35.371 
 H                     41.106    5.682     34.115 
 H                     39.561    10.244    34.459 
 H                     40.625    11.086    33.446 
 H                     40.856    11.883    35.642 
 H                     42.253    11.278    35.243 
 H                     36.67     4.977     32.006 
 H                     36.245    3.914     30.668 
 H                     35.485    5.532     30.81 
 H                     34.584    5.178     28.708 
 H                     35.428    3.539     28.503 
 H                     34.543    4.35      27.139 
 H                     40.155    7.535     24.279 
 H                     43.103    7.171     24.799 
 H                     41.647    4.932     25.043 
 H                     41.618    5.399     23.387 
 H                     40.125    4.998     24.229 
 H                     41.909    8.547     22.831 
 H                     43.259    9.313     23.68 
 H                     41.884    11.07     24.674 
 H                     40.579    9.929     24.837 
 H                     40.782    10.66     23.296 
 H                     45.593    11.705    27.424 
 H                     46.099    10.033    27.328 
 H                     46.433    11.079    28.831 
 H                     42.974    11.432    32.758 
 H                     44.996    9.24      35.755 
 H                     44.443    10.698    36.527 
 H                     46.087    10.6      35.792 
 H                     41.529    9.89      39.621 
 H                     40.202    9.012     39.003 
 H                     38.951    11.494    39.638 
 H                     40.977    9.252     41.641 
 H                     39.758    9.267     42.962 
 H                     41.13     10.497    42.884 
 H                     38.235    12.344    41.545 
 H                     38.797    11.745    43.231 
 H                     37.13     9.818     41.859 
 H                     36.37     11.489    41.941 
 H                     37.443    10.392    44.372 
 H                     36.065    9.566     43.717 
 H                     35.843    12.676    43.858 
 H                     34.495    11.688    46.105 
 H                     36.049    12.61     46.048 
 H                     35.86     10.812    46.084 
 H                     33.802    10.416    44.139 
 H                     34.117    10.868    42.586 
 H                     33.497    13.141    44.375 
 H                     32.192    11.993    44.212 
 H                     33.425    12.689    41.533 
 H                     32.737    14.025    42.273 
 H                     31.023    11.722    42.506 
 H                     30.239    12.543    40.044 
 H                     31.514    11.224    40.475 
 H                     31.977    12.862    39.83 
 H                     30.277    14.389    41.328 
 H                     30.64     14.281    43.078 
 H                     28.832    11.969    42.396 
 H                     28.257    13.381    41.671 
 H                     28.94     14.233    44.256 
 H                     28.181    12.537    44.381 
 H                     26.91     14.865    42.832 
 H                     26.675    14.269    45.908 
 H                     25.634    15.41     45.025 
 H                     27.359    15.754    45.381 
 H                     25.176    13.221    44.36 
 H                     26.314    12.145    43.427 
 H                     25.29     13.417    42.642 
 
 ITRead=  0  0  0  0  0  0  0  0  0  0  0  0  0  0  0  0  0  0  0  0
 ITRead=  0  0  0  0  0  0  0  0  0  0  0  0  0  0  0  0  0  0  0  0
 ITRead=  0  0  0  0  0  0  0  0  0  0  0  0  0  0  0  0  0  0  0  0
 ITRead=  0  0  0  0  0  0  0  0  0  0  0  0  0  0  0  0  0  0  0  0
 ITRead=  0  0  0  0  0  0  0  0  0  0  0  0  0  0  0  0  0  0  0  0
 ITRead=  0  0  0  0  0  0  0  0  0  0  0  0  0  0  0  0  0  0  0  0
 ITRead=  0  0  0  0  0  0  0  0  0  0  0  0  0  0  0  0  0  0  0  0
 MicOpt= -1 -1 -1 -1 -1 -1 -1 -1 -1 -1 -1 -1 -1 -1 -1 -1 -1 -1 -1 -1
 MicOpt= -1 -1 -1 -1 -1 -1 -1 -1 -1 -1 -1 -1 -1 -1 -1 -1 -1 -1 -1 -1
 MicOpt= -1 -1 -1 -1 -1 -1 -1 -1 -1 -1 -1 -1 -1 -1 -1 -1 -1 -1 -1 -1
 MicOpt= -1 -1 -1 -1 -1 -1 -1 -1 -1 -1 -1 -1 -1 -1 -1 -1 -1 -1 -1 -1
 MicOpt= -1 -1 -1 -1 -1 -1 -1 -1 -1 -1 -1 -1 -1 -1 -1 -1 -1 -1 -1 -1
 MicOpt= -1 -1 -1 -1 -1 -1 -1 -1 -1 -1 -1 -1 -1 -1 -1 -1 -1 -1 -1 -1
 MicOpt= -1 -1 -1 -1 -1 -1 -1 -1 -1 -1 -1 -1 -1 -1 -1 -1 -1 -1 -1 -1
 NAtoms=    140 NQM=      140 NQMF=       0 NMMI=      0 NMMIF=      0
                NMic=       0 NMicF=      0.
                    Isotopes and Nuclear Properties:
 (Nuclear quadrupole moments (NQMom) in fm**2, nuclear magnetic moments (NMagM)
  in nuclear magnetons)

  Atom         1           2           3           4           5           6           7           8           9          10
 IAtWgt=          24          12          12          12          12          14          12          12          12          12
 AtmWgt=  23.9850450  12.0000000  12.0000000  12.0000000  12.0000000  14.0030740  12.0000000  12.0000000  12.0000000  12.0000000
 NucSpn=           0           0           0           0           0           2           0           0           0           0
 AtZEff=  -0.0000000  -0.0000000  -0.0000000  -0.0000000  -0.0000000  -0.0000000  -0.0000000  -0.0000000  -0.0000000  -0.0000000
 NQMom=    0.0000000   0.0000000   0.0000000   0.0000000   0.0000000   2.0440000   0.0000000   0.0000000   0.0000000   0.0000000
 NMagM=    0.0000000   0.0000000   0.0000000   0.0000000   0.0000000   0.4037610   0.0000000   0.0000000   0.0000000   0.0000000
 AtZNuc=  12.0000000   6.0000000   6.0000000   6.0000000   6.0000000   7.0000000   6.0000000   6.0000000   6.0000000   6.0000000

  Atom        11          12          13          14          15          16          17          18          19          20
 IAtWgt=          12          12          12          12          16          16          14          12          12          12
 AtmWgt=  12.0000000  12.0000000  12.0000000  12.0000000  15.9949146  15.9949146  14.0030740  12.0000000  12.0000000  12.0000000
 NucSpn=           0           0           0           0           0           0           2           0           0           0
 AtZEff=  -0.0000000  -0.0000000  -0.0000000  -0.0000000  -0.0000000  -0.0000000  -0.0000000  -0.0000000  -0.0000000  -0.0000000
 NQMom=    0.0000000   0.0000000   0.0000000   0.0000000   0.0000000   0.0000000   2.0440000   0.0000000   0.0000000   0.0000000
 NMagM=    0.0000000   0.0000000   0.0000000   0.0000000   0.0000000   0.0000000   0.4037610   0.0000000   0.0000000   0.0000000
 AtZNuc=   6.0000000   6.0000000   6.0000000   6.0000000   8.0000000   8.0000000   7.0000000   6.0000000   6.0000000   6.0000000

  Atom        21          22          23          24          25          26          27          28          29          30
 IAtWgt=          12          12          12          16          12          14          12          12          12          12
 AtmWgt=  12.0000000  12.0000000  12.0000000  15.9949146  12.0000000  14.0030740  12.0000000  12.0000000  12.0000000  12.0000000
 NucSpn=           0           0           0           0           0           2           0           0           0           0
 AtZEff=  -0.0000000  -0.0000000  -0.0000000  -0.0000000  -0.0000000  -0.0000000  -0.0000000  -0.0000000  -0.0000000  -0.0000000
 NQMom=    0.0000000   0.0000000   0.0000000   0.0000000   0.0000000   2.0440000   0.0000000   0.0000000   0.0000000   0.0000000
 NMagM=    0.0000000   0.0000000   0.0000000   0.0000000   0.0000000   0.4037610   0.0000000   0.0000000   0.0000000   0.0000000
 AtZNuc=   6.0000000   6.0000000   6.0000000   8.0000000   6.0000000   7.0000000   6.0000000   6.0000000   6.0000000   6.0000000

  Atom        31          32          33          34          35          36          37          38          39          40
 IAtWgt=          12          12          12          14          12          12          12          12          12          12
 AtmWgt=  12.0000000  12.0000000  12.0000000  14.0030740  12.0000000  12.0000000  12.0000000  12.0000000  12.0000000  12.0000000
 NucSpn=           0           0           0           2           0           0           0           0           0           0
 AtZEff=  -0.0000000  -0.0000000  -0.0000000  -0.0000000  -0.0000000  -0.0000000  -0.0000000  -0.0000000  -0.0000000  -0.0000000
 NQMom=    0.0000000   0.0000000   0.0000000   2.0440000   0.0000000   0.0000000   0.0000000   0.0000000   0.0000000   0.0000000
 NMagM=    0.0000000   0.0000000   0.0000000   0.4037610   0.0000000   0.0000000   0.0000000   0.0000000   0.0000000   0.0000000
 AtZNuc=   6.0000000   6.0000000   6.0000000   7.0000000   6.0000000   6.0000000   6.0000000   6.0000000   6.0000000   6.0000000

  Atom        41          42          43          44          45          46          47          48          49          50
 IAtWgt=          16          12          12          16          16          12          12          12          12          12
 AtmWgt=  15.9949146  12.0000000  12.0000000  15.9949146  15.9949146  12.0000000  12.0000000  12.0000000  12.0000000  12.0000000
 NucSpn=           0           0           0           0           0           0           0           0           0           0
 AtZEff=  -0.0000000  -0.0000000  -0.0000000  -0.0000000  -0.0000000  -0.0000000  -0.0000000  -0.0000000  -0.0000000  -0.0000000
 NQMom=    0.0000000   0.0000000   0.0000000   0.0000000   0.0000000   0.0000000   0.0000000   0.0000000   0.0000000   0.0000000
 NMagM=    0.0000000   0.0000000   0.0000000   0.0000000   0.0000000   0.0000000   0.0000000   0.0000000   0.0000000   0.0000000
 AtZNuc=   8.0000000   6.0000000   6.0000000   8.0000000   8.0000000   6.0000000   6.0000000   6.0000000   6.0000000   6.0000000

  Atom        51          52          53          54          55          56          57          58          59          60
 IAtWgt=          12          12          12          12          12          12          12          12          12          12
 AtmWgt=  12.0000000  12.0000000  12.0000000  12.0000000  12.0000000  12.0000000  12.0000000  12.0000000  12.0000000  12.0000000
 NucSpn=           0           0           0           0           0           0           0           0           0           0
 AtZEff=  -0.0000000  -0.0000000  -0.0000000  -0.0000000  -0.0000000  -0.0000000  -0.0000000  -0.0000000  -0.0000000  -0.0000000
 NQMom=    0.0000000   0.0000000   0.0000000   0.0000000   0.0000000   0.0000000   0.0000000   0.0000000   0.0000000   0.0000000
 NMagM=    0.0000000   0.0000000   0.0000000   0.0000000   0.0000000   0.0000000   0.0000000   0.0000000   0.0000000   0.0000000
 AtZNuc=   6.0000000   6.0000000   6.0000000   6.0000000   6.0000000   6.0000000   6.0000000   6.0000000   6.0000000   6.0000000

  Atom        61          62          63          64          65          66          67          68          69          70
 IAtWgt=          12          12          12          12          12          12           1           1           1           1
 AtmWgt=  12.0000000  12.0000000  12.0000000  12.0000000  12.0000000  12.0000000   1.0078250   1.0078250   1.0078250   1.0078250
 NucSpn=           0           0           0           0           0           0           1           1           1           1
 AtZEff=  -0.0000000  -0.0000000  -0.0000000  -0.0000000  -0.0000000  -0.0000000  -0.0000000  -0.0000000  -0.0000000  -0.0000000
 NQMom=    0.0000000   0.0000000   0.0000000   0.0000000   0.0000000   0.0000000   0.0000000   0.0000000   0.0000000   0.0000000
 NMagM=    0.0000000   0.0000000   0.0000000   0.0000000   0.0000000   0.0000000   2.7928460   2.7928460   2.7928460   2.7928460
 AtZNuc=   6.0000000   6.0000000   6.0000000   6.0000000   6.0000000   6.0000000   1.0000000   1.0000000   1.0000000   1.0000000

  Atom        71          72          73          74          75          76          77          78          79          80
 IAtWgt=           1           1           1           1           1           1           1           1           1           1
 AtmWgt=   1.0078250   1.0078250   1.0078250   1.0078250   1.0078250   1.0078250   1.0078250   1.0078250   1.0078250   1.0078250
 NucSpn=           1           1           1           1           1           1           1           1           1           1
 AtZEff=  -0.0000000  -0.0000000  -0.0000000  -0.0000000  -0.0000000  -0.0000000  -0.0000000  -0.0000000  -0.0000000  -0.0000000
 NQMom=    0.0000000   0.0000000   0.0000000   0.0000000   0.0000000   0.0000000   0.0000000   0.0000000   0.0000000   0.0000000
 NMagM=    2.7928460   2.7928460   2.7928460   2.7928460   2.7928460   2.7928460   2.7928460   2.7928460   2.7928460   2.7928460
 AtZNuc=   1.0000000   1.0000000   1.0000000   1.0000000   1.0000000   1.0000000   1.0000000   1.0000000   1.0000000   1.0000000

  Atom        81          82          83          84          85          86          87          88          89          90
 IAtWgt=           1           1           1           1           1           1           1           1           1           1
 AtmWgt=   1.0078250   1.0078250   1.0078250   1.0078250   1.0078250   1.0078250   1.0078250   1.0078250   1.0078250   1.0078250
 NucSpn=           1           1           1           1           1           1           1           1           1           1
 AtZEff=  -0.0000000  -0.0000000  -0.0000000  -0.0000000  -0.0000000  -0.0000000  -0.0000000  -0.0000000  -0.0000000  -0.0000000
 NQMom=    0.0000000   0.0000000   0.0000000   0.0000000   0.0000000   0.0000000   0.0000000   0.0000000   0.0000000   0.0000000
 NMagM=    2.7928460   2.7928460   2.7928460   2.7928460   2.7928460   2.7928460   2.7928460   2.7928460   2.7928460   2.7928460
 AtZNuc=   1.0000000   1.0000000   1.0000000   1.0000000   1.0000000   1.0000000   1.0000000   1.0000000   1.0000000   1.0000000

  Atom        91          92          93          94          95          96          97          98          99         100
 IAtWgt=           1           1           1           1           1           1           1           1           1           1
 AtmWgt=   1.0078250   1.0078250   1.0078250   1.0078250   1.0078250   1.0078250   1.0078250   1.0078250   1.0078250   1.0078250
 NucSpn=           1           1           1           1           1           1           1           1           1           1
 AtZEff=  -0.0000000  -0.0000000  -0.0000000  -0.0000000  -0.0000000  -0.0000000  -0.0000000  -0.0000000  -0.0000000  -0.0000000
 NQMom=    0.0000000   0.0000000   0.0000000   0.0000000   0.0000000   0.0000000   0.0000000   0.0000000   0.0000000   0.0000000
 NMagM=    2.7928460   2.7928460   2.7928460   2.7928460   2.7928460   2.7928460   2.7928460   2.7928460   2.7928460   2.7928460
 AtZNuc=   1.0000000   1.0000000   1.0000000   1.0000000   1.0000000   1.0000000   1.0000000   1.0000000   1.0000000   1.0000000

  Atom       101         102         103         104         105         106         107         108         109         110
 IAtWgt=           1           1           1           1           1           1           1           1           1           1
 AtmWgt=   1.0078250   1.0078250   1.0078250   1.0078250   1.0078250   1.0078250   1.0078250   1.0078250   1.0078250   1.0078250
 NucSpn=           1           1           1           1           1           1           1           1           1           1
 AtZEff=  -0.0000000  -0.0000000  -0.0000000  -0.0000000  -0.0000000  -0.0000000  -0.0000000  -0.0000000  -0.0000000  -0.0000000
 NQMom=    0.0000000   0.0000000   0.0000000   0.0000000   0.0000000   0.0000000   0.0000000   0.0000000   0.0000000   0.0000000
 NMagM=    2.7928460   2.7928460   2.7928460   2.7928460   2.7928460   2.7928460   2.7928460   2.7928460   2.7928460   2.7928460
 AtZNuc=   1.0000000   1.0000000   1.0000000   1.0000000   1.0000000   1.0000000   1.0000000   1.0000000   1.0000000   1.0000000

  Atom       111         112         113         114         115         116         117         118         119         120
 IAtWgt=           1           1           1           1           1           1           1           1           1           1
 AtmWgt=   1.0078250   1.0078250   1.0078250   1.0078250   1.0078250   1.0078250   1.0078250   1.0078250   1.0078250   1.0078250
 NucSpn=           1           1           1           1           1           1           1           1           1           1
 AtZEff=  -0.0000000  -0.0000000  -0.0000000  -0.0000000  -0.0000000  -0.0000000  -0.0000000  -0.0000000  -0.0000000  -0.0000000
 NQMom=    0.0000000   0.0000000   0.0000000   0.0000000   0.0000000   0.0000000   0.0000000   0.0000000   0.0000000   0.0000000
 NMagM=    2.7928460   2.7928460   2.7928460   2.7928460   2.7928460   2.7928460   2.7928460   2.7928460   2.7928460   2.7928460
 AtZNuc=   1.0000000   1.0000000   1.0000000   1.0000000   1.0000000   1.0000000   1.0000000   1.0000000   1.0000000   1.0000000

  Atom       121         122         123         124         125         126         127         128         129         130
 IAtWgt=           1           1           1           1           1           1           1           1           1           1
 AtmWgt=   1.0078250   1.0078250   1.0078250   1.0078250   1.0078250   1.0078250   1.0078250   1.0078250   1.0078250   1.0078250
 NucSpn=           1           1           1           1           1           1           1           1           1           1
 AtZEff=  -0.0000000  -0.0000000  -0.0000000  -0.0000000  -0.0000000  -0.0000000  -0.0000000  -0.0000000  -0.0000000  -0.0000000
 NQMom=    0.0000000   0.0000000   0.0000000   0.0000000   0.0000000   0.0000000   0.0000000   0.0000000   0.0000000   0.0000000
 NMagM=    2.7928460   2.7928460   2.7928460   2.7928460   2.7928460   2.7928460   2.7928460   2.7928460   2.7928460   2.7928460
 AtZNuc=   1.0000000   1.0000000   1.0000000   1.0000000   1.0000000   1.0000000   1.0000000   1.0000000   1.0000000   1.0000000

  Atom       131         132         133         134         135         136         137         138         139         140
 IAtWgt=           1           1           1           1           1           1           1           1           1           1
 AtmWgt=   1.0078250   1.0078250   1.0078250   1.0078250   1.0078250   1.0078250   1.0078250   1.0078250   1.0078250   1.0078250
 NucSpn=           1           1           1           1           1           1           1           1           1           1
 AtZEff=  -0.0000000  -0.0000000  -0.0000000  -0.0000000  -0.0000000  -0.0000000  -0.0000000  -0.0000000  -0.0000000  -0.0000000
 NQMom=    0.0000000   0.0000000   0.0000000   0.0000000   0.0000000   0.0000000   0.0000000   0.0000000   0.0000000   0.0000000
 NMagM=    2.7928460   2.7928460   2.7928460   2.7928460   2.7928460   2.7928460   2.7928460   2.7928460   2.7928460   2.7928460
 AtZNuc=   1.0000000   1.0000000   1.0000000   1.0000000   1.0000000   1.0000000   1.0000000   1.0000000   1.0000000   1.0000000
 Leave Link  101 at Wed Apr 27 11:08:37 2022, MaxMem=  6710886400 cpu:               3.0 elap:               0.1
 (Enter /sw/apps/gaussian-16.0/g16/l202.exe)
 Stoichiometry    C55H74MgN4O6
 Framework group  C1[X(C55H74MgN4O6)]
 Deg. of freedom   414
 Full point group                 C1      NOp   1
 Largest Abelian subgroup         C1      NOp   1
 Largest concise Abelian subgroup C1      NOp   1
                         Standard orientation:                         
 ---------------------------------------------------------------------
 Center     Atomic      Atomic             Coordinates (Angstroms)
 Number     Number       Type             X           Y           Z
 ---------------------------------------------------------------------
      1         12           0        5.693906    0.999754    0.059271
      2          6           0        4.152348   -2.067924    0.709929
      3          6           0        3.130647    1.748327   -2.157868
      4          6           0        7.191024    3.953639   -0.490937
      5          6           0        8.632210   -0.308777    1.636069
      6          7           0        3.885198   -0.203141   -0.847460
      7          6           0        3.364523   -1.275852   -0.200125
      8          6           0        1.915568   -1.533508   -0.654659
      9          6           0        1.692024   -0.431009   -1.751112
     10          6           0        2.939679    0.404399   -1.545752
     11          6           0        1.417401   -1.037564   -3.157589
     12          6           0        0.904868   -1.702526    0.580782
     13          6           0       -0.027820   -3.059464    0.659140
     14          6           0       -0.945869   -3.404926   -0.504660
     15          8           0       -0.546681   -3.931668   -1.570164
     16          8           0       -2.296419   -3.287154   -0.244418
     17          7           0        5.114579    2.638633   -1.014457
     18          6           0        4.033655    2.776776   -1.820015
     19          6           0        3.966210    4.112984   -2.383705
     20          6           0        5.061441    4.779737   -1.799601
     21          6           0        5.880604    3.797990   -1.011262
     22          6           0        2.665621    4.610311   -3.119237
     23          6           0        5.334003    6.227060   -1.742376
     24          8           0        6.200003    6.640350   -1.014724
     25          6           0        4.500011    7.171048   -2.549748
     26          7           0        7.650058    1.659055    0.488077
     27          6           0        7.992589    2.956574    0.174006
     28          6           0        9.503454    3.149510    0.438330
     29          6           0        9.995064    1.813786    1.125882
     30          6           0        8.691527    1.019697    1.098238
     31          6           0       10.396203    3.598948   -0.814312
     32          6           0       10.614315    2.097682    2.546902
     33          6           0        9.547877    2.384909    3.721964
     34          7           0        6.295169   -0.748255    0.920081
     35          6           0        7.517144   -1.162109    1.534977
     36          6           0        7.408390   -2.511612    2.093467
     37          6           0        6.014553   -2.802666    1.843822
     38          6           0        5.445925   -1.768348    1.111991
     39          6           0        8.510027   -3.319805    2.665006
     40          6           0        5.126998   -3.861978    1.922616
     41          8           0        5.320544   -4.996447    2.412452
     42          6           0        3.847229   -3.433299    1.246949
     43          6           0        3.545568   -4.443021    0.231181
     44          8           0        4.033938   -4.584876   -0.900516
     45          8           0        2.528993   -5.220667    0.749502
     46          6           0        1.931031   -6.195087   -0.180148
     47          6           0       -3.154054   -3.925801   -1.236060
     48          6           0       -4.598640   -3.669541   -0.820656
     49          6           0       -5.693778   -4.310297   -1.283240
     50          6           0       -5.815422   -5.271346   -2.393446
     51          6           0       -7.091815   -3.930503   -0.655418
     52          6           0       -7.720637   -2.656747   -1.270529
     53          6           0       -9.094517   -2.784552   -1.934616
     54          6           0      -10.236050   -2.358169   -0.917955
     55          6           0      -11.540773   -3.047321   -1.319933
     56          6           0      -10.421208   -0.799271   -0.984470
     57          6           0      -11.322148   -0.203892    0.080989
     58          6           0      -10.487751    0.673019    1.079871
     59          6           0      -10.826675    2.175970    0.994172
     60          6           0       -9.496787    2.951078    1.169973
     61          6           0      -11.858544    2.602088    2.047911
     62          6           0      -12.647729    3.796010    1.399945
     63          6           0      -14.127761    3.579487    1.410788
     64          6           0      -14.883145    4.621119    2.239872
     65          6           0      -16.395038    4.063219    2.569149
     66          6           0      -15.056625    5.872460    1.372243
     67          1           0        2.336216    1.991226   -2.866448
     68          1           0        7.775758    4.875044   -0.544298
     69          1           0        9.546998   -0.720175    2.068377
     70          1           0        1.852530   -2.443272   -1.251219
     71          1           0        0.865837    0.231318   -1.492158
     72          1           0        0.644671   -0.384796   -3.562514
     73          1           0        1.143527   -2.092615   -3.183537
     74          1           0        2.310878   -1.057939   -3.782844
     75          1           0        0.146222   -0.921698    0.531424
     76          1           0        1.327956   -1.543645    1.572536
     77          1           0       -0.551217   -2.950183    1.609230
     78          1           0        0.640748   -3.820597    1.062937
     79          1           0        1.931128    3.878747   -3.454327
     80          1           0        3.067133    5.107865   -4.001685
     81          1           0        2.173742    5.327907   -2.462490
     82          1           0        3.525051    7.163353   -2.061711
     83          1           0        4.518577    6.905839   -3.606791
     84          1           0        4.993099    8.120266   -2.341313
     85          1           0        9.480239    3.955811    1.171699
     86          1           0       10.656727    1.275328    0.447482
     87          1           0       10.238902    2.905964   -1.640350
     88          1           0       11.476563    3.603372   -0.669226
     89          1           0       10.109776    4.573210   -1.207854
     90          1           0       11.335060    2.910606    2.461872
     91          1           0       11.148774    1.187467    2.817046
     92          1           0        9.203969    1.501768    4.260881
     93          1           0        8.669281    2.795488    3.225568
     94          1           0        9.868875    3.181626    4.392668
     95          1           0        8.698134   -3.099145    3.714864
     96          1           0        9.435697   -3.111733    2.128459
     97          1           0        8.120998   -4.336761    2.613798
     98          1           0        3.021813   -3.304573    1.947826
     99          1           0        2.116673   -5.947240   -1.225877
    100          1           0        0.849143   -6.163854   -0.053698
    101          1           0        2.324336   -7.201106   -0.031747
    102          1           0       -3.007084   -4.946120   -1.591141
    103          1           0       -2.972529   -3.325958   -2.127442
    104          1           0       -4.730389   -3.111476    0.106943
    105          1           0       -4.802994   -5.279821   -2.797581
    106          1           0       -6.522157   -4.862021   -3.115620
    107          1           0       -6.044148   -6.272798   -2.028155
    108          1           0       -6.871841   -3.585387    0.354722
    109          1           0       -7.828321   -4.722555   -0.789497
    110          1           0       -7.098257   -2.223114   -2.052194
    111          1           0       -7.954851   -1.986784   -0.443791
    112          1           0       -9.143184   -3.798521   -2.333228
    113          1           0       -9.116798   -2.129082   -2.804884
    114          1           0      -10.087419   -2.702309    0.105540
    115          1           0      -12.396870   -2.384268   -1.446085
    116          1           0      -11.769129   -3.891359   -0.669639
    117          1           0      -11.468175   -3.344060   -2.366610
    118          1           0      -10.831964   -0.584673   -1.971360
    119          1           0       -9.498410   -0.226067   -1.072263
    120          1           0      -11.831929   -1.045354    0.550978
    121          1           0      -12.096484    0.402943   -0.387075
    122          1           0       -9.420998    0.451298    1.034607
    123          1           0      -10.702657    0.392339    2.111506
    124          1           0      -11.229050    2.262838   -0.014533
    125          1           0       -9.800678    3.904109    1.602910
    126          1           0       -9.185122    2.908276    0.126240
    127          1           0       -8.805378    2.448625    1.846110
    128          1           0      -11.277854    2.855484    2.935633
    129          1           0      -12.506374    1.748261    2.249536
    130          1           0      -12.325513    4.130522    0.413384
    131          1           0      -12.360621    4.645626    2.020689
    132          1           0      -14.340473    2.658125    1.952522
    133          1           0      -14.430611    3.627653    0.365067
    134          1           0      -14.363560    4.918783    3.151267
    135          1           0      -16.875859    3.809279    1.624974
    136          1           0      -16.956321    4.857268    3.060416
    137          1           0      -16.443070    3.139756    3.146566
    138          1           0      -16.123547    6.050930    1.236857
    139          1           0      -14.513100    5.757877    0.434431
    140          1           0      -14.696691    6.716005    1.961215
 ---------------------------------------------------------------------
 Rotational constants (GHZ):           0.0375757           0.0090292           0.0078085
 Leave Link  202 at Wed Apr 27 11:08:37 2022, MaxMem=  6710886400 cpu:               0.2 elap:               0.0
 (Enter /sw/apps/gaussian-16.0/g16/l301.exe)
 Standard basis: VSTO-6G (5D, 7F)
 Ernie: Thresh=  0.10000D-02 Tol=  0.10000D-05 Strict=F.
 There are   338 symmetry adapted cartesian basis functions of A   symmetry.
 There are   338 symmetry adapted basis functions of A   symmetry.
   338 basis functions,  2028 primitive gaussians,   338 cartesian basis functions
   176 alpha electrons      176 beta electrons
       nuclear repulsion energy      4696.1856701242 Hartrees.
 IExCor=    0 DFT=F Ex=HF Corr=None ExCW=0 ScaHFX=  1.000000
 ScaDFX=  1.000000  1.000000  1.000000  1.000000 ScalE2=  1.000000  1.000000
 IRadAn=      5 IRanWt=     -1 IRanGd=            0 ICorTp=0 IEmpDi=  4
 Integral buffers will be    131072 words long.
 Regular integral format.
 Two-electron integral symmetry is turned off.
 Leave Link  301 at Wed Apr 27 11:08:37 2022, MaxMem=  6710886400 cpu:               1.2 elap:               0.1
 (Enter /sw/apps/gaussian-16.0/g16/l302.exe)
 Do NDO integrals.
 NPDir=0 NMtPBC=     1 NCelOv=     1 NCel=       1 NClECP=     1 NCelD=      1
         NCelK=      1 NCelE2=     1 NClLst=     1 CellRange=     0.0.
 One-electron integrals computed using PRISM.
 Generate ZINDO/S integrals.
 NDO Nuclear repulsion=  4219.095288587008 Hartrees.
 NBasis=   338 RedAO= F EigKep=  0.00D+00  NBF=   338
 NBsUse=   338 1.00D-04 EigRej=  0.00D+00 NBFU=   338
 Leave Link  302 at Wed Apr 27 11:08:38 2022, MaxMem=  6710886400 cpu:               8.0 elap:               0.4
 (Enter /sw/apps/gaussian-16.0/g16/l303.exe)
 DipDrv:  MaxL=1.
 DipDrv:  will hold  3 matrices at once.
 Leave Link  303 at Wed Apr 27 11:08:38 2022, MaxMem=  6710886400 cpu:               0.5 elap:               0.0
 (Enter /sw/apps/gaussian-16.0/g16/l308.exe)
 Leave Link  308 at Wed Apr 27 11:08:38 2022, MaxMem=  6710886400 cpu:               4.4 elap:               0.2
 (Enter /sw/apps/gaussian-16.0/g16/l401.exe)
 Simple Huckel Guess.
 JPrj=0 DoOrth=F DoCkMO=F.
 Leave Link  401 at Wed Apr 27 11:08:38 2022, MaxMem=  6710886400 cpu:               2.4 elap:               0.1
 (Enter /sw/apps/gaussian-16.0/g16/l502.exe)
 Two-electron integral symmetry not used.
 Closed shell SCF:
 Using DIIS extrapolation, IDIIS=  1040.
 Overlap will be assumed to be unity.
 NGot=  6710886400 LenX=  6710643598 LenY=  6710528913
 Requested convergence on RMS density matrix=1.00D-08 within 128 cycles.
 Requested convergence on MAX density matrix=1.00D-06.
 Requested convergence on             energy=1.00D-06.
 No special actions if energy rises.
 Fock matrices will be formed incrementally for  20 cycles.

 Cycle   1  Pass 1  IDiag  1:
 E= -472.074713775021    
 DIIS: error= 5.42D-02 at cycle   1 NSaved=   1.
 NSaved= 1 IEnMin= 1 EnMin= -472.074713775021     IErMin= 1 ErrMin= 5.42D-02
 ErrMax= 5.42D-02  0.00D+00 EMaxC= 1.00D-01 BMatC= 8.33D-01 BMatP= 8.33D-01
 IDIUse=3 WtCom= 4.58D-01 WtEn= 5.42D-01
 Coeff-Com:  0.100D+01
 Coeff-En:   0.100D+01
 Coeff:      0.100D+01
 GapD=    2.000 DampG=2.000 DampE=0.500 DampFc=1.0000 IDamp=-1.
 RMSDP=4.06D-03 MaxDP=1.76D-01              OVMax= 0.00D+00

 Cycle   2  Pass 1  IDiag  1:
 RMSU=  4.05D-03    CP:  9.95D-01
 E= -473.921861938728     Delta-E=       -1.847148163707 Rises=F Damp=F
 DIIS: error= 2.00D-02 at cycle   2 NSaved=   2.
 NSaved= 2 IEnMin= 2 EnMin= -473.921861938728     IErMin= 2 ErrMin= 2.00D-02
 ErrMax= 2.00D-02  0.00D+00 EMaxC= 1.00D-01 BMatC= 5.35D-02 BMatP= 8.33D-01
 IDIUse=3 WtCom= 8.00D-01 WtEn= 2.00D-01
 Coeff-Com: -0.668D-01 0.107D+01
 Coeff-En:   0.000D+00 0.100D+01
 Coeff:     -0.535D-01 0.105D+01
 RMSDP=1.13D-03 MaxDP=6.60D-02 DE=-1.85D+00 OVMax= 0.00D+00

 Cycle   3  Pass 1  IDiag  1:
 RMSU=  1.07D-03    CP:  9.93D-01  1.09D+00
 E= -474.025944689243     Delta-E=       -0.104082750515 Rises=F Damp=F
 DIIS: error= 7.92D-03 at cycle   3 NSaved=   3.
 NSaved= 3 IEnMin= 3 EnMin= -474.025944689243     IErMin= 3 ErrMin= 7.92D-03
 ErrMax= 7.92D-03  0.00D+00 EMaxC= 1.00D-01 BMatC= 7.66D-03 BMatP= 5.35D-02
 IDIUse=3 WtCom= 9.21D-01 WtEn= 7.92D-02
 Coeff-Com: -0.687D-01 0.243D+00 0.826D+00
 Coeff-En:   0.000D+00 0.000D+00 0.100D+01
 Coeff:     -0.633D-01 0.224D+00 0.840D+00
 RMSDP=3.86D-04 MaxDP=1.71D-02 DE=-1.04D-01 OVMax= 0.00D+00

 Cycle   4  Pass 1  IDiag  1:
 RMSU=  2.51D-04    CP:  9.93D-01  1.16D+00  9.26D-01
 E= -474.039543824771     Delta-E=       -0.013599135527 Rises=F Damp=F
 DIIS: error= 1.31D-03 at cycle   4 NSaved=   4.
 NSaved= 4 IEnMin= 4 EnMin= -474.039543824771     IErMin= 4 ErrMin= 1.31D-03
 ErrMax= 1.31D-03  0.00D+00 EMaxC= 1.00D-01 BMatC= 3.37D-04 BMatP= 7.66D-03
 IDIUse=3 WtCom= 9.87D-01 WtEn= 1.31D-02
 Coeff-Com: -0.207D-02-0.271D-01 0.460D-01 0.983D+00
 Coeff-En:   0.000D+00 0.000D+00 0.000D+00 0.100D+01
 Coeff:     -0.204D-02-0.267D-01 0.454D-01 0.983D+00
 RMSDP=1.43D-04 MaxDP=7.49D-03 DE=-1.36D-02 OVMax= 0.00D+00

 Cycle   5  Pass 1  IDiag  1:
 RMSU=  9.97D-05    CP:  9.92D-01  1.16D+00  1.02D+00  1.03D+00
 E= -474.040650532291     Delta-E=       -0.001106707520 Rises=F Damp=F
 DIIS: error= 6.80D-04 at cycle   5 NSaved=   5.
 NSaved= 5 IEnMin= 5 EnMin= -474.040650532291     IErMin= 5 ErrMin= 6.80D-04
 ErrMax= 6.80D-04  0.00D+00 EMaxC= 1.00D-01 BMatC= 7.63D-05 BMatP= 3.37D-04
 IDIUse=3 WtCom= 9.93D-01 WtEn= 6.80D-03
 Coeff-Com:  0.666D-02-0.279D-01-0.101D+00 0.222D+00 0.900D+00
 Coeff-En:   0.000D+00 0.000D+00 0.000D+00 0.000D+00 0.100D+01
 Coeff:      0.662D-02-0.277D-01-0.100D+00 0.221D+00 0.901D+00
 RMSDP=6.26D-05 MaxDP=2.76D-03 DE=-1.11D-03 OVMax= 0.00D+00

 Cycle   6  Pass 1  IDiag  1:
 RMSU=  3.51D-05    CP:  9.92D-01  1.16D+00  1.04D+00  1.21D+00  1.12D+00
 E= -474.040899753013     Delta-E=       -0.000249220722 Rises=F Damp=F
 DIIS: error= 2.18D-04 at cycle   6 NSaved=   6.
 NSaved= 6 IEnMin= 6 EnMin= -474.040899753013     IErMin= 6 ErrMin= 2.18D-04
 ErrMax= 2.18D-04  0.00D+00 EMaxC= 1.00D-01 BMatC= 8.12D-06 BMatP= 7.63D-05
 IDIUse=3 WtCom= 9.98D-01 WtEn= 2.18D-03
 Coeff-Com: -0.694D-04 0.545D-02-0.155D-01-0.938D-01-0.182D-01 0.112D+01
 Coeff-En:   0.000D+00 0.000D+00 0.000D+00 0.000D+00 0.000D+00 0.100D+01
 Coeff:     -0.692D-04 0.544D-02-0.155D-01-0.936D-01-0.182D-01 0.112D+01
 RMSDP=4.50D-05 MaxDP=1.82D-03 DE=-2.49D-04 OVMax= 0.00D+00

 Cycle   7  Pass 1  IDiag  1:
 RMSU=  2.22D-05    CP:  9.92D-01  1.16D+00  1.05D+00  1.24D+00  1.44D+00
                    CP:  1.48D+00
 E= -474.040965007839     Delta-E=       -0.000065254826 Rises=F Damp=F
 DIIS: error= 1.23D-04 at cycle   7 NSaved=   7.
 NSaved= 7 IEnMin= 7 EnMin= -474.040965007839     IErMin= 7 ErrMin= 1.23D-04
 ErrMax= 1.23D-04  0.00D+00 EMaxC= 1.00D-01 BMatC= 2.90D-06 BMatP= 8.12D-06
 IDIUse=3 WtCom= 9.99D-01 WtEn= 1.23D-03
 Coeff-Com: -0.870D-03 0.418D-02 0.940D-02-0.208D-01-0.160D+00 0.173D+00
 Coeff-Com:  0.995D+00
 Coeff-En:   0.000D+00 0.000D+00 0.000D+00 0.000D+00 0.000D+00 0.000D+00
 Coeff-En:   0.100D+01
 Coeff:     -0.868D-03 0.418D-02 0.939D-02-0.208D-01-0.160D+00 0.173D+00
 Coeff:      0.995D+00
 RMSDP=2.86D-05 MaxDP=1.03D-03 DE=-6.53D-05 OVMax= 0.00D+00

 Cycle   8  Pass 1  IDiag  1:
 RMSU=  7.31D-06    CP:  9.92D-01  1.16D+00  1.05D+00  1.25D+00  1.59D+00
                    CP:  1.94D+00  1.71D+00
 E= -474.040995681707     Delta-E=       -0.000030673868 Rises=F Damp=F
 DIIS: error= 6.35D-05 at cycle   8 NSaved=   8.
 NSaved= 8 IEnMin= 8 EnMin= -474.040995681707     IErMin= 8 ErrMin= 6.35D-05
 ErrMax= 6.35D-05  0.00D+00 EMaxC= 1.00D-01 BMatC= 1.37D-06 BMatP= 2.90D-06
 IDIUse=1 WtCom= 1.00D+00 WtEn= 0.00D+00
 Coeff-Com:  0.168D-03-0.213D-02 0.212D-02 0.374D-01-0.171D-01-0.185D+00
 Coeff-Com: -0.566D+00 0.173D+01
 Coeff:      0.168D-03-0.213D-02 0.212D-02 0.374D-01-0.171D-01-0.185D+00
 Coeff:     -0.566D+00 0.173D+01
 RMSDP=4.27D-05 MaxDP=1.40D-03 DE=-3.07D-05 OVMax= 0.00D+00

 Cycle   9  Pass 1  IDiag  1:
 RMSU=  5.47D-06    CP:  9.92D-01  1.16D+00  1.06D+00  1.25D+00  1.80D+00
                    CP:  2.51D+00  3.00D+00  2.28D+00
 E= -474.041028004886     Delta-E=       -0.000032323180 Rises=F Damp=F
 DIIS: error= 4.78D-05 at cycle   9 NSaved=   9.
 NSaved= 9 IEnMin= 9 EnMin= -474.041028004886     IErMin= 9 ErrMin= 4.78D-05
 ErrMax= 4.78D-05  0.00D+00 EMaxC= 1.00D-01 BMatC= 8.44D-07 BMatP= 1.37D-06
 IDIUse=1 WtCom= 1.00D+00 WtEn= 0.00D+00
 Coeff-Com:  0.508D-03-0.198D-02-0.718D-02 0.531D-02 0.748D-01 0.940D-01
 Coeff-Com: -0.107D+01 0.138D+00 0.176D+01
 Coeff:      0.508D-03-0.198D-02-0.718D-02 0.531D-02 0.748D-01 0.940D-01
 Coeff:     -0.107D+01 0.138D+00 0.176D+01
 RMSDP=5.76D-05 MaxDP=1.99D-03 DE=-3.23D-05 OVMax= 0.00D+00

 Cycle  10  Pass 1  IDiag  1:
 RMSU=  4.13D-05    CP:  9.92D-01  1.16D+00  1.07D+00  1.26D+00  2.07D+00
                    CP:  3.00D+00  3.00D+00  3.00D+00  2.51D+00
 E= -474.041055213142     Delta-E=       -0.000027208256 Rises=F Damp=F
 DIIS: error= 2.79D-05 at cycle  10 NSaved=  10.
 NSaved=10 IEnMin=10 EnMin= -474.041055213142     IErMin=10 ErrMin= 2.79D-05
 ErrMax= 2.79D-05  0.00D+00 EMaxC= 1.00D-01 BMatC= 1.77D-07 BMatP= 8.44D-07
 IDIUse=1 WtCom= 1.00D+00 WtEn= 0.00D+00
 Coeff-Com: -0.114D-03 0.114D-02-0.690D-03-0.181D-01-0.637D-03 0.133D+00
 Coeff-Com:  0.134D+00-0.422D+00-0.358D+00 0.153D+01
 Coeff:     -0.114D-03 0.114D-02-0.690D-03-0.181D-01-0.637D-03 0.133D+00
 Coeff:      0.134D+00-0.422D+00-0.358D+00 0.153D+01
 RMSDP=3.13D-05 MaxDP=1.09D-03 DE=-2.72D-05 OVMax= 0.00D+00

 Cycle  11  Pass 1  IDiag  1:
 RMSU=  9.45D-06    CP:  9.92D-01  1.16D+00  1.07D+00  1.26D+00  2.21D+00
                    CP:  3.00D+00  3.00D+00  3.00D+00  3.00D+00  1.62D+00
 E= -474.041061834680     Delta-E=       -0.000006621537 Rises=F Damp=F
 DIIS: error= 1.45D-05 at cycle  11 NSaved=  11.
 NSaved=11 IEnMin=11 EnMin= -474.041061834680     IErMin=11 ErrMin= 1.45D-05
 ErrMax= 1.45D-05  0.00D+00 EMaxC= 1.00D-01 BMatC= 4.23D-08 BMatP= 1.77D-07
 IDIUse=1 WtCom= 1.00D+00 WtEn= 0.00D+00
 Coeff-Com: -0.111D-03 0.480D-03 0.164D-02-0.345D-02-0.143D-01-0.802D-02
 Coeff-Com:  0.197D+00 0.121D-01-0.524D+00 0.105D+00 0.123D+01
 Coeff:     -0.111D-03 0.480D-03 0.164D-02-0.345D-02-0.143D-01-0.802D-02
 Coeff:      0.197D+00 0.121D-01-0.524D+00 0.105D+00 0.123D+01
 RMSDP=1.62D-05 MaxDP=5.62D-04 DE=-6.62D-06 OVMax= 0.00D+00

 Cycle  12  Pass 1  IDiag  1:
 RMSU=  1.97D-06    CP:  9.92D-01  1.16D+00  1.07D+00  1.26D+00  2.28D+00
                    CP:  3.00D+00  3.00D+00  3.00D+00  3.00D+00  1.94D+00
                    CP:  1.61D+00
 E= -474.041063035392     Delta-E=       -0.000001200712 Rises=F Damp=F
 DIIS: error= 8.60D-06 at cycle  12 NSaved=  12.
 NSaved=12 IEnMin=12 EnMin= -474.041063035392     IErMin=12 ErrMin= 8.60D-06
 ErrMax= 8.60D-06  0.00D+00 EMaxC= 1.00D-01 BMatC= 7.03D-09 BMatP= 4.23D-08
 IDIUse=1 WtCom= 1.00D+00 WtEn= 0.00D+00
 Coeff-Com:  0.356D-04-0.298D-03 0.136D-03 0.387D-02 0.149D-02-0.267D-01
 Coeff-Com: -0.607D-01 0.138D+00 0.105D+00-0.386D+00-0.125D-01 0.124D+01
 Coeff:      0.356D-04-0.298D-03 0.136D-03 0.387D-02 0.149D-02-0.267D-01
 Coeff:     -0.607D-01 0.138D+00 0.105D+00-0.386D+00-0.125D-01 0.124D+01
 RMSDP=2.67D-06 MaxDP=8.45D-05 DE=-1.20D-06 OVMax= 0.00D+00

 Cycle  13  Pass 1  IDiag  1:
 RMSU=  8.69D-07    CP:  9.92D-01  1.16D+00  1.07D+00  1.26D+00  2.29D+00
                    CP:  3.00D+00  3.00D+00  3.00D+00  3.00D+00  1.98D+00
                    CP:  1.73D+00  1.61D+00
 E= -474.041063122977     Delta-E=       -0.000000087585 Rises=F Damp=F
 DIIS: error= 2.56D-06 at cycle  13 NSaved=  13.
 NSaved=13 IEnMin=13 EnMin= -474.041063122977     IErMin=13 ErrMin= 2.56D-06
 ErrMax= 2.56D-06  0.00D+00 EMaxC= 1.00D-01 BMatC= 1.30D-09 BMatP= 7.03D-09
 IDIUse=1 WtCom= 1.00D+00 WtEn= 0.00D+00
 Coeff-Com:  0.146D-04-0.626D-04-0.251D-03 0.562D-03 0.185D-02 0.270D-02
 Coeff-Com: -0.351D-01 0.299D-02 0.726D-01-0.240D-01-0.131D+00-0.109D+00
 Coeff-Com:  0.122D+01
 Coeff:      0.146D-04-0.626D-04-0.251D-03 0.562D-03 0.185D-02 0.270D-02
 Coeff:     -0.351D-01 0.299D-02 0.726D-01-0.240D-01-0.131D+00-0.109D+00
 Coeff:      0.122D+01
 RMSDP=1.11D-06 MaxDP=3.63D-05 DE=-8.76D-08 OVMax= 0.00D+00

 Cycle  14  Pass 1  IDiag  1:
 RMSU=  3.53D-07    CP:  9.92D-01  1.16D+00  1.07D+00  1.26D+00  2.30D+00
                    CP:  3.00D+00  3.00D+00  3.00D+00  3.00D+00  1.99D+00
                    CP:  1.76D+00  1.88D+00  1.57D+00
 E= -474.041063143231     Delta-E=       -0.000000020254 Rises=F Damp=F
 DIIS: error= 2.05D-06 at cycle  14 NSaved=  14.
 NSaved=14 IEnMin=14 EnMin= -474.041063143231     IErMin=14 ErrMin= 2.05D-06
 ErrMax= 2.05D-06  0.00D+00 EMaxC= 1.00D-01 BMatC= 5.91D-10 BMatP= 1.30D-09
 IDIUse=1 WtCom= 1.00D+00 WtEn= 0.00D+00
 Coeff-Com: -0.166D-04 0.112D-03 0.341D-04-0.115D-02-0.203D-02 0.852D-02
 Coeff-Com:  0.258D-01-0.417D-01-0.486D-01 0.103D+00 0.927D-01-0.392D+00
 Coeff-Com: -0.279D+00 0.153D+01
 Coeff:     -0.166D-04 0.112D-03 0.341D-04-0.115D-02-0.203D-02 0.852D-02
 Coeff:      0.258D-01-0.417D-01-0.486D-01 0.103D+00 0.927D-01-0.392D+00
 Coeff:     -0.279D+00 0.153D+01
 RMSDP=7.87D-07 MaxDP=3.09D-05 DE=-2.03D-08 OVMax= 0.00D+00

 Cycle  15  Pass 1  IDiag  1:
 RMSU=  1.55D-07    CP:  9.92D-01  1.16D+00  1.07D+00  1.26D+00  2.30D+00
                    CP:  3.00D+00  3.00D+00  3.00D+00  3.00D+00  2.00D+00
                    CP:  1.78D+00  2.06D+00  2.11D+00  2.15D+00
 E= -474.041063153378     Delta-E=       -0.000000010147 Rises=F Damp=F
 DIIS: error= 9.26D-07 at cycle  15 NSaved=  15.
 NSaved=15 IEnMin=15 EnMin= -474.041063153378     IErMin=15 ErrMin= 9.26D-07
 ErrMax= 9.26D-07  0.00D+00 EMaxC= 1.00D-01 BMatC= 2.08D-10 BMatP= 5.91D-10
 IDIUse=1 WtCom= 1.00D+00 WtEn= 0.00D+00
 Coeff-Com: -0.575D-05 0.246D-04 0.103D-03-0.872D-04-0.150D-02 0.524D-03
 Coeff-Com:  0.134D-01-0.363D-02-0.211D-01-0.332D-02 0.688D-01 0.526D-02
 Coeff-Com: -0.414D+00-0.618D-02 0.136D+01
 Coeff:     -0.575D-05 0.246D-04 0.103D-03-0.872D-04-0.150D-02 0.524D-03
 Coeff:      0.134D-01-0.363D-02-0.211D-01-0.332D-02 0.688D-01 0.526D-02
 Coeff:     -0.414D+00-0.618D-02 0.136D+01
 RMSDP=5.42D-07 MaxDP=2.01D-05 DE=-1.01D-08 OVMax= 0.00D+00

 Cycle  16  Pass 1  IDiag  1:
 RMSU=  8.51D-08    CP:  9.92D-01  1.16D+00  1.07D+00  1.26D+00  2.30D+00
                    CP:  3.00D+00  3.00D+00  3.00D+00  3.00D+00  2.00D+00
                    CP:  1.78D+00  2.18D+00  2.48D+00  3.00D+00  1.77D+00
 E= -474.041063157225     Delta-E=       -0.000000003847 Rises=F Damp=F
 DIIS: error= 7.97D-07 at cycle  16 NSaved=  16.
 NSaved=16 IEnMin=16 EnMin= -474.041063157225     IErMin=16 ErrMin= 7.97D-07
 ErrMax= 7.97D-07  0.00D+00 EMaxC= 1.00D-01 BMatC= 6.27D-11 BMatP= 2.08D-10
 IDIUse=1 WtCom= 1.00D+00 WtEn= 0.00D+00
 Coeff-Com:  0.658D-05-0.436D-04-0.113D-04 0.497D-03 0.360D-03-0.233D-02
 Coeff-Com: -0.112D-01 0.133D-01 0.217D-01-0.421D-01-0.238D-01 0.130D+00
 Coeff-Com:  0.126D+00-0.592D+00-0.255D-01 0.141D+01
 Coeff:      0.658D-05-0.436D-04-0.113D-04 0.497D-03 0.360D-03-0.233D-02
 Coeff:     -0.112D-01 0.133D-01 0.217D-01-0.421D-01-0.238D-01 0.130D+00
 Coeff:      0.126D+00-0.592D+00-0.255D-01 0.141D+01
 RMSDP=3.52D-07 MaxDP=1.43D-05 DE=-3.85D-09 OVMax= 0.00D+00

 Cycle  17  Pass 1  IDiag  1:
 RMSU=  1.85D-07    CP:  9.92D-01  1.16D+00  1.07D+00  1.26D+00  2.30D+00
                    CP:  3.00D+00  3.00D+00  3.00D+00  3.00D+00  2.00D+00
                    CP:  1.78D+00  2.25D+00  2.69D+00  3.00D+00  2.52D+00
                    CP:  2.36D+00
 E= -474.041063158319     Delta-E=       -0.000000001094 Rises=F Damp=F
 DIIS: error= 3.48D-07 at cycle  17 NSaved=  17.
 NSaved=17 IEnMin=17 EnMin= -474.041063158319     IErMin=17 ErrMin= 3.48D-07
 ErrMax= 3.48D-07  0.00D+00 EMaxC= 1.00D-01 BMatC= 9.35D-12 BMatP= 6.27D-11
 IDIUse=1 WtCom= 1.00D+00 WtEn= 0.00D+00
 Coeff-Com:  0.911D-06-0.360D-05-0.232D-04 0.287D-04 0.173D-03 0.227D-03
 Coeff-Com: -0.291D-02 0.819D-03 0.463D-02-0.118D-02-0.840D-02-0.102D-01
 Coeff-Com:  0.825D-01 0.140D-01-0.239D+00-0.498D-01 0.121D+01
 Coeff:      0.911D-06-0.360D-05-0.232D-04 0.287D-04 0.173D-03 0.227D-03
 Coeff:     -0.291D-02 0.819D-03 0.463D-02-0.118D-02-0.840D-02-0.102D-01
 Coeff:      0.825D-01 0.140D-01-0.239D+00-0.498D-01 0.121D+01
 RMSDP=9.29D-08 MaxDP=3.48D-06 DE=-1.09D-09 OVMax= 0.00D+00

 Cycle  18  Pass 1  IDiag  1:
 RMSU=  2.07D-08    CP:  9.92D-01  1.16D+00  1.07D+00  1.26D+00  2.30D+00
                    CP:  3.00D+00  3.00D+00  3.00D+00  3.00D+00  2.00D+00
                    CP:  1.78D+00  2.26D+00  2.73D+00  3.00D+00  2.75D+00
                    CP:  2.93D+00  1.23D+00
 E= -474.041063158441     Delta-E=       -0.000000000122 Rises=F Damp=F
 DIIS: error= 2.26D-07 at cycle  18 NSaved=  18.
 NSaved=18 IEnMin=18 EnMin= -474.041063158441     IErMin=18 ErrMin= 2.26D-07
 ErrMax= 2.26D-07  0.00D+00 EMaxC= 1.00D-01 BMatC= 2.02D-12 BMatP= 9.35D-12
 IDIUse=1 WtCom= 1.00D+00 WtEn= 0.00D+00
 Coeff-Com: -0.196D-05 0.128D-04 0.364D-05-0.139D-03-0.123D-03 0.687D-03
 Coeff-Com:  0.307D-02-0.377D-02-0.604D-02 0.103D-01 0.100D-01-0.380D-01
 Coeff-Com: -0.370D-01 0.154D+00 0.280D-01-0.376D+00-0.152D+00 0.141D+01
 Coeff:     -0.196D-05 0.128D-04 0.364D-05-0.139D-03-0.123D-03 0.687D-03
 Coeff:      0.307D-02-0.377D-02-0.604D-02 0.103D-01 0.100D-01-0.380D-01
 Coeff:     -0.370D-01 0.154D+00 0.280D-01-0.376D+00-0.152D+00 0.141D+01
 RMSDP=5.35D-08 MaxDP=2.30D-06 DE=-1.22D-10 OVMax= 0.00D+00

 Cycle  19  Pass 1  IDiag  1:
 RMSU=  2.24D-08    CP:  9.92D-01  1.16D+00  1.07D+00  1.26D+00  2.30D+00
                    CP:  3.00D+00  3.00D+00  3.00D+00  3.00D+00  2.00D+00
                    CP:  1.78D+00  2.27D+00  2.75D+00  3.00D+00  2.88D+00
                    CP:  3.00D+00  1.34D+00  1.95D+00
 E= -474.041063158464     Delta-E=       -0.000000000023 Rises=F Damp=F
 DIIS: error= 8.65D-08 at cycle  19 NSaved=  19.
 NSaved=19 IEnMin=19 EnMin= -474.041063158464     IErMin=19 ErrMin= 8.65D-08
 ErrMax= 8.65D-08  0.00D+00 EMaxC= 1.00D-01 BMatC= 2.61D-13 BMatP= 2.02D-12
 IDIUse=1 WtCom= 1.00D+00 WtEn= 0.00D+00
 Coeff-Com:  0.166D-09-0.315D-06 0.418D-05 0.280D-05-0.122D-04-0.928D-04
 Coeff-Com:  0.175D-03 0.124D-03-0.609D-04-0.862D-03 0.121D-02 0.337D-02
 Coeff-Com: -0.781D-02-0.202D-01 0.343D-01 0.503D-01-0.185D+00-0.115D+00
 Coeff-Com:  0.124D+01
 Coeff:      0.166D-09-0.315D-06 0.418D-05 0.280D-05-0.122D-04-0.928D-04
 Coeff:      0.175D-03 0.124D-03-0.609D-04-0.862D-03 0.121D-02 0.337D-02
 Coeff:     -0.781D-02-0.202D-01 0.343D-01 0.503D-01-0.185D+00-0.115D+00
 Coeff:      0.124D+01
 RMSDP=1.49D-08 MaxDP=8.21D-07 DE=-2.27D-11 OVMax= 0.00D+00

 Cycle  20  Pass 1  IDiag  1:
 RMSU=  3.23D-09    CP:  9.92D-01  1.16D+00  1.07D+00  1.26D+00  2.30D+00
                    CP:  3.00D+00  3.00D+00  3.00D+00  3.00D+00  2.00D+00
                    CP:  1.78D+00  2.27D+00  2.76D+00  3.00D+00  2.91D+00
                    CP:  3.00D+00  1.37D+00  2.30D+00  1.33D+00
 E= -474.041063158447     Delta-E=        0.000000000016 Rises=F Damp=F
 DIIS: error= 2.99D-08 at cycle  20 NSaved=  20.
 NSaved=20 IEnMin=19 EnMin= -474.041063158464     IErMin=20 ErrMin= 2.99D-08
 ErrMax= 2.99D-08  0.00D+00 EMaxC= 1.00D-01 BMatC= 3.74D-14 BMatP= 2.61D-13
 IDIUse=1 WtCom= 1.00D+00 WtEn= 0.00D+00
 Coeff-Com:  0.306D-06-0.198D-05-0.619D-06 0.200D-04 0.231D-04-0.102D-03
 Coeff-Com: -0.469D-03 0.594D-03 0.837D-03-0.153D-02-0.143D-02 0.509D-02
 Coeff-Com:  0.751D-02-0.218D-01-0.643D-02 0.547D-01 0.351D-01-0.203D+00
 Coeff-Com: -0.103D+00 0.123D+01
 Coeff:      0.306D-06-0.198D-05-0.619D-06 0.200D-04 0.231D-04-0.102D-03
 Coeff:     -0.469D-03 0.594D-03 0.837D-03-0.153D-02-0.143D-02 0.509D-02
 Coeff:      0.751D-02-0.218D-01-0.643D-02 0.547D-01 0.351D-01-0.203D+00
 Coeff:     -0.103D+00 0.123D+01
 RMSDP=3.71D-09 MaxDP=3.39D-07 DE= 1.64D-11 OVMax= 0.00D+00

 SCF Done:  E(RZINDO/S) =  -474.041063158     A.U. after   20 cycles
            NFock= 20  Conv=0.37D-08     -V/T= 0.9480
 KE=-9.112789802795D+03 PE= 7.415110303555D-07 EE= 4.419653450308D+03
 Leave Link  502 at Wed Apr 27 11:08:39 2022, MaxMem=  6710886400 cpu:              21.5 elap:               0.9
 (Enter /sw/apps/gaussian-16.0/g16/l801.exe)
 Range of M.O.s used for correlation:     1   338
 NBasis=   338 NAE=   176 NBE=   176 NFC=     0 NFV=     0
 NROrb=    338 NOA=   176 NOB=   176 NVA=   162 NVB=   162
 Leave Link  801 at Wed Apr 27 11:08:39 2022, MaxMem=  6710886400 cpu:               0.5 elap:               0.0
 (Enter /sw/apps/gaussian-16.0/g16/l914.exe)
 RHF ground state
 Two-electron integral symmetry not used.
 MDV=  6710886400 DFT=F DoStab=F Mixed=F DoRPA=F DoScal=F NonHer=F
 Making orbital integer symmetry assigments:
 Orbital symmetries:
       Occupied  (A) (A) (A) (A) (A) (A) (A) (A) (A) (A) (A) (A)
                 (A) (A) (A) (A) (A) (A) (A) (A) (A) (A) (A) (A)
                 (A) (A) (A) (A) (A) (A) (A) (A) (A) (A) (A) (A)
                 (A) (A) (A) (A) (A) (A) (A) (A) (A) (A) (A) (A)
                 (A) (A) (A) (A) (A) (A) (A) (A) (A) (A) (A) (A)
                 (A) (A) (A) (A) (A) (A) (A) (A) (A) (A) (A) (A)
                 (A) (A) (A) (A) (A) (A) (A) (A) (A) (A) (A) (A)
                 (A) (A) (A) (A) (A) (A) (A) (A) (A) (A) (A) (A)
                 (A) (A) (A) (A) (A) (A) (A) (A) (A) (A) (A) (A)
                 (A) (A) (A) (A) (A) (A) (A) (A) (A) (A) (A) (A)
                 (A) (A) (A) (A) (A) (A) (A) (A) (A) (A) (A) (A)
                 (A) (A) (A) (A) (A) (A) (A) (A) (A) (A) (A) (A)
                 (A) (A) (A) (A) (A) (A) (A) (A) (A) (A) (A) (A)
                 (A) (A) (A) (A) (A) (A) (A) (A) (A) (A) (A) (A)
                 (A) (A) (A) (A) (A) (A) (A) (A)
       Virtual   (A) (A) (A) (A) (A) (A) (A) (A) (A) (A) (A) (A)
                 (A) (A) (A) (A) (A) (A) (A) (A) (A) (A) (A) (A)
                 (A) (A) (A) (A) (A) (A) (A) (A) (A) (A) (A) (A)
                 (A) (A) (A) (A) (A) (A) (A) (A) (A) (A) (A) (A)
                 (A) (A) (A) (A) (A) (A) (A) (A) (A) (A) (A) (A)
                 (A) (A) (A) (A) (A) (A) (A) (A) (A) (A) (A) (A)
                 (A) (A) (A) (A) (A) (A) (A) (A) (A) (A) (A) (A)
                 (A) (A) (A) (A) (A) (A) (A) (A) (A) (A) (A) (A)
                 (A) (A) (A) (A) (A) (A) (A) (A) (A) (A) (A) (A)
                 (A) (A) (A) (A) (A) (A) (A) (A) (A) (A) (A) (A)
                 (A) (A) (A) (A) (A) (A) (A) (A) (A) (A) (A) (A)
                 (A) (A) (A) (A) (A) (A) (A) (A) (A) (A) (A) (A)
                 (A) (A) (A) (A) (A) (A) (A) (A) (A) (A) (A) (A)
                 (A) (A) (A) (A) (A) (A)
    20 initial guesses have been made.
 Convergence on wavefunction:    0.001000000000000
 Davidson Disk Diagonalization:  ConvIn= 1.00D-03 SkipCon=T Conv= 1.00D-03.
 Max sub-space:  2000 roots to seek:    20 dimension of matrix:        57024
 Iteration     1 Dimension    20 NMult     0 NNew     20
 CISAX will form    20 AO SS matrices at one time.
 NMat=    20 NSing=    20 JSym2X= 0.
 New state      3 was old state      4
 New state      4 was old state      3
 New state      5 was old state      9
 Excitation Energies [eV] at current iteration:
 Root      1 :     1.594626348328043
 Root      2 :     2.082599148664213
 Root      3 :     3.129168978101541
 Root      4 :     3.288148524243553
 Root      5 :     3.385685851923138
 Root      6 :     3.587701266405115
 Root      7 :     3.617231238246549
 Root      8 :     3.784366660687239
 Root      9 :     3.846979162376259
 Root     10 :     3.932372627793613
 Root     11 :     4.054458413051504
 Root     12 :     4.084942255626164
 Root     13 :     4.118150449423735
 Root     14 :     4.326107039756487
 Root     15 :     4.488281740483476
 Root     16 :     4.519705484879898
 Root     17 :     4.649535223572961
 Root     18 :     5.344554642917884
 Root     19 :     5.360925504134620
 Root     20 :     5.726597197861594
 Iteration     2 Dimension    40 NMult    20 NNew     20
 CISAX will form    20 AO SS matrices at one time.
 NMat=    20 NSing=    20 JSym2X= 0.
 Root      1 not converged, maximum delta is    0.048477114157162
 Root      2 not converged, maximum delta is    0.028397637333760
 Root      3 not converged, maximum delta is    0.185499787851804
 Root      4 not converged, maximum delta is    0.239101696197811
 Root      5 not converged, maximum delta is    0.216795937251995
 Excitation Energies [eV] at current iteration:
 Root      1 :     1.281805230319324   Change is   -0.312821118008719
 Root      2 :     1.882311022406121   Change is   -0.200288126258093
 Root      3 :     2.857419612802759   Change is   -0.271749365298782
 Root      4 :     2.962429283545540   Change is   -0.325719240698013
 Root      5 :     3.326872638172205   Change is   -0.058813213750933
 Root      6 :     3.391223834126515   Change is   -0.196477432278601
 Root      7 :     3.402730166202049   Change is   -0.214501072044499
 Root      8 :     3.470686626032146   Change is   -0.313680034655093
 Root      9 :     3.557378381702659   Change is   -0.930903358780818
 Root     10 :     3.594023086352705   Change is   -0.252956076023553
 Root     11 :     3.626344698163074   Change is   -0.306027929630540
 Root     12 :     3.722031634067335   Change is   -0.362910621558829
 Root     13 :     3.929065352407448   Change is   -0.189085097016287
 Root     14 :     4.011891287913902   Change is   -0.042567125137602
 Root     15 :     4.036210338437060   Change is   -0.289896701319427
 Root     16 :     4.295232415605988   Change is   -0.354302807966973
 Root     17 :     4.338453339068071   Change is   -0.181252145811828
 Root     18 :     5.295489066354364   Change is   -0.065436437780256
 Root     19 :     5.337505938614869   Change is   -0.007048704303015
 Root     20 :     5.562592673124751
 Iteration     3 Dimension    45 NMult    40 NNew      5
 CISAX will form     5 AO SS matrices at one time.
 NMat=     5 NSing=     5 JSym2X= 0.
 Root      1 not converged, maximum delta is    0.010675718546602
 Root      2 not converged, maximum delta is    0.021445279105977
 Root      3 not converged, maximum delta is    0.034039566993690
 Root      4 not converged, maximum delta is    0.046833272198507
 Root      5 not converged, maximum delta is    0.115148996350537
 Excitation Energies [eV] at current iteration:
 Root      1 :     1.265532701577103   Change is   -0.016272528742222
 Root      2 :     1.852953913568467   Change is   -0.029357108837654
 Root      3 :     2.828681463575823   Change is   -0.028738149226937
 Root      4 :     2.941238959332712   Change is   -0.021190324212828
 Root      5 :     3.305629866932180   Change is   -0.021242771240025
 Iteration     4 Dimension    50 NMult    45 NNew      5
 CISAX will form     5 AO SS matrices at one time.
 NMat=     5 NSing=     5 JSym2X= 0.
 Root      1 not converged, maximum delta is    0.001819754906392
 Root      2 not converged, maximum delta is    0.002651279263193
 Root      3 not converged, maximum delta is    0.027143822682713
 Root      4 not converged, maximum delta is    0.006515290972036
 Root      5 not converged, maximum delta is    0.419523769021583
 Excitation Energies [eV] at current iteration:
 Root      1 :     1.264788107414651   Change is   -0.000744594162452
 Root      2 :     1.852180727937842   Change is   -0.000773185630624
 Root      3 :     2.823019743739044   Change is   -0.005661719836778
 Root      4 :     2.938766185265533   Change is   -0.002472774067179
 Root      5 :     3.168025820986166   Change is   -0.137604045946013
 Iteration     5 Dimension    55 NMult    50 NNew      5
 CISAX will form     5 AO SS matrices at one time.
 NMat=     5 NSing=     5 JSym2X= 0.
 Root      1 has converged.
 Root      2 has converged.
 Root      3 not converged, maximum delta is    0.047605962395714
 Root      4 not converged, maximum delta is    0.011536431038419
 Root      5 not converged, maximum delta is    0.118879533246681
 Excitation Energies [eV] at current iteration:
 Root      1 :     1.264734415327395   Change is   -0.000053692087256
 Root      2 :     1.852127968511955   Change is   -0.000052759425887
 Root      3 :     2.817591079985307   Change is   -0.005428663753737
 Root      4 :     2.937817985118300   Change is   -0.000948200147233
 Root      5 :     2.971880182919451   Change is   -0.196145638066715
 Iteration     6 Dimension    58 NMult    55 NNew      3
 CISAX will form     3 AO SS matrices at one time.
 NMat=     3 NSing=     3 JSym2X= 0.
 Root      1 has converged.
 Root      2 has converged.
 Root      3 not converged, maximum delta is    0.019403063029730
 Root      4 not converged, maximum delta is    0.075941872495745
 Root      5 not converged, maximum delta is    0.112655836558956
 Excitation Energies [eV] at current iteration:
 Root      1 :     1.264733602980121   Change is   -0.000000812347274
 Root      2 :     1.852122361911471   Change is   -0.000005606600485
 Root      3 :     2.815244904311435   Change is   -0.002346175673871
 Root      4 :     2.935308645261344   Change is   -0.002509339856956
 Root      5 :     2.941226168893037   Change is   -0.030654014026414
 Iteration     7 Dimension    61 NMult    58 NNew      3
 CISAX will form     3 AO SS matrices at one time.
 NMat=     3 NSing=     3 JSym2X= 0.
 Root      1 has converged.
 Root      2 has converged.
 Root      3 not converged, maximum delta is    0.009626290401083
 Root      4 not converged, maximum delta is    0.118263907500295
 Root      5 not converged, maximum delta is    0.074030904926560
 Excitation Energies [eV] at current iteration:
 Root      1 :     1.264733328724370   Change is   -0.000000274255751
 Root      2 :     1.852120527532417   Change is   -0.000001834379053
 Root      3 :     2.814652578658744   Change is   -0.000592325652691
 Root      4 :     2.926002203402189   Change is   -0.009306441859155
 Root      5 :     2.936103610233968   Change is   -0.005122558659069
 Iteration     8 Dimension    64 NMult    61 NNew      3
 CISAX will form     3 AO SS matrices at one time.
 NMat=     3 NSing=     3 JSym2X= 0.
 Root      1 has converged.
 Root      2 has converged.
 Root      3 not converged, maximum delta is    0.004890905453281
 Root      4 not converged, maximum delta is    0.094288246575329
 Root      5 not converged, maximum delta is    0.047641620609454
 Excitation Energies [eV] at current iteration:
 Root      1 :     1.264733254217977   Change is   -0.000000074506393
 Root      2 :     1.852120168996481   Change is   -0.000000358535936
 Root      3 :     2.814514905534937   Change is   -0.000137673123807
 Root      4 :     2.914987488457633   Change is   -0.011014714944556
 Root      5 :     2.935194275895995   Change is   -0.000909334337973
 Iteration     9 Dimension    67 NMult    64 NNew      3
 CISAX will form     3 AO SS matrices at one time.
 NMat=     3 NSing=     3 JSym2X= 0.
 Root      1 has converged.
 Root      2 has converged.
 Root      3 has converged.
 Root      4 not converged, maximum delta is    0.014512055728026
 Root      5 not converged, maximum delta is    0.006260225285654
 Excitation Energies [eV] at current iteration:
 Root      1 :     1.264733207328260   Change is   -0.000000046889717
 Root      2 :     1.852120148229062   Change is   -0.000000020767419
 Root      3 :     2.814494108908951   Change is   -0.000020796625986
 Root      4 :     2.912494386952451   Change is   -0.002493101505182
 Root      5 :     2.935050452355174   Change is   -0.000143823540821
 Iteration    10 Dimension    69 NMult    67 NNew      2
 CISAX will form     2 AO SS matrices at one time.
 NMat=     2 NSing=     2 JSym2X= 0.
 Root      1 has converged.
 Root      2 has converged.
 Root      3 has converged.
 Root      4 not converged, maximum delta is    0.002023943835198
 Root      5 has converged.
 Excitation Energies [eV] at current iteration:
 Root      1 :     1.264733157777288   Change is   -0.000000049550972
 Root      2 :     1.852120129502279   Change is   -0.000000018726783
 Root      3 :     2.814492448598470   Change is   -0.000001660310481
 Root      4 :     2.912218565238955   Change is   -0.000275821713496
 Root      5 :     2.935028556269810   Change is   -0.000021896085365
 Iteration    11 Dimension    70 NMult    69 NNew      1
 CISAX will form     1 AO SS matrices at one time.
 NMat=     1 NSing=     1 JSym2X= 0.
 Root      1 has converged.
 Root      2 has converged.
 Root      3 has converged.
 Root      4 has converged.
 Root      5 has converged.
 Excitation Energies [eV] at current iteration:
 Root      1 :     1.264733142840076   Change is   -0.000000014937212
 Root      2 :     1.852120120932347   Change is   -0.000000008569931
 Root      3 :     2.814492268235141   Change is   -0.000000180363330
 Root      4 :     2.912188295512121   Change is   -0.000030269726833
 Root      5 :     2.935028258218366   Change is   -0.000000298051444
 Convergence achieved on expansion vectors.
 ***********************************************************************
 Excited states from <AA,BB:AA,BB> singles matrix:
 ***********************************************************************
 
 1PDM for each excited state written to RWF  633
 Ground to excited state transition densities written to RWF  633
 Ground to excited state transition electric dipole moments (Au):
       state          X           Y           Z        Dip. S.      Osc.
         1        -1.4673      3.2834     -2.0580     17.1695      0.5320
         2        -0.0779     -0.2109     -0.1099      0.0626      0.0028
         3         1.7645      0.4530      0.6641      3.7596      0.2592
         4        -1.9764     -1.8120     -0.2453      7.2497      0.5173
         5         0.9553      0.4093      0.2479      1.1416      0.0821
 Ground to excited state transition velocity dipole moments (Au):
       state          X           Y           Z        Dip. S.      Osc.
         1        -0.0409      0.0310     -0.0346      0.0038      0.0550
         2         0.0020      0.0114      0.0034      0.0001      0.0014
         3        -0.0521     -0.0166     -0.0069      0.0030      0.0196
         4         0.0699      0.0478     -0.0010      0.0072      0.0446
         5        -0.0260     -0.0186     -0.0066      0.0011      0.0066
 Ground to excited state transition magnetic dipole moments (Au):
       state          X           Y           Z
         1         0.0312      0.2292      0.2521
         2         0.3391     -0.3127     -0.6251
         3        -0.1581      0.0282      0.3781
         4         0.2613      0.2171      0.7246
         5        -0.0375      0.7878     -0.2700
 Ground to excited state transition velocity quadrupole moments (Au):
       state          XX          YY          ZZ          XY          XZ          YZ
         1        -0.8113      0.0050     -0.0319      0.4634     -0.3941      0.0506
         2         0.0812      0.0674      0.0100      0.1317      0.0405     -0.0280
         3        -0.3177     -0.2833     -0.0071      0.1063     -0.0319      0.1612
         4         1.4610     -0.3202      0.1164      0.5604      0.0538     -0.0134
         5        -0.3009     -0.0749     -0.0271     -0.1129     -0.0236      0.0916
 <0|del|b> * <b|rxdel|0> + <0|del|b> * <b|delr+rdel|0>
 Rotatory Strengths (R) in cgs (10**-40 erg-esu-cm/Gauss)
       state          XX          YY          ZZ    R(velocity)    E-M Angle
         1       -41.5171     30.2518    -32.8541    -14.7065       97.87
         2       -29.4977     -9.9332    -12.2983    -17.2431      122.14
         3       -14.9187     -7.0001     57.1005     11.7272       76.87
         4        21.5406     56.6731    106.1579     61.4572       65.67
         5       -41.1258     -1.2247    -35.5086    -25.9530      115.93
 1/2[<0|r|b>*<b|rxdel|0> + (<0|rxdel|b>*<b|r|0>)*]
 Rotatory Strengths (R) in cgs (10**-40 erg-esu-cm/Gauss)
       state          XX          YY          ZZ     R(length)
         1        32.3533   -532.1424    366.8381    -44.3170
         2        18.6786    -46.6391    -48.5588    -25.5065
         3       197.3051     -9.0363   -177.5893      3.5598
         4       365.1424    278.1748    125.6911    256.3361
         5        25.3206   -228.0096     47.3313    -51.7859
  1/2[<0|del|b>*<b|r|0> + (<0|r|b>*<b|del|0>)*] (Au)
       state          X           Y           Z        Dip. S.   Osc.(frdel)
         1         0.0600      0.1018      0.0713     -0.2332     -0.1555
         2        -0.0002     -0.0024     -0.0004      0.0029      0.0020
         3        -0.0920     -0.0075     -0.0046      0.1041      0.0694
         4        -0.1381     -0.0865      0.0002      0.2244      0.1496
         5        -0.0248     -0.0076     -0.0016      0.0340      0.0227

 Excitation energies and oscillator strengths:
 
 Excited State   1:      Singlet-A      1.2647 eV  980.32 nm  f=0.5320  <S**2>=0.000
     175 ->178        -0.19386
     176 ->177         0.66273
 This state for optimization and/or second-order correction.
 Total Energy, E(CIS/TDA) =  -473.994585071    
 Copying the excited state density for this state as the 1-particle RhoCI density.
 
 Excited State   2:      Singlet-A      1.8521 eV  669.42 nm  f=0.0028  <S**2>=0.000
     175 ->177         0.48454
     176 ->178         0.49056
 
 Excited State   3:      Singlet-A      2.8145 eV  440.52 nm  f=0.2592  <S**2>=0.000
     171 ->177        -0.13367
     171 ->179         0.12121
     171 ->181        -0.13109
     175 ->177        -0.23226
     176 ->178         0.26601
     176 ->179         0.49034
     176 ->181        -0.16574
 
 Excited State   4:      Singlet-A      2.9122 eV  425.74 nm  f=0.5173  <S**2>=0.000
     168 ->177         0.23500
     168 ->179         0.26117
     168 ->181         0.18586
     168 ->186        -0.17396
     175 ->177         0.28752
     176 ->178        -0.28519
     176 ->179         0.25191
 
 Excited State   5:      Singlet-A      2.9350 eV  422.43 nm  f=0.0821  <S**2>=0.000
     171 ->177         0.29019
     171 ->178        -0.15137
     171 ->179        -0.31079
     171 ->181         0.30539
     171 ->186         0.14628
     171 ->187        -0.14261
     175 ->177        -0.11825
     176 ->178         0.13130
     176 ->179         0.18888
 SavETr:  write IOETrn=   770 NScale= 10 NData=  16 NLR=1 NState=    5 LETran=     100.
 Leave Link  914 at Wed Apr 27 11:08:44 2022, MaxMem=  6710886400 cpu:             105.5 elap:               4.5
 (Enter /sw/apps/gaussian-16.0/g16/l601.exe)
 Copying SCF densities to generalized density rwf, IOpCl= 0 IROHF=0.

 **********************************************************************

            Population analysis using the SCF density.

 **********************************************************************

 Orbital symmetries:
       Occupied  (A) (A) (A) (A) (A) (A) (A) (A) (A) (A) (A) (A)
                 (A) (A) (A) (A) (A) (A) (A) (A) (A) (A) (A) (A)
                 (A) (A) (A) (A) (A) (A) (A) (A) (A) (A) (A) (A)
                 (A) (A) (A) (A) (A) (A) (A) (A) (A) (A) (A) (A)
                 (A) (A) (A) (A) (A) (A) (A) (A) (A) (A) (A) (A)
                 (A) (A) (A) (A) (A) (A) (A) (A) (A) (A) (A) (A)
                 (A) (A) (A) (A) (A) (A) (A) (A) (A) (A) (A) (A)
                 (A) (A) (A) (A) (A) (A) (A) (A) (A) (A) (A) (A)
                 (A) (A) (A) (A) (A) (A) (A) (A) (A) (A) (A) (A)
                 (A) (A) (A) (A) (A) (A) (A) (A) (A) (A) (A) (A)
                 (A) (A) (A) (A) (A) (A) (A) (A) (A) (A) (A) (A)
                 (A) (A) (A) (A) (A) (A) (A) (A) (A) (A) (A) (A)
                 (A) (A) (A) (A) (A) (A) (A) (A) (A) (A) (A) (A)
                 (A) (A) (A) (A) (A) (A) (A) (A) (A) (A) (A) (A)
                 (A) (A) (A) (A) (A) (A) (A) (A)
       Virtual   (A) (A) (A) (A) (A) (A) (A) (A) (A) (A) (A) (A)
                 (A) (A) (A) (A) (A) (A) (A) (A) (A) (A) (A) (A)
                 (A) (A) (A) (A) (A) (A) (A) (A) (A) (A) (A) (A)
                 (A) (A) (A) (A) (A) (A) (A) (A) (A) (A) (A) (A)
                 (A) (A) (A) (A) (A) (A) (A) (A) (A) (A) (A) (A)
                 (A) (A) (A) (A) (A) (A) (A) (A) (A) (A) (A) (A)
                 (A) (A) (A) (A) (A) (A) (A) (A) (A) (A) (A) (A)
                 (A) (A) (A) (A) (A) (A) (A) (A) (A) (A) (A) (A)
                 (A) (A) (A) (A) (A) (A) (A) (A) (A) (A) (A) (A)
                 (A) (A) (A) (A) (A) (A) (A) (A) (A) (A) (A) (A)
                 (A) (A) (A) (A) (A) (A) (A) (A) (A) (A) (A) (A)
                 (A) (A) (A) (A) (A) (A) (A) (A) (A) (A) (A) (A)
                 (A) (A) (A) (A) (A) (A) (A) (A) (A) (A) (A) (A)
                 (A) (A) (A) (A) (A) (A)
 The electronic state is 1-A.
 Alpha  occ. eigenvalues --   -1.83957  -1.80335  -1.78755  -1.72484  -1.72272
 Alpha  occ. eigenvalues --   -1.69950  -1.66976  -1.62412  -1.62000  -1.58156
 Alpha  occ. eigenvalues --   -1.56512  -1.52033  -1.47030  -1.46746  -1.43882
 Alpha  occ. eigenvalues --   -1.42455  -1.41244  -1.38956  -1.38885  -1.36849
 Alpha  occ. eigenvalues --   -1.34882  -1.33263  -1.32955  -1.31243  -1.27655
 Alpha  occ. eigenvalues --   -1.26511  -1.24223  -1.22346  -1.20574  -1.18203
 Alpha  occ. eigenvalues --   -1.17065  -1.16041  -1.14666  -1.14433  -1.12148
 Alpha  occ. eigenvalues --   -1.12027  -1.10681  -1.10131  -1.05066  -1.03217
 Alpha  occ. eigenvalues --   -1.02049  -1.01040  -0.98901  -0.98403  -0.96949
 Alpha  occ. eigenvalues --   -0.95936  -0.94026  -0.93382  -0.92283  -0.91959
 Alpha  occ. eigenvalues --   -0.90390  -0.90045  -0.89994  -0.88011  -0.87732
 Alpha  occ. eigenvalues --   -0.85941  -0.84753  -0.83387  -0.81698  -0.80038
 Alpha  occ. eigenvalues --   -0.79542  -0.78864  -0.78222  -0.76348  -0.75991
 Alpha  occ. eigenvalues --   -0.75727  -0.74998  -0.74279  -0.73927  -0.72671
 Alpha  occ. eigenvalues --   -0.72506  -0.72010  -0.71263  -0.70861  -0.70420
 Alpha  occ. eigenvalues --   -0.69683  -0.68630  -0.68503  -0.68228  -0.67799
 Alpha  occ. eigenvalues --   -0.67495  -0.67110  -0.66386  -0.65889  -0.65434
 Alpha  occ. eigenvalues --   -0.65128  -0.64595  -0.63933  -0.63546  -0.63066
 Alpha  occ. eigenvalues --   -0.62909  -0.62533  -0.62236  -0.62050  -0.61701
 Alpha  occ. eigenvalues --   -0.61195  -0.60902  -0.60708  -0.60389  -0.60109
 Alpha  occ. eigenvalues --   -0.60045  -0.59416  -0.59323  -0.58951  -0.58307
 Alpha  occ. eigenvalues --   -0.57634  -0.57574  -0.57517  -0.56852  -0.56529
 Alpha  occ. eigenvalues --   -0.55983  -0.55471  -0.55222  -0.54841  -0.54489
 Alpha  occ. eigenvalues --   -0.53820  -0.53639  -0.52979  -0.52666  -0.52463
 Alpha  occ. eigenvalues --   -0.52173  -0.52027  -0.51815  -0.51563  -0.51154
 Alpha  occ. eigenvalues --   -0.50878  -0.50747  -0.50541  -0.50370  -0.50297
 Alpha  occ. eigenvalues --   -0.50075  -0.49909  -0.49465  -0.49421  -0.49144
 Alpha  occ. eigenvalues --   -0.49083  -0.48644  -0.48397  -0.48231  -0.47610
 Alpha  occ. eigenvalues --   -0.47387  -0.47163  -0.46986  -0.46797  -0.46502
 Alpha  occ. eigenvalues --   -0.46328  -0.46018  -0.45536  -0.45350  -0.45300
 Alpha  occ. eigenvalues --   -0.45154  -0.44963  -0.44956  -0.43893  -0.43500
 Alpha  occ. eigenvalues --   -0.43404  -0.43029  -0.42639  -0.42403  -0.42313
 Alpha  occ. eigenvalues --   -0.41812  -0.40731  -0.40499  -0.39345  -0.38320
 Alpha  occ. eigenvalues --   -0.37687  -0.36883  -0.35510  -0.34685  -0.33916
 Alpha  occ. eigenvalues --   -0.33403  -0.32157  -0.31655  -0.31226  -0.26309
 Alpha  occ. eigenvalues --   -0.21197
 Alpha virt. eigenvalues --   -0.07824  -0.02617  -0.00750   0.00454   0.01491
 Alpha virt. eigenvalues --    0.02617   0.02967   0.03331   0.04514   0.04834
 Alpha virt. eigenvalues --    0.06084   0.06954   0.06984   0.07310   0.08190
 Alpha virt. eigenvalues --    0.08482   0.08710   0.09078   0.09413   0.09826
 Alpha virt. eigenvalues --    0.10107   0.10272   0.10508   0.10574   0.10964
 Alpha virt. eigenvalues --    0.11128   0.11498   0.11815   0.11831   0.12116
 Alpha virt. eigenvalues --    0.12324   0.12684   0.12873   0.13017   0.13383
 Alpha virt. eigenvalues --    0.13677   0.14217   0.14222   0.14547   0.15009
 Alpha virt. eigenvalues --    0.15333   0.15440   0.15516   0.15593   0.15674
 Alpha virt. eigenvalues --    0.15716   0.16383   0.16543   0.16853   0.16936
 Alpha virt. eigenvalues --    0.17260   0.17492   0.17892   0.17905   0.18208
 Alpha virt. eigenvalues --    0.18383   0.18586   0.18976   0.19110   0.19255
 Alpha virt. eigenvalues --    0.19802   0.19830   0.19999   0.20479   0.21128
 Alpha virt. eigenvalues --    0.21331   0.21714   0.22014   0.23059   0.23416
 Alpha virt. eigenvalues --    0.23545   0.23809   0.24015   0.24031   0.24240
 Alpha virt. eigenvalues --    0.24356   0.24561   0.24609   0.24833   0.24891
 Alpha virt. eigenvalues --    0.25012   0.25079   0.25119   0.25243   0.25251
 Alpha virt. eigenvalues --    0.25345   0.25349   0.25496   0.25534   0.25577
 Alpha virt. eigenvalues --    0.25643   0.25682   0.25706   0.25750   0.25955
 Alpha virt. eigenvalues --    0.25969   0.26097   0.26121   0.26278   0.26456
 Alpha virt. eigenvalues --    0.26546   0.26574   0.26598   0.26627   0.26890
 Alpha virt. eigenvalues --    0.26939   0.27028   0.27160   0.27282   0.27438
 Alpha virt. eigenvalues --    0.27792   0.27979   0.28022   0.28119   0.28246
 Alpha virt. eigenvalues --    0.28366   0.28670   0.28688   0.28708   0.29417
 Alpha virt. eigenvalues --    0.29596   0.30119   0.30385   0.31031   0.31367
 Alpha virt. eigenvalues --    0.31753   0.32045   0.32910   0.33269   0.34615
 Alpha virt. eigenvalues --    0.34888   0.35190   0.35660   0.35829   0.36021
 Alpha virt. eigenvalues --    0.36099   0.36194   0.36336   0.38131   0.38718
 Alpha virt. eigenvalues --    0.39176   0.39663   0.40002   0.40094   0.40234
 Alpha virt. eigenvalues --    0.40707   0.41327   0.41447   0.41765   0.43512
 Alpha virt. eigenvalues --    0.43883   0.44073   0.45053   0.46313   0.46716
 Alpha virt. eigenvalues --    0.47659   0.47729   0.48112   0.50672   0.53322
 Alpha virt. eigenvalues --    0.54291   0.57171
          Condensed to atoms (all electrons):
 Mulliken charges:
               1
     1  Mg   0.431279
     2  C   -0.044747
     3  C   -0.107678
     4  C   -0.070645
     5  C   -0.070730
     6  N   -0.259657
     7  C    0.098354
     8  C    0.001506
     9  C    0.014143
    10  C    0.167184
    11  C   -0.046479
    12  C   -0.029479
    13  C   -0.009616
    14  C    0.473739
    15  O   -0.523183
    16  O   -0.256123
    17  N   -0.328484
    18  C    0.141517
    19  C    0.005912
    20  C   -0.028282
    21  C    0.146608
    22  C   -0.041433
    23  C    0.328427
    24  O   -0.520506
    25  C   -0.037003
    26  N   -0.263817
    27  C    0.148476
    28  C    0.001560
    29  C    0.001285
    30  C    0.097419
    31  C   -0.053168
    32  C   -0.027381
    33  C   -0.060610
    34  N   -0.331886
    35  C    0.062059
    36  C    0.016171
    37  C   -0.060666
    38  C    0.124605
    39  C   -0.031986
    40  C    0.331305
    41  O   -0.564130
    42  C    0.068249
    43  C    0.499862
    44  O   -0.530151
    45  O   -0.272487
    46  C    0.071105
    47  C    0.104831
    48  C   -0.100790
    49  C   -0.007858
    50  C   -0.040127
    51  C   -0.036900
    52  C   -0.043884
    53  C   -0.038785
    54  C   -0.007200
    55  C   -0.064120
    56  C   -0.032301
    57  C   -0.035832
    58  C   -0.044170
    59  C   -0.022026
    60  C   -0.066488
    61  C   -0.034749
    62  C   -0.037767
    63  C   -0.028780
    64  C   -0.021056
    65  C   -0.068754
    66  C   -0.061324
    67  H    0.022730
    68  H    0.053499
    69  H    0.030010
    70  H    0.048170
    71  H    0.024926
    72  H    0.019946
    73  H    0.041153
    74  H    0.025402
    75  H    0.013248
    76  H    0.031798
    77  H    0.023576
    78  H    0.056388
    79  H    0.037277
    80  H    0.025829
    81  H    0.033202
    82  H    0.044307
    83  H    0.042805
    84  H    0.037855
    85  H    0.030407
    86  H    0.036284
    87  H    0.018074
    88  H    0.023560
    89  H    0.022664
    90  H    0.024193
    91  H    0.015662
    92  H    0.031274
    93  H    0.016498
    94  H    0.021895
    95  H    0.030971
    96  H    0.031460
    97  H    0.041652
    98  H    0.052345
    99  H    0.049143
   100  H    0.030965
   101  H    0.044471
   102  H    0.066510
   103  H    0.039274
   104  H    0.033615
   105  H    0.017228
   106  H    0.035951
   107  H    0.038556
   108  H    0.025045
   109  H    0.031707
   110  H    0.021007
   111  H    0.021035
   112  H    0.017621
   113  H    0.017345
   114  H    0.027796
   115  H    0.016674
   116  H    0.021860
   117  H    0.011447
   118  H    0.007054
   119  H    0.015774
   120  H    0.019041
   121  H    0.019632
   122  H    0.019065
   123  H    0.005640
   124  H    0.023369
   125  H    0.022706
   126  H    0.026470
   127  H    0.026028
   128  H    0.026288
   129  H    0.021271
   130  H    0.022726
   131  H    0.007756
   132  H    0.018735
   133  H    0.027457
   134  H    0.030047
   135  H    0.017393
   136  H    0.018924
   137  H    0.016967
   138  H    0.020450
   139  H    0.026042
   140  H    0.012493
 Sum of Mulliken charges =   0.00000
 Mulliken charges with hydrogens summed into heavy atoms:
               1
     1  Mg   0.431279
     2  C   -0.044747
     3  C   -0.084947
     4  C   -0.017146
     5  C   -0.040720
     6  N   -0.259657
     7  C    0.098354
     8  C    0.049676
     9  C    0.039069
    10  C    0.167184
    11  C    0.040023
    12  C    0.015567
    13  C    0.070349
    14  C    0.473739
    15  O   -0.523183
    16  O   -0.256123
    17  N   -0.328484
    18  C    0.141517
    19  C    0.005912
    20  C   -0.028282
    21  C    0.146608
    22  C    0.054875
    23  C    0.328427
    24  O   -0.520506
    25  C    0.087964
    26  N   -0.263817
    27  C    0.148476
    28  C    0.031967
    29  C    0.037569
    30  C    0.097419
    31  C    0.011129
    32  C    0.012475
    33  C    0.009057
    34  N   -0.331886
    35  C    0.062059
    36  C    0.016171
    37  C   -0.060666
    38  C    0.124605
    39  C    0.072098
    40  C    0.331305
    41  O   -0.564130
    42  C    0.120594
    43  C    0.499862
    44  O   -0.530151
    45  O   -0.272487
    46  C    0.195683
    47  C    0.210616
    48  C   -0.067175
    49  C   -0.007858
    50  C    0.051609
    51  C    0.019852
    52  C   -0.001842
    53  C   -0.003818
    54  C    0.020596
    55  C   -0.014138
    56  C   -0.009474
    57  C    0.002841
    58  C   -0.019465
    59  C    0.001342
    60  C    0.008716
    61  C    0.012810
    62  C   -0.007285
    63  C    0.017412
    64  C    0.008991
    65  C   -0.015469
    66  C   -0.002340
 Charge=              0.0000 electrons
 Dipole moment (field-independent basis, Debye):
    X=             -7.4087    Y=              7.7459    Z=             -2.3526  Tot=             10.9737
 N-N= 4.219095288587D+03 E-N= 0.000000000000D+00  KE=-9.112789802795D+03
 Leave Link  601 at Wed Apr 27 11:08:44 2022, MaxMem=  6710886400 cpu:               0.7 elap:               0.0
 (Enter /sw/apps/gaussian-16.0/g16/l9999.exe)
 1\1\GINC-BP1-COMPUTE190\SP\RZINDO CIS\STO-3G\C55H74Mg1N4O6\OF15641\27-
 Apr-2022\0\\#p ZINDO=(nstates=5)\\step_1151_chromophore_10 ZINDO\\0,1\
 Mg,0,40.811,8.047,29.139\C,0,42.59,9.716,31.641\C,0,39.013,6.394,31.60
 5\C,0,39.099,6.509,26.695\C,0,43.327,9.131,26.831\N,0,40.973,7.89,31.4
 82\C,0,41.574,8.866,32.208\C,0,41.081,8.839,33.667\C,0,40.104,7.609,33
 .683\C,0,40.018,7.319,32.198\C,0,40.583,6.481,34.642\C,0,40.615,10.285
 ,34.185\C,0,41.288,10.885,35.565\C,0,41.195,10.081,36.854\O,0,41.928,9
 .097,37.112\O,0,40.38,10.622,37.828\N,0,39.191,6.803,29.189\C,0,38.575
 ,6.268,30.271\C,0,37.44,5.452,29.879\C,0,37.392,5.594,28.478\C,0,38.59
 5,6.364,28.013\C,0,36.399,4.955,30.951\C,0,36.292,5.259,27.556\O,0,36.
 332,5.648,26.417\C,0,35.115,4.483,28.057\N,0,41.224,7.839,27.082\C,0,4
 0.315,7.17,26.291\C,0,40.909,7.017,24.872\C,0,42.253,7.849,24.875\C,0,
 42.262,8.311,26.33\C,0,41.076,5.52,24.325\C,0,42.226,8.981,23.779\C,0,
 41.346,10.281,24.148\N,0,42.551,9.109,29.19\C,0,43.489,9.492,28.182\C,
 0,44.545,10.348,28.727\C,0,44.094,10.509,30.091\C,0,42.971,9.721,30.30
 7\C,0,45.761,10.807,28.017\C,0,44.536,11.032,31.294\O,0,45.569,11.703,
 31.511\C,0,43.56,10.602,32.362\C,0,44.341,9.94,33.408\O,0,44.796,8.786
 ,33.433\O,0,44.444,10.846,34.445\C,0,45.036,10.328,35.691\C,0,40.556,1
 0.032,39.15\C,0,39.563,10.711,40.087\C,0,39.58,10.678,41.437\C,0,40.41
 9,9.873,42.342\C,0,38.49,11.519,42.21\C,0,37.123,10.802,42.326\C,0,36.
 573,10.53,43.729\C,0,35.547,11.667,44.145\C,0,35.493,11.752,45.671\C,0
 ,34.125,11.299,43.587\C,0,33.075,12.387,43.71\C,0,32.683,12.936,42.293
 \C,0,31.231,12.599,41.894\C,0,31.241,12.275,40.379\C,0,30.259,13.745,4
 2.208\C,0,28.88,13.053,42.504\C,0,28.302,13.464,43.821\C,0,26.963,14.1
 94,43.69\C,0,26.637,14.99,45.092\C,0,25.868,13.135,43.522\H,0,38.448,5
 .859,32.371\H,0,38.617,6.113,25.798\H,0,44.118,9.414,26.133\H,0,41.869
 ,8.494,34.336\H,0,39.094,7.902,33.97\H,0,39.657,6.136,35.101\H,0,41.34
 5,6.758,35.371\H,0,41.106,5.682,34.115\H,0,39.561,10.244,34.459\H,0,40
 .625,11.086,33.446\H,0,40.856,11.883,35.642\H,0,42.253,11.278,35.243\H
 ,0,36.67,4.977,32.006\H,0,36.245,3.914,30.668\H,0,35.485,5.532,30.81\H
 ,0,34.584,5.178,28.708\H,0,35.428,3.539,28.503\H,0,34.543,4.35,27.139\
 H,0,40.155,7.535,24.279\H,0,43.103,7.171,24.799\H,0,41.647,4.932,25.04
 3\H,0,41.618,5.399,23.387\H,0,40.125,4.998,24.229\H,0,41.909,8.547,22.
 831\H,0,43.259,9.313,23.68\H,0,41.884,11.07,24.674\H,0,40.579,9.929,24
 .837\H,0,40.782,10.66,23.296\H,0,45.593,11.705,27.424\H,0,46.099,10.03
 3,27.328\H,0,46.433,11.079,28.831\H,0,42.974,11.432,32.758\H,0,44.996,
 9.24,35.755\H,0,44.443,10.698,36.527\H,0,46.087,10.6,35.792\H,0,41.529
 ,9.89,39.621\H,0,40.202,9.012,39.003\H,0,38.951,11.494,39.638\H,0,40.9
 77,9.252,41.641\H,0,39.758,9.267,42.962\H,0,41.13,10.497,42.884\H,0,38
 .235,12.344,41.545\H,0,38.797,11.745,43.231\H,0,37.13,9.818,41.859\H,0
 ,36.37,11.489,41.941\H,0,37.443,10.392,44.372\H,0,36.065,9.566,43.717\
 H,0,35.843,12.676,43.858\H,0,34.495,11.688,46.105\H,0,36.049,12.61,46.
 048\H,0,35.86,10.812,46.084\H,0,33.802,10.416,44.139\H,0,34.117,10.868
 ,42.586\H,0,33.497,13.141,44.375\H,0,32.192,11.993,44.212\H,0,33.425,1
 2.689,41.533\H,0,32.737,14.025,42.273\H,0,31.023,11.722,42.506\H,0,30.
 239,12.543,40.044\H,0,31.514,11.224,40.475\H,0,31.977,12.862,39.83\H,0
 ,30.277,14.389,41.328\H,0,30.64,14.281,43.078\H,0,28.832,11.969,42.396
 \H,0,28.257,13.381,41.671\H,0,28.94,14.233,44.256\H,0,28.181,12.537,44
 .381\H,0,26.91,14.865,42.832\H,0,26.675,14.269,45.908\H,0,25.634,15.41
 ,45.025\H,0,27.359,15.754,45.381\H,0,25.176,13.221,44.36\H,0,26.314,12
 .145,43.427\H,0,25.29,13.417,42.642\\Version=ES64L-G16RevA.03\State=1-
 A\HF=-474.0410632\RMSD=3.712e-09\PG=C01 [X(C55H74Mg1N4O6)]\\@


 NOT WHAT WE DID SHALL BE THE TEST
 WHEN ACT AND WILL ARE DONE,
 BUT WHAT OUR LORD INFERS WE WOULD-
 HAD WE DIVINER BEEN.
           EMILY DICKINSON  POEMS NO. CLXXV
 Job cpu time:       0 days  0 hours  2 minutes 29.4 seconds.
 Elapsed time:       0 days  0 hours  0 minutes  6.5 seconds.
 File lengths (MBytes):  RWF=   1263 Int=      0 D2E=      0 Chk=     38 Scr=      1
 Normal termination of Gaussian 16 at Wed Apr 27 11:08:44 2022.
