 Entering Gaussian System, Link 0=g16
 Initial command:
 /sw/apps/gaussian-16.0/g16/l1.exe "/tmp/Gau-247623.inp" -scrdir="/tmp/"
 Entering Link 1 = /sw/apps/gaussian-16.0/g16/l1.exe PID=    247624.
  
 Copyright (c) 1988,1990,1992,1993,1995,1998,2003,2009,2016,
            Gaussian, Inc.  All Rights Reserved.
  
 This is part of the Gaussian(R) 16 program.  It is based on
 the Gaussian(R) 09 system (copyright 2009, Gaussian, Inc.),
 the Gaussian(R) 03 system (copyright 2003, Gaussian, Inc.),
 the Gaussian(R) 98 system (copyright 1998, Gaussian, Inc.),
 the Gaussian(R) 94 system (copyright 1995, Gaussian, Inc.),
 the Gaussian 92(TM) system (copyright 1992, Gaussian, Inc.),
 the Gaussian 90(TM) system (copyright 1990, Gaussian, Inc.),
 the Gaussian 88(TM) system (copyright 1988, Gaussian, Inc.),
 the Gaussian 86(TM) system (copyright 1986, Carnegie Mellon
 University), and the Gaussian 82(TM) system (copyright 1983,
 Carnegie Mellon University). Gaussian is a federally registered
 trademark of Gaussian, Inc.
  
 This software contains proprietary and confidential information,
 including trade secrets, belonging to Gaussian, Inc.
  
 This software is provided under written license and may be
 used, copied, transmitted, or stored only in accord with that
 written license.
  
 The following legend is applicable only to US Government
 contracts under FAR:
  
                    RESTRICTED RIGHTS LEGEND
  
 Use, reproduction and disclosure by the US Government is
 subject to restrictions as set forth in subparagraphs (a)
 and (c) of the Commercial Computer Software - Restricted
 Rights clause in FAR 52.227-19.
  
 Gaussian, Inc.
 340 Quinnipiac St., Bldg. 40, Wallingford CT 06492
  
  
 ---------------------------------------------------------------
 Warning -- This program may not be used in any manner that
 competes with the business of Gaussian, Inc. or will provide
 assistance to any competitor of Gaussian, Inc.  The licensee
 of this program is prohibited from giving any competitor of
 Gaussian, Inc. access to this program.  By using this program,
 the user acknowledges that Gaussian, Inc. is engaged in the
 business of creating and licensing software in the field of
 computational chemistry and represents and warrants to the
 licensee that it is not a competitor of Gaussian, Inc. and that
 it will not use this program in any manner prohibited above.
 ---------------------------------------------------------------
  

 Cite this work as:
 Gaussian 16, Revision A.03,
 M. J. Frisch, G. W. Trucks, H. B. Schlegel, G. E. Scuseria, 
 M. A. Robb, J. R. Cheeseman, G. Scalmani, V. Barone, 
 G. A. Petersson, H. Nakatsuji, X. Li, M. Caricato, A. V. Marenich, 
 J. Bloino, B. G. Janesko, R. Gomperts, B. Mennucci, H. P. Hratchian, 
 J. V. Ortiz, A. F. Izmaylov, J. L. Sonnenberg, D. Williams-Young, 
 F. Ding, F. Lipparini, F. Egidi, J. Goings, B. Peng, A. Petrone, 
 T. Henderson, D. Ranasinghe, V. G. Zakrzewski, J. Gao, N. Rega, 
 G. Zheng, W. Liang, M. Hada, M. Ehara, K. Toyota, R. Fukuda, 
 J. Hasegawa, M. Ishida, T. Nakajima, Y. Honda, O. Kitao, H. Nakai, 
 T. Vreven, K. Throssell, J. A. Montgomery, Jr., J. E. Peralta, 
 F. Ogliaro, M. J. Bearpark, J. J. Heyd, E. N. Brothers, K. N. Kudin, 
 V. N. Staroverov, T. A. Keith, R. Kobayashi, J. Normand, 
 K. Raghavachari, A. P. Rendell, J. C. Burant, S. S. Iyengar, 
 J. Tomasi, M. Cossi, J. M. Millam, M. Klene, C. Adamo, R. Cammi, 
 J. W. Ochterski, R. L. Martin, K. Morokuma, O. Farkas, 
 J. B. Foresman, and D. J. Fox, Gaussian, Inc., Wallingford CT, 2016.
 
 ******************************************
 Gaussian 16:  ES64L-G16RevA.03 25-Dec-2016
                 3-May-2022 
 ******************************************
 %nproc=24
 Will use up to   24 processors via shared memory.
 %mem=75GB
 ------------------------------
 #p blyp/Def2SVP td=(nstates=5)
 ------------------------------
 1/38=1,172=1/1;
 2/12=2,17=6,18=5,40=1/2;
 3/5=43,7=101,11=9,25=1,30=1,74=402/1,2,3,8;
 4//1;
 5/5=2,38=5/2;
 8/6=1,10=1,108=5/1;
 9/41=5,42=1,70=2/14;
 6/7=2,8=2,9=2,10=2/1;
 99/5=1,9=1/99;
 Leave Link    1 at Tue May  3 19:45:21 2022, MaxMem= 10066329600 cpu:               1.2 elap:               0.1
 (Enter /sw/apps/gaussian-16.0/g16/l101.exe)
 --------------------------------------------------
 step_101_chromophore_14 TDDFT with blyp functional
 --------------------------------------------------
 Symbolic Z-matrix:
 Charge =  0 Multiplicity = 1
 Mg                    46.631    44.883    44.835 
 C                     43.185    44.778    44.033 
 C                     46.93     41.482    44.241 
 C                     49.969    45.239    44.892 
 C                     46.241    48.362    45.168 
 N                     45.292    43.405    44.128 
 C                     43.882    43.557    43.832 
 C                     43.274    42.252    43.228 
 C                     44.409    41.2      43.605 
 C                     45.66     42.067    44.092 
 C                     44.096    39.999    44.641 
 C                     43.258    42.443    41.752 
 C                     41.891    42.153    41.091 
 C                     41.76     41.295    39.858 
 O                     41.193    40.171    39.764 
 O                     42.469    41.919    38.831 
 N                     48.234    43.487    44.779 
 C                     48.128    42.159    44.567 
 C                     49.443    41.598    44.356 
 C                     50.411    42.638    44.493 
 C                     49.536    43.889    44.805 
 C                     49.735    40.121    44.084 
 C                     51.89     42.49     44.432 
 O                     52.335    41.367    44.264 
 C                     52.836    43.649    44.578 
 N                     47.92     46.548    44.773 
 C                     49.282    46.447    44.834 
 C                     49.953    47.825    44.925 
 C                     48.768    48.724    45.343 
 C                     47.558    47.862    45.097 
 C                     51.228    47.983    45.871 
 C                     48.745    50.148    44.629 
 C                     48.745    51.405    45.479 
 N                     45.084    46.308    44.724 
 C                     45.005    47.699    44.924 
 C                     43.632    48.188    44.756 
 C                     42.905    47.078    44.367 
 C                     43.804    45.969    44.383 
 C                     43.144    49.686    44.734 
 C                     41.559    46.582    43.983 
 O                     40.41     47.115    43.972 
 C                     41.706    44.993    43.813 
 C                     40.847    44.293    44.769 
 O                     39.851    43.638    44.483 
 O                     41.297    44.4      46.086 
 C                     40.476    43.634    47.039 
 C                     42.295    41.327    37.485 
 C                     42.953    42.234    36.438 
 C                     44.257    42.413    36.068 
 C                     45.432    41.581    36.658 
 C                     44.616    43.43     35.049 
 C                     45.145    43.042    33.684 
 C                     44.71     44.031    32.57 
 C                     45.369    43.71     31.143 
 C                     46.529    44.705    30.807 
 C                     44.293    43.633    30.052 
 C                     44.578    42.532    28.981 
 C                     43.686    42.842    27.833 
 C                     44.364    43.022    26.483 
 C                     43.604    44.071    25.736 
 C                     44.382    41.673    25.642 
 C                     45.83     41.216    25.336 
 C                     45.956    41.005    23.794 
 C                     46.682    42.192    23.19 
 C                     46.248    42.251    21.65 
 C                     48.24     42.117    23.259 
 H                     46.972    40.425    43.969 
 H                     51.041    45.44     44.93 
 H                     46.264    49.422    45.431 
 H                     42.361    42.139    43.813 
 H                     44.669    40.632    42.712 
 H                     44.5      39.062    44.257 
 H                     43.047    39.984    44.937 
 H                     44.723    40.173    45.516 
 H                     44.041    41.864    41.263 
 H                     43.54     43.466    41.502 
 H                     41.443    43.113    40.834 
 H                     41.194    41.525    41.646 
 H                     48.802    39.566    43.987 
 H                     50.316    39.667    44.887 
 H                     50.263    39.971    43.143 
 H                     52.603    43.999    45.584 
 H                     52.61     44.37     43.792 
 H                     53.866    43.295    44.615 
 H                     50.244    48.115    43.916 
 H                     48.792    48.812    46.429 
 H                     52.18     47.953    45.34 
 H                     51.252    47.264    46.69 
 H                     51.298    48.968    46.332 
 H                     47.879    50.273    43.978 
 H                     49.647    50.092    44.02 
 H                     49.532    52.123    45.248 
 H                     48.838    51.104    46.523 
 H                     47.777    51.901    45.412 
 H                     42.453    49.916    43.924 
 H                     44.116    50.177    44.672 
 H                     42.597    49.856    45.662 
 H                     41.318    44.781    42.816 
 H                     40.974    42.672    47.162 
 H                     39.467    43.292    46.809 
 H                     40.405    44.192    47.972 
 H                     41.225    41.299    37.279 
 H                     42.652    40.297    37.508 
 H                     42.183    42.776    35.889 
 H                     46.239    42.207    37.038 
 H                     45.994    40.97     35.953 
 H                     45.045    40.967    37.471 
 H                     45.292    44.212    35.395 
 H                     43.753    44.069    34.864 
 H                     44.898    42.029    33.366 
 H                     46.219    43.157    33.832 
 H                     45.048    44.989    32.965 
 H                     43.624    44.108    32.523 
 H                     45.862    42.74     31.205 
 H                     46.588    45.547    31.497 
 H                     46.411    45.094    29.796 
 H                     47.503    44.224    30.888 
 H                     44.066    44.661    29.767 
 H                     43.41     43.317    30.606 
 H                     44.182    41.607    29.399 
 H                     45.631    42.386    28.74 
 H                     42.996    43.679    27.935 
 H                     43.007    41.992    27.77 
 H                     45.33     43.477    26.699 
 H                     43.829    45.024    26.215 
 H                     42.529    43.889    25.699 
 H                     43.997    44.078    24.72 
 H                     43.801    41.811    24.73 
 H                     43.81     40.943    26.215 
 H                     46.024    40.288    25.875 
 H                     46.601    41.896    25.697 
 H                     44.962    40.956    23.352 
 H                     46.57     40.104    23.774 
 H                     46.339    43.079    23.724 
 H                     46.068    43.318    21.525 
 H                     45.352    41.702    21.36 
 H                     47.067    41.992    20.98 
 H                     48.585    41.33     23.93 
 H                     48.493    43.114    23.62 
 H                     48.781    41.958    22.327 
 
 ITRead=  0  0  0  0  0  0  0  0  0  0  0  0  0  0  0  0  0  0  0  0
 ITRead=  0  0  0  0  0  0  0  0  0  0  0  0  0  0  0  0  0  0  0  0
 ITRead=  0  0  0  0  0  0  0  0  0  0  0  0  0  0  0  0  0  0  0  0
 ITRead=  0  0  0  0  0  0  0  0  0  0  0  0  0  0  0  0  0  0  0  0
 ITRead=  0  0  0  0  0  0  0  0  0  0  0  0  0  0  0  0  0  0  0  0
 ITRead=  0  0  0  0  0  0  0  0  0  0  0  0  0  0  0  0  0  0  0  0
 ITRead=  0  0  0  0  0  0  0  0  0  0  0  0  0  0  0  0  0  0  0  0
 MicOpt= -1 -1 -1 -1 -1 -1 -1 -1 -1 -1 -1 -1 -1 -1 -1 -1 -1 -1 -1 -1
 MicOpt= -1 -1 -1 -1 -1 -1 -1 -1 -1 -1 -1 -1 -1 -1 -1 -1 -1 -1 -1 -1
 MicOpt= -1 -1 -1 -1 -1 -1 -1 -1 -1 -1 -1 -1 -1 -1 -1 -1 -1 -1 -1 -1
 MicOpt= -1 -1 -1 -1 -1 -1 -1 -1 -1 -1 -1 -1 -1 -1 -1 -1 -1 -1 -1 -1
 MicOpt= -1 -1 -1 -1 -1 -1 -1 -1 -1 -1 -1 -1 -1 -1 -1 -1 -1 -1 -1 -1
 MicOpt= -1 -1 -1 -1 -1 -1 -1 -1 -1 -1 -1 -1 -1 -1 -1 -1 -1 -1 -1 -1
 MicOpt= -1 -1 -1 -1 -1 -1 -1 -1 -1 -1 -1 -1 -1 -1 -1 -1 -1 -1 -1 -1
 NAtoms=    140 NQM=      140 NQMF=       0 NMMI=      0 NMMIF=      0
                NMic=       0 NMicF=      0.
                    Isotopes and Nuclear Properties:
 (Nuclear quadrupole moments (NQMom) in fm**2, nuclear magnetic moments (NMagM)
  in nuclear magnetons)

  Atom         1           2           3           4           5           6           7           8           9          10
 IAtWgt=          24          12          12          12          12          14          12          12          12          12
 AtmWgt=  23.9850450  12.0000000  12.0000000  12.0000000  12.0000000  14.0030740  12.0000000  12.0000000  12.0000000  12.0000000
 NucSpn=           0           0           0           0           0           2           0           0           0           0
 AtZEff=  -0.0000000  -0.0000000  -0.0000000  -0.0000000  -0.0000000  -0.0000000  -0.0000000  -0.0000000  -0.0000000  -0.0000000
 NQMom=    0.0000000   0.0000000   0.0000000   0.0000000   0.0000000   2.0440000   0.0000000   0.0000000   0.0000000   0.0000000
 NMagM=    0.0000000   0.0000000   0.0000000   0.0000000   0.0000000   0.4037610   0.0000000   0.0000000   0.0000000   0.0000000
 AtZNuc=  12.0000000   6.0000000   6.0000000   6.0000000   6.0000000   7.0000000   6.0000000   6.0000000   6.0000000   6.0000000

  Atom        11          12          13          14          15          16          17          18          19          20
 IAtWgt=          12          12          12          12          16          16          14          12          12          12
 AtmWgt=  12.0000000  12.0000000  12.0000000  12.0000000  15.9949146  15.9949146  14.0030740  12.0000000  12.0000000  12.0000000
 NucSpn=           0           0           0           0           0           0           2           0           0           0
 AtZEff=  -0.0000000  -0.0000000  -0.0000000  -0.0000000  -0.0000000  -0.0000000  -0.0000000  -0.0000000  -0.0000000  -0.0000000
 NQMom=    0.0000000   0.0000000   0.0000000   0.0000000   0.0000000   0.0000000   2.0440000   0.0000000   0.0000000   0.0000000
 NMagM=    0.0000000   0.0000000   0.0000000   0.0000000   0.0000000   0.0000000   0.4037610   0.0000000   0.0000000   0.0000000
 AtZNuc=   6.0000000   6.0000000   6.0000000   6.0000000   8.0000000   8.0000000   7.0000000   6.0000000   6.0000000   6.0000000

  Atom        21          22          23          24          25          26          27          28          29          30
 IAtWgt=          12          12          12          16          12          14          12          12          12          12
 AtmWgt=  12.0000000  12.0000000  12.0000000  15.9949146  12.0000000  14.0030740  12.0000000  12.0000000  12.0000000  12.0000000
 NucSpn=           0           0           0           0           0           2           0           0           0           0
 AtZEff=  -0.0000000  -0.0000000  -0.0000000  -0.0000000  -0.0000000  -0.0000000  -0.0000000  -0.0000000  -0.0000000  -0.0000000
 NQMom=    0.0000000   0.0000000   0.0000000   0.0000000   0.0000000   2.0440000   0.0000000   0.0000000   0.0000000   0.0000000
 NMagM=    0.0000000   0.0000000   0.0000000   0.0000000   0.0000000   0.4037610   0.0000000   0.0000000   0.0000000   0.0000000
 AtZNuc=   6.0000000   6.0000000   6.0000000   8.0000000   6.0000000   7.0000000   6.0000000   6.0000000   6.0000000   6.0000000

  Atom        31          32          33          34          35          36          37          38          39          40
 IAtWgt=          12          12          12          14          12          12          12          12          12          12
 AtmWgt=  12.0000000  12.0000000  12.0000000  14.0030740  12.0000000  12.0000000  12.0000000  12.0000000  12.0000000  12.0000000
 NucSpn=           0           0           0           2           0           0           0           0           0           0
 AtZEff=  -0.0000000  -0.0000000  -0.0000000  -0.0000000  -0.0000000  -0.0000000  -0.0000000  -0.0000000  -0.0000000  -0.0000000
 NQMom=    0.0000000   0.0000000   0.0000000   2.0440000   0.0000000   0.0000000   0.0000000   0.0000000   0.0000000   0.0000000
 NMagM=    0.0000000   0.0000000   0.0000000   0.4037610   0.0000000   0.0000000   0.0000000   0.0000000   0.0000000   0.0000000
 AtZNuc=   6.0000000   6.0000000   6.0000000   7.0000000   6.0000000   6.0000000   6.0000000   6.0000000   6.0000000   6.0000000

  Atom        41          42          43          44          45          46          47          48          49          50
 IAtWgt=          16          12          12          16          16          12          12          12          12          12
 AtmWgt=  15.9949146  12.0000000  12.0000000  15.9949146  15.9949146  12.0000000  12.0000000  12.0000000  12.0000000  12.0000000
 NucSpn=           0           0           0           0           0           0           0           0           0           0
 AtZEff=  -0.0000000  -0.0000000  -0.0000000  -0.0000000  -0.0000000  -0.0000000  -0.0000000  -0.0000000  -0.0000000  -0.0000000
 NQMom=    0.0000000   0.0000000   0.0000000   0.0000000   0.0000000   0.0000000   0.0000000   0.0000000   0.0000000   0.0000000
 NMagM=    0.0000000   0.0000000   0.0000000   0.0000000   0.0000000   0.0000000   0.0000000   0.0000000   0.0000000   0.0000000
 AtZNuc=   8.0000000   6.0000000   6.0000000   8.0000000   8.0000000   6.0000000   6.0000000   6.0000000   6.0000000   6.0000000

  Atom        51          52          53          54          55          56          57          58          59          60
 IAtWgt=          12          12          12          12          12          12          12          12          12          12
 AtmWgt=  12.0000000  12.0000000  12.0000000  12.0000000  12.0000000  12.0000000  12.0000000  12.0000000  12.0000000  12.0000000
 NucSpn=           0           0           0           0           0           0           0           0           0           0
 AtZEff=  -0.0000000  -0.0000000  -0.0000000  -0.0000000  -0.0000000  -0.0000000  -0.0000000  -0.0000000  -0.0000000  -0.0000000
 NQMom=    0.0000000   0.0000000   0.0000000   0.0000000   0.0000000   0.0000000   0.0000000   0.0000000   0.0000000   0.0000000
 NMagM=    0.0000000   0.0000000   0.0000000   0.0000000   0.0000000   0.0000000   0.0000000   0.0000000   0.0000000   0.0000000
 AtZNuc=   6.0000000   6.0000000   6.0000000   6.0000000   6.0000000   6.0000000   6.0000000   6.0000000   6.0000000   6.0000000

  Atom        61          62          63          64          65          66          67          68          69          70
 IAtWgt=          12          12          12          12          12          12           1           1           1           1
 AtmWgt=  12.0000000  12.0000000  12.0000000  12.0000000  12.0000000  12.0000000   1.0078250   1.0078250   1.0078250   1.0078250
 NucSpn=           0           0           0           0           0           0           1           1           1           1
 AtZEff=  -0.0000000  -0.0000000  -0.0000000  -0.0000000  -0.0000000  -0.0000000  -0.0000000  -0.0000000  -0.0000000  -0.0000000
 NQMom=    0.0000000   0.0000000   0.0000000   0.0000000   0.0000000   0.0000000   0.0000000   0.0000000   0.0000000   0.0000000
 NMagM=    0.0000000   0.0000000   0.0000000   0.0000000   0.0000000   0.0000000   2.7928460   2.7928460   2.7928460   2.7928460
 AtZNuc=   6.0000000   6.0000000   6.0000000   6.0000000   6.0000000   6.0000000   1.0000000   1.0000000   1.0000000   1.0000000

  Atom        71          72          73          74          75          76          77          78          79          80
 IAtWgt=           1           1           1           1           1           1           1           1           1           1
 AtmWgt=   1.0078250   1.0078250   1.0078250   1.0078250   1.0078250   1.0078250   1.0078250   1.0078250   1.0078250   1.0078250
 NucSpn=           1           1           1           1           1           1           1           1           1           1
 AtZEff=  -0.0000000  -0.0000000  -0.0000000  -0.0000000  -0.0000000  -0.0000000  -0.0000000  -0.0000000  -0.0000000  -0.0000000
 NQMom=    0.0000000   0.0000000   0.0000000   0.0000000   0.0000000   0.0000000   0.0000000   0.0000000   0.0000000   0.0000000
 NMagM=    2.7928460   2.7928460   2.7928460   2.7928460   2.7928460   2.7928460   2.7928460   2.7928460   2.7928460   2.7928460
 AtZNuc=   1.0000000   1.0000000   1.0000000   1.0000000   1.0000000   1.0000000   1.0000000   1.0000000   1.0000000   1.0000000

  Atom        81          82          83          84          85          86          87          88          89          90
 IAtWgt=           1           1           1           1           1           1           1           1           1           1
 AtmWgt=   1.0078250   1.0078250   1.0078250   1.0078250   1.0078250   1.0078250   1.0078250   1.0078250   1.0078250   1.0078250
 NucSpn=           1           1           1           1           1           1           1           1           1           1
 AtZEff=  -0.0000000  -0.0000000  -0.0000000  -0.0000000  -0.0000000  -0.0000000  -0.0000000  -0.0000000  -0.0000000  -0.0000000
 NQMom=    0.0000000   0.0000000   0.0000000   0.0000000   0.0000000   0.0000000   0.0000000   0.0000000   0.0000000   0.0000000
 NMagM=    2.7928460   2.7928460   2.7928460   2.7928460   2.7928460   2.7928460   2.7928460   2.7928460   2.7928460   2.7928460
 AtZNuc=   1.0000000   1.0000000   1.0000000   1.0000000   1.0000000   1.0000000   1.0000000   1.0000000   1.0000000   1.0000000

  Atom        91          92          93          94          95          96          97          98          99         100
 IAtWgt=           1           1           1           1           1           1           1           1           1           1
 AtmWgt=   1.0078250   1.0078250   1.0078250   1.0078250   1.0078250   1.0078250   1.0078250   1.0078250   1.0078250   1.0078250
 NucSpn=           1           1           1           1           1           1           1           1           1           1
 AtZEff=  -0.0000000  -0.0000000  -0.0000000  -0.0000000  -0.0000000  -0.0000000  -0.0000000  -0.0000000  -0.0000000  -0.0000000
 NQMom=    0.0000000   0.0000000   0.0000000   0.0000000   0.0000000   0.0000000   0.0000000   0.0000000   0.0000000   0.0000000
 NMagM=    2.7928460   2.7928460   2.7928460   2.7928460   2.7928460   2.7928460   2.7928460   2.7928460   2.7928460   2.7928460
 AtZNuc=   1.0000000   1.0000000   1.0000000   1.0000000   1.0000000   1.0000000   1.0000000   1.0000000   1.0000000   1.0000000

  Atom       101         102         103         104         105         106         107         108         109         110
 IAtWgt=           1           1           1           1           1           1           1           1           1           1
 AtmWgt=   1.0078250   1.0078250   1.0078250   1.0078250   1.0078250   1.0078250   1.0078250   1.0078250   1.0078250   1.0078250
 NucSpn=           1           1           1           1           1           1           1           1           1           1
 AtZEff=  -0.0000000  -0.0000000  -0.0000000  -0.0000000  -0.0000000  -0.0000000  -0.0000000  -0.0000000  -0.0000000  -0.0000000
 NQMom=    0.0000000   0.0000000   0.0000000   0.0000000   0.0000000   0.0000000   0.0000000   0.0000000   0.0000000   0.0000000
 NMagM=    2.7928460   2.7928460   2.7928460   2.7928460   2.7928460   2.7928460   2.7928460   2.7928460   2.7928460   2.7928460
 AtZNuc=   1.0000000   1.0000000   1.0000000   1.0000000   1.0000000   1.0000000   1.0000000   1.0000000   1.0000000   1.0000000

  Atom       111         112         113         114         115         116         117         118         119         120
 IAtWgt=           1           1           1           1           1           1           1           1           1           1
 AtmWgt=   1.0078250   1.0078250   1.0078250   1.0078250   1.0078250   1.0078250   1.0078250   1.0078250   1.0078250   1.0078250
 NucSpn=           1           1           1           1           1           1           1           1           1           1
 AtZEff=  -0.0000000  -0.0000000  -0.0000000  -0.0000000  -0.0000000  -0.0000000  -0.0000000  -0.0000000  -0.0000000  -0.0000000
 NQMom=    0.0000000   0.0000000   0.0000000   0.0000000   0.0000000   0.0000000   0.0000000   0.0000000   0.0000000   0.0000000
 NMagM=    2.7928460   2.7928460   2.7928460   2.7928460   2.7928460   2.7928460   2.7928460   2.7928460   2.7928460   2.7928460
 AtZNuc=   1.0000000   1.0000000   1.0000000   1.0000000   1.0000000   1.0000000   1.0000000   1.0000000   1.0000000   1.0000000

  Atom       121         122         123         124         125         126         127         128         129         130
 IAtWgt=           1           1           1           1           1           1           1           1           1           1
 AtmWgt=   1.0078250   1.0078250   1.0078250   1.0078250   1.0078250   1.0078250   1.0078250   1.0078250   1.0078250   1.0078250
 NucSpn=           1           1           1           1           1           1           1           1           1           1
 AtZEff=  -0.0000000  -0.0000000  -0.0000000  -0.0000000  -0.0000000  -0.0000000  -0.0000000  -0.0000000  -0.0000000  -0.0000000
 NQMom=    0.0000000   0.0000000   0.0000000   0.0000000   0.0000000   0.0000000   0.0000000   0.0000000   0.0000000   0.0000000
 NMagM=    2.7928460   2.7928460   2.7928460   2.7928460   2.7928460   2.7928460   2.7928460   2.7928460   2.7928460   2.7928460
 AtZNuc=   1.0000000   1.0000000   1.0000000   1.0000000   1.0000000   1.0000000   1.0000000   1.0000000   1.0000000   1.0000000

  Atom       131         132         133         134         135         136         137         138         139         140
 IAtWgt=           1           1           1           1           1           1           1           1           1           1
 AtmWgt=   1.0078250   1.0078250   1.0078250   1.0078250   1.0078250   1.0078250   1.0078250   1.0078250   1.0078250   1.0078250
 NucSpn=           1           1           1           1           1           1           1           1           1           1
 AtZEff=  -0.0000000  -0.0000000  -0.0000000  -0.0000000  -0.0000000  -0.0000000  -0.0000000  -0.0000000  -0.0000000  -0.0000000
 NQMom=    0.0000000   0.0000000   0.0000000   0.0000000   0.0000000   0.0000000   0.0000000   0.0000000   0.0000000   0.0000000
 NMagM=    2.7928460   2.7928460   2.7928460   2.7928460   2.7928460   2.7928460   2.7928460   2.7928460   2.7928460   2.7928460
 AtZNuc=   1.0000000   1.0000000   1.0000000   1.0000000   1.0000000   1.0000000   1.0000000   1.0000000   1.0000000   1.0000000
 Leave Link  101 at Tue May  3 19:45:22 2022, MaxMem= 10066329600 cpu:               4.2 elap:               0.2
 (Enter /sw/apps/gaussian-16.0/g16/l202.exe)
 Stoichiometry    C55H74MgN4O6
 Framework group  C1[X(C55H74MgN4O6)]
 Deg. of freedom   414
 Full point group                 C1      NOp   1
 Largest Abelian subgroup         C1      NOp   1
 Largest concise Abelian subgroup C1      NOp   1
                         Standard orientation:                         
 ---------------------------------------------------------------------
 Center     Atomic      Atomic             Coordinates (Angstroms)
 Number     Number       Type             X           Y           Z
 ---------------------------------------------------------------------
      1         12           0        5.543160    0.793967   -0.117714
      2          6           0        4.542233   -2.544909    0.498079
      3          6           0        4.442206    0.578260   -3.396496
      4          6           0        5.842645    4.129026   -0.362489
      5          6           0        6.393832    0.954445    3.290663
      6          7           0        4.539542   -0.706920   -1.221047
      7          6           0        4.192197   -2.043718   -0.783846
      8          6           0        3.358289   -2.806074   -1.861304
      9          6           0        3.629265   -1.894014   -3.138714
     10          6           0        4.315419   -0.561890   -2.583287
     11          6           0        4.445390   -2.483898   -4.403484
     12          6           0        1.931801   -2.669312   -1.459134
     13          6           0        1.157809   -4.006453   -1.407173
     14          6           0       -0.199618   -4.174904   -2.041705
     15          8           0       -0.500002   -4.909095   -3.023761
     16          8           0       -1.074874   -3.291218   -1.409398
     17          7           0        5.359647    2.145134   -1.749349
     18          6           0        4.936900    1.840302   -2.993586
     19          6           0        4.714978    3.058173   -3.739247
     20          6           0        5.067159    4.169231   -2.915286
     21          6           0        5.521340    3.488880   -1.589083
     22          6           0        4.232123    3.125041   -5.189473
     23          6           0        5.066973    5.603811   -3.309044
     24          8           0        4.750647    5.870664   -4.456260
     25          6           0        5.445408    6.712041   -2.366640
     26          7           0        5.814918    2.339515    1.287639
     27          6           0        5.935812    3.656787    0.942466
     28          6           0        6.278816    4.535159    2.154166
     29          6           0        6.765038    3.483584    3.176384
     30          6           0        6.319617    2.172807    2.583827
     31          6           0        7.308025    5.736802    1.948523
     32          6           0        6.282435    3.753363    4.670511
     33          6           0        7.317244    3.889980    5.771899
     34          7           0        5.569679   -0.483685    1.556519
     35          6           0        5.980052   -0.349383    2.896175
     36          6           0        5.813724   -1.604985    3.636629
     37          6           0        5.215642   -2.469949    2.738807
     38          6           0        5.108460   -1.769611    1.499300
     39          6           0        5.998938   -1.836947    5.184053
     40          6           0        4.683751   -3.843000    2.546426
     41          8           0        4.691710   -4.884069    3.267899
     42          6           0        4.275809   -3.945428    0.997710
     43          6           0        5.060735   -4.983216    0.327856
     44          8           0        4.620278   -6.046361   -0.094705
     45          8           0        6.401441   -4.631377    0.163071
     46          6           0        7.175219   -5.642401   -0.577270
     47          6           0       -2.504535   -3.448993   -1.761012
     48          6           0       -3.358109   -2.567337   -0.841276
     49          6           0       -3.621679   -1.225738   -0.841310
     50          6           0       -3.104004   -0.255717   -1.942229
     51          6           0       -4.447238   -0.622239    0.233758
     52          6           0       -5.824216   -0.053906   -0.039262
     53          6           0       -6.792455   -0.227718    1.161006
     54          6           0       -8.212784    0.484494    0.939487
     55          6           0       -8.323272    1.815720    1.754442
     56          6           0       -9.361121   -0.496331    1.210207
     57          6           0      -10.573436   -0.309041    0.242900
     58          6           0      -11.707101   -1.040777    0.866626
     59          6           0      -12.972061   -0.233952    1.118604
     60          6           0      -13.587284   -0.747511    2.381049
     61          6           0      -14.011375   -0.368717   -0.076833
     62          6           0      -14.303233    1.004765   -0.730711
     63          6           0      -15.849707    1.220531   -0.735340
     64          6           0      -16.218822    2.178646    0.381186
     65          6           0      -17.752560    1.888091    0.737085
     66          6           0      -16.074958    3.692201    0.025931
     67          1           0        4.011003    0.468331   -4.393981
     68          1           0        5.971803    5.212695   -0.359533
     69          1           0        6.820283    1.129501    4.281013
     70          1           0        3.866166   -3.770125   -1.896388
     71          1           0        2.674446   -1.658399   -3.608268
     72          1           0        3.942860   -2.209084   -5.331160
     73          1           0        4.675974   -3.541831   -4.277583
     74          1           0        5.370673   -1.910792   -4.470053
     75          1           0        1.403034   -1.954544   -2.089183
     76          1           0        1.861155   -2.203630   -0.475924
     77          1           0        1.029381   -4.268138   -0.356754
     78          1           0        1.567680   -4.840264   -1.977246
     79          1           0        3.997221    2.124733   -5.552967
     80          1           0        4.985584    3.555732   -5.849237
     81          1           0        3.310422    3.696669   -5.291807
     82          1           0        6.479070    6.457903   -2.130459
     83          1           0        4.770428    6.672760   -1.511320
     84          1           0        5.484401    7.663386   -2.896742
     85          1           0        5.345571    4.951633    2.531611
     86          1           0        7.851045    3.432499    3.100921
     87          1           0        6.833219    6.711280    1.829713
     88          1           0        8.004507    5.575135    1.125678
     89          1           0        7.920630    5.929496    2.828995
     90          1           0        5.611378    2.976025    5.037673
     91          1           0        5.723837    4.680824    4.546389
     92          1           0        7.246002    4.800448    6.367068
     93          1           0        8.304861    3.846303    5.311584
     94          1           0        7.274366    3.025357    6.433804
     95          1           0        5.197353   -2.411972    5.645884
     96          1           0        6.069233   -0.795761    5.501382
     97          1           0        6.909882   -2.422902    5.311064
     98          1           0        3.237710   -4.279821    1.003142
     99          1           0        7.174009   -5.320897   -1.619004
    100          1           0        6.838216   -6.671533   -0.700808
    101          1           0        8.178538   -5.697152   -0.156262
    102          1           0       -2.772181   -4.488506   -1.571541
    103          1           0       -2.622916   -3.269051   -2.829883
    104          1           0       -3.857959   -3.190214   -0.099496
    105          1           0       -2.586013    0.609163   -1.528476
    106          1           0       -3.863192    0.254278   -2.533607
    107          1           0       -2.420111   -0.803670   -2.590127
    108          1           0       -3.945733    0.142269    0.827252
    109          1           0       -4.578205   -1.350484    1.033647
    110          1           0       -6.310137   -0.436926   -0.936746
    111          1           0       -5.599929    1.008582   -0.136315
    112          1           0       -6.234095    0.229407    1.977893
    113          1           0       -6.887787   -1.278769    1.432555
    114          1           0       -8.275678    0.804776   -0.100348
    115          1           0       -7.507840    1.955331    2.464460
    116          1           0       -9.265987    1.846561    2.300062
    117          1           0       -8.263905    2.687555    1.104074
    118          1           0       -9.494103   -0.527309    2.292285
    119          1           0       -8.913883   -1.461676    0.976650
    120          1           0      -10.328203   -0.884483   -0.649228
    121          1           0      -10.774746    0.721878   -0.048455
    122          1           0      -11.514364   -1.590006    1.787642
    123          1           0      -11.940349   -1.842623    0.166520
    124          1           0      -12.633603    0.772612    1.361736
    125          1           0      -12.953225   -0.409181    3.200669
    126          1           0      -13.712653   -1.831092    2.396978
    127          1           0      -14.565970   -0.276658    2.466056
    128          1           0      -14.921752   -0.842344    0.290918
    129          1           0      -13.592686   -1.097875   -0.770693
    130          1           0      -13.905996    0.998876   -1.746343
    131          1           0      -13.797553    1.844682   -0.255327
    132          1           0      -16.349085    0.271647   -0.545488
    133          1           0      -15.975868    1.677814   -1.717262
    134          1           0      -15.572773    1.943277    1.227824
    135          1           0      -17.719025    1.896587    1.825807
    136          1           0      -18.174759    0.940978    0.400867
    137          1           0      -18.407729    2.705639    0.438571
    138          1           0      -15.517015    3.847063   -0.897840
    139          1           0      -15.548800    4.074963    0.900568
    140          1           0      -16.988462    4.274392   -0.088740
 ---------------------------------------------------------------------
 Rotational constants (GHZ):           0.0350282           0.0089202           0.0083408
 Leave Link  202 at Tue May  3 19:45:22 2022, MaxMem= 10066329600 cpu:               2.4 elap:               0.2
 (Enter /sw/apps/gaussian-16.0/g16/l301.exe)
 Standard basis: def2SVP (5D, 7F)
 Ernie: Thresh=  0.10000D-02 Tol=  0.10000D-05 Strict=F.
 There are  1364 symmetry adapted cartesian basis functions of A   symmetry.
 There are  1298 symmetry adapted basis functions of A   symmetry.
  1298 basis functions,  2180 primitive gaussians,  1364 cartesian basis functions
   246 alpha electrons      246 beta electrons
       nuclear repulsion energy      9362.5650338786 Hartrees.
 IExCor=  402 DFT=T Ex=B Corr=LYP ExCW=0 ScaHFX=  0.000000
 ScaDFX=  1.000000  1.000000  1.000000  1.000000 ScalE2=  1.000000  1.000000
 IRadAn=      5 IRanWt=     -1 IRanGd=            0 ICorTp=0 IEmpDi=  4
 NAtoms=  140 NActive=  140 NUniq=  140 SFac= 1.00D+00 NAtFMM=   60 NAOKFM=T Big=T
 Integral buffers will be    131072 words long.
 Regular integral format.
 Two-electron integral symmetry is turned on.
 Leave Link  301 at Tue May  3 19:45:22 2022, MaxMem= 10066329600 cpu:               1.8 elap:               0.1
 (Enter /sw/apps/gaussian-16.0/g16/l302.exe)
 NPDir=0 NMtPBC=     1 NCelOv=     1 NCel=       1 NClECP=     1 NCelD=      1
         NCelK=      1 NCelE2=     1 NClLst=     1 CellRange=     0.0.
 One-electron integrals computed using PRISM.
 One-electron integral symmetry used in STVInt
   1 Symmetry operations used in ECPInt.
 ECPInt:  NShTT=  192510 NPrTT=  683786 LenC2=   91320 LenP2D=  200487.
 LDataN:  DoStor=T MaxTD1= 4 Len=   56
 NBasis=  1298 RedAO= T EigKep=  2.75D-04  NBF=  1298
 NBsUse=  1298 1.00D-06 EigRej= -1.00D+00 NBFU=  1298
 Precomputing XC quadrature grid using
 IXCGrd= 4 IRadAn=           5 IRanWt=          -1 IRanGd=           0 AccXCQ= 0.00D+00.
 Generated NRdTot=       0 NPtTot=           0 NUsed=           0 NTot=          32
 NSgBfM=  1025   998  1012  1019  1025 MxSgAt=   140 MxSgA2=   140.
 Leave Link  302 at Tue May  3 19:45:26 2022, MaxMem= 10066329600 cpu:             101.6 elap:               4.3
 (Enter /sw/apps/gaussian-16.0/g16/l303.exe)
 DipDrv:  MaxL=1.
 Leave Link  303 at Tue May  3 19:45:27 2022, MaxMem= 10066329600 cpu:              13.5 elap:               0.6
 (Enter /sw/apps/gaussian-16.0/g16/l308.exe)
 Leave Link  308 at Tue May  3 19:45:27 2022, MaxMem= 10066329600 cpu:              11.3 elap:               0.5
 (Enter /sw/apps/gaussian-16.0/g16/l401.exe)
 ExpMin= 3.36D-02 ExpMax= 4.95D+03 ExpMxC= 7.45D+02 IAcc=3 IRadAn=         5 AccDes= 0.00D+00
 Harris functional with IExCor=  402 and IRadAn=       5 diagonalized for initial guess.
 HarFok:  IExCor=  402 AccDes= 0.00D+00 IRadAn=         5 IDoV= 1 UseB2=F ITyADJ=14
 ICtDFT=  3500011 ScaDFX=  1.000000  1.000000  1.000000  1.000000
 FoFCou: FMM=F IPFlag=           0 FMFlag=      100000 FMFlg1=        2001
         NFxFlg=           0 DoJE=T BraDBF=F KetDBF=T FulRan=T
         wScrn=  0.000000 ICntrl=       500 IOpCl=  0 I1Cent=   200000004 NGrid=           0
         NMat0=    1 NMatS0=      1 NMatT0=    0 NMatD0=    1 NMtDS0=    0 NMtDT0=    0
 Petite list used in FoFCou.
 Harris En= -3008.74287105996    
 JPrj=0 DoOrth=F DoCkMO=F.
 Leave Link  401 at Tue May  3 19:45:34 2022, MaxMem= 10066329600 cpu:             151.3 elap:               6.4
 (Enter /sw/apps/gaussian-16.0/g16/l502.exe)
 Integral symmetry usage will be decided dynamically.
 Closed shell SCF:
 Using DIIS extrapolation, IDIIS=  1040.
 NGot= 10066329600 LenX= 10062561258 LenY= 10060699398
 Requested convergence on RMS density matrix=1.00D-08 within 128 cycles.
 Requested convergence on MAX density matrix=1.00D-06.
 Requested convergence on             energy=1.00D-06.
 No special actions if energy rises.
 Fock matrices will be formed incrementally for  20 cycles.

 Cycle   1  Pass 1  IDiag  1:
 FoFJK:  IHMeth= 1 ICntrl=     500 DoSepK=F KAlg= 0 I1Cent=           0 FoldK=F
 IRaf= 500000000 NMat=       1 IRICut=       1 DoRegI=T DoRafI=F ISym2E= 0 IDoP0=0 IntGTp=1.
 FoFCou: FMM=T IPFlag=           0 FMFlag=      100000 FMFlg1=        2001
         NFxFlg=           0 DoJE=T BraDBF=F KetDBF=F FulRan=T
         wScrn=  0.000000 ICntrl=       500 IOpCl=  0 I1Cent=           0 NGrid=           0
         NMat0=    1 NMatS0=      1 NMatT0=    0 NMatD0=    1 NMtDS0=    0 NMtDT0=    0
 Symmetry not used in FoFCou.
 FMM levels:  10  Number of levels for PrismC:   9
 E= -3005.67902132681    
 DIIS: error= 1.68D-02 at cycle   1 NSaved=   1.
 NSaved= 1 IEnMin= 1 EnMin= -3005.67902132681     IErMin= 1 ErrMin= 1.68D-02
 ErrMax= 1.68D-02  0.00D+00 EMaxC= 1.00D-01 BMatC= 1.54D+00 BMatP= 1.54D+00
 IDIUse=3 WtCom= 8.32D-01 WtEn= 1.68D-01
 Coeff-Com:  0.100D+01
 Coeff-En:   0.100D+01
 Coeff:      0.100D+01
 Gap=     0.058 Goal=   None    Shift=    0.000
 GapD=    0.058 DampG=0.500 DampE=0.500 DampFc=0.2500 IDamp=-1.
 Damping current iteration by 2.50D-01
 RMSDP=4.01D-03 MaxDP=1.29D+00              OVMax= 9.39D-01

 Cycle   2  Pass 1  IDiag  1:
 RMSU=  9.98D-04    CP:  9.91D-01
 E= -3006.15546346795     Delta-E=       -0.476442141140 Rises=F Damp=T
 DIIS: error= 6.37D-03 at cycle   2 NSaved=   2.
 NSaved= 2 IEnMin= 2 EnMin= -3006.15546346795     IErMin= 2 ErrMin= 6.37D-03
 ErrMax= 6.37D-03  0.00D+00 EMaxC= 1.00D-01 BMatC= 2.60D-01 BMatP= 1.54D+00
 IDIUse=3 WtCom= 9.36D-01 WtEn= 6.37D-02
 Coeff-Com: -0.244D+00 0.124D+01
 Coeff-En:   0.131D+00 0.869D+00
 Coeff:     -0.220D+00 0.122D+01
 Gap=     0.168 Goal=   None    Shift=    0.000
 RMSDP=1.68D-03 MaxDP=2.54D-01 DE=-4.76D-01 OVMax= 5.40D-01

 Cycle   3  Pass 1  IDiag  1:
 RMSU=  1.66D-03    CP:  9.66D-01  1.11D+00
 E= -3004.81971235643     Delta-E=        1.335751111521 Rises=F Damp=F
 DIIS: error= 4.20D-02 at cycle   3 NSaved=   3.
 NSaved= 3 IEnMin= 2 EnMin= -3006.15546346795     IErMin= 2 ErrMin= 6.37D-03
 ErrMax= 4.20D-02  0.00D+00 EMaxC= 1.00D-01 BMatC= 1.87D+00 BMatP= 2.60D-01
 IDIUse=2 WtCom= 0.00D+00 WtEn= 1.00D+00
 Coeff-En:   0.000D+00 0.713D+00 0.287D+00
 Coeff:      0.000D+00 0.713D+00 0.287D+00
 Gap=     0.048 Goal=   None    Shift=    0.000
 RMSDP=2.21D-03 MaxDP=4.64D-01 DE= 1.34D+00 OVMax= 8.24D-01

 Cycle   4  Pass 1  IDiag  1:
 RMSU=  1.01D-03    CP:  9.72D-01  1.97D+00 -6.29D-02
 E= -3004.86862583040     Delta-E=       -0.048913473973 Rises=F Damp=F
 DIIS: error= 4.09D-02 at cycle   4 NSaved=   4.
 NSaved= 4 IEnMin= 2 EnMin= -3006.15546346795     IErMin= 2 ErrMin= 6.37D-03
 ErrMax= 4.09D-02  0.00D+00 EMaxC= 1.00D-01 BMatC= 1.58D+00 BMatP= 2.60D-01
 IDIUse=2 WtCom= 0.00D+00 WtEn= 1.00D+00
 EnCoef did     2 forward-backward iterations
 Coeff-En:   0.131D+00 0.000D+00 0.422D+00 0.447D+00
 Coeff:      0.131D+00 0.000D+00 0.422D+00 0.447D+00
 Gap=     0.084 Goal=   None    Shift=    0.000
 RMSDP=1.45D-03 MaxDP=3.69D-01 DE=-4.89D-02 OVMax= 7.53D-01

 Cycle   5  Pass 1  IDiag  1:
 RMSU=  6.92D-04    CP:  9.81D-01  1.17D+00  1.38D-01  7.82D-02
 E= -3007.11795502938     Delta-E=       -2.249329198983 Rises=F Damp=F
 DIIS: error= 1.21D-02 at cycle   5 NSaved=   5.
 NSaved= 5 IEnMin= 5 EnMin= -3007.11795502938     IErMin= 2 ErrMin= 6.37D-03
 ErrMax= 1.21D-02  0.00D+00 EMaxC= 1.00D-01 BMatC= 2.51D-01 BMatP= 2.60D-01
 IDIUse=3 WtCom= 8.79D-01 WtEn= 1.21D-01
 EnCoef did     9 forward-backward iterations
 Coeff-Com: -0.131D+00 0.614D+00 0.212D+00 0.995D-01 0.205D+00
 Coeff-En:   0.000D+00 0.000D+00 0.577D-01 0.124D+00 0.819D+00
 Coeff:     -0.115D+00 0.539D+00 0.193D+00 0.102D+00 0.280D+00
 Gap=     0.118 Goal=   None    Shift=    0.000
 RMSDP=8.93D-04 MaxDP=1.56D-01 DE=-2.25D+00 OVMax= 4.85D-01

 Cycle   6  Pass 1  IDiag  1:
 RMSU=  7.03D-04    CP:  9.76D-01  1.02D+00  2.76D-01  2.38D-01  3.49D-01
 E= -3007.16729851601     Delta-E=       -0.049343486628 Rises=F Damp=F
 DIIS: error= 1.14D-02 at cycle   6 NSaved=   6.
 NSaved= 6 IEnMin= 6 EnMin= -3007.16729851601     IErMin= 2 ErrMin= 6.37D-03
 ErrMax= 1.14D-02  0.00D+00 EMaxC= 1.00D-01 BMatC= 1.90D-01 BMatP= 2.51D-01
 IDIUse=3 WtCom= 8.86D-01 WtEn= 1.14D-01
 EnCoef did     1 forward-backward iterations
 Coeff-Com: -0.211D+00 0.510D+00 0.437D-01-0.278D-01 0.261D+00 0.425D+00
 Coeff-En:   0.000D+00 0.000D+00 0.000D+00 0.229D-02 0.457D+00 0.541D+00
 Coeff:     -0.187D+00 0.452D+00 0.387D-01-0.244D-01 0.283D+00 0.438D+00
 Gap=     0.026 Goal=   None    Shift=    0.000
 RMSDP=7.63D-04 MaxDP=6.19D-02 DE=-4.93D-02 OVMax= 5.99D-01

 Cycle   7  Pass 1  IDiag  1:
 RMSU=  5.06D-04    CP:  9.78D-01  1.11D+00  2.39D-01  5.25D-02  8.06D-01
                    CP:  3.98D-01
 E= -3007.24156803393     Delta-E=       -0.074269517920 Rises=F Damp=F
 DIIS: error= 9.12D-03 at cycle   7 NSaved=   7.
 NSaved= 7 IEnMin= 7 EnMin= -3007.24156803393     IErMin= 2 ErrMin= 6.37D-03
 ErrMax= 9.12D-03  0.00D+00 EMaxC= 1.00D-01 BMatC= 8.08D-02 BMatP= 1.90D-01
 IDIUse=3 WtCom= 9.09D-01 WtEn= 9.12D-02
 EnCoef did     6 forward-backward iterations
 Coeff-Com: -0.144D+00 0.310D+00 0.926D-02-0.140D-01 0.230D+00 0.374D+00
 Coeff-Com:  0.235D+00
 Coeff-En:   0.000D+00 0.000D+00 0.000D+00 0.000D+00 0.200D+00 0.387D+00
 Coeff-En:   0.414D+00
 Coeff:     -0.131D+00 0.282D+00 0.841D-02-0.128D-01 0.227D+00 0.375D+00
 Coeff:      0.251D+00
 Gap=     0.030 Goal=   None    Shift=    0.000
 RMSDP=5.24D-04 MaxDP=4.88D-02 DE=-7.43D-02 OVMax= 4.56D-01

 Cycle   8  Pass 1  IDiag  1:
 RMSU=  1.89D-04    CP:  9.79D-01  1.15D+00  1.88D-01  1.14D-01  6.83D-01
                    CP:  6.91D-01  1.69D-01
 E= -3007.35400116580     Delta-E=       -0.112433131870 Rises=F Damp=F
 DIIS: error= 2.97D-03 at cycle   8 NSaved=   8.
 NSaved= 8 IEnMin= 8 EnMin= -3007.35400116580     IErMin= 8 ErrMin= 2.97D-03
 ErrMax= 2.97D-03  0.00D+00 EMaxC= 1.00D-01 BMatC= 1.22D-02 BMatP= 8.08D-02
 IDIUse=3 WtCom= 9.70D-01 WtEn= 2.97D-02
 Coeff-Com: -0.699D-01 0.144D+00-0.482D-03-0.773D-03 0.136D+00 0.227D+00
 Coeff-Com:  0.231D+00 0.333D+00
 Coeff-En:   0.000D+00 0.000D+00 0.000D+00 0.000D+00 0.000D+00 0.000D+00
 Coeff-En:   0.200D+00 0.800D+00
 Coeff:     -0.678D-01 0.140D+00-0.467D-03-0.750D-03 0.132D+00 0.220D+00
 Coeff:      0.230D+00 0.346D+00
 Gap=     0.039 Goal=   None    Shift=    0.000
 RMSDP=1.81D-04 MaxDP=2.04D-02 DE=-1.12D-01 OVMax= 1.40D-01

 Cycle   9  Pass 1  IDiag  1:
 RMSU=  9.27D-05    CP:  9.79D-01  1.13D+00  1.94D-01  1.01D-01  7.19D-01
                    CP:  6.21D-01  3.82D-01  5.01D-01
 E= -3007.36914893926     Delta-E=       -0.015147773463 Rises=F Damp=F
 DIIS: error= 1.26D-03 at cycle   9 NSaved=   9.
 NSaved= 9 IEnMin= 9 EnMin= -3007.36914893926     IErMin= 9 ErrMin= 1.26D-03
 ErrMax= 1.26D-03  0.00D+00 EMaxC= 1.00D-01 BMatC= 2.05D-03 BMatP= 1.22D-02
 IDIUse=3 WtCom= 9.87D-01 WtEn= 1.26D-02
 Coeff-Com: -0.243D-01 0.521D-01-0.523D-02 0.222D-02 0.327D-01 0.712D-01
 Coeff-Com:  0.114D+00 0.275D+00 0.482D+00
 Coeff-En:   0.000D+00 0.000D+00 0.000D+00 0.000D+00 0.000D+00 0.000D+00
 Coeff-En:   0.000D+00 0.165D+00 0.835D+00
 Coeff:     -0.240D-01 0.514D-01-0.516D-02 0.219D-02 0.323D-01 0.703D-01
 Coeff:      0.113D+00 0.274D+00 0.487D+00
 Gap=     0.040 Goal=   None    Shift=    0.000
 RMSDP=8.64D-05 MaxDP=8.33D-03 DE=-1.51D-02 OVMax= 5.22D-02

 Cycle  10  Pass 1  IDiag  1:
 RMSU=  5.26D-05    CP:  9.79D-01  1.13D+00  1.92D-01  9.52D-02  7.13D-01
                    CP:  6.55D-01  3.71D-01  7.17D-01  4.76D-01
 E= -3007.36986804859     Delta-E=       -0.000719109325 Rises=F Damp=F
 DIIS: error= 1.00D-03 at cycle  10 NSaved=  10.
 NSaved=10 IEnMin=10 EnMin= -3007.36986804859     IErMin=10 ErrMin= 1.00D-03
 ErrMax= 1.00D-03  0.00D+00 EMaxC= 1.00D-01 BMatC= 1.22D-03 BMatP= 2.05D-03
 IDIUse=3 WtCom= 9.90D-01 WtEn= 1.00D-02
 Coeff-Com: -0.581D-02 0.155D-01-0.504D-02 0.331D-02-0.104D-01 0.927D-03
 Coeff-Com:  0.368D-01 0.137D+00 0.458D+00 0.370D+00
 Coeff-En:   0.000D+00 0.000D+00 0.000D+00 0.000D+00 0.000D+00 0.000D+00
 Coeff-En:   0.000D+00 0.000D+00 0.430D+00 0.570D+00
 Coeff:     -0.575D-02 0.154D-01-0.499D-02 0.328D-02-0.103D-01 0.918D-03
 Coeff:      0.365D-01 0.135D+00 0.458D+00 0.372D+00
 Gap=     0.040 Goal=   None    Shift=    0.000
 RMSDP=5.64D-05 MaxDP=5.47D-03 DE=-7.19D-04 OVMax= 4.28D-02

 Cycle  11  Pass 1  IDiag  1:
 RMSU=  2.32D-05    CP:  9.79D-01  1.14D+00  1.89D-01  1.01D-01  7.19D-01
                    CP:  6.53D-01  3.68D-01  6.81D-01  7.73D-01  2.07D-01
 E= -3007.37125559768     Delta-E=       -0.001387549089 Rises=F Damp=F
 DIIS: error= 2.72D-04 at cycle  11 NSaved=  11.
 NSaved=11 IEnMin=11 EnMin= -3007.37125559768     IErMin=11 ErrMin= 2.72D-04
 ErrMax= 2.72D-04  0.00D+00 EMaxC= 1.00D-01 BMatC= 2.54D-04 BMatP= 1.22D-03
 IDIUse=3 WtCom= 9.97D-01 WtEn= 2.72D-03
 Coeff-Com: -0.360D-02 0.108D-01-0.311D-02 0.185D-02-0.143D-01-0.836D-02
 Coeff-Com:  0.127D-01 0.536D-01 0.270D+00 0.315D+00 0.365D+00
 Coeff-En:   0.000D+00 0.000D+00 0.000D+00 0.000D+00 0.000D+00 0.000D+00
 Coeff-En:   0.000D+00 0.000D+00 0.000D+00 0.208D+00 0.792D+00
 Coeff:     -0.359D-02 0.108D-01-0.310D-02 0.185D-02-0.142D-01-0.834D-02
 Coeff:      0.127D-01 0.535D-01 0.269D+00 0.315D+00 0.367D+00
 Gap=     0.040 Goal=   None    Shift=    0.000
 RMSDP=2.43D-05 MaxDP=2.84D-03 DE=-1.39D-03 OVMax= 1.67D-02

 Cycle  12  Pass 1  IDiag  1:
 RMSU=  1.12D-05    CP:  9.79D-01  1.14D+00  1.88D-01  1.00D-01  7.18D-01
                    CP:  6.51D-01  3.78D-01  6.81D-01  7.16D-01  4.44D-01
                    CP:  3.18D-01
 E= -3007.37153516723     Delta-E=       -0.000279569547 Rises=F Damp=F
 DIIS: error= 2.01D-04 at cycle  12 NSaved=  12.
 NSaved=12 IEnMin=12 EnMin= -3007.37153516723     IErMin=12 ErrMin= 2.01D-04
 ErrMax= 2.01D-04  0.00D+00 EMaxC= 1.00D-01 BMatC= 5.65D-05 BMatP= 2.54D-04
 IDIUse=3 WtCom= 9.98D-01 WtEn= 2.01D-03
 Coeff-Com: -0.370D-02 0.950D-02-0.937D-03 0.197D-03-0.729D-02-0.355D-02
 Coeff-Com:  0.386D-03-0.956D-02 0.353D-01 0.124D+00 0.323D+00 0.533D+00
 Coeff-En:   0.000D+00 0.000D+00 0.000D+00 0.000D+00 0.000D+00 0.000D+00
 Coeff-En:   0.000D+00 0.000D+00 0.000D+00 0.000D+00 0.175D+00 0.825D+00
 Coeff:     -0.369D-02 0.948D-02-0.935D-03 0.197D-03-0.728D-02-0.354D-02
 Coeff:      0.385D-03-0.954D-02 0.353D-01 0.124D+00 0.323D+00 0.533D+00
 Gap=     0.040 Goal=   None    Shift=    0.000
 RMSDP=1.07D-05 MaxDP=9.16D-04 DE=-2.80D-04 OVMax= 4.89D-03

 Cycle  13  Pass 1  IDiag  1:
 RMSU=  5.41D-06    CP:  9.79D-01  1.14D+00  1.88D-01  1.00D-01  7.17D-01
                    CP:  6.55D-01  3.80D-01  6.91D-01  7.28D-01  4.34D-01
                    CP:  5.60D-01  4.47D-01
 E= -3007.37158724935     Delta-E=       -0.000052082125 Rises=F Damp=F
 DIIS: error= 9.20D-05 at cycle  13 NSaved=  13.
 NSaved=13 IEnMin=13 EnMin= -3007.37158724935     IErMin=13 ErrMin= 9.20D-05
 ErrMax= 9.20D-05  0.00D+00 EMaxC= 1.00D-01 BMatC= 1.54D-05 BMatP= 5.65D-05
 IDIUse=1 WtCom= 1.00D+00 WtEn= 0.00D+00
 Coeff-Com: -0.254D-02 0.583D-02-0.254D-03-0.163D-03-0.258D-02-0.660D-03
 Coeff-Com: -0.212D-02-0.235D-01-0.471D-01 0.216D-01 0.182D+00 0.436D+00
 Coeff-Com:  0.433D+00
 Coeff:     -0.254D-02 0.583D-02-0.254D-03-0.163D-03-0.258D-02-0.660D-03
 Coeff:     -0.212D-02-0.235D-01-0.471D-01 0.216D-01 0.182D+00 0.436D+00
 Coeff:      0.433D+00
 Gap=     0.040 Goal=   None    Shift=    0.000
 RMSDP=4.31D-06 MaxDP=4.12D-04 DE=-5.21D-05 OVMax= 1.28D-03

 Cycle  14  Pass 1  IDiag  1:
 RMSU=  2.25D-06    CP:  9.79D-01  1.14D+00  1.88D-01  9.99D-02  7.17D-01
                    CP:  6.56D-01  3.82D-01  6.93D-01  7.33D-01  4.39D-01
                    CP:  5.52D-01  6.60D-01  5.77D-01
 E= -3007.37160165112     Delta-E=       -0.000014401767 Rises=F Damp=F
 DIIS: error= 4.17D-05 at cycle  14 NSaved=  14.
 NSaved=14 IEnMin=14 EnMin= -3007.37160165112     IErMin=14 ErrMin= 4.17D-05
 ErrMax= 4.17D-05  0.00D+00 EMaxC= 1.00D-01 BMatC= 2.58D-06 BMatP= 1.54D-05
 IDIUse=1 WtCom= 1.00D+00 WtEn= 0.00D+00
 Coeff-Com: -0.121D-02 0.240D-02-0.808D-04-0.448D-04-0.903D-04 0.396D-03
 Coeff-Com: -0.123D-02-0.161D-01-0.492D-01-0.163D-01 0.618D-01 0.197D+00
 Coeff-Com:  0.296D+00 0.527D+00
 Coeff:     -0.121D-02 0.240D-02-0.808D-04-0.448D-04-0.903D-04 0.396D-03
 Coeff:     -0.123D-02-0.161D-01-0.492D-01-0.163D-01 0.618D-01 0.197D+00
 Coeff:      0.296D+00 0.527D+00
 Gap=     0.040 Goal=   None    Shift=    0.000
 RMSDP=1.67D-06 MaxDP=2.39D-04 DE=-1.44D-05 OVMax= 6.75D-04

 Cycle  15  Pass 1  IDiag  1:
 RMSU=  8.70D-07    CP:  9.79D-01  1.14D+00  1.87D-01  1.00D-01  7.18D-01
                    CP:  6.56D-01  3.83D-01  6.95D-01  7.33D-01  4.44D-01
                    CP:  5.78D-01  6.85D-01  6.25D-01  6.17D-01
 E= -3007.37160383335     Delta-E=       -0.000002182234 Rises=F Damp=F
 DIIS: error= 2.16D-05 at cycle  15 NSaved=  15.
 NSaved=15 IEnMin=15 EnMin= -3007.37160383335     IErMin=15 ErrMin= 2.16D-05
 ErrMax= 2.16D-05  0.00D+00 EMaxC= 1.00D-01 BMatC= 4.98D-07 BMatP= 2.58D-06
 IDIUse=1 WtCom= 1.00D+00 WtEn= 0.00D+00
 Coeff-Com: -0.514D-03 0.885D-03-0.303D-04-0.339D-04 0.364D-03 0.391D-03
 Coeff-Com: -0.710D-03-0.836D-02-0.316D-01-0.191D-01 0.108D-01 0.619D-01
 Coeff-Com:  0.137D+00 0.374D+00 0.475D+00
 Coeff:     -0.514D-03 0.885D-03-0.303D-04-0.339D-04 0.364D-03 0.391D-03
 Coeff:     -0.710D-03-0.836D-02-0.316D-01-0.191D-01 0.108D-01 0.619D-01
 Coeff:      0.137D+00 0.374D+00 0.475D+00
 Gap=     0.040 Goal=   None    Shift=    0.000
 RMSDP=7.67D-07 MaxDP=9.28D-05 DE=-2.18D-06 OVMax= 2.64D-04

 Cycle  16  Pass 1  IDiag  1:
 RMSU=  4.00D-07    CP:  9.79D-01  1.14D+00  1.87D-01  1.00D-01  7.18D-01
                    CP:  6.57D-01  3.83D-01  6.96D-01  7.34D-01  4.43D-01
                    CP:  5.90D-01  7.00D-01  6.47D-01  7.03D-01  6.53D-01
 E= -3007.37160427297     Delta-E=       -0.000000439621 Rises=F Damp=F
 DIIS: error= 1.29D-05 at cycle  16 NSaved=  16.
 NSaved=16 IEnMin=16 EnMin= -3007.37160427297     IErMin=16 ErrMin= 1.29D-05
 ErrMax= 1.29D-05  0.00D+00 EMaxC= 1.00D-01 BMatC= 8.89D-08 BMatP= 4.98D-07
 IDIUse=1 WtCom= 1.00D+00 WtEn= 0.00D+00
 Coeff-Com: -0.182D-03 0.261D-03-0.118D-04-0.126D-04 0.291D-03 0.225D-03
 Coeff-Com: -0.336D-03-0.354D-02-0.161D-01-0.124D-01-0.453D-02 0.870D-02
 Coeff-Com:  0.475D-01 0.187D+00 0.358D+00 0.436D+00
 Coeff:     -0.182D-03 0.261D-03-0.118D-04-0.126D-04 0.291D-03 0.225D-03
 Coeff:     -0.336D-03-0.354D-02-0.161D-01-0.124D-01-0.453D-02 0.870D-02
 Coeff:      0.475D-01 0.187D+00 0.358D+00 0.436D+00
 Gap=     0.040 Goal=   None    Shift=    0.000
 RMSDP=3.27D-07 MaxDP=5.65D-05 DE=-4.40D-07 OVMax= 8.29D-05

 Cycle  17  Pass 1  IDiag  1:
 RMSU=  1.63D-07    CP:  9.79D-01  1.14D+00  1.87D-01  1.00D-01  7.18D-01
                    CP:  6.57D-01  3.83D-01  6.96D-01  7.34D-01  4.44D-01
                    CP:  5.91D-01  7.04D-01  6.63D-01  7.23D-01  6.72D-01
                    CP:  5.06D-01
 E= -3007.37160434732     Delta-E=       -0.000000074351 Rises=F Damp=F
 DIIS: error= 3.81D-06 at cycle  17 NSaved=  17.
 NSaved=17 IEnMin=17 EnMin= -3007.37160434732     IErMin=17 ErrMin= 3.81D-06
 ErrMax= 3.81D-06  0.00D+00 EMaxC= 1.00D-01 BMatC= 1.38D-08 BMatP= 8.89D-08
 IDIUse=1 WtCom= 1.00D+00 WtEn= 0.00D+00
 Coeff-Com: -0.606D-04 0.654D-04-0.581D-05-0.104D-05 0.167D-03 0.120D-03
 Coeff-Com: -0.153D-03-0.146D-02-0.769D-02-0.672D-02-0.542D-02-0.314D-02
 Coeff-Com:  0.150D-01 0.847D-01 0.193D+00 0.329D+00 0.402D+00
 Coeff:     -0.606D-04 0.654D-04-0.581D-05-0.104D-05 0.167D-03 0.120D-03
 Coeff:     -0.153D-03-0.146D-02-0.769D-02-0.672D-02-0.542D-02-0.314D-02
 Coeff:      0.150D-01 0.847D-01 0.193D+00 0.329D+00 0.402D+00
 Gap=     0.040 Goal=   None    Shift=    0.000
 RMSDP=1.27D-07 MaxDP=1.55D-05 DE=-7.44D-08 OVMax= 4.45D-05

 Cycle  18  Pass 1  IDiag  1:
 RMSU=  7.08D-08    CP:  9.79D-01  1.14D+00  1.87D-01  1.00D-01  7.18D-01
                    CP:  6.57D-01  3.83D-01  6.96D-01  7.34D-01  4.44D-01
                    CP:  5.92D-01  7.06D-01  6.66D-01  7.31D-01  6.84D-01
                    CP:  5.66D-01  5.41D-01
 E= -3007.37160435936     Delta-E=       -0.000000012033 Rises=F Damp=F
 DIIS: error= 1.42D-06 at cycle  18 NSaved=  18.
 NSaved=18 IEnMin=18 EnMin= -3007.37160435936     IErMin=18 ErrMin= 1.42D-06
 ErrMax= 1.42D-06  0.00D+00 EMaxC= 1.00D-01 BMatC= 1.87D-09 BMatP= 1.38D-08
 IDIUse=1 WtCom= 1.00D+00 WtEn= 0.00D+00
 Coeff-Com: -0.675D-05-0.495D-05-0.185D-05 0.616D-06 0.554D-04 0.421D-04
 Coeff-Com: -0.517D-04-0.373D-03-0.245D-02-0.245D-02-0.317D-02-0.416D-02
 Coeff-Com:  0.110D-02 0.233D-01 0.655D-01 0.151D+00 0.299D+00 0.473D+00
 Coeff:     -0.675D-05-0.495D-05-0.185D-05 0.616D-06 0.554D-04 0.421D-04
 Coeff:     -0.517D-04-0.373D-03-0.245D-02-0.245D-02-0.317D-02-0.416D-02
 Coeff:      0.110D-02 0.233D-01 0.655D-01 0.151D+00 0.299D+00 0.473D+00
 Gap=     0.040 Goal=   None    Shift=    0.000
 RMSDP=5.42D-08 MaxDP=7.80D-06 DE=-1.20D-08 OVMax= 1.16D-05

 Cycle  19  Pass 1  IDiag  1:
 RMSU=  2.59D-08    CP:  9.79D-01  1.14D+00  1.87D-01  1.00D-01  7.18D-01
                    CP:  6.57D-01  3.83D-01  6.96D-01  7.34D-01  4.45D-01
                    CP:  5.93D-01  7.06D-01  6.67D-01  7.33D-01  6.86D-01
                    CP:  5.72D-01  5.69D-01  5.24D-01
 E= -3007.37160436090     Delta-E=       -0.000000001548 Rises=F Damp=F
 DIIS: error= 4.89D-07 at cycle  19 NSaved=  19.
 NSaved=19 IEnMin=19 EnMin= -3007.37160436090     IErMin=19 ErrMin= 4.89D-07
 ErrMax= 4.89D-07  0.00D+00 EMaxC= 1.00D-01 BMatC= 2.62D-10 BMatP= 1.87D-09
 IDIUse=1 WtCom= 1.00D+00 WtEn= 0.00D+00
 Coeff-Com:  0.322D-05-0.124D-04-0.631D-06 0.904D-06 0.176D-04 0.156D-04
 Coeff-Com: -0.170D-04-0.842D-04-0.778D-03-0.899D-03-0.155D-02-0.253D-02
 Coeff-Com: -0.995D-03 0.613D-02 0.223D-01 0.654D-01 0.162D+00 0.338D+00
 Coeff-Com:  0.413D+00
 Coeff:      0.322D-05-0.124D-04-0.631D-06 0.904D-06 0.176D-04 0.156D-04
 Coeff:     -0.170D-04-0.842D-04-0.778D-03-0.899D-03-0.155D-02-0.253D-02
 Coeff:     -0.995D-03 0.613D-02 0.223D-01 0.654D-01 0.162D+00 0.338D+00
 Coeff:      0.413D+00
 Gap=     0.040 Goal=   None    Shift=    0.000
 RMSDP=2.03D-08 MaxDP=2.78D-06 DE=-1.55D-09 OVMax= 6.56D-06

 Cycle  20  Pass 1  IDiag  1:
 RMSU=  1.06D-08    CP:  9.79D-01  1.14D+00  1.87D-01  1.00D-01  7.18D-01
                    CP:  6.57D-01  3.83D-01  6.96D-01  7.34D-01  4.45D-01
                    CP:  5.93D-01  7.07D-01  6.67D-01  7.33D-01  6.90D-01
                    CP:  5.74D-01  5.81D-01  5.56D-01  4.53D-01
 E= -3007.37160436076     Delta-E=        0.000000000142 Rises=F Damp=F
 DIIS: error= 1.82D-07 at cycle  20 NSaved=  20.
 NSaved=20 IEnMin=19 EnMin= -3007.37160436090     IErMin=20 ErrMin= 1.82D-07
 ErrMax= 1.82D-07  0.00D+00 EMaxC= 1.00D-01 BMatC= 4.37D-11 BMatP= 2.62D-10
 IDIUse=1 WtCom= 1.00D+00 WtEn= 0.00D+00
 Coeff-Com:  0.207D-05-0.610D-05-0.290D-06 0.636D-06 0.595D-05 0.676D-05
 Coeff-Com: -0.603D-05-0.259D-04-0.302D-03-0.369D-03-0.699D-03-0.122D-02
 Coeff-Com: -0.624D-03 0.221D-02 0.915D-02 0.304D-01 0.830D-01 0.190D+00
 Coeff-Com:  0.305D+00 0.384D+00
 Coeff:      0.207D-05-0.610D-05-0.290D-06 0.636D-06 0.595D-05 0.676D-05
 Coeff:     -0.603D-05-0.259D-04-0.302D-03-0.369D-03-0.699D-03-0.122D-02
 Coeff:     -0.624D-03 0.221D-02 0.915D-02 0.304D-01 0.830D-01 0.190D+00
 Coeff:      0.305D+00 0.384D+00
 Gap=     0.040 Goal=   None    Shift=    0.000
 RMSDP=8.50D-09 MaxDP=1.27D-06 DE= 1.42D-10 OVMax= 2.92D-06

 Cycle  21  Pass 1  IDiag  1:
 Restarting incremental Fock formation.
 E= -3007.37160436098     Delta-E=       -0.000000000222 Rises=F Damp=F
 DIIS: error= 8.93D-08 at cycle  21 NSaved=  20.
 NSaved=20 IEnMin=20 EnMin= -3007.37160436098     IErMin=20 ErrMin= 8.93D-08
 ErrMax= 8.93D-08  0.00D+00 EMaxC= 1.00D-01 BMatC= 6.76D-12 BMatP= 4.37D-11
 IDIUse=1 WtCom= 1.00D+00 WtEn= 0.00D+00
 Coeff-Com:  0.784D-06-0.177D-05 0.133D-06 0.873D-06 0.205D-05-0.183D-05
 Coeff-Com: -0.384D-05-0.853D-04-0.115D-03-0.239D-03-0.464D-03-0.276D-03
 Coeff-Com:  0.594D-03 0.298D-02 0.112D-01 0.334D-01 0.820D-01 0.156D+00
 Coeff-Com:  0.289D+00 0.426D+00
 Coeff:      0.784D-06-0.177D-05 0.133D-06 0.873D-06 0.205D-05-0.183D-05
 Coeff:     -0.384D-05-0.853D-04-0.115D-03-0.239D-03-0.464D-03-0.276D-03
 Coeff:      0.594D-03 0.298D-02 0.112D-01 0.334D-01 0.820D-01 0.156D+00
 Coeff:      0.289D+00 0.426D+00
 Gap=     0.040 Goal=   None    Shift=    0.000
 RMSDP=3.30D-09 MaxDP=5.85D-07 DE=-2.22D-10 OVMax= 9.85D-07

 SCF Done:  E(RB-LYP) =  -3007.37160436     A.U. after   21 cycles
            NFock= 21  Conv=0.33D-08     -V/T= 2.0102
 KE= 2.976976397191D+03 PE=-2.571934418260D+04 EE= 1.037243114717D+04
 Leave Link  502 at Tue May  3 19:50:03 2022, MaxMem= 10066329600 cpu:            6449.7 elap:             269.6
 (Enter /sw/apps/gaussian-16.0/g16/l801.exe)
 DoSCS=F DFT=T ScalE2(SS,OS)=  1.000000  1.000000
 ExpMin= 3.36D-02 ExpMax= 4.95D+03 ExpMxC= 7.45D+02 IAcc=3 IRadAn=         5 AccDes= 0.00D+00
 HarFok:  IExCor=  205 AccDes= 0.00D+00 IRadAn=         5 IDoV=-2 UseB2=F ITyADJ=14
 ICtDFT= 12500011 ScaDFX=  1.000000  1.000000  1.000000  1.000000
 GSVD:  LWork=       -5460 too small for GESVD, short by       25550 words or       25550 for optimal perf.
 Largest valence mixing into a core orbital is  1.30D-04
 Largest core mixing into a valence orbital is  4.68D-05
 Range of M.O.s used for correlation:    71  1298
 NBasis=  1298 NAE=   246 NBE=   246 NFC=    70 NFV=     0
 NROrb=   1228 NOA=   176 NOB=   176 NVA=  1052 NVB=  1052

 **** Warning!!: The smallest alpha delta epsilon is  0.40298194D-01

 Leave Link  801 at Tue May  3 19:50:04 2022, MaxMem= 10066329600 cpu:               8.7 elap:               0.4
 (Enter /sw/apps/gaussian-16.0/g16/l914.exe)
 RHF ground state
 Two-electron integrals replicated using symmetry.
 MDV= 10066329600 DFT=T DoStab=F Mixed=F DoRPA=T DoScal=T NonHer=F
 Making orbital integer symmetry assigments:
 Orbital symmetries:
       Occupied  (A) (A) (A) (A) (A) (A) (A) (A) (A) (A) (A) (A)
                 (A) (A) (A) (A) (A) (A) (A) (A) (A) (A) (A) (A)
                 (A) (A) (A) (A) (A) (A) (A) (A) (A) (A) (A) (A)
                 (A) (A) (A) (A) (A) (A) (A) (A) (A) (A) (A) (A)
                 (A) (A) (A) (A) (A) (A) (A) (A) (A) (A) (A) (A)
                 (A) (A) (A) (A) (A) (A) (A) (A) (A) (A) (A) (A)
                 (A) (A) (A) (A) (A) (A) (A) (A) (A) (A) (A) (A)
                 (A) (A) (A) (A) (A) (A) (A) (A) (A) (A) (A) (A)
                 (A) (A) (A) (A) (A) (A) (A) (A) (A) (A) (A) (A)
                 (A) (A) (A) (A) (A) (A) (A) (A) (A) (A) (A) (A)
                 (A) (A) (A) (A) (A) (A) (A) (A) (A) (A) (A) (A)
                 (A) (A) (A) (A) (A) (A) (A) (A) (A) (A) (A) (A)
                 (A) (A) (A) (A) (A) (A) (A) (A) (A) (A) (A) (A)
                 (A) (A) (A) (A) (A) (A) (A) (A) (A) (A) (A) (A)
                 (A) (A) (A) (A) (A) (A) (A) (A) (A) (A) (A) (A)
                 (A) (A) (A) (A) (A) (A) (A) (A) (A) (A) (A) (A)
                 (A) (A) (A) (A) (A) (A) (A) (A) (A) (A) (A) (A)
                 (A) (A) (A) (A) (A) (A) (A) (A) (A) (A) (A) (A)
                 (A) (A) (A) (A) (A) (A) (A) (A) (A) (A) (A) (A)
                 (A) (A) (A) (A) (A) (A) (A) (A) (A) (A) (A) (A)
                 (A) (A) (A) (A) (A) (A)
       Virtual   (A) (A) (A) (A) (A) (A) (A) (A) (A) (A) (A) (A)
                 (A) (A) (A) (A) (A) (A) (A) (A) (A) (A) (A) (A)
                 (A) (A) (A) (A) (A) (A) (A) (A) (A) (A) (A) (A)
                 (A) (A) (A) (A) (A) (A) (A) (A) (A) (A) (A) (A)
                 (A) (A) (A) (A) (A) (A) (A) (A) (A) (A) (A) (A)
                 (A) (A) (A) (A) (A) (A) (A) (A) (A) (A) (A) (A)
                 (A) (A) (A) (A) (A) (A) (A) (A) (A) (A) (A) (A)
                 (A) (A) (A) (A) (A) (A) (A) (A) (A) (A) (A) (A)
                 (A) (A) (A) (A) (A) (A) (A) (A) (A) (A) (A) (A)
                 (A) (A) (A) (A) (A) (A) (A) (A) (A) (A) (A) (A)
                 (A) (A) (A) (A) (A) (A) (A) (A) (A) (A) (A) (A)
                 (A) (A) (A) (A) (A) (A) (A) (A) (A) (A) (A) (A)
                 (A) (A) (A) (A) (A) (A) (A) (A) (A) (A) (A) (A)
                 (A) (A) (A) (A) (A) (A) (A) (A) (A) (A) (A) (A)
                 (A) (A) (A) (A) (A) (A) (A) (A) (A) (A) (A) (A)
                 (A) (A) (A) (A) (A) (A) (A) (A) (A) (A) (A) (A)
                 (A) (A) (A) (A) (A) (A) (A) (A) (A) (A) (A) (A)
                 (A) (A) (A) (A) (A) (A) (A) (A) (A) (A) (A) (A)
                 (A) (A) (A) (A) (A) (A) (A) (A) (A) (A) (A) (A)
                 (A) (A) (A) (A) (A) (A) (A) (A) (A) (A) (A) (A)
                 (A) (A) (A) (A) (A) (A) (A) (A) (A) (A) (A) (A)
                 (A) (A) (A) (A) (A) (A) (A) (A) (A) (A) (A) (A)
                 (A) (A) (A) (A) (A) (A) (A) (A) (A) (A) (A) (A)
                 (A) (A) (A) (A) (A) (A) (A) (A) (A) (A) (A) (A)
                 (A) (A) (A) (A) (A) (A) (A) (A) (A) (A) (A) (A)
                 (A) (A) (A) (A) (A) (A) (A) (A) (A) (A) (A) (A)
                 (A) (A) (A) (A) (A) (A) (A) (A) (A) (A) (A) (A)
                 (A) (A) (A) (A) (A) (A) (A) (A) (A) (A) (A) (A)
                 (A) (A) (A) (A) (A) (A) (A) (A) (A) (A) (A) (A)
                 (A) (A) (A) (A) (A) (A) (A) (A) (A) (A) (A) (A)
                 (A) (A) (A) (A) (A) (A) (A) (A) (A) (A) (A) (A)
                 (A) (A) (A) (A) (A) (A) (A) (A) (A) (A) (A) (A)
                 (A) (A) (A) (A) (A) (A) (A) (A) (A) (A) (A) (A)
                 (A) (A) (A) (A) (A) (A) (A) (A) (A) (A) (A) (A)
                 (A) (A) (A) (A) (A) (A) (A) (A) (A) (A) (A) (A)
                 (A) (A) (A) (A) (A) (A) (A) (A) (A) (A) (A) (A)
                 (A) (A) (A) (A) (A) (A) (A) (A) (A) (A) (A) (A)
                 (A) (A) (A) (A) (A) (A) (A) (A) (A) (A) (A) (A)
                 (A) (A) (A) (A) (A) (A) (A) (A) (A) (A) (A) (A)
                 (A) (A) (A) (A) (A) (A) (A) (A) (A) (A) (A) (A)
                 (A) (A) (A) (A) (A) (A) (A) (A) (A) (A) (A) (A)
                 (A) (A) (A) (A) (A) (A) (A) (A) (A) (A) (A) (A)
                 (A) (A) (A) (A) (A) (A) (A) (A) (A) (A) (A) (A)
                 (A) (A) (A) (A) (A) (A) (A) (A) (A) (A) (A) (A)
                 (A) (A) (A) (A) (A) (A) (A) (A) (A) (A) (A) (A)
                 (A) (A) (A) (A) (A) (A) (A) (A) (A) (A) (A) (A)
                 (A) (A) (A) (A) (A) (A) (A) (A) (A) (A) (A) (A)
                 (A) (A) (A) (A) (A) (A) (A) (A) (A) (A) (A) (A)
                 (A) (A) (A) (A) (A) (A) (A) (A) (A) (A) (A) (A)
                 (A) (A) (A) (A) (A) (A) (A) (A) (A) (A) (A) (A)
                 (A) (A) (A) (A) (A) (A) (A) (A) (A) (A) (A) (A)
                 (A) (A) (A) (A) (A) (A) (A) (A) (A) (A) (A) (A)
                 (A) (A) (A) (A) (A) (A) (A) (A) (A) (A) (A) (A)
                 (A) (A) (A) (A) (A) (A) (A) (A) (A) (A) (A) (A)
                 (A) (A) (A) (A) (A) (A) (A) (A) (A) (A) (A) (A)
                 (A) (A) (A) (A) (A) (A) (A) (A) (A) (A) (A) (A)
                 (A) (A) (A) (A) (A) (A) (A) (A) (A) (A) (A) (A)
                 (A) (A) (A) (A) (A) (A) (A) (A) (A) (A) (A) (A)
                 (A) (A) (A) (A) (A) (A) (A) (A) (A) (A) (A) (A)
                 (A) (A) (A) (A) (A) (A) (A) (A) (A) (A) (A) (A)
                 (A) (A) (A) (A) (A) (A) (A) (A) (A) (A) (A) (A)
                 (A) (A) (A) (A) (A) (A) (A) (A) (A) (A) (A) (A)
                 (A) (A) (A) (A) (A) (A) (A) (A) (A) (A) (A) (A)
                 (A) (A) (A) (A) (A) (A) (A) (A) (A) (A) (A) (A)
                 (A) (A) (A) (A) (A) (A) (A) (A) (A) (A) (A) (A)
                 (A) (A) (A) (A) (A) (A) (A) (A) (A) (A) (A) (A)
                 (A) (A) (A) (A) (A) (A) (A) (A) (A) (A) (A) (A)
                 (A) (A) (A) (A) (A) (A) (A) (A) (A) (A) (A) (A)
                 (A) (A) (A) (A) (A) (A) (A) (A) (A) (A) (A) (A)
                 (A) (A) (A) (A) (A) (A) (A) (A) (A) (A) (A) (A)
                 (A) (A) (A) (A) (A) (A) (A) (A) (A) (A) (A) (A)
                 (A) (A) (A) (A) (A) (A) (A) (A) (A) (A) (A) (A)
                 (A) (A) (A) (A) (A) (A) (A) (A) (A) (A) (A) (A)
                 (A) (A) (A) (A) (A) (A) (A) (A) (A) (A) (A) (A)
                 (A) (A) (A) (A) (A) (A) (A) (A) (A) (A) (A) (A)
                 (A) (A) (A) (A) (A) (A) (A) (A) (A) (A) (A) (A)
                 (A) (A) (A) (A) (A) (A) (A) (A) (A) (A) (A) (A)
                 (A) (A) (A) (A) (A) (A) (A) (A) (A) (A) (A) (A)
                 (A) (A) (A) (A) (A) (A) (A) (A) (A) (A) (A) (A)
                 (A) (A) (A) (A) (A) (A) (A) (A) (A) (A) (A) (A)
                 (A) (A) (A) (A) (A) (A) (A) (A) (A) (A) (A) (A)
                 (A) (A) (A) (A) (A) (A) (A) (A) (A) (A) (A) (A)
                 (A) (A) (A) (A) (A) (A) (A) (A) (A) (A) (A) (A)
                 (A) (A) (A) (A) (A) (A) (A) (A) (A) (A) (A) (A)
                 (A) (A) (A) (A) (A) (A) (A) (A) (A) (A) (A) (A)
                 (A) (A) (A) (A) (A) (A) (A) (A) (A) (A) (A) (A)
                 (A) (A) (A) (A) (A) (A) (A) (A) (A) (A) (A) (A)
                 (A) (A) (A) (A) (A) (A) (A) (A)
    20 initial guesses have been made.
 Convergence on wavefunction:    0.001000000000000
 Davidson Disk Diagonalization:  ConvIn= 1.00D-03 SkipCon=T Conv= 1.00D-03.
 Max sub-space:  2000 roots to seek:    20 dimension of matrix:       370304
 Iteration     1 Dimension    20 NMult     0 NNew     20
 CISAX will form    20 AO SS matrices at one time.
 NMat=    20 NSing=    20 JSym2X= 0.
 FoFJK:  IHMeth= 1 ICntrl=     500 DoSepK=F KAlg= 0 I1Cent=           0 FoldK=F
 IRaf= 500000000 NMat=      20 IRICut=       1 DoRegI=T DoRafI=F ISym2E= 0 IDoP0=0 IntGTp=1.
 FoFCou: FMM=T IPFlag=           0 FMFlag=      100000 FMFlg1=        2001
         NFxFlg=           0 DoJE=F BraDBF=F KetDBF=F FulRan=T
         wScrn=  0.000000 ICntrl=       500 IOpCl=  0 I1Cent=           0 NGrid=           0
         NMat0=   20 NMatS0=     20 NMatT0=    0 NMatD0=   20 NMtDS0=    0 NMtDT0=    0
 Symmetry not used in FoFCou.
 FMM levels:  10  Number of levels for PrismC:   9
 New state      1 was old state      3
 New state      2 was old state      4
 New state      3 was old state      1
 New state      4 was old state      5
 New state      5 was old state      2
 Excitation Energies [eV] at current iteration:
 Root      1 :     1.731567096002512
 Root      2 :     1.974357944594868
 Root      3 :     2.090559291209004
 Root      4 :     2.260614577607879
 Root      5 :     2.318953767136688
 Root      6 :     2.675269471232985
 Root      7 :     2.699664503433904
 Root      8 :     2.856912268166138
 Root      9 :     2.861105372825613
 Root     10 :     3.003333938665561
 Root     11 :     3.015904814471411
 Root     12 :     3.061517863775728
 Root     13 :     3.141700509157880
 Root     14 :     3.202963676702776
 Root     15 :     3.260593593747341
 Root     16 :     3.373854392850773
 Root     17 :     3.870025034127567
 Root     18 :     3.974269575211340
 Root     19 :     4.292918349518930
 Root     20 :     4.361459749196766
 Iteration     2 Dimension    40 NMult    20 NNew     20
 CISAX will form    20 AO SS matrices at one time.
 NMat=    20 NSing=    20 JSym2X= 0.
 Root      1 not converged, maximum delta is    0.010278535857641
 New state      2 was old state      3
 Root      2 not converged, maximum delta is    0.181477174238106
 New state      3 was old state      2
 Root      3 not converged, maximum delta is    0.188224506545502
 New state      4 was old state      5
 Root      4 not converged, maximum delta is    0.454523459047990
 New state      5 was old state      4
 Root      5 not converged, maximum delta is    0.365109342546313
 Excitation Energies [eV] at current iteration:
 Root      1 :     1.726666692616699   Change is   -0.004900403385813
 Root      2 :     1.833956429455344   Change is   -0.256602861753660
 Root      3 :     1.960429173934125   Change is   -0.013928770660743
 Root      4 :     2.094631157736919   Change is   -0.224322609399769
 Root      5 :     2.277928193372532   Change is    0.017313615764654
 Root      6 :     2.558006516910512   Change is   -0.298905751255625
 Root      7 :     2.648208569532041   Change is   -0.027060901700944
 Root      8 :     2.698409503847488   Change is   -0.001254999586417
 Root      9 :     2.753763385259841   Change is   -0.307754478515887
 Root     10 :     2.824439181046476   Change is   -0.436154412700865
 Root     11 :     2.860855100683250   Change is   -0.000250272142363
 Root     12 :     2.955669687724904   Change is   -0.418184705125869
 Root     13 :     3.007019997792870   Change is   -0.008884816678541
 Root     14 :     3.049365781257724   Change is    0.046031842592163
 Root     15 :     3.134814591234640   Change is   -0.006885917923240
 Root     16 :     3.209803671379940   Change is    0.006839994677165
 Root     17 :     3.440029222036634   Change is   -0.429995812090934
 Root     18 :     3.720675754948364   Change is   -0.253593820262977
 Root     19 :     3.947131558629874   Change is   -0.345786790889055
 Root     20 :     3.990644604823927   Change is   -0.370815144372839
 Iteration     3 Dimension    45 NMult    40 NNew      5
 CISAX will form     5 AO SS matrices at one time.
 NMat=     5 NSing=     5 JSym2X= 0.
 Root      1 not converged, maximum delta is    0.014339682282597
 Root      2 not converged, maximum delta is    0.027954714964336
 Root      3 not converged, maximum delta is    0.052826857206583
 Root      4 not converged, maximum delta is    0.056272426267467
 Root      5 not converged, maximum delta is    0.010898728575815
 Excitation Energies [eV] at current iteration:
 Root      1 :     1.725325996831730   Change is   -0.001340695784969
 Root      2 :     1.781745680906217   Change is   -0.052210748549128
 Root      3 :     1.952416662783287   Change is   -0.008012511150838
 Root      4 :     2.065266459330133   Change is   -0.029364698406786
 Root      5 :     2.277077822082589   Change is   -0.000850371289944
 Iteration     4 Dimension    50 NMult    45 NNew      5
 CISAX will form     5 AO SS matrices at one time.
 NMat=     5 NSing=     5 JSym2X= 0.
 Root      1 not converged, maximum delta is    0.017287480330981
 Root      2 not converged, maximum delta is    0.018062601055570
 Root      3 not converged, maximum delta is    0.027330059869391
 Root      4 not converged, maximum delta is    0.029186640125167
 Root      5 not converged, maximum delta is    0.003811935200148
 Excitation Energies [eV] at current iteration:
 Root      1 :     1.724788761026453   Change is   -0.000537235805277
 Root      2 :     1.764303421157340   Change is   -0.017442259748877
 Root      3 :     1.948803197400076   Change is   -0.003613465383211
 Root      4 :     2.053821441515684   Change is   -0.011445017814449
 Root      5 :     2.276808252972147   Change is   -0.000269569110442
 Iteration     5 Dimension    55 NMult    50 NNew      5
 CISAX will form     5 AO SS matrices at one time.
 NMat=     5 NSing=     5 JSym2X= 0.
 Root      1 not converged, maximum delta is    0.010047316981070
 Root      2 not converged, maximum delta is    0.010615715648270
 Root      3 not converged, maximum delta is    0.009571892371283
 Root      4 not converged, maximum delta is    0.010323160644906
 Root      5 not converged, maximum delta is    0.001171503072950
 Excitation Energies [eV] at current iteration:
 Root      1 :     1.724581076528720   Change is   -0.000207684497733
 Root      2 :     1.758448592465931   Change is   -0.005854828691409
 Root      3 :     1.947552415703978   Change is   -0.001250781696098
 Root      4 :     2.050080829279023   Change is   -0.003740612236660
 Root      5 :     2.276712760466748   Change is   -0.000095492505399
 Iteration     6 Dimension    60 NMult    55 NNew      5
 CISAX will form     5 AO SS matrices at one time.
 NMat=     5 NSing=     5 JSym2X= 0.
 Root      1 not converged, maximum delta is    0.006461033484243
 Root      2 not converged, maximum delta is    0.006873598658794
 Root      3 not converged, maximum delta is    0.003811230647272
 Root      4 not converged, maximum delta is    0.004316421508738
 Root      5 has converged.
 Excitation Energies [eV] at current iteration:
 Root      1 :     1.724473194066086   Change is   -0.000107882462634
 Root      2 :     1.755788584033797   Change is   -0.002660008432134
 Root      3 :     1.946953828056131   Change is   -0.000598587647847
 Root      4 :     2.048548158204859   Change is   -0.001532671074164
 Root      5 :     2.276675176881837   Change is   -0.000037583584911
 Iteration     7 Dimension    64 NMult    60 NNew      4
 CISAX will form     4 AO SS matrices at one time.
 NMat=     4 NSing=     4 JSym2X= 0.
 Root      1 not converged, maximum delta is    0.003297305776992
 Root      2 not converged, maximum delta is    0.003536521311596
 Root      3 not converged, maximum delta is    0.001423308068874
 Root      4 not converged, maximum delta is    0.001648914232471
 Root      5 has converged.
 Excitation Energies [eV] at current iteration:
 Root      1 :     1.724424552507485   Change is   -0.000048641558601
 Root      2 :     1.754615338370159   Change is   -0.001173245663638
 Root      3 :     1.946685256700832   Change is   -0.000268571355299
 Root      4 :     2.047964747889010   Change is   -0.000583410315849
 Root      5 :     2.276664661743668   Change is   -0.000010515138169
 Iteration     8 Dimension    68 NMult    64 NNew      4
 CISAX will form     4 AO SS matrices at one time.
 NMat=     4 NSing=     4 JSym2X= 0.
 Root      1 not converged, maximum delta is    0.001437685361335
 Root      2 not converged, maximum delta is    0.001562825185670
 Root      3 not converged, maximum delta is    0.001035256692077
 Root      4 has converged.
 Root      5 has converged.
 Excitation Energies [eV] at current iteration:
 Root      1 :     1.724404545862046   Change is   -0.000020006645438
 Root      2 :     1.754114068277032   Change is   -0.000501270093128
 Root      3 :     1.946563706092074   Change is   -0.000121550608759
 Root      4 :     2.047721403967990   Change is   -0.000243343921020
 Root      5 :     2.276661120825827   Change is   -0.000003540917840
 Iteration     9 Dimension    71 NMult    68 NNew      3
 CISAX will form     3 AO SS matrices at one time.
 NMat=     3 NSing=     3 JSym2X= 0.
 Root      1 has converged.
 Root      2 has converged.
 Root      3 has converged.
 Root      4 has converged.
 Root      5 has converged.
 Excitation Energies [eV] at current iteration:
[...]
 Alpha virt. eigenvalues --    1.07248   1.08152   1.08983   1.09180   1.09653
 Alpha virt. eigenvalues --    1.10402   1.10674   1.11183   1.11972   1.12182
 Alpha virt. eigenvalues --    1.12862   1.13065   1.13263   1.14001   1.14630
 Alpha virt. eigenvalues --    1.15428   1.15775   1.16128   1.16178   1.16320
 Alpha virt. eigenvalues --    1.16645   1.17046   1.17357   1.17801   1.18545
 Alpha virt. eigenvalues --    1.19055   1.19399   1.20262   1.21137   1.21425
 Alpha virt. eigenvalues --    1.21600   1.21930   1.22529   1.22962   1.23218
 Alpha virt. eigenvalues --    1.23969   1.24118   1.24221   1.25325   1.25588
 Alpha virt. eigenvalues --    1.25854   1.26286   1.26530   1.26974   1.27480
 Alpha virt. eigenvalues --    1.28281   1.28622   1.29176   1.29688   1.29737
 Alpha virt. eigenvalues --    1.29818   1.30866   1.30998   1.31449   1.31484
 Alpha virt. eigenvalues --    1.31585   1.31957   1.33123   1.33498   1.33981
 Alpha virt. eigenvalues --    1.34432   1.34546   1.34655   1.35028   1.35676
 Alpha virt. eigenvalues --    1.36329   1.36620   1.36801   1.37094   1.37262
 Alpha virt. eigenvalues --    1.37918   1.38105   1.38401   1.38792   1.39388
 Alpha virt. eigenvalues --    1.39945   1.40289   1.40422   1.40777   1.41126
 Alpha virt. eigenvalues --    1.41353   1.42609   1.43143   1.43419   1.44164
 Alpha virt. eigenvalues --    1.44310   1.45045   1.45182   1.45229   1.45296
 Alpha virt. eigenvalues --    1.45692   1.45915   1.46294   1.46662   1.46776
 Alpha virt. eigenvalues --    1.47030   1.47369   1.47834   1.48032   1.48396
 Alpha virt. eigenvalues --    1.48654   1.48763   1.49040   1.49069   1.49518
 Alpha virt. eigenvalues --    1.49668   1.49929   1.50009   1.50134   1.50329
 Alpha virt. eigenvalues --    1.50457   1.51141   1.51508   1.51750   1.52239
 Alpha virt. eigenvalues --    1.52632   1.53374   1.53687   1.53908   1.54323
 Alpha virt. eigenvalues --    1.54436   1.54895   1.55819   1.56022   1.56220
 Alpha virt. eigenvalues --    1.56341   1.56607   1.56734   1.58059   1.58727
 Alpha virt. eigenvalues --    1.58833   1.58904   1.59056   1.59694   1.60294
 Alpha virt. eigenvalues --    1.60769   1.61069   1.61324   1.61886   1.62200
 Alpha virt. eigenvalues --    1.62509   1.62579   1.63249   1.63371   1.63684
 Alpha virt. eigenvalues --    1.63944   1.64078   1.64556   1.65088   1.65298
 Alpha virt. eigenvalues --    1.65596   1.66030   1.66366   1.66558   1.66704
 Alpha virt. eigenvalues --    1.67108   1.67176   1.67275   1.67560   1.67955
 Alpha virt. eigenvalues --    1.68042   1.68122   1.68538   1.69263   1.69583
 Alpha virt. eigenvalues --    1.69710   1.70070   1.70245   1.70466   1.70540
 Alpha virt. eigenvalues --    1.70572   1.70973   1.71243   1.71602   1.71663
 Alpha virt. eigenvalues --    1.71841   1.72203   1.72356   1.72470   1.72647
 Alpha virt. eigenvalues --    1.72712   1.72913   1.73022   1.73041   1.73069
 Alpha virt. eigenvalues --    1.73352   1.73640   1.73692   1.73991   1.74293
 Alpha virt. eigenvalues --    1.74353   1.74518   1.74731   1.74985   1.75084
 Alpha virt. eigenvalues --    1.75483   1.75559   1.76035   1.76152   1.76324
 Alpha virt. eigenvalues --    1.76448   1.76521   1.76807   1.76874   1.77127
 Alpha virt. eigenvalues --    1.77249   1.77429   1.77585   1.77946   1.78061
 Alpha virt. eigenvalues --    1.78130   1.78248   1.78576   1.78887   1.79132
 Alpha virt. eigenvalues --    1.79458   1.79580   1.79647   1.80392   1.80467
 Alpha virt. eigenvalues --    1.81100   1.81182   1.81317   1.81376   1.81470
 Alpha virt. eigenvalues --    1.81598   1.81801   1.82100   1.82451   1.82737
 Alpha virt. eigenvalues --    1.82902   1.83291   1.83522   1.83955   1.84036
 Alpha virt. eigenvalues --    1.84335   1.84425   1.84663   1.84846   1.85192
 Alpha virt. eigenvalues --    1.85379   1.85807   1.85978   1.86023   1.86311
 Alpha virt. eigenvalues --    1.86822   1.86944   1.87120   1.87414   1.87625
 Alpha virt. eigenvalues --    1.88041   1.88144   1.88353   1.88967   1.89240
 Alpha virt. eigenvalues --    1.89268   1.89801   1.90413   1.90723   1.90863
 Alpha virt. eigenvalues --    1.91089   1.91460   1.91873   1.91998   1.92310
 Alpha virt. eigenvalues --    1.92646   1.92780   1.93004   1.93156   1.93379
 Alpha virt. eigenvalues --    1.93596   1.93990   1.94241   1.94752   1.94899
 Alpha virt. eigenvalues --    1.95131   1.95836   1.96095   1.96215   1.96414
 Alpha virt. eigenvalues --    1.97189   1.97243   1.97495   1.97700   1.98228
 Alpha virt. eigenvalues --    1.98456   1.98498   1.98572   1.99317   1.99473
 Alpha virt. eigenvalues --    1.99917   2.00132   2.00503   2.00660   2.00799
 Alpha virt. eigenvalues --    2.01269   2.01433   2.01682   2.01824   2.02125
 Alpha virt. eigenvalues --    2.02403   2.02537   2.02665   2.03016   2.03267
 Alpha virt. eigenvalues --    2.03510   2.03855   2.04397   2.04764   2.04791
 Alpha virt. eigenvalues --    2.05017   2.05506   2.06116   2.06176   2.06682
 Alpha virt. eigenvalues --    2.06899   2.07156   2.07539   2.08207   2.08311
 Alpha virt. eigenvalues --    2.08791   2.08919   2.10651   2.10792   2.11240
 Alpha virt. eigenvalues --    2.11321   2.11943   2.11984   2.12509   2.12630
 Alpha virt. eigenvalues --    2.13170   2.13476   2.13614   2.13786   2.14235
 Alpha virt. eigenvalues --    2.14544   2.14704   2.14949   2.15514   2.15680
 Alpha virt. eigenvalues --    2.16658   2.16695   2.17694   2.18189   2.18529
 Alpha virt. eigenvalues --    2.18561   2.19655   2.20204   2.20529   2.21056
 Alpha virt. eigenvalues --    2.21984   2.22182   2.22642   2.22958   2.23153
 Alpha virt. eigenvalues --    2.23450   2.23714   2.23947   2.24275   2.24497
 Alpha virt. eigenvalues --    2.24941   2.25399   2.25539   2.25757   2.26121
 Alpha virt. eigenvalues --    2.26610   2.27026   2.27659   2.27809   2.28178
 Alpha virt. eigenvalues --    2.28282   2.28657   2.28942   2.29155   2.29957
 Alpha virt. eigenvalues --    2.30124   2.30302   2.30495   2.30775   2.30890
 Alpha virt. eigenvalues --    2.31600   2.31671   2.32215   2.32847   2.33089
 Alpha virt. eigenvalues --    2.33497   2.33893   2.34859   2.35083   2.35174
 Alpha virt. eigenvalues --    2.35586   2.35804   2.36259   2.36983   2.37661
 Alpha virt. eigenvalues --    2.37765   2.38172   2.38824   2.39169   2.39495
 Alpha virt. eigenvalues --    2.40028   2.40266   2.40691   2.40986   2.41234
 Alpha virt. eigenvalues --    2.41417   2.41685   2.42002   2.42292   2.42523
 Alpha virt. eigenvalues --    2.42921   2.43269   2.43429   2.44273   2.44430
 Alpha virt. eigenvalues --    2.44661   2.45063   2.45535   2.45907   2.46642
 Alpha virt. eigenvalues --    2.47080   2.47118   2.47400   2.47696   2.47922
 Alpha virt. eigenvalues --    2.48264   2.48967   2.49261   2.49430   2.50025
 Alpha virt. eigenvalues --    2.50458   2.50872   2.51004   2.51610   2.51641
 Alpha virt. eigenvalues --    2.52029   2.52589   2.52762   2.53575   2.54150
 Alpha virt. eigenvalues --    2.54942   2.55249   2.55303   2.55902   2.57010
 Alpha virt. eigenvalues --    2.57451   2.57750   2.58032   2.58104   2.58287
 Alpha virt. eigenvalues --    2.58601   2.58739   2.59405   2.60333   2.60402
 Alpha virt. eigenvalues --    2.61129   2.61268   2.61579   2.62063   2.62229
 Alpha virt. eigenvalues --    2.62802   2.63246   2.63795   2.63818   2.63950
 Alpha virt. eigenvalues --    2.64783   2.64943   2.65446   2.65551   2.65582
 Alpha virt. eigenvalues --    2.66117   2.66133   2.67569   2.67643   2.68315
 Alpha virt. eigenvalues --    2.68456   2.69275   2.69434   2.69519   2.70271
 Alpha virt. eigenvalues --    2.70810   2.71256   2.71570   2.73773   2.74181
 Alpha virt. eigenvalues --    2.74657   2.75038   2.75294   2.75794   2.76178
 Alpha virt. eigenvalues --    2.76763   2.77091   2.77416   2.77637   2.78106
 Alpha virt. eigenvalues --    2.79352   2.79999   2.80187   2.80851   2.80971
 Alpha virt. eigenvalues --    2.81466   2.81557   2.82132   2.82181   2.82350
 Alpha virt. eigenvalues --    2.82891   2.83112   2.83464   2.83942   2.84006
 Alpha virt. eigenvalues --    2.84420   2.84531   2.84661   2.84803   2.84973
 Alpha virt. eigenvalues --    2.85322   2.85597   2.85719   2.85852   2.86154
 Alpha virt. eigenvalues --    2.86735   2.86882   2.87069   2.87255   2.87338
 Alpha virt. eigenvalues --    2.88120   2.88658   2.88721   2.88987   2.89445
 Alpha virt. eigenvalues --    2.89640   2.89957   2.89971   2.90269   2.90690
 Alpha virt. eigenvalues --    2.91246   2.91635   2.91695   2.92778   2.92802
 Alpha virt. eigenvalues --    2.93107   2.93184   2.93646   2.93816   2.94529
 Alpha virt. eigenvalues --    2.94902   2.95188   2.95466   2.96256   2.96437
 Alpha virt. eigenvalues --    2.96521   2.96697   2.96885   2.97290   2.97881
 Alpha virt. eigenvalues --    2.98296   2.99237   3.00206   3.00604   3.00998
 Alpha virt. eigenvalues --    3.01177   3.01261   3.02156   3.03701   3.04007
 Alpha virt. eigenvalues --    3.04366   3.05542   3.05560   3.07096   3.07514
 Alpha virt. eigenvalues --    3.07874   3.08288   3.08902   3.09872   3.10184
 Alpha virt. eigenvalues --    3.13709   3.13867   3.25867   3.26781   3.28787
 Alpha virt. eigenvalues --    3.30109   3.31441   3.32440   3.35917   3.39367
 Alpha virt. eigenvalues --    3.41740   3.47271   3.49250   3.49517   3.52644
 Alpha virt. eigenvalues --    3.54829   3.55173
          Condensed to atoms (all electrons):
 Mulliken charges:
               1
     1  Mg   0.703680
     2  C    0.008153
     3  C   -0.065106
     4  C   -0.042415
     5  C   -0.075630
     6  N   -0.286795
     7  C   -0.125973
     8  C    0.066637
     9  C   -0.051376
    10  C    0.075798
    11  C    0.109781
    12  C    0.169564
    13  C    0.136552
    14  C    0.060539
    15  O   -0.221541
    16  O   -0.294735
    17  N   -0.258494
    18  C    0.151728
    19  C   -0.161382
    20  C    0.034909
    21  C    0.128241
    22  C    0.200906
    23  C   -0.127219
    24  O   -0.165765
    25  C    0.163614
    26  N   -0.248045
    27  C   -0.018466
    28  C    0.055883
    29  C    0.030759
    30  C   -0.014966
    31  C    0.112715
    32  C    0.087972
    33  C    0.065350
    34  N   -0.260794
    35  C    0.143615
    36  C   -0.209156
    37  C    0.097653
    38  C    0.111683
    39  C    0.164543
    40  C   -0.019199
    41  O   -0.165323
    42  C    0.096960
    43  C    0.099694
    44  O   -0.173212
    45  O   -0.286369
    46  C    0.215857
    47  C    0.313344
    48  C   -0.113405
    49  C   -0.063103
    50  C    0.123425
    51  C    0.130857
    52  C    0.060725
    53  C    0.063305
    54  C   -0.045757
    55  C    0.106735
    56  C    0.058633
    57  C    0.122923
    58  C    0.117901
    59  C   -0.101428
    60  C    0.106845
    61  C    0.137373
    62  C    0.058478
    63  C    0.114243
    64  C   -0.121882
    65  C    0.090130
    66  C    0.105570
    67  H   -0.049390
    68  H   -0.081780
    69  H   -0.067386
    70  H   -0.002796
    71  H   -0.015045
    72  H   -0.003260
    73  H    0.007574
    74  H   -0.015248
    75  H   -0.014466
    76  H   -0.009483
    77  H    0.011166
    78  H    0.005283
    79  H   -0.041130
    80  H    0.012310
    81  H    0.004370
    82  H    0.011195
    83  H    0.024200
    84  H   -0.010475
    85  H   -0.013973
    86  H   -0.016800
    87  H   -0.009860
    88  H    0.001095
    89  H   -0.011075
    90  H   -0.008013
    91  H   -0.026165
    92  H   -0.001023
    93  H   -0.016449
    94  H   -0.005507
    95  H    0.016722
    96  H   -0.003788
    97  H    0.012346
    98  H   -0.007120
    99  H   -0.002315
   100  H    0.022654
   101  H    0.018569
   102  H   -0.013536
   103  H   -0.000842
   104  H   -0.030628
   105  H   -0.013788
   106  H    0.000151
   107  H   -0.005344
   108  H   -0.031211
   109  H   -0.049880
   110  H   -0.020062
   111  H   -0.030896
   112  H   -0.040288
   113  H   -0.026397
   114  H   -0.039586
   115  H   -0.021526
   116  H   -0.019488
   117  H   -0.019093
   118  H   -0.025166
   119  H   -0.038816
   120  H   -0.038150
   121  H   -0.016226
   122  H   -0.044818
   123  H   -0.057373
   124  H   -0.043217
   125  H   -0.020665
   126  H   -0.015677
   127  H   -0.026919
   128  H   -0.039693
   129  H   -0.039219
   130  H   -0.043385
   131  H   -0.026001
   132  H   -0.023359
   133  H   -0.035531
   134  H   -0.018876
   135  H   -0.021612
   136  H   -0.009733
   137  H   -0.014428
   138  H   -0.014155
   139  H   -0.014702
   140  H   -0.010541
 Sum of Mulliken charges =  -0.00000
 Mulliken charges with hydrogens summed into heavy atoms:
               1
     1  Mg   0.703680
     2  C    0.008153
     3  C   -0.114496
     4  C   -0.124195
     5  C   -0.143016
     6  N   -0.286795
     7  C   -0.125973
     8  C    0.063840
     9  C   -0.066421
    10  C    0.075798
    11  C    0.098847
    12  C    0.145616
    13  C    0.153001
    14  C    0.060539
    15  O   -0.221541
    16  O   -0.294735
    17  N   -0.258494
    18  C    0.151728
    19  C   -0.161382
    20  C    0.034909
    21  C    0.128241
    22  C    0.176457
    23  C   -0.127219
    24  O   -0.165765
    25  C    0.188535
    26  N   -0.248045
    27  C   -0.018466
    28  C    0.041910
    29  C    0.013960
    30  C   -0.014966
    31  C    0.092875
    32  C    0.053794
    33  C    0.042372
    34  N   -0.260794
    35  C    0.143615
    36  C   -0.209156
    37  C    0.097653
    38  C    0.111683
    39  C    0.189823
    40  C   -0.019199
    41  O   -0.165323
    42  C    0.089839
    43  C    0.099694
    44  O   -0.173212
    45  O   -0.286369
    46  C    0.254765
    47  C    0.298965
    48  C   -0.144034
    49  C   -0.063103
    50  C    0.104444
    51  C    0.049766
    52  C    0.009766
    53  C   -0.003379
    54  C   -0.085343
    55  C    0.046628
    56  C   -0.005349
    57  C    0.068548
    58  C    0.015710
    59  C   -0.144645
    60  C    0.043584
    61  C    0.058461
    62  C   -0.010908
    63  C    0.055353
    64  C   -0.140758
    65  C    0.044357
    66  C    0.066173
 Electronic spatial extent (au):  <R**2>=         132354.8198
 Charge=              0.0000 electrons
 Dipole moment (field-independent basis, Debye):
    X=              1.5451    Y=              6.0324    Z=              2.3980  Tot=              6.6729
 Quadrupole moment (field-independent basis, Debye-Ang):
   XX=           -365.0310   YY=           -442.6052   ZZ=           -415.2534
   XY=             17.6736   XZ=             11.6061   YZ=             32.3180
 Traceless Quadrupole moment (field-independent basis, Debye-Ang):
   XX=             42.5988   YY=            -34.9753   ZZ=             -7.6235
   XY=             17.6736   XZ=             11.6061   YZ=             32.3180
 Octapole moment (field-independent basis, Debye-Ang**2):
  XXX=            478.8347  YYY=            196.1017  ZZZ=             74.3231  XYY=             11.8371
  XXY=             65.7247  XXZ=             28.6258  XZZ=             53.0601  YZZ=            -15.8710
  YYZ=            117.9930  XYZ=            227.2480
 Hexadecapole moment (field-independent basis, Debye-Ang**3):
 XXXX=        -145279.6350 YYYY=         -25811.7153 ZZZZ=         -14887.7240 XXXY=            -22.4279
 XXXZ=           1092.3195 YYYX=            612.1396 YYYZ=            953.5934 ZZZX=            567.4556
 ZZZY=            567.1310 XXYY=         -27358.1666 XXZZ=         -26759.5929 YYZZ=          -7527.4985
 XXYZ=           1157.4684 YYXZ=            239.4699 ZZXY=           -250.0962
 N-N= 9.362565033879D+03 E-N=-2.571934417778D+04  KE= 2.976976397191D+03
 Leave Link  601 at Tue May  3 19:58:27 2022, MaxMem= 10066329600 cpu:              17.0 elap:               0.8
 (Enter /sw/apps/gaussian-16.0/g16/l9999.exe)
 1\1\GINC-BP1-COMPUTE174\SP\RBLYP TD-FC\def2SVP\C55H74Mg1N4O6\OF15641\0
 3-May-2022\0\\#p blyp/Def2SVP td=(nstates=5)\\step_101_chromophore_14 
 TDDFT with blyp functional\\0,1\Mg,0,46.631,44.883,44.835\C,0,43.185,4
 4.778,44.033\C,0,46.93,41.482,44.241\C,0,49.969,45.239,44.892\C,0,46.2
 41,48.362,45.168\N,0,45.292,43.405,44.128\C,0,43.882,43.557,43.832\C,0
 ,43.274,42.252,43.228\C,0,44.409,41.2,43.605\C,0,45.66,42.067,44.092\C
 ,0,44.096,39.999,44.641\C,0,43.258,42.443,41.752\C,0,41.891,42.153,41.
 091\C,0,41.76,41.295,39.858\O,0,41.193,40.171,39.764\O,0,42.469,41.919
 ,38.831\N,0,48.234,43.487,44.779\C,0,48.128,42.159,44.567\C,0,49.443,4
 1.598,44.356\C,0,50.411,42.638,44.493\C,0,49.536,43.889,44.805\C,0,49.
 735,40.121,44.084\C,0,51.89,42.49,44.432\O,0,52.335,41.367,44.264\C,0,
 52.836,43.649,44.578\N,0,47.92,46.548,44.773\C,0,49.282,46.447,44.834\
 C,0,49.953,47.825,44.925\C,0,48.768,48.724,45.343\C,0,47.558,47.862,45
 .097\C,0,51.228,47.983,45.871\C,0,48.745,50.148,44.629\C,0,48.745,51.4
 05,45.479\N,0,45.084,46.308,44.724\C,0,45.005,47.699,44.924\C,0,43.632
 ,48.188,44.756\C,0,42.905,47.078,44.367\C,0,43.804,45.969,44.383\C,0,4
 3.144,49.686,44.734\C,0,41.559,46.582,43.983\O,0,40.41,47.115,43.972\C
 ,0,41.706,44.993,43.813\C,0,40.847,44.293,44.769\O,0,39.851,43.638,44.
 483\O,0,41.297,44.4,46.086\C,0,40.476,43.634,47.039\C,0,42.295,41.327,
 37.485\C,0,42.953,42.234,36.438\C,0,44.257,42.413,36.068\C,0,45.432,41
 .581,36.658\C,0,44.616,43.43,35.049\C,0,45.145,43.042,33.684\C,0,44.71
 ,44.031,32.57\C,0,45.369,43.71,31.143\C,0,46.529,44.705,30.807\C,0,44.
 293,43.633,30.052\C,0,44.578,42.532,28.981\C,0,43.686,42.842,27.833\C,
 0,44.364,43.022,26.483\C,0,43.604,44.071,25.736\C,0,44.382,41.673,25.6
 42\C,0,45.83,41.216,25.336\C,0,45.956,41.005,23.794\C,0,46.682,42.192,
 23.19\C,0,46.248,42.251,21.65\C,0,48.24,42.117,23.259\H,0,46.972,40.42
 5,43.969\H,0,51.041,45.44,44.93\H,0,46.264,49.422,45.431\H,0,42.361,42
 .139,43.813\H,0,44.669,40.632,42.712\H,0,44.5,39.062,44.257\H,0,43.047
 ,39.984,44.937\H,0,44.723,40.173,45.516\H,0,44.041,41.864,41.263\H,0,4
 3.54,43.466,41.502\H,0,41.443,43.113,40.834\H,0,41.194,41.525,41.646\H
 ,0,48.802,39.566,43.987\H,0,50.316,39.667,44.887\H,0,50.263,39.971,43.
 143\H,0,52.603,43.999,45.584\H,0,52.61,44.37,43.792\H,0,53.866,43.295,
 44.615\H,0,50.244,48.115,43.916\H,0,48.792,48.812,46.429\H,0,52.18,47.
 953,45.34\H,0,51.252,47.264,46.69\H,0,51.298,48.968,46.332\H,0,47.879,
 50.273,43.978\H,0,49.647,50.092,44.02\H,0,49.532,52.123,45.248\H,0,48.
 838,51.104,46.523\H,0,47.777,51.901,45.412\H,0,42.453,49.916,43.924\H,
 0,44.116,50.177,44.672\H,0,42.597,49.856,45.662\H,0,41.318,44.781,42.8
 16\H,0,40.974,42.672,47.162\H,0,39.467,43.292,46.809\H,0,40.405,44.192
 ,47.972\H,0,41.225,41.299,37.279\H,0,42.652,40.297,37.508\H,0,42.183,4
 2.776,35.889\H,0,46.239,42.207,37.038\H,0,45.994,40.97,35.953\H,0,45.0
 45,40.967,37.471\H,0,45.292,44.212,35.395\H,0,43.753,44.069,34.864\H,0
 ,44.898,42.029,33.366\H,0,46.219,43.157,33.832\H,0,45.048,44.989,32.96
 5\H,0,43.624,44.108,32.523\H,0,45.862,42.74,31.205\H,0,46.588,45.547,3
 1.497\H,0,46.411,45.094,29.796\H,0,47.503,44.224,30.888\H,0,44.066,44.
 661,29.767\H,0,43.41,43.317,30.606\H,0,44.182,41.607,29.399\H,0,45.631
 ,42.386,28.74\H,0,42.996,43.679,27.935\H,0,43.007,41.992,27.77\H,0,45.
 33,43.477,26.699\H,0,43.829,45.024,26.215\H,0,42.529,43.889,25.699\H,0
 ,43.997,44.078,24.72\H,0,43.801,41.811,24.73\H,0,43.81,40.943,26.215\H
 ,0,46.024,40.288,25.875\H,0,46.601,41.896,25.697\H,0,44.962,40.956,23.
 352\H,0,46.57,40.104,23.774\H,0,46.339,43.079,23.724\H,0,46.068,43.318
 ,21.525\H,0,45.352,41.702,21.36\H,0,47.067,41.992,20.98\H,0,48.585,41.
 33,23.93\H,0,48.493,43.114,23.62\H,0,48.781,41.958,22.327\\Version=ES6
 4L-G16RevA.03\State=1-A\HF=-3007.3716044\RMSD=3.301e-09\PG=C01 [X(C55H
 74Mg1N4O6)]\\@


 REALITY IS FOR PEOPLE WHO CAN'T FACE SCIENCE FICTION.
 Job cpu time:       0 days  5 hours 13 minutes  2.9 seconds.
 Elapsed time:       0 days  0 hours 13 minutes  5.9 seconds.
 File lengths (MBytes):  RWF=   8025 Int=      0 D2E=      0 Chk=    390 Scr=      1
 Normal termination of Gaussian 16 at Tue May  3 19:58:28 2022.
