 Entering Gaussian System, Link 0=g16
 Initial command:
 /sw/apps/gaussian-16.0/g16/l1.exe "/tmp/Gau-242730.inp" -scrdir="/tmp/"
 Entering Link 1 = /sw/apps/gaussian-16.0/g16/l1.exe PID=    242731.
  
 Copyright (c) 1988,1990,1992,1993,1995,1998,2003,2009,2016,
            Gaussian, Inc.  All Rights Reserved.
  
 This is part of the Gaussian(R) 16 program.  It is based on
 the Gaussian(R) 09 system (copyright 2009, Gaussian, Inc.),
 the Gaussian(R) 03 system (copyright 2003, Gaussian, Inc.),
 the Gaussian(R) 98 system (copyright 1998, Gaussian, Inc.),
 the Gaussian(R) 94 system (copyright 1995, Gaussian, Inc.),
 the Gaussian 92(TM) system (copyright 1992, Gaussian, Inc.),
 the Gaussian 90(TM) system (copyright 1990, Gaussian, Inc.),
 the Gaussian 88(TM) system (copyright 1988, Gaussian, Inc.),
 the Gaussian 86(TM) system (copyright 1986, Carnegie Mellon
 University), and the Gaussian 82(TM) system (copyright 1983,
 Carnegie Mellon University). Gaussian is a federally registered
 trademark of Gaussian, Inc.
  
 This software contains proprietary and confidential information,
 including trade secrets, belonging to Gaussian, Inc.
  
 This software is provided under written license and may be
 used, copied, transmitted, or stored only in accord with that
 written license.
  
 The following legend is applicable only to US Government
 contracts under FAR:
  
                    RESTRICTED RIGHTS LEGEND
  
 Use, reproduction and disclosure by the US Government is
 subject to restrictions as set forth in subparagraphs (a)
 and (c) of the Commercial Computer Software - Restricted
 Rights clause in FAR 52.227-19.
  
 Gaussian, Inc.
 340 Quinnipiac St., Bldg. 40, Wallingford CT 06492
  
  
 ---------------------------------------------------------------
 Warning -- This program may not be used in any manner that
 competes with the business of Gaussian, Inc. or will provide
 assistance to any competitor of Gaussian, Inc.  The licensee
 of this program is prohibited from giving any competitor of
 Gaussian, Inc. access to this program.  By using this program,
 the user acknowledges that Gaussian, Inc. is engaged in the
 business of creating and licensing software in the field of
 computational chemistry and represents and warrants to the
 licensee that it is not a competitor of Gaussian, Inc. and that
 it will not use this program in any manner prohibited above.
 ---------------------------------------------------------------
  

 Cite this work as:
 Gaussian 16, Revision A.03,
 M. J. Frisch, G. W. Trucks, H. B. Schlegel, G. E. Scuseria, 
 M. A. Robb, J. R. Cheeseman, G. Scalmani, V. Barone, 
 G. A. Petersson, H. Nakatsuji, X. Li, M. Caricato, A. V. Marenich, 
 J. Bloino, B. G. Janesko, R. Gomperts, B. Mennucci, H. P. Hratchian, 
 J. V. Ortiz, A. F. Izmaylov, J. L. Sonnenberg, D. Williams-Young, 
 F. Ding, F. Lipparini, F. Egidi, J. Goings, B. Peng, A. Petrone, 
 T. Henderson, D. Ranasinghe, V. G. Zakrzewski, J. Gao, N. Rega, 
 G. Zheng, W. Liang, M. Hada, M. Ehara, K. Toyota, R. Fukuda, 
 J. Hasegawa, M. Ishida, T. Nakajima, Y. Honda, O. Kitao, H. Nakai, 
 T. Vreven, K. Throssell, J. A. Montgomery, Jr., J. E. Peralta, 
 F. Ogliaro, M. J. Bearpark, J. J. Heyd, E. N. Brothers, K. N. Kudin, 
 V. N. Staroverov, T. A. Keith, R. Kobayashi, J. Normand, 
 K. Raghavachari, A. P. Rendell, J. C. Burant, S. S. Iyengar, 
 J. Tomasi, M. Cossi, J. M. Millam, M. Klene, C. Adamo, R. Cammi, 
 J. W. Ochterski, R. L. Martin, K. Morokuma, O. Farkas, 
 J. B. Foresman, and D. J. Fox, Gaussian, Inc., Wallingford CT, 2016.
 
 ******************************************
 Gaussian 16:  ES64L-G16RevA.03 25-Dec-2016
                 3-May-2022 
 ******************************************
 %nproc=24
 Will use up to   24 processors via shared memory.
 %mem=75GB
 ---------------------------------
 #p PBE1PBE/Def2SVP td=(nstates=5)
 ---------------------------------
 1/38=1,172=1/1;
 2/12=2,17=6,18=5,40=1/2;
 3/5=43,7=101,11=9,25=1,30=1,74=-13/1,2,3,8;
 4//1;
 5/5=2,38=5/2;
 8/6=1,10=1,108=5/1;
 9/41=5,42=1,70=2/14;
 6/7=2,8=2,9=2,10=2/1;
 99/5=1,9=1/99;
 Leave Link    1 at Tue May  3 18:53:19 2022, MaxMem= 10066329600 cpu:               1.5 elap:               0.1
 (Enter /sw/apps/gaussian-16.0/g16/l101.exe)
 -----------------------------------------------------
 step_101_chromophore_14 TDDFT with PBE1PBE functional
 -----------------------------------------------------
 Symbolic Z-matrix:
 Charge =  0 Multiplicity = 1
 Mg                    46.631    44.883    44.835 
 C                     43.185    44.778    44.033 
 C                     46.93     41.482    44.241 
 C                     49.969    45.239    44.892 
 C                     46.241    48.362    45.168 
 N                     45.292    43.405    44.128 
 C                     43.882    43.557    43.832 
 C                     43.274    42.252    43.228 
 C                     44.409    41.2      43.605 
 C                     45.66     42.067    44.092 
 C                     44.096    39.999    44.641 
 C                     43.258    42.443    41.752 
 C                     41.891    42.153    41.091 
 C                     41.76     41.295    39.858 
 O                     41.193    40.171    39.764 
 O                     42.469    41.919    38.831 
 N                     48.234    43.487    44.779 
 C                     48.128    42.159    44.567 
 C                     49.443    41.598    44.356 
 C                     50.411    42.638    44.493 
 C                     49.536    43.889    44.805 
 C                     49.735    40.121    44.084 
 C                     51.89     42.49     44.432 
 O                     52.335    41.367    44.264 
 C                     52.836    43.649    44.578 
 N                     47.92     46.548    44.773 
 C                     49.282    46.447    44.834 
 C                     49.953    47.825    44.925 
 C                     48.768    48.724    45.343 
 C                     47.558    47.862    45.097 
 C                     51.228    47.983    45.871 
 C                     48.745    50.148    44.629 
 C                     48.745    51.405    45.479 
 N                     45.084    46.308    44.724 
 C                     45.005    47.699    44.924 
 C                     43.632    48.188    44.756 
 C                     42.905    47.078    44.367 
 C                     43.804    45.969    44.383 
 C                     43.144    49.686    44.734 
 C                     41.559    46.582    43.983 
 O                     40.41     47.115    43.972 
 C                     41.706    44.993    43.813 
 C                     40.847    44.293    44.769 
 O                     39.851    43.638    44.483 
 O                     41.297    44.4      46.086 
 C                     40.476    43.634    47.039 
 C                     42.295    41.327    37.485 
 C                     42.953    42.234    36.438 
 C                     44.257    42.413    36.068 
 C                     45.432    41.581    36.658 
 C                     44.616    43.43     35.049 
 C                     45.145    43.042    33.684 
 C                     44.71     44.031    32.57 
 C                     45.369    43.71     31.143 
 C                     46.529    44.705    30.807 
 C                     44.293    43.633    30.052 
 C                     44.578    42.532    28.981 
 C                     43.686    42.842    27.833 
 C                     44.364    43.022    26.483 
 C                     43.604    44.071    25.736 
 C                     44.382    41.673    25.642 
 C                     45.83     41.216    25.336 
 C                     45.956    41.005    23.794 
 C                     46.682    42.192    23.19 
 C                     46.248    42.251    21.65 
 C                     48.24     42.117    23.259 
 H                     46.972    40.425    43.969 
 H                     51.041    45.44     44.93 
 H                     46.264    49.422    45.431 
 H                     42.361    42.139    43.813 
 H                     44.669    40.632    42.712 
 H                     44.5      39.062    44.257 
 H                     43.047    39.984    44.937 
 H                     44.723    40.173    45.516 
 H                     44.041    41.864    41.263 
 H                     43.54     43.466    41.502 
 H                     41.443    43.113    40.834 
 H                     41.194    41.525    41.646 
 H                     48.802    39.566    43.987 
 H                     50.316    39.667    44.887 
 H                     50.263    39.971    43.143 
 H                     52.603    43.999    45.584 
 H                     52.61     44.37     43.792 
 H                     53.866    43.295    44.615 
 H                     50.244    48.115    43.916 
 H                     48.792    48.812    46.429 
 H                     52.18     47.953    45.34 
 H                     51.252    47.264    46.69 
 H                     51.298    48.968    46.332 
 H                     47.879    50.273    43.978 
 H                     49.647    50.092    44.02 
 H                     49.532    52.123    45.248 
 H                     48.838    51.104    46.523 
 H                     47.777    51.901    45.412 
 H                     42.453    49.916    43.924 
 H                     44.116    50.177    44.672 
 H                     42.597    49.856    45.662 
 H                     41.318    44.781    42.816 
 H                     40.974    42.672    47.162 
 H                     39.467    43.292    46.809 
 H                     40.405    44.192    47.972 
 H                     41.225    41.299    37.279 
 H                     42.652    40.297    37.508 
 H                     42.183    42.776    35.889 
 H                     46.239    42.207    37.038 
 H                     45.994    40.97     35.953 
 H                     45.045    40.967    37.471 
 H                     45.292    44.212    35.395 
 H                     43.753    44.069    34.864 
 H                     44.898    42.029    33.366 
 H                     46.219    43.157    33.832 
 H                     45.048    44.989    32.965 
 H                     43.624    44.108    32.523 
 H                     45.862    42.74     31.205 
 H                     46.588    45.547    31.497 
 H                     46.411    45.094    29.796 
 H                     47.503    44.224    30.888 
 H                     44.066    44.661    29.767 
 H                     43.41     43.317    30.606 
 H                     44.182    41.607    29.399 
 H                     45.631    42.386    28.74 
 H                     42.996    43.679    27.935 
 H                     43.007    41.992    27.77 
 H                     45.33     43.477    26.699 
 H                     43.829    45.024    26.215 
 H                     42.529    43.889    25.699 
 H                     43.997    44.078    24.72 
 H                     43.801    41.811    24.73 
 H                     43.81     40.943    26.215 
 H                     46.024    40.288    25.875 
 H                     46.601    41.896    25.697 
 H                     44.962    40.956    23.352 
 H                     46.57     40.104    23.774 
 H                     46.339    43.079    23.724 
 H                     46.068    43.318    21.525 
 H                     45.352    41.702    21.36 
 H                     47.067    41.992    20.98 
 H                     48.585    41.33     23.93 
 H                     48.493    43.114    23.62 
 H                     48.781    41.958    22.327 
 
 ITRead=  0  0  0  0  0  0  0  0  0  0  0  0  0  0  0  0  0  0  0  0
 ITRead=  0  0  0  0  0  0  0  0  0  0  0  0  0  0  0  0  0  0  0  0
 ITRead=  0  0  0  0  0  0  0  0  0  0  0  0  0  0  0  0  0  0  0  0
 ITRead=  0  0  0  0  0  0  0  0  0  0  0  0  0  0  0  0  0  0  0  0
 ITRead=  0  0  0  0  0  0  0  0  0  0  0  0  0  0  0  0  0  0  0  0
 ITRead=  0  0  0  0  0  0  0  0  0  0  0  0  0  0  0  0  0  0  0  0
 ITRead=  0  0  0  0  0  0  0  0  0  0  0  0  0  0  0  0  0  0  0  0
 MicOpt= -1 -1 -1 -1 -1 -1 -1 -1 -1 -1 -1 -1 -1 -1 -1 -1 -1 -1 -1 -1
 MicOpt= -1 -1 -1 -1 -1 -1 -1 -1 -1 -1 -1 -1 -1 -1 -1 -1 -1 -1 -1 -1
 MicOpt= -1 -1 -1 -1 -1 -1 -1 -1 -1 -1 -1 -1 -1 -1 -1 -1 -1 -1 -1 -1
 MicOpt= -1 -1 -1 -1 -1 -1 -1 -1 -1 -1 -1 -1 -1 -1 -1 -1 -1 -1 -1 -1
 MicOpt= -1 -1 -1 -1 -1 -1 -1 -1 -1 -1 -1 -1 -1 -1 -1 -1 -1 -1 -1 -1
 MicOpt= -1 -1 -1 -1 -1 -1 -1 -1 -1 -1 -1 -1 -1 -1 -1 -1 -1 -1 -1 -1
 MicOpt= -1 -1 -1 -1 -1 -1 -1 -1 -1 -1 -1 -1 -1 -1 -1 -1 -1 -1 -1 -1
 NAtoms=    140 NQM=      140 NQMF=       0 NMMI=      0 NMMIF=      0
                NMic=       0 NMicF=      0.
                    Isotopes and Nuclear Properties:
 (Nuclear quadrupole moments (NQMom) in fm**2, nuclear magnetic moments (NMagM)
  in nuclear magnetons)

  Atom         1           2           3           4           5           6           7           8           9          10
 IAtWgt=          24          12          12          12          12          14          12          12          12          12
 AtmWgt=  23.9850450  12.0000000  12.0000000  12.0000000  12.0000000  14.0030740  12.0000000  12.0000000  12.0000000  12.0000000
 NucSpn=           0           0           0           0           0           2           0           0           0           0
 AtZEff=  -0.0000000  -0.0000000  -0.0000000  -0.0000000  -0.0000000  -0.0000000  -0.0000000  -0.0000000  -0.0000000  -0.0000000
 NQMom=    0.0000000   0.0000000   0.0000000   0.0000000   0.0000000   2.0440000   0.0000000   0.0000000   0.0000000   0.0000000
 NMagM=    0.0000000   0.0000000   0.0000000   0.0000000   0.0000000   0.4037610   0.0000000   0.0000000   0.0000000   0.0000000
 AtZNuc=  12.0000000   6.0000000   6.0000000   6.0000000   6.0000000   7.0000000   6.0000000   6.0000000   6.0000000   6.0000000

  Atom        11          12          13          14          15          16          17          18          19          20
 IAtWgt=          12          12          12          12          16          16          14          12          12          12
 AtmWgt=  12.0000000  12.0000000  12.0000000  12.0000000  15.9949146  15.9949146  14.0030740  12.0000000  12.0000000  12.0000000
 NucSpn=           0           0           0           0           0           0           2           0           0           0
 AtZEff=  -0.0000000  -0.0000000  -0.0000000  -0.0000000  -0.0000000  -0.0000000  -0.0000000  -0.0000000  -0.0000000  -0.0000000
 NQMom=    0.0000000   0.0000000   0.0000000   0.0000000   0.0000000   0.0000000   2.0440000   0.0000000   0.0000000   0.0000000
 NMagM=    0.0000000   0.0000000   0.0000000   0.0000000   0.0000000   0.0000000   0.4037610   0.0000000   0.0000000   0.0000000
 AtZNuc=   6.0000000   6.0000000   6.0000000   6.0000000   8.0000000   8.0000000   7.0000000   6.0000000   6.0000000   6.0000000

  Atom        21          22          23          24          25          26          27          28          29          30
 IAtWgt=          12          12          12          16          12          14          12          12          12          12
 AtmWgt=  12.0000000  12.0000000  12.0000000  15.9949146  12.0000000  14.0030740  12.0000000  12.0000000  12.0000000  12.0000000
 NucSpn=           0           0           0           0           0           2           0           0           0           0
 AtZEff=  -0.0000000  -0.0000000  -0.0000000  -0.0000000  -0.0000000  -0.0000000  -0.0000000  -0.0000000  -0.0000000  -0.0000000
 NQMom=    0.0000000   0.0000000   0.0000000   0.0000000   0.0000000   2.0440000   0.0000000   0.0000000   0.0000000   0.0000000
 NMagM=    0.0000000   0.0000000   0.0000000   0.0000000   0.0000000   0.4037610   0.0000000   0.0000000   0.0000000   0.0000000
 AtZNuc=   6.0000000   6.0000000   6.0000000   8.0000000   6.0000000   7.0000000   6.0000000   6.0000000   6.0000000   6.0000000

  Atom        31          32          33          34          35          36          37          38          39          40
 IAtWgt=          12          12          12          14          12          12          12          12          12          12
 AtmWgt=  12.0000000  12.0000000  12.0000000  14.0030740  12.0000000  12.0000000  12.0000000  12.0000000  12.0000000  12.0000000
 NucSpn=           0           0           0           2           0           0           0           0           0           0
 AtZEff=  -0.0000000  -0.0000000  -0.0000000  -0.0000000  -0.0000000  -0.0000000  -0.0000000  -0.0000000  -0.0000000  -0.0000000
 NQMom=    0.0000000   0.0000000   0.0000000   2.0440000   0.0000000   0.0000000   0.0000000   0.0000000   0.0000000   0.0000000
 NMagM=    0.0000000   0.0000000   0.0000000   0.4037610   0.0000000   0.0000000   0.0000000   0.0000000   0.0000000   0.0000000
 AtZNuc=   6.0000000   6.0000000   6.0000000   7.0000000   6.0000000   6.0000000   6.0000000   6.0000000   6.0000000   6.0000000

  Atom        41          42          43          44          45          46          47          48          49          50
 IAtWgt=          16          12          12          16          16          12          12          12          12          12
 AtmWgt=  15.9949146  12.0000000  12.0000000  15.9949146  15.9949146  12.0000000  12.0000000  12.0000000  12.0000000  12.0000000
 NucSpn=           0           0           0           0           0           0           0           0           0           0
 AtZEff=  -0.0000000  -0.0000000  -0.0000000  -0.0000000  -0.0000000  -0.0000000  -0.0000000  -0.0000000  -0.0000000  -0.0000000
 NQMom=    0.0000000   0.0000000   0.0000000   0.0000000   0.0000000   0.0000000   0.0000000   0.0000000   0.0000000   0.0000000
 NMagM=    0.0000000   0.0000000   0.0000000   0.0000000   0.0000000   0.0000000   0.0000000   0.0000000   0.0000000   0.0000000
 AtZNuc=   8.0000000   6.0000000   6.0000000   8.0000000   8.0000000   6.0000000   6.0000000   6.0000000   6.0000000   6.0000000

  Atom        51          52          53          54          55          56          57          58          59          60
 IAtWgt=          12          12          12          12          12          12          12          12          12          12
 AtmWgt=  12.0000000  12.0000000  12.0000000  12.0000000  12.0000000  12.0000000  12.0000000  12.0000000  12.0000000  12.0000000
 NucSpn=           0           0           0           0           0           0           0           0           0           0
 AtZEff=  -0.0000000  -0.0000000  -0.0000000  -0.0000000  -0.0000000  -0.0000000  -0.0000000  -0.0000000  -0.0000000  -0.0000000
 NQMom=    0.0000000   0.0000000   0.0000000   0.0000000   0.0000000   0.0000000   0.0000000   0.0000000   0.0000000   0.0000000
 NMagM=    0.0000000   0.0000000   0.0000000   0.0000000   0.0000000   0.0000000   0.0000000   0.0000000   0.0000000   0.0000000
 AtZNuc=   6.0000000   6.0000000   6.0000000   6.0000000   6.0000000   6.0000000   6.0000000   6.0000000   6.0000000   6.0000000

  Atom        61          62          63          64          65          66          67          68          69          70
 IAtWgt=          12          12          12          12          12          12           1           1           1           1
 AtmWgt=  12.0000000  12.0000000  12.0000000  12.0000000  12.0000000  12.0000000   1.0078250   1.0078250   1.0078250   1.0078250
 NucSpn=           0           0           0           0           0           0           1           1           1           1
 AtZEff=  -0.0000000  -0.0000000  -0.0000000  -0.0000000  -0.0000000  -0.0000000  -0.0000000  -0.0000000  -0.0000000  -0.0000000
 NQMom=    0.0000000   0.0000000   0.0000000   0.0000000   0.0000000   0.0000000   0.0000000   0.0000000   0.0000000   0.0000000
 NMagM=    0.0000000   0.0000000   0.0000000   0.0000000   0.0000000   0.0000000   2.7928460   2.7928460   2.7928460   2.7928460
 AtZNuc=   6.0000000   6.0000000   6.0000000   6.0000000   6.0000000   6.0000000   1.0000000   1.0000000   1.0000000   1.0000000

  Atom        71          72          73          74          75          76          77          78          79          80
 IAtWgt=           1           1           1           1           1           1           1           1           1           1
 AtmWgt=   1.0078250   1.0078250   1.0078250   1.0078250   1.0078250   1.0078250   1.0078250   1.0078250   1.0078250   1.0078250
 NucSpn=           1           1           1           1           1           1           1           1           1           1
 AtZEff=  -0.0000000  -0.0000000  -0.0000000  -0.0000000  -0.0000000  -0.0000000  -0.0000000  -0.0000000  -0.0000000  -0.0000000
 NQMom=    0.0000000   0.0000000   0.0000000   0.0000000   0.0000000   0.0000000   0.0000000   0.0000000   0.0000000   0.0000000
 NMagM=    2.7928460   2.7928460   2.7928460   2.7928460   2.7928460   2.7928460   2.7928460   2.7928460   2.7928460   2.7928460
 AtZNuc=   1.0000000   1.0000000   1.0000000   1.0000000   1.0000000   1.0000000   1.0000000   1.0000000   1.0000000   1.0000000

  Atom        81          82          83          84          85          86          87          88          89          90
 IAtWgt=           1           1           1           1           1           1           1           1           1           1
 AtmWgt=   1.0078250   1.0078250   1.0078250   1.0078250   1.0078250   1.0078250   1.0078250   1.0078250   1.0078250   1.0078250
 NucSpn=           1           1           1           1           1           1           1           1           1           1
 AtZEff=  -0.0000000  -0.0000000  -0.0000000  -0.0000000  -0.0000000  -0.0000000  -0.0000000  -0.0000000  -0.0000000  -0.0000000
 NQMom=    0.0000000   0.0000000   0.0000000   0.0000000   0.0000000   0.0000000   0.0000000   0.0000000   0.0000000   0.0000000
 NMagM=    2.7928460   2.7928460   2.7928460   2.7928460   2.7928460   2.7928460   2.7928460   2.7928460   2.7928460   2.7928460
 AtZNuc=   1.0000000   1.0000000   1.0000000   1.0000000   1.0000000   1.0000000   1.0000000   1.0000000   1.0000000   1.0000000

  Atom        91          92          93          94          95          96          97          98          99         100
 IAtWgt=           1           1           1           1           1           1           1           1           1           1
 AtmWgt=   1.0078250   1.0078250   1.0078250   1.0078250   1.0078250   1.0078250   1.0078250   1.0078250   1.0078250   1.0078250
 NucSpn=           1           1           1           1           1           1           1           1           1           1
 AtZEff=  -0.0000000  -0.0000000  -0.0000000  -0.0000000  -0.0000000  -0.0000000  -0.0000000  -0.0000000  -0.0000000  -0.0000000
 NQMom=    0.0000000   0.0000000   0.0000000   0.0000000   0.0000000   0.0000000   0.0000000   0.0000000   0.0000000   0.0000000
 NMagM=    2.7928460   2.7928460   2.7928460   2.7928460   2.7928460   2.7928460   2.7928460   2.7928460   2.7928460   2.7928460
 AtZNuc=   1.0000000   1.0000000   1.0000000   1.0000000   1.0000000   1.0000000   1.0000000   1.0000000   1.0000000   1.0000000

  Atom       101         102         103         104         105         106         107         108         109         110
 IAtWgt=           1           1           1           1           1           1           1           1           1           1
 AtmWgt=   1.0078250   1.0078250   1.0078250   1.0078250   1.0078250   1.0078250   1.0078250   1.0078250   1.0078250   1.0078250
 NucSpn=           1           1           1           1           1           1           1           1           1           1
 AtZEff=  -0.0000000  -0.0000000  -0.0000000  -0.0000000  -0.0000000  -0.0000000  -0.0000000  -0.0000000  -0.0000000  -0.0000000
 NQMom=    0.0000000   0.0000000   0.0000000   0.0000000   0.0000000   0.0000000   0.0000000   0.0000000   0.0000000   0.0000000
 NMagM=    2.7928460   2.7928460   2.7928460   2.7928460   2.7928460   2.7928460   2.7928460   2.7928460   2.7928460   2.7928460
 AtZNuc=   1.0000000   1.0000000   1.0000000   1.0000000   1.0000000   1.0000000   1.0000000   1.0000000   1.0000000   1.0000000

  Atom       111         112         113         114         115         116         117         118         119         120
 IAtWgt=           1           1           1           1           1           1           1           1           1           1
 AtmWgt=   1.0078250   1.0078250   1.0078250   1.0078250   1.0078250   1.0078250   1.0078250   1.0078250   1.0078250   1.0078250
 NucSpn=           1           1           1           1           1           1           1           1           1           1
 AtZEff=  -0.0000000  -0.0000000  -0.0000000  -0.0000000  -0.0000000  -0.0000000  -0.0000000  -0.0000000  -0.0000000  -0.0000000
 NQMom=    0.0000000   0.0000000   0.0000000   0.0000000   0.0000000   0.0000000   0.0000000   0.0000000   0.0000000   0.0000000
 NMagM=    2.7928460   2.7928460   2.7928460   2.7928460   2.7928460   2.7928460   2.7928460   2.7928460   2.7928460   2.7928460
 AtZNuc=   1.0000000   1.0000000   1.0000000   1.0000000   1.0000000   1.0000000   1.0000000   1.0000000   1.0000000   1.0000000

  Atom       121         122         123         124         125         126         127         128         129         130
 IAtWgt=           1           1           1           1           1           1           1           1           1           1
 AtmWgt=   1.0078250   1.0078250   1.0078250   1.0078250   1.0078250   1.0078250   1.0078250   1.0078250   1.0078250   1.0078250
 NucSpn=           1           1           1           1           1           1           1           1           1           1
 AtZEff=  -0.0000000  -0.0000000  -0.0000000  -0.0000000  -0.0000000  -0.0000000  -0.0000000  -0.0000000  -0.0000000  -0.0000000
 NQMom=    0.0000000   0.0000000   0.0000000   0.0000000   0.0000000   0.0000000   0.0000000   0.0000000   0.0000000   0.0000000
 NMagM=    2.7928460   2.7928460   2.7928460   2.7928460   2.7928460   2.7928460   2.7928460   2.7928460   2.7928460   2.7928460
 AtZNuc=   1.0000000   1.0000000   1.0000000   1.0000000   1.0000000   1.0000000   1.0000000   1.0000000   1.0000000   1.0000000

  Atom       131         132         133         134         135         136         137         138         139         140
 IAtWgt=           1           1           1           1           1           1           1           1           1           1
 AtmWgt=   1.0078250   1.0078250   1.0078250   1.0078250   1.0078250   1.0078250   1.0078250   1.0078250   1.0078250   1.0078250
 NucSpn=           1           1           1           1           1           1           1           1           1           1
 AtZEff=  -0.0000000  -0.0000000  -0.0000000  -0.0000000  -0.0000000  -0.0000000  -0.0000000  -0.0000000  -0.0000000  -0.0000000
 NQMom=    0.0000000   0.0000000   0.0000000   0.0000000   0.0000000   0.0000000   0.0000000   0.0000000   0.0000000   0.0000000
 NMagM=    2.7928460   2.7928460   2.7928460   2.7928460   2.7928460   2.7928460   2.7928460   2.7928460   2.7928460   2.7928460
 AtZNuc=   1.0000000   1.0000000   1.0000000   1.0000000   1.0000000   1.0000000   1.0000000   1.0000000   1.0000000   1.0000000
 Leave Link  101 at Tue May  3 18:53:19 2022, MaxMem= 10066329600 cpu:               4.7 elap:               0.2
 (Enter /sw/apps/gaussian-16.0/g16/l202.exe)
 Stoichiometry    C55H74MgN4O6
 Framework group  C1[X(C55H74MgN4O6)]
 Deg. of freedom   414
 Full point group                 C1      NOp   1
 Largest Abelian subgroup         C1      NOp   1
 Largest concise Abelian subgroup C1      NOp   1
                         Standard orientation:                         
 ---------------------------------------------------------------------
 Center     Atomic      Atomic             Coordinates (Angstroms)
 Number     Number       Type             X           Y           Z
 ---------------------------------------------------------------------
      1         12           0        5.543160    0.793967   -0.117714
      2          6           0        4.542233   -2.544909    0.498079
      3          6           0        4.442206    0.578260   -3.396496
      4          6           0        5.842645    4.129026   -0.362489
      5          6           0        6.393832    0.954445    3.290663
      6          7           0        4.539542   -0.706920   -1.221047
      7          6           0        4.192197   -2.043718   -0.783846
      8          6           0        3.358289   -2.806074   -1.861304
      9          6           0        3.629265   -1.894014   -3.138714
     10          6           0        4.315419   -0.561890   -2.583287
     11          6           0        4.445390   -2.483898   -4.403484
     12          6           0        1.931801   -2.669312   -1.459134
     13          6           0        1.157809   -4.006453   -1.407173
     14          6           0       -0.199618   -4.174904   -2.041705
     15          8           0       -0.500002   -4.909095   -3.023761
     16          8           0       -1.074874   -3.291218   -1.409398
     17          7           0        5.359647    2.145134   -1.749349
     18          6           0        4.936900    1.840302   -2.993586
     19          6           0        4.714978    3.058173   -3.739247
     20          6           0        5.067159    4.169231   -2.915286
     21          6           0        5.521340    3.488880   -1.589083
     22          6           0        4.232123    3.125041   -5.189473
     23          6           0        5.066973    5.603811   -3.309044
     24          8           0        4.750647    5.870664   -4.456260
     25          6           0        5.445408    6.712041   -2.366640
     26          7           0        5.814918    2.339515    1.287639
     27          6           0        5.935812    3.656787    0.942466
     28          6           0        6.278816    4.535159    2.154166
     29          6           0        6.765038    3.483584    3.176384
     30          6           0        6.319617    2.172807    2.583827
     31          6           0        7.308025    5.736802    1.948523
     32          6           0        6.282435    3.753363    4.670511
     33          6           0        7.317244    3.889980    5.771899
     34          7           0        5.569679   -0.483685    1.556519
     35          6           0        5.980052   -0.349383    2.896175
     36          6           0        5.813724   -1.604985    3.636629
     37          6           0        5.215642   -2.469949    2.738807
     38          6           0        5.108460   -1.769611    1.499300
     39          6           0        5.998938   -1.836947    5.184053
     40          6           0        4.683751   -3.843000    2.546426
     41          8           0        4.691710   -4.884069    3.267899
     42          6           0        4.275809   -3.945428    0.997710
     43          6           0        5.060735   -4.983216    0.327856
     44          8           0        4.620278   -6.046361   -0.094705
     45          8           0        6.401441   -4.631377    0.163071
     46          6           0        7.175219   -5.642401   -0.577270
     47          6           0       -2.504535   -3.448993   -1.761012
     48          6           0       -3.358109   -2.567337   -0.841276
     49          6           0       -3.621679   -1.225738   -0.841310
     50          6           0       -3.104004   -0.255717   -1.942229
     51          6           0       -4.447238   -0.622239    0.233758
     52          6           0       -5.824216   -0.053906   -0.039262
     53          6           0       -6.792455   -0.227718    1.161006
     54          6           0       -8.212784    0.484494    0.939487
     55          6           0       -8.323272    1.815720    1.754442
     56          6           0       -9.361121   -0.496331    1.210207
     57          6           0      -10.573436   -0.309041    0.242900
     58          6           0      -11.707101   -1.040777    0.866626
     59          6           0      -12.972061   -0.233952    1.118604
     60          6           0      -13.587284   -0.747511    2.381049
     61          6           0      -14.011375   -0.368717   -0.076833
     62          6           0      -14.303233    1.004765   -0.730711
     63          6           0      -15.849707    1.220531   -0.735340
     64          6           0      -16.218822    2.178646    0.381186
     65          6           0      -17.752560    1.888091    0.737085
     66          6           0      -16.074958    3.692201    0.025931
     67          1           0        4.011003    0.468331   -4.393981
     68          1           0        5.971803    5.212695   -0.359533
     69          1           0        6.820283    1.129501    4.281013
     70          1           0        3.866166   -3.770125   -1.896388
     71          1           0        2.674446   -1.658399   -3.608268
     72          1           0        3.942860   -2.209084   -5.331160
     73          1           0        4.675974   -3.541831   -4.277583
     74          1           0        5.370673   -1.910792   -4.470053
     75          1           0        1.403034   -1.954544   -2.089183
     76          1           0        1.861155   -2.203630   -0.475924
     77          1           0        1.029381   -4.268138   -0.356754
     78          1           0        1.567680   -4.840264   -1.977246
     79          1           0        3.997221    2.124733   -5.552967
     80          1           0        4.985584    3.555732   -5.849237
     81          1           0        3.310422    3.696669   -5.291807
     82          1           0        6.479070    6.457903   -2.130459
     83          1           0        4.770428    6.672760   -1.511320
     84          1           0        5.484401    7.663386   -2.896742
     85          1           0        5.345571    4.951633    2.531611
     86          1           0        7.851045    3.432499    3.100921
     87          1           0        6.833219    6.711280    1.829713
     88          1           0        8.004507    5.575135    1.125678
     89          1           0        7.920630    5.929496    2.828995
     90          1           0        5.611378    2.976025    5.037673
     91          1           0        5.723837    4.680824    4.546389
     92          1           0        7.246002    4.800448    6.367068
     93          1           0        8.304861    3.846303    5.311584
     94          1           0        7.274366    3.025357    6.433804
     95          1           0        5.197353   -2.411972    5.645884
     96          1           0        6.069233   -0.795761    5.501382
     97          1           0        6.909882   -2.422902    5.311064
     98          1           0        3.237710   -4.279821    1.003142
     99          1           0        7.174009   -5.320897   -1.619004
    100          1           0        6.838216   -6.671533   -0.700808
    101          1           0        8.178538   -5.697152   -0.156262
    102          1           0       -2.772181   -4.488506   -1.571541
    103          1           0       -2.622916   -3.269051   -2.829883
    104          1           0       -3.857959   -3.190214   -0.099496
    105          1           0       -2.586013    0.609163   -1.528476
    106          1           0       -3.863192    0.254278   -2.533607
    107          1           0       -2.420111   -0.803670   -2.590127
    108          1           0       -3.945733    0.142269    0.827252
    109          1           0       -4.578205   -1.350484    1.033647
    110          1           0       -6.310137   -0.436926   -0.936746
    111          1           0       -5.599929    1.008582   -0.136315
    112          1           0       -6.234095    0.229407    1.977893
    113          1           0       -6.887787   -1.278769    1.432555
    114          1           0       -8.275678    0.804776   -0.100348
    115          1           0       -7.507840    1.955331    2.464460
    116          1           0       -9.265987    1.846561    2.300062
    117          1           0       -8.263905    2.687555    1.104074
    118          1           0       -9.494103   -0.527309    2.292285
    119          1           0       -8.913883   -1.461676    0.976650
    120          1           0      -10.328203   -0.884483   -0.649228
    121          1           0      -10.774746    0.721878   -0.048455
    122          1           0      -11.514364   -1.590006    1.787642
    123          1           0      -11.940349   -1.842623    0.166520
    124          1           0      -12.633603    0.772612    1.361736
    125          1           0      -12.953225   -0.409181    3.200669
    126          1           0      -13.712653   -1.831092    2.396978
    127          1           0      -14.565970   -0.276658    2.466056
    128          1           0      -14.921752   -0.842344    0.290918
    129          1           0      -13.592686   -1.097875   -0.770693
    130          1           0      -13.905996    0.998876   -1.746343
    131          1           0      -13.797553    1.844682   -0.255327
    132          1           0      -16.349085    0.271647   -0.545488
    133          1           0      -15.975868    1.677814   -1.717262
    134          1           0      -15.572773    1.943277    1.227824
    135          1           0      -17.719025    1.896587    1.825807
    136          1           0      -18.174759    0.940978    0.400867
    137          1           0      -18.407729    2.705639    0.438571
    138          1           0      -15.517015    3.847063   -0.897840
    139          1           0      -15.548800    4.074963    0.900568
    140          1           0      -16.988462    4.274392   -0.088740
 ---------------------------------------------------------------------
 Rotational constants (GHZ):           0.0350282           0.0089202           0.0083408
 Leave Link  202 at Tue May  3 18:53:19 2022, MaxMem= 10066329600 cpu:               1.7 elap:               0.1
 (Enter /sw/apps/gaussian-16.0/g16/l301.exe)
 Standard basis: def2SVP (5D, 7F)
 Ernie: Thresh=  0.10000D-02 Tol=  0.10000D-05 Strict=F.
 There are  1364 symmetry adapted cartesian basis functions of A   symmetry.
 There are  1298 symmetry adapted basis functions of A   symmetry.
  1298 basis functions,  2180 primitive gaussians,  1364 cartesian basis functions
   246 alpha electrons      246 beta electrons
       nuclear repulsion energy      9362.5650338786 Hartrees.
 IExCor= 1009 DFT=T Ex+Corr=PBE1PBE ExCW=0 ScaHFX=  0.250000
 ScaDFX=  0.750000  0.750000  1.000000  1.000000 ScalE2=  1.000000  1.000000
 IRadAn=      5 IRanWt=     -1 IRanGd=            0 ICorTp=0 IEmpDi=  4
 NAtoms=  140 NActive=  140 NUniq=  140 SFac= 1.00D+00 NAtFMM=   60 NAOKFM=T Big=T
 Integral buffers will be    131072 words long.
 Regular integral format.
 Two-electron integral symmetry is turned on.
 Leave Link  301 at Tue May  3 18:53:19 2022, MaxMem= 10066329600 cpu:               1.8 elap:               0.1
 (Enter /sw/apps/gaussian-16.0/g16/l302.exe)
 NPDir=0 NMtPBC=     1 NCelOv=     1 NCel=       1 NClECP=     1 NCelD=      1
         NCelK=      1 NCelE2=     1 NClLst=     1 CellRange=     0.0.
 One-electron integrals computed using PRISM.
 One-electron integral symmetry used in STVInt
   1 Symmetry operations used in ECPInt.
 ECPInt:  NShTT=  192510 NPrTT=  683786 LenC2=   91320 LenP2D=  200487.
 LDataN:  DoStor=T MaxTD1= 4 Len=   56
 NBasis=  1298 RedAO= T EigKep=  2.75D-04  NBF=  1298
 NBsUse=  1298 1.00D-06 EigRej= -1.00D+00 NBFU=  1298
 Precomputing XC quadrature grid using
 IXCGrd= 4 IRadAn=           5 IRanWt=          -1 IRanGd=           0 AccXCQ= 0.00D+00.
 Generated NRdTot=       0 NPtTot=           0 NUsed=           0 NTot=          32
 NSgBfM=  1025   998  1012  1019  1025 MxSgAt=   140 MxSgA2=   140.
 Leave Link  302 at Tue May  3 18:53:23 2022, MaxMem= 10066329600 cpu:              94.6 elap:               4.0
 (Enter /sw/apps/gaussian-16.0/g16/l303.exe)
 DipDrv:  MaxL=1.
 Leave Link  303 at Tue May  3 18:53:24 2022, MaxMem= 10066329600 cpu:               8.4 elap:               0.4
 (Enter /sw/apps/gaussian-16.0/g16/l308.exe)
 Leave Link  308 at Tue May  3 18:53:24 2022, MaxMem= 10066329600 cpu:               8.3 elap:               0.4
 (Enter /sw/apps/gaussian-16.0/g16/l401.exe)
 ExpMin= 3.36D-02 ExpMax= 4.95D+03 ExpMxC= 7.45D+02 IAcc=3 IRadAn=         5 AccDes= 0.00D+00
 Harris functional with IExCor= 1009 and IRadAn=       5 diagonalized for initial guess.
 HarFok:  IExCor= 1009 AccDes= 0.00D+00 IRadAn=         5 IDoV= 1 UseB2=F ITyADJ=14
 ICtDFT=  3500011 ScaDFX=  1.000000  1.000000  1.000000  1.000000
 FoFCou: FMM=F IPFlag=           0 FMFlag=      100000 FMFlg1=        2001
         NFxFlg=           0 DoJE=T BraDBF=F KetDBF=T FulRan=T
         wScrn=  0.000000 ICntrl=       500 IOpCl=  0 I1Cent=   200000004 NGrid=           0
         NMat0=    1 NMatS0=      1 NMatT0=    0 NMatD0=    1 NMtDS0=    0 NMtDT0=    0
 Petite list used in FoFCou.
 Harris En= -3006.12673907022    
 JPrj=0 DoOrth=F DoCkMO=F.
 Leave Link  401 at Tue May  3 18:53:30 2022, MaxMem= 10066329600 cpu:             149.0 elap:               6.2
 (Enter /sw/apps/gaussian-16.0/g16/l502.exe)
 Integral symmetry usage will be decided dynamically.
 Closed shell SCF:
 Using DIIS extrapolation, IDIIS=  1040.
 NGot= 10066329600 LenX= 10062561258 LenY= 10060699398
 Requested convergence on RMS density matrix=1.00D-08 within 128 cycles.
 Requested convergence on MAX density matrix=1.00D-06.
 Requested convergence on             energy=1.00D-06.
 No special actions if energy rises.
 Fock matrices will be formed incrementally for  20 cycles.

 Cycle   1  Pass 1  IDiag  1:
 FoFJK:  IHMeth= 1 ICntrl=       0 DoSepK=F KAlg= 0 I1Cent=           0 FoldK=F
 IRaf= 500000000 NMat=       1 IRICut=       1 DoRegI=T DoRafI=F ISym2E= 0 IDoP0=0 IntGTp=1.
 FoFCou: FMM=T IPFlag=           0 FMFlag=      100000 FMFlg1=        2001
         NFxFlg=           0 DoJE=F BraDBF=F KetDBF=F FulRan=T
         wScrn=  0.000000 ICntrl=         0 IOpCl=  0 I1Cent=           0 NGrid=           0
         NMat0=    1 NMatS0=      1 NMatT0=    0 NMatD0=    1 NMtDS0=    0 NMtDT0=    0
 Symmetry not used in FoFCou.
 FMM levels:  10  Number of levels for PrismC:   9
 E= -3003.81314895536    
 DIIS: error= 1.60D-02 at cycle   1 NSaved=   1.
 NSaved= 1 IEnMin= 1 EnMin= -3003.81314895536     IErMin= 1 ErrMin= 1.60D-02
 ErrMax= 1.60D-02  0.00D+00 EMaxC= 1.00D-01 BMatC= 1.45D+00 BMatP= 1.45D+00
 IDIUse=3 WtCom= 8.40D-01 WtEn= 1.60D-01
 Coeff-Com:  0.100D+01
 Coeff-En:   0.100D+01
 Coeff:      0.100D+01
 Gap=     0.085 Goal=   None    Shift=    0.000
 GapD=    0.085 DampG=0.500 DampE=0.500 DampFc=0.2500 IDamp=-1.
 Damping current iteration by 2.50D-01
 RMSDP=2.80D-03 MaxDP=7.68D-01              OVMax= 2.41D-01

 Cycle   2  Pass 1  IDiag  1:
 RMSU=  6.96D-04    CP:  9.91D-01
 E= -3004.35599665354     Delta-E=       -0.542847698183 Rises=F Damp=T
 DIIS: error= 8.26D-03 at cycle   2 NSaved=   2.
 NSaved= 2 IEnMin= 2 EnMin= -3004.35599665354     IErMin= 2 ErrMin= 8.26D-03
 ErrMax= 8.26D-03  0.00D+00 EMaxC= 1.00D-01 BMatC= 3.58D-01 BMatP= 1.45D+00
 IDIUse=3 WtCom= 9.17D-01 WtEn= 8.26D-02
 Coeff-Com: -0.746D+00 0.175D+01
 Coeff-En:   0.000D+00 0.100D+01
 Coeff:     -0.685D+00 0.168D+01
 Gap=     0.187 Goal=   None    Shift=    0.000
 RMSDP=9.75D-04 MaxDP=7.59D-02 DE=-5.43D-01 OVMax= 2.05D-01

 Cycle   3  Pass 1  IDiag  1:
 RMSU=  8.66D-04    CP:  9.66D-01  1.55D+00
 E= -3005.14970994075     Delta-E=       -0.793713287210 Rises=F Damp=F
 DIIS: error= 1.27D-02 at cycle   3 NSaved=   3.
 NSaved= 3 IEnMin= 3 EnMin= -3005.14970994075     IErMin= 2 ErrMin= 8.26D-03
 ErrMax= 1.27D-02  0.00D+00 EMaxC= 1.00D-01 BMatC= 2.07D-01 BMatP= 3.58D-01
 IDIUse=3 WtCom= 8.73D-01 WtEn= 1.27D-01
 Coeff-Com: -0.507D+00 0.108D+01 0.425D+00
 Coeff-En:   0.000D+00 0.000D+00 0.100D+01
 Coeff:     -0.442D+00 0.944D+00 0.499D+00
 Gap=     0.074 Goal=   None    Shift=    0.000
 RMSDP=6.63D-04 MaxDP=1.94D-01 DE=-7.94D-01 OVMax= 1.20D-01

 Cycle   4  Pass 1  IDiag  1:
 RMSU=  4.14D-04    CP:  9.73D-01  1.91D+00  4.81D-01
 E= -3005.28814413883     Delta-E=       -0.138434198077 Rises=F Damp=F
 DIIS: error= 7.01D-03 at cycle   4 NSaved=   4.
 NSaved= 4 IEnMin= 4 EnMin= -3005.28814413883     IErMin= 4 ErrMin= 7.01D-03
 ErrMax= 7.01D-03  0.00D+00 EMaxC= 1.00D-01 BMatC= 5.32D-02 BMatP= 2.07D-01
 IDIUse=3 WtCom= 9.30D-01 WtEn= 7.01D-02
 Coeff-Com: -0.109D+00 0.239D+00 0.334D+00 0.536D+00
 Coeff-En:   0.000D+00 0.000D+00 0.251D+00 0.749D+00
 Coeff:     -0.101D+00 0.222D+00 0.328D+00 0.551D+00
 Gap=     0.073 Goal=   None    Shift=    0.000
 RMSDP=3.10D-04 MaxDP=9.94D-02 DE=-1.38D-01 OVMax= 9.71D-02

 Cycle   5  Pass 1  IDiag  1:
 RMSU=  1.42D-04    CP:  9.71D-01  1.75D+00  6.62D-01  5.31D-01
 E= -3005.32876004008     Delta-E=       -0.040615901253 Rises=F Damp=F
 DIIS: error= 1.30D-03 at cycle   5 NSaved=   5.
 NSaved= 5 IEnMin= 5 EnMin= -3005.32876004008     IErMin= 5 ErrMin= 1.30D-03
 ErrMax= 1.30D-03  0.00D+00 EMaxC= 1.00D-01 BMatC= 6.24D-03 BMatP= 5.32D-02
 IDIUse=3 WtCom= 9.87D-01 WtEn= 1.30D-02
 Coeff-Com: -0.237D-01 0.553D-01 0.184D+00 0.381D+00 0.403D+00
 Coeff-En:   0.000D+00 0.000D+00 0.000D+00 0.120D+00 0.880D+00
 Coeff:     -0.234D-01 0.546D-01 0.181D+00 0.378D+00 0.409D+00
 Gap=     0.073 Goal=   None    Shift=    0.000
 RMSDP=1.28D-04 MaxDP=1.95D-02 DE=-4.06D-02 OVMax= 6.32D-02

 Cycle   6  Pass 1  IDiag  1:
 RMSU=  5.53D-05    CP:  9.71D-01  1.76D+00  6.44D-01  6.53D-01  2.85D-01
 E= -3005.33503885833     Delta-E=       -0.006278818253 Rises=F Damp=F
 DIIS: error= 6.93D-04 at cycle   6 NSaved=   6.
 NSaved= 6 IEnMin= 6 EnMin= -3005.33503885833     IErMin= 6 ErrMin= 6.93D-04
 ErrMax= 6.93D-04  0.00D+00 EMaxC= 1.00D-01 BMatC= 8.34D-04 BMatP= 6.24D-03
 IDIUse=3 WtCom= 9.93D-01 WtEn= 6.93D-03
 Coeff-Com:  0.319D-03 0.185D-02 0.715D-01 0.170D+00 0.292D+00 0.465D+00
 Coeff-En:   0.000D+00 0.000D+00 0.000D+00 0.000D+00 0.167D+00 0.833D+00
 Coeff:      0.317D-03 0.184D-02 0.710D-01 0.168D+00 0.291D+00 0.468D+00
 Gap=     0.073 Goal=   None    Shift=    0.000
 RMSDP=4.98D-05 MaxDP=5.76D-03 DE=-6.28D-03 OVMax= 3.35D-02

 Cycle   7  Pass 1  IDiag  1:
 RMSU=  2.39D-05    CP:  9.71D-01  1.76D+00  6.51D-01  6.29D-01  4.78D-01
                    CP:  4.24D-01
 E= -3005.33597100177     Delta-E=       -0.000932143435 Rises=F Damp=F
 DIIS: error= 3.47D-04 at cycle   7 NSaved=   7.
 NSaved= 7 IEnMin= 7 EnMin= -3005.33597100177     IErMin= 7 ErrMin= 3.47D-04
 ErrMax= 3.47D-04  0.00D+00 EMaxC= 1.00D-01 BMatC= 1.38D-04 BMatP= 8.34D-04
 IDIUse=3 WtCom= 9.97D-01 WtEn= 3.47D-03
 Coeff-Com:  0.328D-02-0.596D-02 0.244D-01 0.642D-01 0.149D+00 0.334D+00
 Coeff-Com:  0.431D+00
 Coeff-En:   0.000D+00 0.000D+00 0.000D+00 0.000D+00 0.000D+00 0.163D+00
 Coeff-En:   0.837D+00
 Coeff:      0.326D-02-0.594D-02 0.243D-01 0.640D-01 0.149D+00 0.334D+00
 Coeff:      0.432D+00
 Gap=     0.073 Goal=   None    Shift=    0.000
 RMSDP=2.01D-05 MaxDP=1.78D-03 DE=-9.32D-04 OVMax= 1.57D-02

 Cycle   8  Pass 1  IDiag  1:
 RMSU=  1.02D-05    CP:  9.71D-01  1.76D+00  6.52D-01  6.33D-01  4.50D-01
                    CP:  5.67D-01  3.78D-01
 E= -3005.33612169864     Delta-E=       -0.000150696867 Rises=F Damp=F
 DIIS: error= 1.30D-04 at cycle   8 NSaved=   8.
 NSaved= 8 IEnMin= 8 EnMin= -3005.33612169864     IErMin= 8 ErrMin= 1.30D-04
 ErrMax= 1.30D-04  0.00D+00 EMaxC= 1.00D-01 BMatC= 2.53D-05 BMatP= 1.38D-04
 IDIUse=3 WtCom= 9.99D-01 WtEn= 1.30D-03
 Coeff-Com:  0.218D-02-0.431D-02 0.701D-02 0.203D-01 0.651D-01 0.175D+00
 Coeff-Com:  0.322D+00 0.413D+00
 Coeff-En:   0.000D+00 0.000D+00 0.000D+00 0.000D+00 0.000D+00 0.000D+00
 Coeff-En:   0.198D+00 0.802D+00
 Coeff:      0.217D-02-0.430D-02 0.700D-02 0.203D-01 0.650D-01 0.175D+00
 Coeff:      0.322D+00 0.413D+00
 Gap=     0.073 Goal=   None    Shift=    0.000
 RMSDP=7.97D-06 MaxDP=5.73D-04 DE=-1.51D-04 OVMax= 5.49D-03

 Cycle   9  Pass 1  IDiag  1:
 RMSU=  3.40D-06    CP:  9.71D-01  1.76D+00  6.51D-01  6.34D-01  4.55D-01
                    CP:  5.48D-01  5.50D-01  4.34D-01
 E= -3005.33615364824     Delta-E=       -0.000031949605 Rises=F Damp=F
 DIIS: error= 4.04D-05 at cycle   9 NSaved=   9.
 NSaved= 9 IEnMin= 9 EnMin= -3005.33615364824     IErMin= 9 ErrMin= 4.04D-05
 ErrMax= 4.04D-05  0.00D+00 EMaxC= 1.00D-01 BMatC= 2.88D-06 BMatP= 2.53D-05
 IDIUse=1 WtCom= 1.00D+00 WtEn= 0.00D+00
 Coeff-Com:  0.934D-03-0.190D-02 0.135D-02 0.417D-02 0.232D-01 0.716D-01
 Coeff-Com:  0.161D+00 0.285D+00 0.455D+00
 Coeff:      0.934D-03-0.190D-02 0.135D-02 0.417D-02 0.232D-01 0.716D-01
 Coeff:      0.161D+00 0.285D+00 0.455D+00
 Gap=     0.073 Goal=   None    Shift=    0.000
 RMSDP=2.61D-06 MaxDP=2.02D-04 DE=-3.19D-05 OVMax= 1.48D-03

 Cycle  10  Pass 1  IDiag  1:
 RMSU=  1.45D-06    CP:  9.71D-01  1.76D+00  6.52D-01  6.34D-01  4.57D-01
                    CP:  5.56D-01  5.25D-01  5.37D-01  4.96D-01
 E= -3005.33615700205     Delta-E=       -0.000003353807 Rises=F Damp=F
 DIIS: error= 1.20D-05 at cycle  10 NSaved=  10.
 NSaved=10 IEnMin=10 EnMin= -3005.33615700205     IErMin=10 ErrMin= 1.20D-05
 ErrMax= 1.20D-05  0.00D+00 EMaxC= 1.00D-01 BMatC= 3.35D-07 BMatP= 2.88D-06
 IDIUse=1 WtCom= 1.00D+00 WtEn= 0.00D+00
 Coeff-Com:  0.215D-03-0.437D-03-0.255D-03-0.955D-03 0.378D-02 0.151D-01
 Coeff-Com:  0.471D-01 0.107D+00 0.288D+00 0.540D+00
 Coeff:      0.215D-03-0.437D-03-0.255D-03-0.955D-03 0.378D-02 0.151D-01
 Coeff:      0.471D-01 0.107D+00 0.288D+00 0.540D+00
 Gap=     0.073 Goal=   None    Shift=    0.000
 RMSDP=8.69D-07 MaxDP=1.53D-04 DE=-3.35D-06 OVMax= 4.45D-04

 Cycle  11  Pass 1  IDiag  1:
 RMSU=  4.71D-07    CP:  9.71D-01  1.76D+00  6.52D-01  6.34D-01  4.57D-01
                    CP:  5.58D-01  5.31D-01  5.31D-01  6.52D-01  7.07D-01
 E= -3005.33615735985     Delta-E=       -0.000000357799 Rises=F Damp=F
 DIIS: error= 5.25D-06 at cycle  11 NSaved=  11.
 NSaved=11 IEnMin=11 EnMin= -3005.33615735985     IErMin=11 ErrMin= 5.25D-06
 ErrMax= 5.25D-06  0.00D+00 EMaxC= 1.00D-01 BMatC= 5.81D-08 BMatP= 3.35D-07
 IDIUse=1 WtCom= 1.00D+00 WtEn= 0.00D+00
 Coeff-Com: -0.749D-05 0.172D-04-0.385D-03-0.139D-02-0.123D-02-0.229D-02
 Coeff-Com:  0.522D-02 0.229D-01 0.116D+00 0.350D+00 0.511D+00
 Coeff:     -0.749D-05 0.172D-04-0.385D-03-0.139D-02-0.123D-02-0.229D-02
 Coeff:      0.522D-02 0.229D-01 0.116D+00 0.350D+00 0.511D+00
 Gap=     0.073 Goal=   None    Shift=    0.000
 RMSDP=3.00D-07 MaxDP=2.28D-05 DE=-3.58D-07 OVMax= 1.18D-04

 Cycle  12  Pass 1  IDiag  1:
 RMSU=  1.90D-07    CP:  9.71D-01  1.76D+00  6.52D-01  6.33D-01  4.57D-01
                    CP:  5.58D-01  5.34D-01  5.39D-01  6.44D-01  8.02D-01
                    CP:  7.20D-01
 E= -3005.33615742309     Delta-E=       -0.000000063246 Rises=F Damp=F
 DIIS: error= 2.31D-06 at cycle  12 NSaved=  12.
 NSaved=12 IEnMin=12 EnMin= -3005.33615742309     IErMin=12 ErrMin= 2.31D-06
 ErrMax= 2.31D-06  0.00D+00 EMaxC= 1.00D-01 BMatC= 4.59D-09 BMatP= 5.81D-08
 IDIUse=1 WtCom= 1.00D+00 WtEn= 0.00D+00
 Coeff-Com: -0.191D-04 0.430D-04-0.163D-03-0.600D-03-0.911D-03-0.286D-02
 Coeff-Com: -0.148D-02 0.421D-03 0.291D-01 0.121D+00 0.263D+00 0.592D+00
 Coeff:     -0.191D-04 0.430D-04-0.163D-03-0.600D-03-0.911D-03-0.286D-02
 Coeff:     -0.148D-02 0.421D-03 0.291D-01 0.121D+00 0.263D+00 0.592D+00
 Gap=     0.073 Goal=   None    Shift=    0.000
 RMSDP=1.10D-07 MaxDP=2.21D-05 DE=-6.32D-08 OVMax= 4.18D-05

 Cycle  13  Pass 1  IDiag  1:
 RMSU=  7.70D-08    CP:  9.71D-01  1.76D+00  6.52D-01  6.33D-01  4.57D-01
                    CP:  5.58D-01  5.34D-01  5.41D-01  6.53D-01  8.18D-01
                    CP:  8.28D-01  8.78D-01
 E= -3005.33615742785     Delta-E=       -0.000000004760 Rises=F Damp=F
 DIIS: error= 8.40D-07 at cycle  13 NSaved=  13.
 NSaved=13 IEnMin=13 EnMin= -3005.33615742785     IErMin=13 ErrMin= 8.40D-07
 ErrMax= 8.40D-07  0.00D+00 EMaxC= 1.00D-01 BMatC= 1.35D-09 BMatP= 4.59D-09
 IDIUse=1 WtCom= 1.00D+00 WtEn= 0.00D+00
 Coeff-Com: -0.922D-05 0.212D-04-0.194D-04-0.732D-04-0.302D-03-0.155D-02
 Coeff-Com: -0.208D-02-0.578D-02-0.891D-02-0.607D-02 0.453D-01 0.374D+00
 Coeff-Com:  0.605D+00
 Coeff:     -0.922D-05 0.212D-04-0.194D-04-0.732D-04-0.302D-03-0.155D-02
 Coeff:     -0.208D-02-0.578D-02-0.891D-02-0.607D-02 0.453D-01 0.374D+00
 Coeff:      0.605D+00
 Gap=     0.073 Goal=   None    Shift=    0.000
 RMSDP=5.44D-08 MaxDP=4.68D-06 DE=-4.76D-09 OVMax= 2.27D-05

 Cycle  14  Pass 1  IDiag  1:
 RMSU=  3.31D-08    CP:  9.71D-01  1.76D+00  6.52D-01  6.33D-01  4.57D-01
                    CP:  5.58D-01  5.34D-01  5.41D-01  6.57D-01  8.34D-01
                    CP:  8.59D-01  1.02D+00  8.99D-01
 E= -3005.33615742946     Delta-E=       -0.000000001603 Rises=F Damp=F
 DIIS: error= 4.22D-07 at cycle  14 NSaved=  14.
 NSaved=14 IEnMin=14 EnMin= -3005.33615742946     IErMin=14 ErrMin= 4.22D-07
 ErrMax= 4.22D-07  0.00D+00 EMaxC= 1.00D-01 BMatC= 2.42D-10 BMatP= 1.35D-09
 IDIUse=1 WtCom= 1.00D+00 WtEn= 0.00D+00
 Coeff-Com: -0.165D-05 0.443D-05 0.174D-04 0.627D-04-0.169D-04-0.517D-03
 Coeff-Com: -0.947D-03-0.400D-02-0.111D-01-0.266D-01-0.223D-01 0.122D+00
 Coeff-Com:  0.363D+00 0.581D+00
 Coeff:     -0.165D-05 0.443D-05 0.174D-04 0.627D-04-0.169D-04-0.517D-03
 Coeff:     -0.947D-03-0.400D-02-0.111D-01-0.266D-01-0.223D-01 0.122D+00
 Coeff:      0.363D+00 0.581D+00
 Gap=     0.073 Goal=   None    Shift=    0.000
 RMSDP=2.44D-08 MaxDP=2.92D-06 DE=-1.60D-09 OVMax= 1.12D-05

 Cycle  15  Pass 1  IDiag  1:
 RMSU=  1.45D-08    CP:  9.71D-01  1.76D+00  6.52D-01  6.33D-01  4.57D-01
                    CP:  5.58D-01  5.35D-01  5.41D-01  6.58D-01  8.38D-01
                    CP:  8.78D-01  1.07D+00  9.95D-01  9.03D-01
 E= -3005.33615742978     Delta-E=       -0.000000000324 Rises=F Damp=F
 DIIS: error= 1.69D-07 at cycle  15 NSaved=  15.
 NSaved=15 IEnMin=15 EnMin= -3005.33615742978     IErMin=15 ErrMin= 1.69D-07
 ErrMax= 1.69D-07  0.00D+00 EMaxC= 1.00D-01 BMatC= 3.74D-11 BMatP= 2.42D-10
 IDIUse=1 WtCom= 1.00D+00 WtEn= 0.00D+00
 Coeff-Com:  0.105D-05-0.185D-05 0.125D-04 0.435D-04 0.543D-04-0.508D-05
 Coeff-Com:  0.156D-04-0.101D-02-0.364D-02-0.116D-01-0.189D-01-0.411D-02
 Coeff-Com:  0.752D-01 0.322D+00 0.642D+00
 Coeff:      0.105D-05-0.185D-05 0.125D-04 0.435D-04 0.543D-04-0.508D-05
 Coeff:      0.156D-04-0.101D-02-0.364D-02-0.116D-01-0.189D-01-0.411D-02
 Coeff:      0.752D-01 0.322D+00 0.642D+00
 Gap=     0.073 Goal=   None    Shift=    0.000
 RMSDP=9.95D-09 MaxDP=7.21D-07 DE=-3.24D-10 OVMax= 4.43D-06

 SCF Done:  E(RPBE1PBE) =  -3005.33615743     A.U. after   15 cycles
            NFock= 15  Conv=0.10D-07     -V/T= 2.0105
 KE= 2.973985668174D+03 PE=-2.571459986165D+04 EE= 1.037271300217D+04
 Leave Link  502 at Tue May  3 18:58:41 2022, MaxMem= 10066329600 cpu:            7419.6 elap:             310.7
 (Enter /sw/apps/gaussian-16.0/g16/l801.exe)
 DoSCS=F DFT=T ScalE2(SS,OS)=  1.000000  1.000000
 ExpMin= 3.36D-02 ExpMax= 4.95D+03 ExpMxC= 7.45D+02 IAcc=3 IRadAn=         5 AccDes= 0.00D+00
 HarFok:  IExCor=  205 AccDes= 0.00D+00 IRadAn=         5 IDoV=-2 UseB2=F ITyADJ=14
 ICtDFT= 12500011 ScaDFX=  1.000000  1.000000  1.000000  1.000000
 GSVD:  LWork=       -5460 too small for GESVD, short by       25550 words or       25550 for optimal perf.
 Largest valence mixing into a core orbital is  1.25D-04
 Largest core mixing into a valence orbital is  5.68D-05
 Range of M.O.s used for correlation:    71  1298
 NBasis=  1298 NAE=   246 NBE=   246 NFC=    70 NFV=     0
 NROrb=   1228 NOA=   176 NOB=   176 NVA=  1052 NVB=  1052

 **** Warning!!: The smallest alpha delta epsilon is  0.73079296D-01

 Leave Link  801 at Tue May  3 18:58:41 2022, MaxMem= 10066329600 cpu:               6.2 elap:               0.3
 (Enter /sw/apps/gaussian-16.0/g16/l914.exe)
 RHF ground state
 Two-electron integrals replicated using symmetry.
 MDV= 10066329600 DFT=T DoStab=F Mixed=T DoRPA=T DoScal=F NonHer=T
 Making orbital integer symmetry assigments:
 Orbital symmetries:
       Occupied  (A) (A) (A) (A) (A) (A) (A) (A) (A) (A) (A) (A)
                 (A) (A) (A) (A) (A) (A) (A) (A) (A) (A) (A) (A)
                 (A) (A) (A) (A) (A) (A) (A) (A) (A) (A) (A) (A)
                 (A) (A) (A) (A) (A) (A) (A) (A) (A) (A) (A) (A)
                 (A) (A) (A) (A) (A) (A) (A) (A) (A) (A) (A) (A)
                 (A) (A) (A) (A) (A) (A) (A) (A) (A) (A) (A) (A)
                 (A) (A) (A) (A) (A) (A) (A) (A) (A) (A) (A) (A)
                 (A) (A) (A) (A) (A) (A) (A) (A) (A) (A) (A) (A)
                 (A) (A) (A) (A) (A) (A) (A) (A) (A) (A) (A) (A)
                 (A) (A) (A) (A) (A) (A) (A) (A) (A) (A) (A) (A)
                 (A) (A) (A) (A) (A) (A) (A) (A) (A) (A) (A) (A)
                 (A) (A) (A) (A) (A) (A) (A) (A) (A) (A) (A) (A)
                 (A) (A) (A) (A) (A) (A) (A) (A) (A) (A) (A) (A)
                 (A) (A) (A) (A) (A) (A) (A) (A) (A) (A) (A) (A)
                 (A) (A) (A) (A) (A) (A) (A) (A) (A) (A) (A) (A)
                 (A) (A) (A) (A) (A) (A) (A) (A) (A) (A) (A) (A)
                 (A) (A) (A) (A) (A) (A) (A) (A) (A) (A) (A) (A)
                 (A) (A) (A) (A) (A) (A) (A) (A) (A) (A) (A) (A)
                 (A) (A) (A) (A) (A) (A) (A) (A) (A) (A) (A) (A)
                 (A) (A) (A) (A) (A) (A) (A) (A) (A) (A) (A) (A)
                 (A) (A) (A) (A) (A) (A)
       Virtual   (A) (A) (A) (A) (A) (A) (A) (A) (A) (A) (A) (A)
                 (A) (A) (A) (A) (A) (A) (A) (A) (A) (A) (A) (A)
                 (A) (A) (A) (A) (A) (A) (A) (A) (A) (A) (A) (A)
                 (A) (A) (A) (A) (A) (A) (A) (A) (A) (A) (A) (A)
                 (A) (A) (A) (A) (A) (A) (A) (A) (A) (A) (A) (A)
                 (A) (A) (A) (A) (A) (A) (A) (A) (A) (A) (A) (A)
                 (A) (A) (A) (A) (A) (A) (A) (A) (A) (A) (A) (A)
                 (A) (A) (A) (A) (A) (A) (A) (A) (A) (A) (A) (A)
                 (A) (A) (A) (A) (A) (A) (A) (A) (A) (A) (A) (A)
                 (A) (A) (A) (A) (A) (A) (A) (A) (A) (A) (A) (A)
                 (A) (A) (A) (A) (A) (A) (A) (A) (A) (A) (A) (A)
                 (A) (A) (A) (A) (A) (A) (A) (A) (A) (A) (A) (A)
                 (A) (A) (A) (A) (A) (A) (A) (A) (A) (A) (A) (A)
                 (A) (A) (A) (A) (A) (A) (A) (A) (A) (A) (A) (A)
                 (A) (A) (A) (A) (A) (A) (A) (A) (A) (A) (A) (A)
                 (A) (A) (A) (A) (A) (A) (A) (A) (A) (A) (A) (A)
                 (A) (A) (A) (A) (A) (A) (A) (A) (A) (A) (A) (A)
                 (A) (A) (A) (A) (A) (A) (A) (A) (A) (A) (A) (A)
                 (A) (A) (A) (A) (A) (A) (A) (A) (A) (A) (A) (A)
                 (A) (A) (A) (A) (A) (A) (A) (A) (A) (A) (A) (A)
                 (A) (A) (A) (A) (A) (A) (A) (A) (A) (A) (A) (A)
                 (A) (A) (A) (A) (A) (A) (A) (A) (A) (A) (A) (A)
                 (A) (A) (A) (A) (A) (A) (A) (A) (A) (A) (A) (A)
                 (A) (A) (A) (A) (A) (A) (A) (A) (A) (A) (A) (A)
                 (A) (A) (A) (A) (A) (A) (A) (A) (A) (A) (A) (A)
                 (A) (A) (A) (A) (A) (A) (A) (A) (A) (A) (A) (A)
                 (A) (A) (A) (A) (A) (A) (A) (A) (A) (A) (A) (A)
                 (A) (A) (A) (A) (A) (A) (A) (A) (A) (A) (A) (A)
                 (A) (A) (A) (A) (A) (A) (A) (A) (A) (A) (A) (A)
                 (A) (A) (A) (A) (A) (A) (A) (A) (A) (A) (A) (A)
                 (A) (A) (A) (A) (A) (A) (A) (A) (A) (A) (A) (A)
                 (A) (A) (A) (A) (A) (A) (A) (A) (A) (A) (A) (A)
                 (A) (A) (A) (A) (A) (A) (A) (A) (A) (A) (A) (A)
                 (A) (A) (A) (A) (A) (A) (A) (A) (A) (A) (A) (A)
                 (A) (A) (A) (A) (A) (A) (A) (A) (A) (A) (A) (A)
                 (A) (A) (A) (A) (A) (A) (A) (A) (A) (A) (A) (A)
                 (A) (A) (A) (A) (A) (A) (A) (A) (A) (A) (A) (A)
                 (A) (A) (A) (A) (A) (A) (A) (A) (A) (A) (A) (A)
                 (A) (A) (A) (A) (A) (A) (A) (A) (A) (A) (A) (A)
                 (A) (A) (A) (A) (A) (A) (A) (A) (A) (A) (A) (A)
                 (A) (A) (A) (A) (A) (A) (A) (A) (A) (A) (A) (A)
                 (A) (A) (A) (A) (A) (A) (A) (A) (A) (A) (A) (A)
                 (A) (A) (A) (A) (A) (A) (A) (A) (A) (A) (A) (A)
                 (A) (A) (A) (A) (A) (A) (A) (A) (A) (A) (A) (A)
                 (A) (A) (A) (A) (A) (A) (A) (A) (A) (A) (A) (A)
                 (A) (A) (A) (A) (A) (A) (A) (A) (A) (A) (A) (A)
                 (A) (A) (A) (A) (A) (A) (A) (A) (A) (A) (A) (A)
                 (A) (A) (A) (A) (A) (A) (A) (A) (A) (A) (A) (A)
                 (A) (A) (A) (A) (A) (A) (A) (A) (A) (A) (A) (A)
                 (A) (A) (A) (A) (A) (A) (A) (A) (A) (A) (A) (A)
                 (A) (A) (A) (A) (A) (A) (A) (A) (A) (A) (A) (A)
                 (A) (A) (A) (A) (A) (A) (A) (A) (A) (A) (A) (A)
                 (A) (A) (A) (A) (A) (A) (A) (A) (A) (A) (A) (A)
                 (A) (A) (A) (A) (A) (A) (A) (A) (A) (A) (A) (A)
                 (A) (A) (A) (A) (A) (A) (A) (A) (A) (A) (A) (A)
                 (A) (A) (A) (A) (A) (A) (A) (A) (A) (A) (A) (A)
                 (A) (A) (A) (A) (A) (A) (A) (A) (A) (A) (A) (A)
                 (A) (A) (A) (A) (A) (A) (A) (A) (A) (A) (A) (A)
                 (A) (A) (A) (A) (A) (A) (A) (A) (A) (A) (A) (A)
                 (A) (A) (A) (A) (A) (A) (A) (A) (A) (A) (A) (A)
                 (A) (A) (A) (A) (A) (A) (A) (A) (A) (A) (A) (A)
                 (A) (A) (A) (A) (A) (A) (A) (A) (A) (A) (A) (A)
                 (A) (A) (A) (A) (A) (A) (A) (A) (A) (A) (A) (A)
                 (A) (A) (A) (A) (A) (A) (A) (A) (A) (A) (A) (A)
                 (A) (A) (A) (A) (A) (A) (A) (A) (A) (A) (A) (A)
                 (A) (A) (A) (A) (A) (A) (A) (A) (A) (A) (A) (A)
                 (A) (A) (A) (A) (A) (A) (A) (A) (A) (A) (A) (A)
                 (A) (A) (A) (A) (A) (A) (A) (A) (A) (A) (A) (A)
                 (A) (A) (A) (A) (A) (A) (A) (A) (A) (A) (A) (A)
                 (A) (A) (A) (A) (A) (A) (A) (A) (A) (A) (A) (A)
                 (A) (A) (A) (A) (A) (A) (A) (A) (A) (A) (A) (A)
                 (A) (A) (A) (A) (A) (A) (A) (A) (A) (A) (A) (A)
                 (A) (A) (A) (A) (A) (A) (A) (A) (A) (A) (A) (A)
                 (A) (A) (A) (A) (A) (A) (A) (A) (A) (A) (A) (A)
                 (A) (A) (A) (A) (A) (A) (A) (A) (A) (A) (A) (A)
                 (A) (A) (A) (A) (A) (A) (A) (A) (A) (A) (A) (A)
                 (A) (A) (A) (A) (A) (A) (A) (A) (A) (A) (A) (A)
                 (A) (A) (A) (A) (A) (A) (A) (A) (A) (A) (A) (A)
                 (A) (A) (A) (A) (A) (A) (A) (A) (A) (A) (A) (A)
                 (A) (A) (A) (A) (A) (A) (A) (A) (A) (A) (A) (A)
                 (A) (A) (A) (A) (A) (A) (A) (A) (A) (A) (A) (A)
                 (A) (A) (A) (A) (A) (A) (A) (A) (A) (A) (A) (A)
                 (A) (A) (A) (A) (A) (A) (A) (A) (A) (A) (A) (A)
                 (A) (A) (A) (A) (A) (A) (A) (A) (A) (A) (A) (A)
                 (A) (A) (A) (A) (A) (A) (A) (A) (A) (A) (A) (A)
                 (A) (A) (A) (A) (A) (A) (A) (A) (A) (A) (A) (A)
                 (A) (A) (A) (A) (A) (A) (A) (A) (A) (A) (A) (A)
                 (A) (A) (A) (A) (A) (A) (A) (A)
    20 initial guesses have been made.
 Convergence on wavefunction:    0.001000000000000
 Davidson Disk Diagonalization:  ConvIn= 1.00D-03 SkipCon=T Conv= 1.00D-03.
 Max sub-space:  2000 roots to seek:    20 dimension of matrix:       370304
 Iteration     1 Dimension    20 NMult     0 NNew     20
 CISAX will form    20 AO SS matrices at one time.
 NMat=    20 NSing=    20 JSym2X= 0.
 FoFJK:  IHMeth= 1 ICntrl=       0 DoSepK=F KAlg= 0 I1Cent=           0 FoldK=F
 IRaf= 500000000 NMat=      40 IRICut=       1 DoRegI=T DoRafI=F ISym2E= 0 IDoP0=3 IntGTp=3.
 FoFCou: FMM=T IPFlag=           0 FMFlag=      100000 FMFlg1=        2001
         NFxFlg=           0 DoJE=F BraDBF=F KetDBF=F FulRan=T
         wScrn=  0.000000 ICntrl=         0 IOpCl=  0 I1Cent=           0 NGrid=           0
         NMat0=   40 NMatS0=     20 NMatT0=    0 NMatD0=   40 NMtDS0=    0 NMtDT0=    0
 Symmetry not used in FoFCou.
 FMM levels:  10  Number of levels for PrismC:   9
 New state      3 was old state      4
 New state      4 was old state      8
 New state      5 was old state      6
 Excitation Energies [eV] at current iteration:
 Root      1 :     2.185014935733561
 Root      2 :     2.534052389575387
 Root      3 :     3.028190823166352
 Root      4 :     3.172809852711093
 Root      5 :     3.338797203925588
 Root      6 :     3.399486713768143
 Root      7 :     3.518351038876192
 Root      8 :     3.731580879264151
 Root      9 :     3.853765670829260
 Root     10 :     3.932979930243663
 Root     11 :     4.134764626001149
 Root     12 :     4.173304474528237
 Root     13 :     4.218611568835953
 Root     14 :     4.258330755300736
 Root     15 :     4.417739467536064
 Root     16 :     4.582899983742394
 Root     17 :     4.679340480660479
 Root     18 :     4.734763000363259
 Root     19 :     4.806634633845267
 Root     20 :     4.833043317246730
 Iteration     2 Dimension    30 NMult    20 NNew     10
 CISAX will form    10 AO SS matrices at one time.
 NMat=    10 NSing=    10 JSym2X= 0.
 Root      1 not converged, maximum delta is    0.057408460717941
 Root      2 not converged, maximum delta is    0.048218445264591
 Root      3 not converged, maximum delta is    0.106845193959980
 Root      4 not converged, maximum delta is    0.174083167461743
 Root      5 not converged, maximum delta is    0.049025095518430
 Excitation Energies [eV] at current iteration:
 Root      1 :     1.825617934901200   Change is   -0.359397000832361
 Root      2 :     2.276402154138034   Change is   -0.257650235437353
 Root      3 :     2.923029771956409   Change is   -0.105161051209944
 Root      4 :     3.018116267361637   Change is   -0.154693585349456
 Root      5 :     3.084980027718268   Change is   -0.253817176207320
 Iteration     3 Dimension    40 NMult    30 NNew     10
 CISAX will form    10 AO SS matrices at one time.
 NMat=    10 NSing=    10 JSym2X= 0.
 Root      1 not converged, maximum delta is    0.025197048821412
 Root      2 not converged, maximum delta is    0.020299141144202
 Root      3 not converged, maximum delta is    0.023760701214643
 Root      4 not converged, maximum delta is    0.018197437431033
 Root      5 not converged, maximum delta is    0.012979795460235
 Excitation Energies [eV] at current iteration:
 Root      1 :     1.793577516498712   Change is   -0.032040418402488
 Root      2 :     2.259285569128484   Change is   -0.017116585009551
 Root      3 :     2.910538055756349   Change is   -0.012491716200060
 Root      4 :     2.999037197194813   Change is   -0.019079070166824
 Root      5 :     3.074429135702791   Change is   -0.010550892015477
 Iteration     4 Dimension    50 NMult    40 NNew     10
 CISAX will form    10 AO SS matrices at one time.
 NMat=    10 NSing=    10 JSym2X= 0.
 Root      1 not converged, maximum delta is    0.002624357323558
 Root      2 not converged, maximum delta is    0.008638281613618
 Root      3 not converged, maximum delta is    0.004348764705222
 Root      4 not converged, maximum delta is    0.009381235968994
 Root      5 not converged, maximum delta is    0.014508306182366
 Excitation Energies [eV] at current iteration:
 Root      1 :     1.790479268795414   Change is   -0.003098247703297
 Root      2 :     2.256514444983085   Change is   -0.002771124145399
 Root      3 :     2.909460434988044   Change is   -0.001077620768305
 Root      4 :     2.996498109577864   Change is   -0.002539087616948
 Root      5 :     3.072394889502644   Change is   -0.002034246200147
 Iteration     5 Dimension    60 NMult    50 NNew     10
 CISAX will form    10 AO SS matrices at one time.
 NMat=    10 NSing=    10 JSym2X= 0.
 Root      1 not converged, maximum delta is    0.001053190040574
 Root      2 has converged.
 Root      3 not converged, maximum delta is    0.001137301863679
 Root      4 not converged, maximum delta is    0.002343142265819
 Root      5 not converged, maximum delta is    0.002636393150161
 Excitation Energies [eV] at current iteration:
 Root      1 :     1.790128089109966   Change is   -0.000351179685448
 Root      2 :     2.256308743654063   Change is   -0.000205701329022
 Root      3 :     2.909334622543894   Change is   -0.000125812444150
 Root      4 :     2.996176243038304   Change is   -0.000321866539561
 Root      5 :     3.072163712242579   Change is   -0.000231177260065
 Iteration     6 Dimension    68 NMult    60 NNew      8
 CISAX will form     8 AO SS matrices at one time.
 NMat=     8 NSing=     8 JSym2X= 0.
 Root      1 has converged.
 Root      2 has converged.
 Root      3 has converged.
 Root      4 has converged.
 Root      5 has converged.
 Excitation Energies [eV] at current iteration:
 Root      1 :     1.790098783788628   Change is   -0.000029305321339
 Root      2 :     2.256304946050058   Change is   -0.000003797604005
 Root      3 :     2.909323557629118   Change is   -0.000011064914776
 Root      4 :     2.996134648995806   Change is   -0.000041594042497
 Root      5 :     3.072132438184190   Change is   -0.000031274058390
 Convergence achieved on expansion vectors.
 ***********************************************************************
 Excited states from <AA,BB:AA,BB> singles matrix:
 ***********************************************************************
 
 1PDM for each excited state written to RWF  633
 Ground to excited state transition densities written to RWF  633
 Ground to excited state transition electric dipole moments (Au):
       state          X           Y           Z        Dip. S.      Osc.
         1         0.1926     -1.8599      2.2254      8.4491      0.3705
         2        -0.3829     -1.1068     -0.4620      1.5851      0.0876
         3        -0.0006      0.0746     -0.0123      0.0057      0.0004
         4        -0.0753     -0.1105      0.0048      0.0179      0.0013
         5         0.0464      0.2067      0.0381      0.0463      0.0035
 Ground to excited state transition velocity dipole moments (Au):
       state          X           Y           Z        Dip. S.      Osc.
         1        -0.0123      0.1184     -0.1409      0.0340      0.3450
         2         0.0301      0.0877      0.0357      0.0099      0.0793
         3        -0.0032     -0.0080      0.0023      0.0001      0.0005
         4         0.0058      0.0128      0.0010      0.0002      0.0012
         5        -0.0040     -0.0214     -0.0027      0.0005      0.0028
 Ground to excited state transition magnetic dipole moments (Au):
       state          X           Y           Z
         1        -0.2186      1.4281      1.2153
         2         0.4524     -0.5306      0.8268
         3        -0.1547      0.1467     -0.4207
         4         0.0534     -0.5490      0.4050
         5        -0.6739      0.1065      0.0319
 Ground to excited state transition velocity quadrupole moments (Au):
       state          XX          YY          ZZ          XY          XZ          YZ
         1        -0.3207      0.2776      0.0525      1.1589     -1.4443     -0.2271
         2         0.4834      0.2054      0.0911      0.9289      0.4004      0.0093
         3        -0.0386     -0.1035     -0.0006     -0.0901      0.0497      0.0431
         4         0.0815      0.0085      0.0427      0.1041      0.0062      0.0470
         5        -0.0208     -0.3949      0.1256     -0.2368      0.0186      0.0952
 <0|del|b> * <b|rxdel|0> + <0|del|b> * <b|delr+rdel|0>
 Rotatory Strengths (R) in cgs (10**-40 erg-esu-cm/Gauss)
       state          XX          YY          ZZ    R(velocity)    E-M Angle
         1        30.1703    -13.2119    -10.8782      2.0267       89.91
         2       -80.4193     43.6628      8.1510     -9.5352       91.79
         3        -6.4676     -1.3514     -3.0730     -3.6306      113.14
         4       -21.1727      2.8670    -22.2512    -13.5190      130.86
         5        -4.1442      5.0036      1.3122      0.7238       88.68
 1/2[<0|r|b>*<b|rxdel|0> + (<0|rxdel|b>*<b|r|0>)*]
 Rotatory Strengths (R) in cgs (10**-40 erg-esu-cm/Gauss)
       state          XX          YY          ZZ     R(length)
         1        29.7756   1878.4217  -1912.5919     -1.4648
         2       122.5100   -415.3399    270.1157     -7.5714
         3        -0.0666     -7.7390     -3.6655     -3.8237
         4         2.8403    -42.9129     -1.3807    -13.8178
         5        22.0949    -15.5740     -0.8589      1.8873
  1/2[<0|del|b>*<b|r|0> + (<0|r|b>*<b|del|0>)*] (Au)
       state          X           Y           Z        Dip. S.   Osc.(frdel)
         1        -0.0024     -0.2203     -0.3136      0.5363      0.3575
         2        -0.0115     -0.0970     -0.0165      0.1251      0.0834
         3         0.0000     -0.0006     -0.0000      0.0006      0.0004
         4        -0.0004     -0.0014      0.0000      0.0018      0.0012
         5        -0.0002     -0.0044     -0.0001      0.0047      0.0031

 Excitation energies and oscillator strengths:
 
 Excited State   1:      Singlet-A      1.7901 eV  692.61 nm  f=0.3705  <S**2>=0.000
     245 -> 248        0.16257
     246 -> 247        0.69768
     246 <- 247       -0.11697
 This state for optimization and/or second-order correction.
 Total Energy, E(TD-HF/TD-DFT) =  -3005.27037251    
 Copying the excited state density for this state as the 1-particle RhoCI density.
 
 Excited State   2:      Singlet-A      2.2563 eV  549.50 nm  f=0.0876  <S**2>=0.000
     245 -> 247        0.63746
     246 -> 248       -0.29616
 
 Excited State   3:      Singlet-A      2.9093 eV  426.16 nm  f=0.0004  <S**2>=0.000
     244 -> 247        0.67519
     244 -> 249       -0.11035
     244 -> 250       -0.12818
 
 Excited State   4:      Singlet-A      2.9961 eV  413.81 nm  f=0.0013  <S**2>=0.000
     240 -> 247        0.19183
     241 -> 247        0.62564
     241 -> 249        0.21101
 
 Excited State   5:      Singlet-A      3.0721 eV  403.58 nm  f=0.0035  <S**2>=0.000
     242 -> 247        0.69506
 SavETr:  write IOETrn=   770 NScale= 10 NData=  16 NLR=1 NState=    5 LETran=     100.
 Leave Link  914 at Tue May  3 19:12:29 2022, MaxMem= 10066329600 cpu:           19820.8 elap:             827.7
 (Enter /sw/apps/gaussian-16.0/g16/l601.exe)
 Copying SCF densities to generalized density rwf, IOpCl= 0 IROHF=0.
 Hyperfine terms turned off by default for NAtoms > 100.

 **********************************************************************

            Population analysis using the SCF density.

 **********************************************************************

 Orbital symmetries:
       Occupied  (A) (A) (A) (A) (A) (A) (A) (A) (A) (A) (A) (A)
                 (A) (A) (A) (A) (A) (A) (A) (A) (A) (A) (A) (A)
                 (A) (A) (A) (A) (A) (A) (A) (A) (A) (A) (A) (A)
                 (A) (A) (A) (A) (A) (A) (A) (A) (A) (A) (A) (A)
                 (A) (A) (A) (A) (A) (A) (A) (A) (A) (A) (A) (A)
                 (A) (A) (A) (A) (A) (A) (A) (A) (A) (A) (A) (A)
                 (A) (A) (A) (A) (A) (A) (A) (A) (A) (A) (A) (A)
                 (A) (A) (A) (A) (A) (A) (A) (A) (A) (A) (A) (A)
                 (A) (A) (A) (A) (A) (A) (A) (A) (A) (A) (A) (A)
                 (A) (A) (A) (A) (A) (A) (A) (A) (A) (A) (A) (A)
                 (A) (A) (A) (A) (A) (A) (A) (A) (A) (A) (A) (A)
                 (A) (A) (A) (A) (A) (A) (A) (A) (A) (A) (A) (A)
                 (A) (A) (A) (A) (A) (A) (A) (A) (A) (A) (A) (A)
                 (A) (A) (A) (A) (A) (A) (A) (A) (A) (A) (A) (A)
                 (A) (A) (A) (A) (A) (A) (A) (A) (A) (A) (A) (A)
                 (A) (A) (A) (A) (A) (A) (A) (A) (A) (A) (A) (A)
                 (A) (A) (A) (A) (A) (A) (A) (A) (A) (A) (A) (A)
                 (A) (A) (A) (A) (A) (A) (A) (A) (A) (A) (A) (A)
                 (A) (A) (A) (A) (A) (A) (A) (A) (A) (A) (A) (A)
                 (A) (A) (A) (A) (A) (A) (A) (A) (A) (A) (A) (A)
                 (A) (A) (A) (A) (A) (A)
       Virtual   (A) (A) (A) (A) (A) (A) (A) (A) (A) (A) (A) (A)
                 (A) (A) (A) (A) (A) (A) (A) (A) (A) (A) (A) (A)
                 (A) (A) (A) (A) (A) (A) (A) (A) (A) (A) (A) (A)
                 (A) (A) (A) (A) (A) (A) (A) (A) (A) (A) (A) (A)
                 (A) (A) (A) (A) (A) (A) (A) (A) (A) (A) (A) (A)
                 (A) (A) (A) (A) (A) (A) (A) (A) (A) (A) (A) (A)
                 (A) (A) (A) (A) (A) (A) (A) (A) (A) (A) (A) (A)
                 (A) (A) (A) (A) (A) (A) (A) (A) (A) (A) (A) (A)
                 (A) (A) (A) (A) (A) (A) (A) (A) (A) (A) (A) (A)
                 (A) (A) (A) (A) (A) (A) (A) (A) (A) (A) (A) (A)
                 (A) (A) (A) (A) (A) (A) (A) (A) (A) (A) (A) (A)
                 (A) (A) (A) (A) (A) (A) (A) (A) (A) (A) (A) (A)
                 (A) (A) (A) (A) (A) (A) (A) (A) (A) (A) (A) (A)
                 (A) (A) (A) (A) (A) (A) (A) (A) (A) (A) (A) (A)
                 (A) (A) (A) (A) (A) (A) (A) (A) (A) (A) (A) (A)
                 (A) (A) (A) (A) (A) (A) (A) (A) (A) (A) (A) (A)
                 (A) (A) (A) (A) (A) (A) (A) (A) (A) (A) (A) (A)
                 (A) (A) (A) (A) (A) (A) (A) (A) (A) (A) (A) (A)
                 (A) (A) (A) (A) (A) (A) (A) (A) (A) (A) (A) (A)
                 (A) (A) (A) (A) (A) (A) (A) (A) (A) (A) (A) (A)
                 (A) (A) (A) (A) (A) (A) (A) (A) (A) (A) (A) (A)
                 (A) (A) (A) (A) (A) (A) (A) (A) (A) (A) (A) (A)
                 (A) (A) (A) (A) (A) (A) (A) (A) (A) (A) (A) (A)
                 (A) (A) (A) (A) (A) (A) (A) (A) (A) (A) (A) (A)
                 (A) (A) (A) (A) (A) (A) (A) (A) (A) (A) (A) (A)
                 (A) (A) (A) (A) (A) (A) (A) (A) (A) (A) (A) (A)
                 (A) (A) (A) (A) (A) (A) (A) (A) (A) (A) (A) (A)
                 (A) (A) (A) (A) (A) (A) (A) (A) (A) (A) (A) (A)
                 (A) (A) (A) (A) (A) (A) (A) (A) (A) (A) (A) (A)
                 (A) (A) (A) (A) (A) (A) (A) (A) (A) (A) (A) (A)
                 (A) (A) (A) (A) (A) (A) (A) (A) (A) (A) (A) (A)
                 (A) (A) (A) (A) (A) (A) (A) (A) (A) (A) (A) (A)
                 (A) (A) (A) (A) (A) (A) (A) (A) (A) (A) (A) (A)
                 (A) (A) (A) (A) (A) (A) (A) (A) (A) (A) (A) (A)
                 (A) (A) (A) (A) (A) (A) (A) (A) (A) (A) (A) (A)
                 (A) (A) (A) (A) (A) (A) (A) (A) (A) (A) (A) (A)
                 (A) (A) (A) (A) (A) (A) (A) (A) (A) (A) (A) (A)
                 (A) (A) (A) (A) (A) (A) (A) (A) (A) (A) (A) (A)
                 (A) (A) (A) (A) (A) (A) (A) (A) (A) (A) (A) (A)
                 (A) (A) (A) (A) (A) (A) (A) (A) (A) (A) (A) (A)
                 (A) (A) (A) (A) (A) (A) (A) (A) (A) (A) (A) (A)
                 (A) (A) (A) (A) (A) (A) (A) (A) (A) (A) (A) (A)
                 (A) (A) (A) (A) (A) (A) (A) (A) (A) (A) (A) (A)
                 (A) (A) (A) (A) (A) (A) (A) (A) (A) (A) (A) (A)
                 (A) (A) (A) (A) (A) (A) (A) (A) (A) (A) (A) (A)
                 (A) (A) (A) (A) (A) (A) (A) (A) (A) (A) (A) (A)
                 (A) (A) (A) (A) (A) (A) (A) (A) (A) (A) (A) (A)
                 (A) (A) (A) (A) (A) (A) (A) (A) (A) (A) (A) (A)
                 (A) (A) (A) (A) (A) (A) (A) (A) (A) (A) (A) (A)
                 (A) (A) (A) (A) (A) (A) (A) (A) (A) (A) (A) (A)
                 (A) (A) (A) (A) (A) (A) (A) (A) (A) (A) (A) (A)
                 (A) (A) (A) (A) (A) (A) (A) (A) (A) (A) (A) (A)
                 (A) (A) (A) (A) (A) (A) (A) (A) (A) (A) (A) (A)
                 (A) (A) (A) (A) (A) (A) (A) (A) (A) (A) (A) (A)
                 (A) (A) (A) (A) (A) (A) (A) (A) (A) (A) (A) (A)
                 (A) (A) (A) (A) (A) (A) (A) (A) (A) (A) (A) (A)
                 (A) (A) (A) (A) (A) (A) (A) (A) (A) (A) (A) (A)
                 (A) (A) (A) (A) (A) (A) (A) (A) (A) (A) (A) (A)
                 (A) (A) (A) (A) (A) (A) (A) (A) (A) (A) (A) (A)
                 (A) (A) (A) (A) (A) (A) (A) (A) (A) (A) (A) (A)
                 (A) (A) (A) (A) (A) (A) (A) (A) (A) (A) (A) (A)
                 (A) (A) (A) (A) (A) (A) (A) (A) (A) (A) (A) (A)
[...]
 Alpha virt. eigenvalues --    1.27603   1.28367   1.28935   1.29263   1.29506
 Alpha virt. eigenvalues --    1.30133   1.30170   1.30437   1.31405   1.31612
 Alpha virt. eigenvalues --    1.31928   1.32330   1.32553   1.33054   1.33595
 Alpha virt. eigenvalues --    1.34259   1.34702   1.35300   1.35607   1.35855
 Alpha virt. eigenvalues --    1.35955   1.37170   1.37198   1.37604   1.37638
 Alpha virt. eigenvalues --    1.37713   1.38250   1.39226   1.39712   1.40167
 Alpha virt. eigenvalues --    1.40496   1.40748   1.40825   1.41193   1.41572
 Alpha virt. eigenvalues --    1.42449   1.42832   1.42991   1.43403   1.43648
 Alpha virt. eigenvalues --    1.44114   1.44770   1.44842   1.45279   1.45751
 Alpha virt. eigenvalues --    1.46225   1.46439   1.46774   1.47096   1.47325
 Alpha virt. eigenvalues --    1.47660   1.49015   1.49398   1.49577   1.50398
 Alpha virt. eigenvalues --    1.50741   1.51275   1.51326   1.51669   1.51780
 Alpha virt. eigenvalues --    1.51934   1.52135   1.52717   1.53105   1.53236
 Alpha virt. eigenvalues --    1.53369   1.53805   1.53989   1.54598   1.54832
 Alpha virt. eigenvalues --    1.54990   1.55274   1.55403   1.55589   1.55751
 Alpha virt. eigenvalues --    1.55918   1.56254   1.56503   1.56651   1.56820
 Alpha virt. eigenvalues --    1.56985   1.57540   1.58095   1.58251   1.58656
 Alpha virt. eigenvalues --    1.59063   1.59967   1.60268   1.60495   1.60668
 Alpha virt. eigenvalues --    1.61046   1.61127   1.62346   1.62412   1.62565
 Alpha virt. eigenvalues --    1.62749   1.63168   1.63410   1.64549   1.65281
 Alpha virt. eigenvalues --    1.65499   1.65615   1.65738   1.66163   1.66885
 Alpha virt. eigenvalues --    1.67335   1.67625   1.68078   1.68795   1.68915
 Alpha virt. eigenvalues --    1.69100   1.69460   1.69913   1.70090   1.70355
 Alpha virt. eigenvalues --    1.70727   1.70963   1.71430   1.71916   1.71989
 Alpha virt. eigenvalues --    1.72526   1.72748   1.73146   1.73267   1.73441
 Alpha virt. eigenvalues --    1.73875   1.73920   1.74206   1.74388   1.74632
 Alpha virt. eigenvalues --    1.74760   1.75261   1.75353   1.76171   1.76283
 Alpha virt. eigenvalues --    1.76711   1.76900   1.77045   1.77288   1.77510
 Alpha virt. eigenvalues --    1.77550   1.77787   1.78034   1.78357   1.78603
 Alpha virt. eigenvalues --    1.78728   1.79016   1.79198   1.79249   1.79461
 Alpha virt. eigenvalues --    1.79802   1.79868   1.79910   1.80140   1.80207
 Alpha virt. eigenvalues --    1.80244   1.80514   1.80876   1.81044   1.81094
 Alpha virt. eigenvalues --    1.81425   1.81510   1.81745   1.82102   1.82183
 Alpha virt. eigenvalues --    1.82387   1.82703   1.83026   1.83251   1.83327
 Alpha virt. eigenvalues --    1.83402   1.83608   1.83864   1.84023   1.84151
 Alpha virt. eigenvalues --    1.84259   1.84421   1.84599   1.84919   1.85008
 Alpha virt. eigenvalues --    1.85260   1.85426   1.85495   1.86086   1.86442
 Alpha virt. eigenvalues --    1.86513   1.86588   1.86867   1.87353   1.87714
 Alpha virt. eigenvalues --    1.88230   1.88383   1.88445   1.88561   1.88615
 Alpha virt. eigenvalues --    1.88720   1.88780   1.89404   1.89772   1.89891
 Alpha virt. eigenvalues --    1.90008   1.90624   1.90728   1.91133   1.91301
 Alpha virt. eigenvalues --    1.91567   1.91651   1.91689   1.92092   1.92425
 Alpha virt. eigenvalues --    1.92580   1.93141   1.93213   1.93456   1.93715
 Alpha virt. eigenvalues --    1.93973   1.94149   1.94275   1.94669   1.94819
 Alpha virt. eigenvalues --    1.95398   1.95511   1.95614   1.96277   1.96483
 Alpha virt. eigenvalues --    1.96645   1.97053   1.97586   1.97877   1.98226
 Alpha virt. eigenvalues --    1.98336   1.98573   1.99089   1.99433   1.99703
 Alpha virt. eigenvalues --    1.99859   2.00213   2.00271   2.00551   2.00652
 Alpha virt. eigenvalues --    2.01034   2.01344   2.01642   2.02044   2.02249
 Alpha virt. eigenvalues --    2.02449   2.02975   2.03461   2.03667   2.04017
 Alpha virt. eigenvalues --    2.04527   2.04788   2.05004   2.05144   2.05693
 Alpha virt. eigenvalues --    2.05759   2.05906   2.06280   2.06777   2.07118
 Alpha virt. eigenvalues --    2.07271   2.07563   2.07884   2.08252   2.08335
 Alpha virt. eigenvalues --    2.08718   2.09107   2.09332   2.09498   2.09721
 Alpha virt. eigenvalues --    2.09750   2.10058   2.10176   2.10377   2.10855
 Alpha virt. eigenvalues --    2.11122   2.11380   2.11790   2.12356   2.12740
 Alpha virt. eigenvalues --    2.12891   2.13095   2.13526   2.14069   2.14143
 Alpha virt. eigenvalues --    2.14657   2.14795   2.15033   2.15811   2.16158
 Alpha virt. eigenvalues --    2.16342   2.16658   2.18337   2.18628   2.18846
 Alpha virt. eigenvalues --    2.19158   2.19632   2.19932   2.20263   2.20371
 Alpha virt. eigenvalues --    2.20931   2.21053   2.21175   2.21426   2.21941
 Alpha virt. eigenvalues --    2.22190   2.22378   2.22677   2.23218   2.23395
 Alpha virt. eigenvalues --    2.24215   2.24657   2.25216   2.25628   2.26133
 Alpha virt. eigenvalues --    2.26309   2.27239   2.27860   2.28147   2.28615
 Alpha virt. eigenvalues --    2.29626   2.29985   2.30290   2.30800   2.30927
 Alpha virt. eigenvalues --    2.31196   2.31521   2.31641   2.32138   2.32466
 Alpha virt. eigenvalues --    2.32801   2.33329   2.33420   2.33651   2.34055
 Alpha virt. eigenvalues --    2.34292   2.34760   2.35404   2.35526   2.36067
 Alpha virt. eigenvalues --    2.36415   2.36562   2.36777   2.37194   2.37880
 Alpha virt. eigenvalues --    2.38047   2.38354   2.38743   2.38933   2.38985
 Alpha virt. eigenvalues --    2.39450   2.39732   2.40146   2.40644   2.41234
 Alpha virt. eigenvalues --    2.41540   2.41973   2.42847   2.43141   2.43357
 Alpha virt. eigenvalues --    2.43772   2.43871   2.44291   2.45216   2.45801
 Alpha virt. eigenvalues --    2.46104   2.46318   2.47023   2.47353   2.47486
 Alpha virt. eigenvalues --    2.47818   2.48357   2.48768   2.48861   2.49461
 Alpha virt. eigenvalues --    2.49727   2.50026   2.50252   2.50463   2.50664
 Alpha virt. eigenvalues --    2.51592   2.51787   2.52026   2.52375   2.52749
 Alpha virt. eigenvalues --    2.52830   2.53238   2.54011   2.54162   2.55215
 Alpha virt. eigenvalues --    2.55256   2.55326   2.55727   2.55998   2.56612
 Alpha virt. eigenvalues --    2.56895   2.57699   2.57809   2.58163   2.58212
 Alpha virt. eigenvalues --    2.58742   2.59164   2.59657   2.60131   2.60186
 Alpha virt. eigenvalues --    2.60354   2.60832   2.61606   2.62169   2.62359
 Alpha virt. eigenvalues --    2.63263   2.64309   2.64512   2.65082   2.65422
 Alpha virt. eigenvalues --    2.65947   2.66141   2.66745   2.66904   2.67167
 Alpha virt. eigenvalues --    2.67266   2.67880   2.68620   2.69076   2.69523
 Alpha virt. eigenvalues --    2.69622   2.69820   2.70216   2.70508   2.70966
 Alpha virt. eigenvalues --    2.71448   2.71833   2.72350   2.72705   2.72713
 Alpha virt. eigenvalues --    2.73371   2.73745   2.74080   2.74293   2.74700
 Alpha virt. eigenvalues --    2.74797   2.74999   2.76362   2.76463   2.77199
 Alpha virt. eigenvalues --    2.77215   2.78074   2.78622   2.78839   2.79637
 Alpha virt. eigenvalues --    2.80135   2.80181   2.80670   2.83047   2.83641
 Alpha virt. eigenvalues --    2.83742   2.84112   2.84833   2.85031   2.85395
 Alpha virt. eigenvalues --    2.86213   2.86505   2.87124   2.87240   2.87656
 Alpha virt. eigenvalues --    2.88474   2.89280   2.89938   2.90163   2.90689
 Alpha virt. eigenvalues --    2.91004   2.91121   2.91720   2.92001   2.92376
 Alpha virt. eigenvalues --    2.92522   2.92645   2.93141   2.93286   2.93771
 Alpha virt. eigenvalues --    2.93959   2.94184   2.94343   2.94453   2.94778
 Alpha virt. eigenvalues --    2.94852   2.95131   2.95377   2.95676   2.96190
 Alpha virt. eigenvalues --    2.96238   2.96706   2.96764   2.97065   2.97128
 Alpha virt. eigenvalues --    2.98112   2.98374   2.98664   2.98765   2.99219
 Alpha virt. eigenvalues --    2.99584   2.99648   2.99807   3.00269   3.00344
 Alpha virt. eigenvalues --    3.00828   3.01394   3.01639   3.02373   3.02524
 Alpha virt. eigenvalues --    3.02732   3.03210   3.03246   3.03797   3.04353
 Alpha virt. eigenvalues --    3.04567   3.04867   3.05157   3.06055   3.06204
 Alpha virt. eigenvalues --    3.06451   3.06527   3.06641   3.07387   3.07648
 Alpha virt. eigenvalues --    3.08389   3.09380   3.10069   3.10343   3.10657
 Alpha virt. eigenvalues --    3.11123   3.11482   3.11579   3.13106   3.13345
 Alpha virt. eigenvalues --    3.14548   3.14829   3.15602   3.16774   3.16833
 Alpha virt. eigenvalues --    3.17300   3.17969   3.18492   3.19219   3.19651
 Alpha virt. eigenvalues --    3.23071   3.23747   3.35476   3.36816   3.38487
 Alpha virt. eigenvalues --    3.40187   3.41216   3.42095   3.45710   3.49405
 Alpha virt. eigenvalues --    3.51704   3.57457   3.59667   3.59876   3.63066
 Alpha virt. eigenvalues --    3.65582   3.65823
          Condensed to atoms (all electrons):
 Mulliken charges:
               1
     1  Mg   0.985015
     2  C   -0.040834
     3  C   -0.074422
     4  C   -0.082295
     5  C   -0.083229
     6  N   -0.454436
     7  C    0.006077
     8  C   -0.086593
     9  C   -0.154371
    10  C    0.115536
    11  C   -0.004606
    12  C    0.073361
    13  C   -0.010494
    14  C    0.209939
    15  O   -0.295889
    16  O   -0.382353
    17  N   -0.463488
    18  C    0.193872
    19  C   -0.190089
    20  C   -0.076240
    21  C    0.198693
    22  C    0.089011
    23  C   -0.003593
    24  O   -0.241350
    25  C    0.001359
    26  N   -0.425194
    27  C    0.063457
    28  C   -0.083839
    29  C   -0.111853
    30  C    0.055927
    31  C   -0.007284
    32  C   -0.035073
    33  C   -0.065131
    34  N   -0.462991
    35  C    0.149564
    36  C   -0.203125
    37  C   -0.031329
    38  C    0.187657
    39  C    0.064871
    40  C    0.177712
    41  O   -0.245404
    42  C   -0.097336
    43  C    0.284486
    44  O   -0.250141
    45  O   -0.375525
    46  C    0.119370
    47  C    0.237609
    48  C   -0.151541
    49  C   -0.129637
    50  C    0.011185
    51  C    0.007632
    52  C   -0.057865
    53  C   -0.041031
    54  C   -0.183008
    55  C   -0.007713
    56  C   -0.051490
    57  C   -0.001939
    58  C    0.016132
    59  C   -0.247981
    60  C   -0.015608
    61  C    0.036136
    62  C   -0.055445
    63  C   -0.007249
    64  C   -0.267436
    65  C   -0.027988
    66  C   -0.010640
    67  H    0.016814
    68  H   -0.009072
    69  H    0.001540
    70  H    0.069807
    71  H    0.055215
    72  H    0.046199
    73  H    0.058103
    74  H    0.039796
    75  H    0.048890
    76  H    0.058887
    77  H    0.073244
    78  H    0.067496
    79  H    0.013340
    80  H    0.067382
    81  H    0.060013
    82  H    0.063668
    83  H    0.076255
    84  H    0.054532
    85  H    0.058534
    86  H    0.055690
    87  H    0.042492
    88  H    0.053245
    89  H    0.042759
    90  H    0.053983
    91  H    0.036210
    92  H    0.051019
    93  H    0.034008
    94  H    0.043479
    95  H    0.068620
    96  H    0.044387
    97  H    0.065829
    98  H    0.074334
    99  H    0.041969
   100  H    0.069904
   101  H    0.062956
   102  H    0.043372
   103  H    0.053332
   104  H    0.030080
   105  H    0.038383
   106  H    0.050343
   107  H    0.045823
   108  H    0.032251
   109  H    0.014715
   110  H    0.039416
   111  H    0.030546
   112  H    0.020145
   113  H    0.031621
   114  H    0.031039
   115  H    0.029023
   116  H    0.031438
   117  H    0.032078
   118  H    0.033007
   119  H    0.026156
   120  H    0.027254
   121  H    0.040060
   122  H    0.018721
   123  H    0.006448
   124  H    0.024462
   125  H    0.033429
   126  H    0.036491
   127  H    0.026528
   128  H    0.019870
   129  H    0.022537
   130  H    0.021034
   131  H    0.031428
   132  H    0.035913
   133  H    0.027610
   134  H    0.047127
   135  H    0.030712
   136  H    0.039926
   137  H    0.035695
   138  H    0.035126
   139  H    0.036207
   140  H    0.039598
 Sum of Mulliken charges =  -0.00000
 Mulliken charges with hydrogens summed into heavy atoms:
               1
     1  Mg   0.985015
     2  C   -0.040834
     3  C   -0.057609
     4  C   -0.091366
     5  C   -0.081689
     6  N   -0.454436
     7  C    0.006077
     8  C   -0.016787
     9  C   -0.099156
    10  C    0.115536
    11  C    0.139493
    12  C    0.181139
    13  C    0.130247
    14  C    0.209939
    15  O   -0.295889
    16  O   -0.382353
    17  N   -0.463488
    18  C    0.193872
    19  C   -0.190089
    20  C   -0.076240
    21  C    0.198693
    22  C    0.229746
    23  C   -0.003593
    24  O   -0.241350
    25  C    0.195814
    26  N   -0.425194
    27  C    0.063457
    28  C   -0.025305
    29  C   -0.056162
    30  C    0.055927
    31  C    0.131212
    32  C    0.055120
    33  C    0.063376
    34  N   -0.462991
    35  C    0.149564
    36  C   -0.203125
    37  C   -0.031329
    38  C    0.187657
    39  C    0.243706
    40  C    0.177712
    41  O   -0.245404
    42  C   -0.023002
    43  C    0.284486
    44  O   -0.250141
    45  O   -0.375525
    46  C    0.294200
    47  C    0.334313
    48  C   -0.121461
    49  C   -0.129637
    50  C    0.145733
    51  C    0.054598
    52  C    0.012097
    53  C    0.010734
    54  C   -0.151969
    55  C    0.084826
    56  C    0.007673
    57  C    0.065375
    58  C    0.041301
    59  C   -0.223519
    60  C    0.080840
    61  C    0.078543
    62  C   -0.002982
    63  C    0.056274
    64  C   -0.220309
    65  C    0.078345
    66  C    0.100292
 Electronic spatial extent (au):  <R**2>=         132343.5705
 Charge=             -0.0000 electrons
 Dipole moment (field-independent basis, Debye):
    X=              1.7119    Y=              6.5065    Z=              2.3524  Tot=              7.1273
 Quadrupole moment (field-independent basis, Debye-Ang):
   XX=           -361.7705   YY=           -436.3272   ZZ=           -409.6612
   XY=             21.2255   XZ=             11.5168   YZ=             33.5268
 Traceless Quadrupole moment (field-independent basis, Debye-Ang):
   XX=             40.8158   YY=            -33.7409   ZZ=             -7.0749
   XY=             21.2255   XZ=             11.5168   YZ=             33.5268
 Octapole moment (field-independent basis, Debye-Ang**2):
  XXX=            464.5915  YYY=            232.0978  ZZZ=             78.6119  XYY=             22.8831
  XXY=             82.8505  XXZ=             41.7483  XZZ=             56.4664  YZZ=             -9.3756
  YYZ=            120.8739  XYZ=            241.9367
 Hexadecapole moment (field-independent basis, Debye-Ang**3):
 XXXX=        -143835.7568 YYYY=         -25470.5024 ZZZZ=         -14634.5754 XXXY=            168.6751
 XXXZ=           1108.7159 YYYX=            779.7550 YYYZ=           1004.3159 ZZZX=            609.0613
 ZZZY=            599.0756 XXYY=         -26822.3042 XXZZ=         -26388.8888 YYZZ=          -7490.9490
 XXYZ=           1232.1543 YYXZ=            231.5649 ZZXY=           -238.2887
 N-N= 9.362565033879D+03 E-N=-2.571459985787D+04  KE= 2.973985668174D+03
 Leave Link  601 at Tue May  3 19:12:30 2022, MaxMem= 10066329600 cpu:              27.2 elap:               1.3
 (Enter /sw/apps/gaussian-16.0/g16/l9999.exe)
 1\1\GINC-BP1-COMPUTE174\SP\RPBE1PBE TD-FC\def2SVP\C55H74Mg1N4O6\OF1564
 1\03-May-2022\0\\#p PBE1PBE/Def2SVP td=(nstates=5)\\step_101_chromopho
 re_14 TDDFT with PBE1PBE functional\\0,1\Mg,0,46.631,44.883,44.835\C,0
 ,43.185,44.778,44.033\C,0,46.93,41.482,44.241\C,0,49.969,45.239,44.892
 \C,0,46.241,48.362,45.168\N,0,45.292,43.405,44.128\C,0,43.882,43.557,4
 3.832\C,0,43.274,42.252,43.228\C,0,44.409,41.2,43.605\C,0,45.66,42.067
 ,44.092\C,0,44.096,39.999,44.641\C,0,43.258,42.443,41.752\C,0,41.891,4
 2.153,41.091\C,0,41.76,41.295,39.858\O,0,41.193,40.171,39.764\O,0,42.4
 69,41.919,38.831\N,0,48.234,43.487,44.779\C,0,48.128,42.159,44.567\C,0
 ,49.443,41.598,44.356\C,0,50.411,42.638,44.493\C,0,49.536,43.889,44.80
 5\C,0,49.735,40.121,44.084\C,0,51.89,42.49,44.432\O,0,52.335,41.367,44
 .264\C,0,52.836,43.649,44.578\N,0,47.92,46.548,44.773\C,0,49.282,46.44
 7,44.834\C,0,49.953,47.825,44.925\C,0,48.768,48.724,45.343\C,0,47.558,
 47.862,45.097\C,0,51.228,47.983,45.871\C,0,48.745,50.148,44.629\C,0,48
 .745,51.405,45.479\N,0,45.084,46.308,44.724\C,0,45.005,47.699,44.924\C
 ,0,43.632,48.188,44.756\C,0,42.905,47.078,44.367\C,0,43.804,45.969,44.
 383\C,0,43.144,49.686,44.734\C,0,41.559,46.582,43.983\O,0,40.41,47.115
 ,43.972\C,0,41.706,44.993,43.813\C,0,40.847,44.293,44.769\O,0,39.851,4
 3.638,44.483\O,0,41.297,44.4,46.086\C,0,40.476,43.634,47.039\C,0,42.29
 5,41.327,37.485\C,0,42.953,42.234,36.438\C,0,44.257,42.413,36.068\C,0,
 45.432,41.581,36.658\C,0,44.616,43.43,35.049\C,0,45.145,43.042,33.684\
 C,0,44.71,44.031,32.57\C,0,45.369,43.71,31.143\C,0,46.529,44.705,30.80
 7\C,0,44.293,43.633,30.052\C,0,44.578,42.532,28.981\C,0,43.686,42.842,
 27.833\C,0,44.364,43.022,26.483\C,0,43.604,44.071,25.736\C,0,44.382,41
 .673,25.642\C,0,45.83,41.216,25.336\C,0,45.956,41.005,23.794\C,0,46.68
 2,42.192,23.19\C,0,46.248,42.251,21.65\C,0,48.24,42.117,23.259\H,0,46.
 972,40.425,43.969\H,0,51.041,45.44,44.93\H,0,46.264,49.422,45.431\H,0,
 42.361,42.139,43.813\H,0,44.669,40.632,42.712\H,0,44.5,39.062,44.257\H
 ,0,43.047,39.984,44.937\H,0,44.723,40.173,45.516\H,0,44.041,41.864,41.
 263\H,0,43.54,43.466,41.502\H,0,41.443,43.113,40.834\H,0,41.194,41.525
 ,41.646\H,0,48.802,39.566,43.987\H,0,50.316,39.667,44.887\H,0,50.263,3
 9.971,43.143\H,0,52.603,43.999,45.584\H,0,52.61,44.37,43.792\H,0,53.86
 6,43.295,44.615\H,0,50.244,48.115,43.916\H,0,48.792,48.812,46.429\H,0,
 52.18,47.953,45.34\H,0,51.252,47.264,46.69\H,0,51.298,48.968,46.332\H,
 0,47.879,50.273,43.978\H,0,49.647,50.092,44.02\H,0,49.532,52.123,45.24
 8\H,0,48.838,51.104,46.523\H,0,47.777,51.901,45.412\H,0,42.453,49.916,
 43.924\H,0,44.116,50.177,44.672\H,0,42.597,49.856,45.662\H,0,41.318,44
 .781,42.816\H,0,40.974,42.672,47.162\H,0,39.467,43.292,46.809\H,0,40.4
 05,44.192,47.972\H,0,41.225,41.299,37.279\H,0,42.652,40.297,37.508\H,0
 ,42.183,42.776,35.889\H,0,46.239,42.207,37.038\H,0,45.994,40.97,35.953
 \H,0,45.045,40.967,37.471\H,0,45.292,44.212,35.395\H,0,43.753,44.069,3
 4.864\H,0,44.898,42.029,33.366\H,0,46.219,43.157,33.832\H,0,45.048,44.
 989,32.965\H,0,43.624,44.108,32.523\H,0,45.862,42.74,31.205\H,0,46.588
 ,45.547,31.497\H,0,46.411,45.094,29.796\H,0,47.503,44.224,30.888\H,0,4
 4.066,44.661,29.767\H,0,43.41,43.317,30.606\H,0,44.182,41.607,29.399\H
 ,0,45.631,42.386,28.74\H,0,42.996,43.679,27.935\H,0,43.007,41.992,27.7
 7\H,0,45.33,43.477,26.699\H,0,43.829,45.024,26.215\H,0,42.529,43.889,2
 5.699\H,0,43.997,44.078,24.72\H,0,43.801,41.811,24.73\H,0,43.81,40.943
 ,26.215\H,0,46.024,40.288,25.875\H,0,46.601,41.896,25.697\H,0,44.962,4
 0.956,23.352\H,0,46.57,40.104,23.774\H,0,46.339,43.079,23.724\H,0,46.0
 68,43.318,21.525\H,0,45.352,41.702,21.36\H,0,47.067,41.992,20.98\H,0,4
 8.585,41.33,23.93\H,0,48.493,43.114,23.62\H,0,48.781,41.958,22.327\\Ve
 rsion=ES64L-G16RevA.03\State=1-A\HF=-3005.3361574\RMSD=9.953e-09\PG=C0
 1 [X(C55H74Mg1N4O6)]\\@


            THE IRISH PIG
 'TWAS AN EVENING IN NOVEMBER,
 AS I VERY WELL REMEMBER
 I WAS STROLLING DOWN THE STREET IN DRUNKEN PRIDE,
 BUT MY KNEES WERE ALL A'FLUTTER
 SO I LANDED IN THE GUTTER,
 AND A PIG CAME UP AND LAY DOWN BY MY SIDE.

 YES, I LAY THERE IN THE GUTTER
 THINKING THOUGHTS I COULD NOT UTTER
 WHEN A COLLEEN PASSING BY DID SOFTLY SAY,
 'YE CAN TELL A MAN THAT BOOZES
 BY THE COMPANY THAT HE CHOOSES.' -
 AT THAT, THE PIG GOT UP AND WALKED AWAY!
     -- THE ECONOMIST, AUGUST 23, 1986
 Job cpu time:       0 days  7 hours 39 minutes 11.3 seconds.
 Elapsed time:       0 days  0 hours 19 minutes 11.8 seconds.
 File lengths (MBytes):  RWF=   8929 Int=      0 D2E=      0 Chk=    390 Scr=      1
 Normal termination of Gaussian 16 at Tue May  3 19:12:31 2022.
