 Entering Gaussian System, Link 0=g16
 Initial command:
 /sw/apps/gaussian-16.0/g16/l1.exe "/tmp/Gau-214011.inp" -scrdir="/tmp/"
 Entering Link 1 = /sw/apps/gaussian-16.0/g16/l1.exe PID=    214012.
  
 Copyright (c) 1988,1990,1992,1993,1995,1998,2003,2009,2016,
            Gaussian, Inc.  All Rights Reserved.
  
 This is part of the Gaussian(R) 16 program.  It is based on
 the Gaussian(R) 09 system (copyright 2009, Gaussian, Inc.),
 the Gaussian(R) 03 system (copyright 2003, Gaussian, Inc.),
 the Gaussian(R) 98 system (copyright 1998, Gaussian, Inc.),
 the Gaussian(R) 94 system (copyright 1995, Gaussian, Inc.),
 the Gaussian 92(TM) system (copyright 1992, Gaussian, Inc.),
 the Gaussian 90(TM) system (copyright 1990, Gaussian, Inc.),
 the Gaussian 88(TM) system (copyright 1988, Gaussian, Inc.),
 the Gaussian 86(TM) system (copyright 1986, Carnegie Mellon
 University), and the Gaussian 82(TM) system (copyright 1983,
 Carnegie Mellon University). Gaussian is a federally registered
 trademark of Gaussian, Inc.
  
 This software contains proprietary and confidential information,
 including trade secrets, belonging to Gaussian, Inc.
  
 This software is provided under written license and may be
 used, copied, transmitted, or stored only in accord with that
 written license.
  
 The following legend is applicable only to US Government
 contracts under FAR:
  
                    RESTRICTED RIGHTS LEGEND
  
 Use, reproduction and disclosure by the US Government is
 subject to restrictions as set forth in subparagraphs (a)
 and (c) of the Commercial Computer Software - Restricted
 Rights clause in FAR 52.227-19.
  
 Gaussian, Inc.
 340 Quinnipiac St., Bldg. 40, Wallingford CT 06492
  
  
 ---------------------------------------------------------------
 Warning -- This program may not be used in any manner that
 competes with the business of Gaussian, Inc. or will provide
 assistance to any competitor of Gaussian, Inc.  The licensee
 of this program is prohibited from giving any competitor of
 Gaussian, Inc. access to this program.  By using this program,
 the user acknowledges that Gaussian, Inc. is engaged in the
 business of creating and licensing software in the field of
 computational chemistry and represents and warrants to the
 licensee that it is not a competitor of Gaussian, Inc. and that
 it will not use this program in any manner prohibited above.
 ---------------------------------------------------------------
  

 Cite this work as:
 Gaussian 16, Revision A.03,
 M. J. Frisch, G. W. Trucks, H. B. Schlegel, G. E. Scuseria, 
 M. A. Robb, J. R. Cheeseman, G. Scalmani, V. Barone, 
 G. A. Petersson, H. Nakatsuji, X. Li, M. Caricato, A. V. Marenich, 
 J. Bloino, B. G. Janesko, R. Gomperts, B. Mennucci, H. P. Hratchian, 
 J. V. Ortiz, A. F. Izmaylov, J. L. Sonnenberg, D. Williams-Young, 
 F. Ding, F. Lipparini, F. Egidi, J. Goings, B. Peng, A. Petrone, 
 T. Henderson, D. Ranasinghe, V. G. Zakrzewski, J. Gao, N. Rega, 
 G. Zheng, W. Liang, M. Hada, M. Ehara, K. Toyota, R. Fukuda, 
 J. Hasegawa, M. Ishida, T. Nakajima, Y. Honda, O. Kitao, H. Nakai, 
 T. Vreven, K. Throssell, J. A. Montgomery, Jr., J. E. Peralta, 
 F. Ogliaro, M. J. Bearpark, J. J. Heyd, E. N. Brothers, K. N. Kudin, 
 V. N. Staroverov, T. A. Keith, R. Kobayashi, J. Normand, 
 K. Raghavachari, A. P. Rendell, J. C. Burant, S. S. Iyengar, 
 J. Tomasi, M. Cossi, J. M. Millam, M. Klene, C. Adamo, R. Cammi, 
 J. W. Ochterski, R. L. Martin, K. Morokuma, O. Farkas, 
 J. B. Foresman, and D. J. Fox, Gaussian, Inc., Wallingford CT, 2016.
 
 ******************************************
 Gaussian 16:  ES64L-G16RevA.03 25-Dec-2016
                27-Apr-2022 
 ******************************************
 %nproc=24
 Will use up to   24 processors via shared memory.
 %mem=50gb
 --------------------
 #p ZINDO=(nstates=5)
 --------------------
 1/38=1,172=1/1;
 2/12=2,17=6,18=5,40=1/2;
 3/5=2,25=1,41=400000/1,2,3,8;
 4/5=3,35=1/1;
 5/5=2,35=1,38=5/2;
 8/6=1,108=5/1;
 9/41=5,42=1,49=10/14;
 6/7=2,8=2,9=2,10=2/1;
 99/5=1,9=1/99;
 Leave Link    1 at Wed Apr 27 03:47:43 2022, MaxMem=  6710886400 cpu:               1.6 elap:               0.1
 (Enter /sw/apps/gaussian-16.0/g16/l101.exe)
 ------------------------------
 step_1051_chromophore_21 ZINDO
 ------------------------------
 Symbolic Z-matrix:
 Charge =  0 Multiplicity = 1
 Mg                    15.975    51.301    25.625 
 C                     17.765    50.277    28.382 
 C                     13.524    52.415    27.669 
 C                     14.279    52.179    22.937 
 C                     18.563    50.052    23.524 
 N                     15.779    51.358    27.808 
 C                     16.612    51.031    28.748 
 C                     16.122    51.339    30.132 
 C                     14.6      51.559    29.896 
 C                     14.584    51.764    28.376 
 C                     13.63     50.479    30.429 
 C                     16.838    52.527    30.784 
 C                     17.252    52.291    32.242 
 C                     16.244    51.513    33.148 
 O                     16.476    50.483    33.807 
 O                     14.984    52.157    33.157 
 N                     14.175    52.33     25.38 
 C                     13.303    52.676    26.33 
 C                     12.161    53.369    25.717 
 C                     12.318    53.201    24.329 
 C                     13.63     52.496    24.179 
 C                     11.097    54.025    26.58 
 C                     11.453    53.524    23.195 
 O                     11.753    53.298    22.058 
 C                     10.196    54.234    23.462 
 N                     16.328    50.999    23.432 
 C                     15.52     51.681    22.634 
 C                     15.994    51.45     21.132 
 C                     17.377    50.708    21.327 
 C                     17.487    50.629    22.827 
 C                     15.13     50.836    20.035 
 C                     18.662    51.413    20.6 
 C                     19.301    50.749    19.435 
 N                     17.667    50.148    25.828 
 C                     18.621    49.716    24.896 
 C                     19.679    49.009    25.654 
 C                     19.362    49.197    27.065 
 C                     18.097    49.853    27.078 
 C                     20.924    48.396    25.003 
 C                     19.895    49.061    28.443 
 O                     20.886    48.633    28.965 
 C                     18.748    49.636    29.281 
 C                     18.196    48.425    29.992 
 O                     17.95     47.327    29.552 
 O                     18.099    48.721    31.327 
 C                     17.878    47.643    32.282 
 C                     14.08     51.688    34.227 
 C                     12.642    52.23     34.081 
 C                     11.547    51.972    34.82 
 C                     11.528    51.053    36.027 
 C                     10.142    52.634    34.569 
 C                     9.721     53.84     35.426 
 C                     9.357     55.091    34.55 
 C                     7.927     55.66     34.826 
 C                     7.627     56.762    33.836 
 C                     8.049     56.316    36.326 
 C                     6.857     56.12     37.231 
 C                     6.503     57.362    37.965 
 C                     5.166     57.991    37.589 
 C                     5.185     59.502    38.008 
 C                     3.979     57.352    38.397 
 C                     2.692     57.365    37.552 
 C                     1.745     58.519    37.958 
 C                     0.378     58.09     38.392 
 C                     0.434     57.344    39.738 
 C                    -0.454     57.368    37.317 
 H                     12.733    52.837    28.292 
 H                     13.782    52.444    22.002 
 H                     19.432    49.638    23.008 
 H                     16.229    50.404    30.681 
 H                     14.31     52.462    30.434 
 H                     14.017    49.868    31.244 
 H                     13.389    49.857    29.567 
 H                     12.712    50.908    30.831 
 H                     16.299    53.474    30.819 
 H                     17.716    52.798    30.199 
 H                     17.544    53.243    32.684 
 H                     18.146    51.669    32.188 
 H                     11.309    54.089    27.647 
 H                     10.143    53.513    26.449 
 H                     10.989    55.045    26.213 
 H                     10.426    55.065    24.129 
 H                     9.451     53.627    23.978 
 H                     9.88      54.683    22.52 
 H                     16.144    52.46     20.751 
 H                     17.336    49.687    20.946 
 H                     14.666    51.535    19.339 
 H                     14.486    50.015    20.348 
 H                     15.895    50.342    19.435 
 H                     19.454    51.607    21.323 
 H                     18.326    52.369    20.197 
 H                     18.864    51.057    18.485 
 H                     19.162    49.676    19.566 
 H                     20.346    51.018    19.28 
 H                     21.588    48.548    25.854 
 H                     21.325    48.934    24.144 
 H                     20.798    47.322    24.863 
 H                     19.206    50.269    30.041 
 H                     17.459    48.034    33.21 
 H                     18.807    47.135    32.539 
 H                     17.067    47.023    31.899 
 H                     14.516    52.101    35.137 
 H                     14.057    50.605    34.349 
 H                     12.463    52.858    33.209 
 H                     10.984    51.544    36.835 
 H                     12.538    50.82     36.363 
 H                     10.974    50.154    35.758 
 H                     9.387     51.857    34.686 
 H                     9.979     52.929    33.532 
 H                     10.451    54.236    36.132 
 H                     8.987     53.561    36.181 
 H                     9.356     54.897    33.477 
 H                     10.124    55.851    34.698 
 H                     7.181     54.867    34.879 
 H                     8.488     57.424    33.744 
 H                     6.846     57.4      34.25 
 H                     7.291     56.192    32.969 
 H                     8.393     57.347    36.241 
 H                     8.831     55.826    36.906 
 H                     7.172     55.294    37.869 
 H                     6.035     55.73     36.63 
 H                     7.334     58.068    37.964 
 H                     6.557     57.062    39.012 
 H                     4.996     58.001    36.513 
 H                     4.184     59.933    38.007 
 H                     5.506     60.158    37.199 
 H                     5.58      59.738    38.996 
 H                     3.807     57.881    39.334 
 H                     4.228     56.328    38.674 
 H                     2.217     56.385    37.588 
 H                     3.066     57.584    36.551 
 H                     1.653     59.232    37.139 
 H                     2.186     59.079    38.783 
 H                    -0.104     59.038    38.63 
 H                     1.458     57.095    40.016 
 H                    -0.184     56.451    39.65 
 H                    -0.006     57.926    40.548 
 H                    -1.337     57.916    36.987 
 H                    -0.918     56.481    37.749 
 H                     0.184     57.084    36.481 
 
 ITRead=  0  0  0  0  0  0  0  0  0  0  0  0  0  0  0  0  0  0  0  0
 ITRead=  0  0  0  0  0  0  0  0  0  0  0  0  0  0  0  0  0  0  0  0
 ITRead=  0  0  0  0  0  0  0  0  0  0  0  0  0  0  0  0  0  0  0  0
 ITRead=  0  0  0  0  0  0  0  0  0  0  0  0  0  0  0  0  0  0  0  0
 ITRead=  0  0  0  0  0  0  0  0  0  0  0  0  0  0  0  0  0  0  0  0
 ITRead=  0  0  0  0  0  0  0  0  0  0  0  0  0  0  0  0  0  0  0  0
 ITRead=  0  0  0  0  0  0  0  0  0  0  0  0  0  0  0  0  0  0  0  0
 MicOpt= -1 -1 -1 -1 -1 -1 -1 -1 -1 -1 -1 -1 -1 -1 -1 -1 -1 -1 -1 -1
 MicOpt= -1 -1 -1 -1 -1 -1 -1 -1 -1 -1 -1 -1 -1 -1 -1 -1 -1 -1 -1 -1
 MicOpt= -1 -1 -1 -1 -1 -1 -1 -1 -1 -1 -1 -1 -1 -1 -1 -1 -1 -1 -1 -1
 MicOpt= -1 -1 -1 -1 -1 -1 -1 -1 -1 -1 -1 -1 -1 -1 -1 -1 -1 -1 -1 -1
 MicOpt= -1 -1 -1 -1 -1 -1 -1 -1 -1 -1 -1 -1 -1 -1 -1 -1 -1 -1 -1 -1
 MicOpt= -1 -1 -1 -1 -1 -1 -1 -1 -1 -1 -1 -1 -1 -1 -1 -1 -1 -1 -1 -1
 MicOpt= -1 -1 -1 -1 -1 -1 -1 -1 -1 -1 -1 -1 -1 -1 -1 -1 -1 -1 -1 -1
 NAtoms=    140 NQM=      140 NQMF=       0 NMMI=      0 NMMIF=      0
                NMic=       0 NMicF=      0.
                    Isotopes and Nuclear Properties:
 (Nuclear quadrupole moments (NQMom) in fm**2, nuclear magnetic moments (NMagM)
  in nuclear magnetons)

  Atom         1           2           3           4           5           6           7           8           9          10
 IAtWgt=          24          12          12          12          12          14          12          12          12          12
 AtmWgt=  23.9850450  12.0000000  12.0000000  12.0000000  12.0000000  14.0030740  12.0000000  12.0000000  12.0000000  12.0000000
 NucSpn=           0           0           0           0           0           2           0           0           0           0
 AtZEff=  -0.0000000  -0.0000000  -0.0000000  -0.0000000  -0.0000000  -0.0000000  -0.0000000  -0.0000000  -0.0000000  -0.0000000
 NQMom=    0.0000000   0.0000000   0.0000000   0.0000000   0.0000000   2.0440000   0.0000000   0.0000000   0.0000000   0.0000000
 NMagM=    0.0000000   0.0000000   0.0000000   0.0000000   0.0000000   0.4037610   0.0000000   0.0000000   0.0000000   0.0000000
 AtZNuc=  12.0000000   6.0000000   6.0000000   6.0000000   6.0000000   7.0000000   6.0000000   6.0000000   6.0000000   6.0000000

  Atom        11          12          13          14          15          16          17          18          19          20
 IAtWgt=          12          12          12          12          16          16          14          12          12          12
 AtmWgt=  12.0000000  12.0000000  12.0000000  12.0000000  15.9949146  15.9949146  14.0030740  12.0000000  12.0000000  12.0000000
 NucSpn=           0           0           0           0           0           0           2           0           0           0
 AtZEff=  -0.0000000  -0.0000000  -0.0000000  -0.0000000  -0.0000000  -0.0000000  -0.0000000  -0.0000000  -0.0000000  -0.0000000
 NQMom=    0.0000000   0.0000000   0.0000000   0.0000000   0.0000000   0.0000000   2.0440000   0.0000000   0.0000000   0.0000000
 NMagM=    0.0000000   0.0000000   0.0000000   0.0000000   0.0000000   0.0000000   0.4037610   0.0000000   0.0000000   0.0000000
 AtZNuc=   6.0000000   6.0000000   6.0000000   6.0000000   8.0000000   8.0000000   7.0000000   6.0000000   6.0000000   6.0000000

  Atom        21          22          23          24          25          26          27          28          29          30
 IAtWgt=          12          12          12          16          12          14          12          12          12          12
 AtmWgt=  12.0000000  12.0000000  12.0000000  15.9949146  12.0000000  14.0030740  12.0000000  12.0000000  12.0000000  12.0000000
 NucSpn=           0           0           0           0           0           2           0           0           0           0
 AtZEff=  -0.0000000  -0.0000000  -0.0000000  -0.0000000  -0.0000000  -0.0000000  -0.0000000  -0.0000000  -0.0000000  -0.0000000
 NQMom=    0.0000000   0.0000000   0.0000000   0.0000000   0.0000000   2.0440000   0.0000000   0.0000000   0.0000000   0.0000000
 NMagM=    0.0000000   0.0000000   0.0000000   0.0000000   0.0000000   0.4037610   0.0000000   0.0000000   0.0000000   0.0000000
 AtZNuc=   6.0000000   6.0000000   6.0000000   8.0000000   6.0000000   7.0000000   6.0000000   6.0000000   6.0000000   6.0000000

  Atom        31          32          33          34          35          36          37          38          39          40
 IAtWgt=          12          12          12          14          12          12          12          12          12          12
 AtmWgt=  12.0000000  12.0000000  12.0000000  14.0030740  12.0000000  12.0000000  12.0000000  12.0000000  12.0000000  12.0000000
 NucSpn=           0           0           0           2           0           0           0           0           0           0
 AtZEff=  -0.0000000  -0.0000000  -0.0000000  -0.0000000  -0.0000000  -0.0000000  -0.0000000  -0.0000000  -0.0000000  -0.0000000
 NQMom=    0.0000000   0.0000000   0.0000000   2.0440000   0.0000000   0.0000000   0.0000000   0.0000000   0.0000000   0.0000000
 NMagM=    0.0000000   0.0000000   0.0000000   0.4037610   0.0000000   0.0000000   0.0000000   0.0000000   0.0000000   0.0000000
 AtZNuc=   6.0000000   6.0000000   6.0000000   7.0000000   6.0000000   6.0000000   6.0000000   6.0000000   6.0000000   6.0000000

  Atom        41          42          43          44          45          46          47          48          49          50
 IAtWgt=          16          12          12          16          16          12          12          12          12          12
 AtmWgt=  15.9949146  12.0000000  12.0000000  15.9949146  15.9949146  12.0000000  12.0000000  12.0000000  12.0000000  12.0000000
 NucSpn=           0           0           0           0           0           0           0           0           0           0
 AtZEff=  -0.0000000  -0.0000000  -0.0000000  -0.0000000  -0.0000000  -0.0000000  -0.0000000  -0.0000000  -0.0000000  -0.0000000
 NQMom=    0.0000000   0.0000000   0.0000000   0.0000000   0.0000000   0.0000000   0.0000000   0.0000000   0.0000000   0.0000000
 NMagM=    0.0000000   0.0000000   0.0000000   0.0000000   0.0000000   0.0000000   0.0000000   0.0000000   0.0000000   0.0000000
 AtZNuc=   8.0000000   6.0000000   6.0000000   8.0000000   8.0000000   6.0000000   6.0000000   6.0000000   6.0000000   6.0000000

  Atom        51          52          53          54          55          56          57          58          59          60
 IAtWgt=          12          12          12          12          12          12          12          12          12          12
 AtmWgt=  12.0000000  12.0000000  12.0000000  12.0000000  12.0000000  12.0000000  12.0000000  12.0000000  12.0000000  12.0000000
 NucSpn=           0           0           0           0           0           0           0           0           0           0
 AtZEff=  -0.0000000  -0.0000000  -0.0000000  -0.0000000  -0.0000000  -0.0000000  -0.0000000  -0.0000000  -0.0000000  -0.0000000
 NQMom=    0.0000000   0.0000000   0.0000000   0.0000000   0.0000000   0.0000000   0.0000000   0.0000000   0.0000000   0.0000000
 NMagM=    0.0000000   0.0000000   0.0000000   0.0000000   0.0000000   0.0000000   0.0000000   0.0000000   0.0000000   0.0000000
 AtZNuc=   6.0000000   6.0000000   6.0000000   6.0000000   6.0000000   6.0000000   6.0000000   6.0000000   6.0000000   6.0000000

  Atom        61          62          63          64          65          66          67          68          69          70
 IAtWgt=          12          12          12          12          12          12           1           1           1           1
 AtmWgt=  12.0000000  12.0000000  12.0000000  12.0000000  12.0000000  12.0000000   1.0078250   1.0078250   1.0078250   1.0078250
 NucSpn=           0           0           0           0           0           0           1           1           1           1
 AtZEff=  -0.0000000  -0.0000000  -0.0000000  -0.0000000  -0.0000000  -0.0000000  -0.0000000  -0.0000000  -0.0000000  -0.0000000
 NQMom=    0.0000000   0.0000000   0.0000000   0.0000000   0.0000000   0.0000000   0.0000000   0.0000000   0.0000000   0.0000000
 NMagM=    0.0000000   0.0000000   0.0000000   0.0000000   0.0000000   0.0000000   2.7928460   2.7928460   2.7928460   2.7928460
 AtZNuc=   6.0000000   6.0000000   6.0000000   6.0000000   6.0000000   6.0000000   1.0000000   1.0000000   1.0000000   1.0000000

  Atom        71          72          73          74          75          76          77          78          79          80
 IAtWgt=           1           1           1           1           1           1           1           1           1           1
 AtmWgt=   1.0078250   1.0078250   1.0078250   1.0078250   1.0078250   1.0078250   1.0078250   1.0078250   1.0078250   1.0078250
 NucSpn=           1           1           1           1           1           1           1           1           1           1
 AtZEff=  -0.0000000  -0.0000000  -0.0000000  -0.0000000  -0.0000000  -0.0000000  -0.0000000  -0.0000000  -0.0000000  -0.0000000
 NQMom=    0.0000000   0.0000000   0.0000000   0.0000000   0.0000000   0.0000000   0.0000000   0.0000000   0.0000000   0.0000000
 NMagM=    2.7928460   2.7928460   2.7928460   2.7928460   2.7928460   2.7928460   2.7928460   2.7928460   2.7928460   2.7928460
 AtZNuc=   1.0000000   1.0000000   1.0000000   1.0000000   1.0000000   1.0000000   1.0000000   1.0000000   1.0000000   1.0000000

  Atom        81          82          83          84          85          86          87          88          89          90
 IAtWgt=           1           1           1           1           1           1           1           1           1           1
 AtmWgt=   1.0078250   1.0078250   1.0078250   1.0078250   1.0078250   1.0078250   1.0078250   1.0078250   1.0078250   1.0078250
 NucSpn=           1           1           1           1           1           1           1           1           1           1
 AtZEff=  -0.0000000  -0.0000000  -0.0000000  -0.0000000  -0.0000000  -0.0000000  -0.0000000  -0.0000000  -0.0000000  -0.0000000
 NQMom=    0.0000000   0.0000000   0.0000000   0.0000000   0.0000000   0.0000000   0.0000000   0.0000000   0.0000000   0.0000000
 NMagM=    2.7928460   2.7928460   2.7928460   2.7928460   2.7928460   2.7928460   2.7928460   2.7928460   2.7928460   2.7928460
 AtZNuc=   1.0000000   1.0000000   1.0000000   1.0000000   1.0000000   1.0000000   1.0000000   1.0000000   1.0000000   1.0000000

  Atom        91          92          93          94          95          96          97          98          99         100
 IAtWgt=           1           1           1           1           1           1           1           1           1           1
 AtmWgt=   1.0078250   1.0078250   1.0078250   1.0078250   1.0078250   1.0078250   1.0078250   1.0078250   1.0078250   1.0078250
 NucSpn=           1           1           1           1           1           1           1           1           1           1
 AtZEff=  -0.0000000  -0.0000000  -0.0000000  -0.0000000  -0.0000000  -0.0000000  -0.0000000  -0.0000000  -0.0000000  -0.0000000
 NQMom=    0.0000000   0.0000000   0.0000000   0.0000000   0.0000000   0.0000000   0.0000000   0.0000000   0.0000000   0.0000000
 NMagM=    2.7928460   2.7928460   2.7928460   2.7928460   2.7928460   2.7928460   2.7928460   2.7928460   2.7928460   2.7928460
 AtZNuc=   1.0000000   1.0000000   1.0000000   1.0000000   1.0000000   1.0000000   1.0000000   1.0000000   1.0000000   1.0000000

  Atom       101         102         103         104         105         106         107         108         109         110
 IAtWgt=           1           1           1           1           1           1           1           1           1           1
 AtmWgt=   1.0078250   1.0078250   1.0078250   1.0078250   1.0078250   1.0078250   1.0078250   1.0078250   1.0078250   1.0078250
 NucSpn=           1           1           1           1           1           1           1           1           1           1
 AtZEff=  -0.0000000  -0.0000000  -0.0000000  -0.0000000  -0.0000000  -0.0000000  -0.0000000  -0.0000000  -0.0000000  -0.0000000
 NQMom=    0.0000000   0.0000000   0.0000000   0.0000000   0.0000000   0.0000000   0.0000000   0.0000000   0.0000000   0.0000000
 NMagM=    2.7928460   2.7928460   2.7928460   2.7928460   2.7928460   2.7928460   2.7928460   2.7928460   2.7928460   2.7928460
 AtZNuc=   1.0000000   1.0000000   1.0000000   1.0000000   1.0000000   1.0000000   1.0000000   1.0000000   1.0000000   1.0000000

  Atom       111         112         113         114         115         116         117         118         119         120
 IAtWgt=           1           1           1           1           1           1           1           1           1           1
 AtmWgt=   1.0078250   1.0078250   1.0078250   1.0078250   1.0078250   1.0078250   1.0078250   1.0078250   1.0078250   1.0078250
 NucSpn=           1           1           1           1           1           1           1           1           1           1
 AtZEff=  -0.0000000  -0.0000000  -0.0000000  -0.0000000  -0.0000000  -0.0000000  -0.0000000  -0.0000000  -0.0000000  -0.0000000
 NQMom=    0.0000000   0.0000000   0.0000000   0.0000000   0.0000000   0.0000000   0.0000000   0.0000000   0.0000000   0.0000000
 NMagM=    2.7928460   2.7928460   2.7928460   2.7928460   2.7928460   2.7928460   2.7928460   2.7928460   2.7928460   2.7928460
 AtZNuc=   1.0000000   1.0000000   1.0000000   1.0000000   1.0000000   1.0000000   1.0000000   1.0000000   1.0000000   1.0000000

  Atom       121         122         123         124         125         126         127         128         129         130
 IAtWgt=           1           1           1           1           1           1           1           1           1           1
 AtmWgt=   1.0078250   1.0078250   1.0078250   1.0078250   1.0078250   1.0078250   1.0078250   1.0078250   1.0078250   1.0078250
 NucSpn=           1           1           1           1           1           1           1           1           1           1
 AtZEff=  -0.0000000  -0.0000000  -0.0000000  -0.0000000  -0.0000000  -0.0000000  -0.0000000  -0.0000000  -0.0000000  -0.0000000
 NQMom=    0.0000000   0.0000000   0.0000000   0.0000000   0.0000000   0.0000000   0.0000000   0.0000000   0.0000000   0.0000000
 NMagM=    2.7928460   2.7928460   2.7928460   2.7928460   2.7928460   2.7928460   2.7928460   2.7928460   2.7928460   2.7928460
 AtZNuc=   1.0000000   1.0000000   1.0000000   1.0000000   1.0000000   1.0000000   1.0000000   1.0000000   1.0000000   1.0000000

  Atom       131         132         133         134         135         136         137         138         139         140
 IAtWgt=           1           1           1           1           1           1           1           1           1           1
 AtmWgt=   1.0078250   1.0078250   1.0078250   1.0078250   1.0078250   1.0078250   1.0078250   1.0078250   1.0078250   1.0078250
 NucSpn=           1           1           1           1           1           1           1           1           1           1
 AtZEff=  -0.0000000  -0.0000000  -0.0000000  -0.0000000  -0.0000000  -0.0000000  -0.0000000  -0.0000000  -0.0000000  -0.0000000
 NQMom=    0.0000000   0.0000000   0.0000000   0.0000000   0.0000000   0.0000000   0.0000000   0.0000000   0.0000000   0.0000000
 NMagM=    2.7928460   2.7928460   2.7928460   2.7928460   2.7928460   2.7928460   2.7928460   2.7928460   2.7928460   2.7928460
 AtZNuc=   1.0000000   1.0000000   1.0000000   1.0000000   1.0000000   1.0000000   1.0000000   1.0000000   1.0000000   1.0000000
 Leave Link  101 at Wed Apr 27 03:47:43 2022, MaxMem=  6710886400 cpu:               2.8 elap:               0.1
 (Enter /sw/apps/gaussian-16.0/g16/l202.exe)
 Stoichiometry    C55H74MgN4O6
 Framework group  C1[X(C55H74MgN4O6)]
 Deg. of freedom   414
 Full point group                 C1      NOp   1
 Largest Abelian subgroup         C1      NOp   1
 Largest concise Abelian subgroup C1      NOp   1
                         Standard orientation:                         
 ---------------------------------------------------------------------
 Center     Atomic      Atomic             Coordinates (Angstroms)
 Number     Number       Type             X           Y           Z
 ---------------------------------------------------------------------
      1         12           0        5.115569    1.096743    0.088200
      2          6           0        4.843177   -2.331073    0.260265
      3          6           0        1.745396    1.327064   -0.035167
      4          6           0        5.454752    4.367260   -0.159424
      5          6           0        8.660851    0.783844    0.159023
      6          7           0        3.524094   -0.408790    0.176114
      7          6           0        3.573299   -1.691971    0.364380
      8          6           0        2.227107   -2.344749    0.474238
      9          6           0        1.286717   -1.248753   -0.104588
     10          6           0        2.209994   -0.026216   -0.029466
     11          6           0        0.647632   -1.512197   -1.487902
     12          6           0        1.877204   -2.788839    1.898828
     13          6           0        1.272539   -4.195558    1.990354
     14          6           0        0.259996   -4.605921    0.872973
     15          8           0        0.328023   -5.607158    0.136833
     16          8           0       -0.809057   -3.681187    0.806554
     17          7           0        3.721786    2.651079    0.071695
     18          6           0        2.392697    2.547630   -0.001938
     19          6           0        1.796848    3.891181   -0.006076
     20          6           0        2.874893    4.781985   -0.160043
     21          6           0        4.092473    3.911680   -0.129442
     22          6           0        0.291770    4.072989    0.088187
     23          6           0        2.933577    6.226566   -0.379704
     24          8           0        3.961546    6.829289   -0.497393
     25          6           0        1.674030    6.980827   -0.371427
     26          7           0        6.901640    2.432905   -0.134696
     27          6           0        6.655862    3.726991    0.005754
     28          6           0        8.043232    4.505343   -0.052680
     29          6           0        9.093277    3.323973    0.002530
     30          6           0        8.203852    2.111141    0.081914
     31          6           0        8.393973    5.575923   -1.081145
     32          6           0       10.198294    3.420840    1.205166
     33          6           0       11.619994    3.696233    0.874452
     34          7           0        6.506344   -0.412429   -0.058865
     35          6           0        7.907600   -0.399347   -0.017943
     36          6           0        8.356071   -1.810375   -0.058568
     37          6           0        7.148670   -2.622913    0.034814
     38          6           0        6.069576   -1.693993   -0.023442
     39          6           0        9.828286   -2.234719   -0.012653
     40          6           0        6.643004   -3.998363    0.266992
     41          8           0        7.108199   -5.092845    0.420131
     42          6           0        5.125991   -3.782020    0.248384
     43          6           0        4.694266   -4.457257   -1.030058
     44          8           0        5.189523   -4.397503   -2.130454
     45          8           0        3.648347   -5.294186   -0.738765
     46          6           0        3.233030   -6.285309   -1.722703
     47          6           0       -1.964142   -4.157593    0.018586
     48          6           0       -3.016048   -3.056424   -0.234085
     49          6           0       -4.152059   -3.101962   -0.954582
     50          6           0       -4.651632   -4.334332   -1.684966
     51          6           0       -5.152957   -1.896068   -1.093477
     52          6           0       -6.407686   -1.860899   -0.204350
     53          6           0       -6.495626   -0.542950    0.644266
     54          6           0       -7.829756    0.247809    0.445188
     55          6           0       -7.749270    1.560892    1.189392
     56          6           0       -8.958846   -0.700420    1.167156
     57          6           0      -10.290436   -0.793956    0.462584
     58          6           0      -11.431136   -0.690304    1.408468
     59          6           0      -12.292759    0.559560    1.266936
     60          6           0      -13.065778    0.792926    2.611193
     61          6           0      -13.407671    0.372434    0.175099
     62          6           0      -13.718592    1.718623   -0.504361
     63          6           0      -15.011358    2.361935    0.050857
     64          6           0      -16.071095    2.631446   -0.971595
     65          6           0      -16.670346    1.317537   -1.506299
     66          6           0      -15.676986    3.628081   -2.076371
     67          1           0        0.660884    1.451893   -0.023138
     68          1           0        5.648759    5.438795   -0.234471
     69          1           0        9.724429    0.538900    0.199254
     70          1           0        2.251775   -3.159737   -0.248438
     71          1           0        0.432595   -1.158679    0.567214
     72          1           0        0.575570   -2.560983   -1.774557
     73          1           0        1.264313   -0.963588   -2.199760
     74          1           0       -0.378670   -1.149380   -1.546525
     75          1           0        1.173006   -2.168798    2.453995
     76          1           0        2.761491   -2.734314    2.532557
     77          1           0        0.856058   -4.336013    2.987223
     78          1           0        2.118114   -4.876937    1.891544
     79          1           0       -0.291606    3.180960    0.315089
     80          1           0       -0.089805    4.507485   -0.836494
     81          1           0        0.117673    4.783622    0.895308
     82          1           0        1.108211    6.661399    0.503882
     83          1           0        1.037829    6.780745   -1.234529
     84          1           0        1.932180    8.025828   -0.197781
     85          1           0        8.054986    5.080696    0.872842
     86          1           0        9.661299    3.255077   -0.925849
     87          1           0        8.306139    6.610481   -0.749050
     88          1           0        8.031685    5.393253   -2.092147
     89          1           0        9.470114    5.421623   -1.167001
     90          1           0       10.187581    2.514959    1.810884
     91          1           0        9.916429    4.260364    1.841556
     92          1           0       11.849697    4.761826    0.865471
     93          1           0       11.801846    3.278760   -0.115728
     94          1           0       12.333317    3.336100    1.615995
     95          1           0        9.661307   -3.181451    0.501173
     96          1           0       10.483114   -1.613851    0.598779
     97          1           0       10.198049   -2.456811   -1.014103
     98          1           0        4.718628   -4.369693    1.071031
     99          1           0        2.207472   -6.605133   -1.534099
    100          1           0        3.858441   -7.176754   -1.686078
    101          1           0        3.150181   -5.780728   -2.685690
    102          1           0       -2.411121   -4.926641    0.649093
    103          1           0       -1.695089   -4.635894   -0.923296
    104          1           0       -2.772431   -2.073226    0.166892
    105          1           0       -5.715634   -4.458574   -1.479189
    106          1           0       -4.116651   -5.228057   -1.365067
    107          1           0       -4.543111   -4.159578   -2.755088
    108          1           0       -5.475259   -1.854625   -2.133595
    109          1           0       -4.677473   -0.921014   -0.983260
    110          1           0       -6.516893   -2.645374    0.544533
    111          1           0       -7.304774   -2.124957   -0.763034
    112          1           0       -5.722793    0.189413    0.409017
    113          1           0       -6.334421   -0.795689    1.692087
    114          1           0       -8.098386    0.326311   -0.608306
    115          1           0       -7.333531    1.399926    2.184017
    116          1           0       -8.761939    1.916403    1.380478
    117          1           0       -7.210606    2.184746    0.475157
    118          1           0       -9.019246   -0.445774    2.225471
    119          1           0       -8.651369   -1.746117    1.166564
    120          1           0      -10.221573   -1.749901   -0.057005
    121          1           0      -10.314322   -0.035224   -0.320193
    122          1           0      -11.110426   -0.886649    2.431987
    123          1           0      -11.984726   -1.614668    1.240493
    124          1           0      -11.700182    1.462506    1.124398
    125          1           0      -13.882530    1.503929    2.488087
    126          1           0      -12.537436    1.463952    3.288272
    127          1           0      -13.532108   -0.077258    3.072907
    128          1           0      -14.319823   -0.039222    0.606273
    129          1           0      -13.078152   -0.349933   -0.571165
    130          1           0      -13.731007    1.591621   -1.586506
    131          1           0      -12.880668    2.342971   -0.191455
    132          1           0      -14.772947    3.288907    0.571894
    133          1           0      -15.448429    1.708019    0.805885
    134          1           0      -16.871324    3.068474   -0.374676
    135          1           0      -16.082295    0.453625   -1.196923
    136          1           0      -16.726272    1.394226   -2.591706
    137          1           0      -17.696505    1.168106   -1.170006
    138          1           0      -16.236815    4.563612   -2.060078
    139          1           0      -15.974696    3.232837   -3.047885
    140          1           0      -14.601153    3.797907   -2.057980
 ---------------------------------------------------------------------
 Rotational constants (GHZ):           0.0445247           0.0095108           0.0080428
 Leave Link  202 at Wed Apr 27 03:47:43 2022, MaxMem=  6710886400 cpu:               1.6 elap:               0.1
 (Enter /sw/apps/gaussian-16.0/g16/l301.exe)
 Standard basis: VSTO-6G (5D, 7F)
 Ernie: Thresh=  0.10000D-02 Tol=  0.10000D-05 Strict=F.
 There are   338 symmetry adapted cartesian basis functions of A   symmetry.
 There are   338 symmetry adapted basis functions of A   symmetry.
   338 basis functions,  2028 primitive gaussians,   338 cartesian basis functions
   176 alpha electrons      176 beta electrons
       nuclear repulsion energy      4782.7706784753 Hartrees.
 IExCor=    0 DFT=F Ex=HF Corr=None ExCW=0 ScaHFX=  1.000000
 ScaDFX=  1.000000  1.000000  1.000000  1.000000 ScalE2=  1.000000  1.000000
 IRadAn=      5 IRanWt=     -1 IRanGd=            0 ICorTp=0 IEmpDi=  4
 Integral buffers will be    131072 words long.
 Regular integral format.
 Two-electron integral symmetry is turned off.
 Leave Link  301 at Wed Apr 27 03:47:43 2022, MaxMem=  6710886400 cpu:               2.0 elap:               0.1
 (Enter /sw/apps/gaussian-16.0/g16/l302.exe)
 Do NDO integrals.
 NPDir=0 NMtPBC=     1 NCelOv=     1 NCel=       1 NClECP=     1 NCelD=      1
         NCelK=      1 NCelE2=     1 NClLst=     1 CellRange=     0.0.
 One-electron integrals computed using PRISM.
 Generate ZINDO/S integrals.
 NDO Nuclear repulsion=  4295.225671932571 Hartrees.
 NBasis=   338 RedAO= F EigKep=  0.00D+00  NBF=   338
 NBsUse=   338 1.00D-04 EigRej=  0.00D+00 NBFU=   338
 Leave Link  302 at Wed Apr 27 03:47:43 2022, MaxMem=  6710886400 cpu:               7.8 elap:               0.3
 (Enter /sw/apps/gaussian-16.0/g16/l303.exe)
 DipDrv:  MaxL=1.
 DipDrv:  will hold  3 matrices at once.
 Leave Link  303 at Wed Apr 27 03:47:43 2022, MaxMem=  6710886400 cpu:               0.6 elap:               0.0
 (Enter /sw/apps/gaussian-16.0/g16/l308.exe)
 Leave Link  308 at Wed Apr 27 03:47:44 2022, MaxMem=  6710886400 cpu:               4.3 elap:               0.2
 (Enter /sw/apps/gaussian-16.0/g16/l401.exe)
 Simple Huckel Guess.
 JPrj=0 DoOrth=F DoCkMO=F.
 Leave Link  401 at Wed Apr 27 03:47:44 2022, MaxMem=  6710886400 cpu:               3.6 elap:               0.2
 (Enter /sw/apps/gaussian-16.0/g16/l502.exe)
 Two-electron integral symmetry not used.
 Closed shell SCF:
 Using DIIS extrapolation, IDIIS=  1040.
 Overlap will be assumed to be unity.
 NGot=  6710886400 LenX=  6710643598 LenY=  6710528913
 Requested convergence on RMS density matrix=1.00D-08 within 128 cycles.
 Requested convergence on MAX density matrix=1.00D-06.
 Requested convergence on             energy=1.00D-06.
 No special actions if energy rises.
 Fock matrices will be formed incrementally for  20 cycles.

 Cycle   1  Pass 1  IDiag  1:
 E= -472.548277637690    
 DIIS: error= 5.54D-02 at cycle   1 NSaved=   1.
 NSaved= 1 IEnMin= 1 EnMin= -472.548277637690     IErMin= 1 ErrMin= 5.54D-02
 ErrMax= 5.54D-02  0.00D+00 EMaxC= 1.00D-01 BMatC= 8.34D-01 BMatP= 8.34D-01
 IDIUse=3 WtCom= 4.46D-01 WtEn= 5.54D-01
 Coeff-Com:  0.100D+01
 Coeff-En:   0.100D+01
 Coeff:      0.100D+01
 GapD=    2.000 DampG=2.000 DampE=0.500 DampFc=1.0000 IDamp=-1.
 RMSDP=4.02D-03 MaxDP=1.62D-01              OVMax= 0.00D+00

 Cycle   2  Pass 1  IDiag  1:
 RMSU=  4.01D-03    CP:  9.95D-01
 E= -474.380571577503     Delta-E=       -1.832293939813 Rises=F Damp=F
 DIIS: error= 2.02D-02 at cycle   2 NSaved=   2.
 NSaved= 2 IEnMin= 2 EnMin= -474.380571577503     IErMin= 2 ErrMin= 2.02D-02
 ErrMax= 2.02D-02  0.00D+00 EMaxC= 1.00D-01 BMatC= 5.30D-02 BMatP= 8.34D-01
 IDIUse=3 WtCom= 7.98D-01 WtEn= 2.02D-01
 Coeff-Com: -0.725D-01 0.107D+01
 Coeff-En:   0.000D+00 0.100D+01
 Coeff:     -0.578D-01 0.106D+01
 RMSDP=1.16D-03 MaxDP=4.88D-02 DE=-1.83D+00 OVMax= 0.00D+00

 Cycle   3  Pass 1  IDiag  1:
 RMSU=  1.10D-03    CP:  9.93D-01  1.09D+00
 E= -474.482892324892     Delta-E=       -0.102320747389 Rises=F Damp=F
 DIIS: error= 8.30D-03 at cycle   3 NSaved=   3.
 NSaved= 3 IEnMin= 3 EnMin= -474.482892324892     IErMin= 3 ErrMin= 8.30D-03
 ErrMax= 8.30D-03  0.00D+00 EMaxC= 1.00D-01 BMatC= 7.88D-03 BMatP= 5.30D-02
 IDIUse=3 WtCom= 9.17D-01 WtEn= 8.30D-02
 Coeff-Com: -0.690D-01 0.254D+00 0.815D+00
 Coeff-En:   0.000D+00 0.000D+00 0.100D+01
 Coeff:     -0.633D-01 0.233D+00 0.831D+00
 RMSDP=4.51D-04 MaxDP=1.96D-02 DE=-1.02D-01 OVMax= 0.00D+00

 Cycle   4  Pass 1  IDiag  1:
 RMSU=  2.99D-04    CP:  9.93D-01  1.16D+00  8.58D-01
 E= -474.497175762179     Delta-E=       -0.014283437286 Rises=F Damp=F
 DIIS: error= 1.49D-03 at cycle   4 NSaved=   4.
 NSaved= 4 IEnMin= 4 EnMin= -474.497175762179     IErMin= 4 ErrMin= 1.49D-03
 ErrMax= 1.49D-03  0.00D+00 EMaxC= 1.00D-01 BMatC= 4.26D-04 BMatP= 7.88D-03
 IDIUse=3 WtCom= 9.85D-01 WtEn= 1.49D-02
 Coeff-Com: -0.530D-02-0.174D-01 0.996D-01 0.923D+00
 Coeff-En:   0.000D+00 0.000D+00 0.000D+00 0.100D+01
 Coeff:     -0.522D-02-0.171D-01 0.982D-01 0.924D+00
 RMSDP=1.44D-04 MaxDP=8.72D-03 DE=-1.43D-02 OVMax= 0.00D+00

 Cycle   5  Pass 1  IDiag  1:
 RMSU=  9.27D-05    CP:  9.92D-01  1.16D+00  9.56D-01  9.53D-01
 E= -474.498356314080     Delta-E=       -0.001180551902 Rises=F Damp=F
 DIIS: error= 5.41D-04 at cycle   5 NSaved=   5.
 NSaved= 5 IEnMin= 5 EnMin= -474.498356314080     IErMin= 5 ErrMin= 5.41D-04
 ErrMax= 5.41D-04  0.00D+00 EMaxC= 1.00D-01 BMatC= 6.51D-05 BMatP= 4.26D-04
 IDIUse=3 WtCom= 9.95D-01 WtEn= 5.41D-03
 Coeff-Com:  0.647D-02-0.286D-01-0.910D-01 0.168D+00 0.945D+00
 Coeff-En:   0.000D+00 0.000D+00 0.000D+00 0.000D+00 0.100D+01
 Coeff:      0.643D-02-0.284D-01-0.905D-01 0.167D+00 0.946D+00
 RMSDP=7.72D-05 MaxDP=4.13D-03 DE=-1.18D-03 OVMax= 0.00D+00

 Cycle   6  Pass 1  IDiag  1:
 RMSU=  4.05D-05    CP:  9.92D-01  1.17D+00  9.62D-01  1.17D+00  1.05D+00
 E= -474.498609688855     Delta-E=       -0.000253374775 Rises=F Damp=F
 DIIS: error= 2.43D-04 at cycle   6 NSaved=   6.
 NSaved= 6 IEnMin= 6 EnMin= -474.498609688855     IErMin= 6 ErrMin= 2.43D-04
 ErrMax= 2.43D-04  0.00D+00 EMaxC= 1.00D-01 BMatC= 9.77D-06 BMatP= 6.51D-05
 IDIUse=3 WtCom= 9.98D-01 WtEn= 2.43D-03
 Coeff-Com:  0.647D-03 0.224D-02-0.234D-01-0.932D-01 0.147D+00 0.967D+00
 Coeff-En:   0.000D+00 0.000D+00 0.000D+00 0.000D+00 0.000D+00 0.100D+01
 Coeff:      0.646D-03 0.223D-02-0.233D-01-0.930D-01 0.147D+00 0.967D+00
 RMSDP=3.05D-05 MaxDP=1.42D-03 DE=-2.53D-04 OVMax= 0.00D+00

 Cycle   7  Pass 1  IDiag  1:
 RMSU=  1.47D-05    CP:  9.92D-01  1.17D+00  9.68D-01  1.20D+00  1.23D+00
                    CP:  1.38D+00
 E= -474.498657551369     Delta-E=       -0.000047862514 Rises=F Damp=F
 DIIS: error= 1.03D-04 at cycle   7 NSaved=   7.
 NSaved= 7 IEnMin= 7 EnMin= -474.498657551369     IErMin= 7 ErrMin= 1.03D-04
 ErrMax= 1.03D-04  0.00D+00 EMaxC= 1.00D-01 BMatC= 1.62D-06 BMatP= 9.77D-06
 IDIUse=3 WtCom= 9.99D-01 WtEn= 1.03D-03
 Coeff-Com: -0.709D-03 0.362D-02 0.782D-02-0.310D-01-0.615D-01-0.840D-01
 Coeff-Com:  0.117D+01
 Coeff-En:   0.000D+00 0.000D+00 0.000D+00 0.000D+00 0.000D+00 0.000D+00
 Coeff-En:   0.100D+01
 Coeff:     -0.708D-03 0.362D-02 0.781D-02-0.310D-01-0.614D-01-0.840D-01
 Coeff:      0.117D+01
 RMSDP=2.84D-05 MaxDP=1.50D-03 DE=-4.79D-05 OVMax= 0.00D+00

 Cycle   8  Pass 1  IDiag  1:
 RMSU=  9.31D-06    CP:  9.92D-01  1.17D+00  9.68D-01  1.24D+00  1.30D+00
                    CP:  1.88D+00  1.87D+00
 E= -474.498681189229     Delta-E=       -0.000023637859 Rises=F Damp=F
 DIIS: error= 7.50D-05 at cycle   8 NSaved=   8.
 NSaved= 8 IEnMin= 8 EnMin= -474.498681189229     IErMin= 8 ErrMin= 7.50D-05
 ErrMax= 7.50D-05  0.00D+00 EMaxC= 1.00D-01 BMatC= 1.19D-06 BMatP= 1.62D-06
 IDIUse=1 WtCom= 1.00D+00 WtEn= 0.00D+00
 Coeff-Com:  0.186D-04-0.147D-02 0.444D-02 0.237D-01 0.121D-01-0.363D+00
 Coeff-Com:  0.206D+00 0.112D+01
 Coeff:      0.186D-04-0.147D-02 0.444D-02 0.237D-01 0.121D-01-0.363D+00
 Coeff:      0.206D+00 0.112D+01
 RMSDP=2.48D-05 MaxDP=1.16D-03 DE=-2.36D-05 OVMax= 0.00D+00

 Cycle   9  Pass 1  IDiag  1:
 RMSU=  3.65D-06    CP:  9.92D-01  1.17D+00  9.67D-01  1.26D+00  1.36D+00
                    CP:  2.27D+00  2.90D+00  1.84D+00
 E= -474.498698235284     Delta-E=       -0.000017046055 Rises=F Damp=F
 DIIS: error= 5.38D-05 at cycle   9 NSaved=   9.
 NSaved= 9 IEnMin= 9 EnMin= -474.498698235284     IErMin= 9 ErrMin= 5.38D-05
 ErrMax= 5.38D-05  0.00D+00 EMaxC= 1.00D-01 BMatC= 6.26D-07 BMatP= 1.19D-06
 IDIUse=1 WtCom= 1.00D+00 WtEn= 0.00D+00
 Coeff-Com:  0.403D-03-0.162D-02-0.527D-02 0.776D-03 0.652D-01 0.552D-01
 Coeff-Com: -0.448D+00-0.111D+01 0.245D+01
 Coeff:      0.403D-03-0.162D-02-0.527D-02 0.776D-03 0.652D-01 0.552D-01
 Coeff:     -0.448D+00-0.111D+01 0.245D+01
 RMSDP=4.90D-05 MaxDP=2.22D-03 DE=-1.70D-05 OVMax= 0.00D+00

 Cycle  10  Pass 1  IDiag  1:
 RMSU=  2.90D-05    CP:  9.92D-01  1.17D+00  9.65D-01  1.30D+00  1.43D+00
                    CP:  3.00D+00  3.00D+00  3.00D+00  3.00D+00
 E= -474.498720781992     Delta-E=       -0.000022546708 Rises=F Damp=F
 DIIS: error= 3.69D-05 at cycle  10 NSaved=  10.
 NSaved=10 IEnMin=10 EnMin= -474.498720781992     IErMin=10 ErrMin= 3.69D-05
 ErrMax= 3.69D-05  0.00D+00 EMaxC= 1.00D-01 BMatC= 2.44D-07 BMatP= 6.26D-07
 IDIUse=1 WtCom= 1.00D+00 WtEn= 0.00D+00
 Coeff-Com: -0.124D-03 0.133D-02-0.101D-02-0.214D-01 0.773D-03 0.153D+00
 Coeff-Com:  0.119D+00-0.667D+00-0.285D+00 0.170D+01
 Coeff:     -0.124D-03 0.133D-02-0.101D-02-0.214D-01 0.773D-03 0.153D+00
 Coeff:      0.119D+00-0.667D+00-0.285D+00 0.170D+01
 RMSDP=3.86D-05 MaxDP=1.67D-03 DE=-2.25D-05 OVMax= 0.00D+00

 Cycle  11  Pass 1  IDiag  1:
 RMSU=  2.49D-05    CP:  9.92D-01  1.17D+00  9.64D-01  1.33D+00  1.49D+00
                    CP:  3.00D+00  3.00D+00  3.00D+00  3.00D+00  1.95D+00
 E= -474.498729647967     Delta-E=       -0.000008865974 Rises=F Damp=F
 DIIS: error= 1.83D-05 at cycle  11 NSaved=  11.
 NSaved=11 IEnMin=11 EnMin= -474.498729647967     IErMin=11 ErrMin= 1.83D-05
 ErrMax= 1.83D-05  0.00D+00 EMaxC= 1.00D-01 BMatC= 4.10D-08 BMatP= 2.44D-07
 IDIUse=1 WtCom= 1.00D+00 WtEn= 0.00D+00
 Coeff-Com: -0.110D-03 0.499D-03 0.156D-02-0.365D-02-0.117D-01-0.130D-01
 Coeff-Com:  0.144D+00 0.276D+00-0.714D+00 0.355D-01 0.129D+01
 Coeff:     -0.110D-03 0.499D-03 0.156D-02-0.365D-02-0.117D-01-0.130D-01
 Coeff:      0.144D+00 0.276D+00-0.714D+00 0.355D-01 0.129D+01
 RMSDP=1.62D-05 MaxDP=7.04D-04 DE=-8.87D-06 OVMax= 0.00D+00

 Cycle  12  Pass 1  IDiag  1:
 RMSU=  1.90D-06    CP:  9.92D-01  1.17D+00  9.63D-01  1.34D+00  1.51D+00
                    CP:  3.00D+00  3.00D+00  3.00D+00  3.00D+00  2.35D+00
                    CP:  1.42D+00
 E= -474.498731004223     Delta-E=       -0.000001356257 Rises=F Damp=F
 DIIS: error= 7.75D-06 at cycle  12 NSaved=  12.
 NSaved=12 IEnMin=12 EnMin= -474.498731004223     IErMin=12 ErrMin= 7.75D-06
 ErrMax= 7.75D-06  0.00D+00 EMaxC= 1.00D-01 BMatC= 9.04D-09 BMatP= 4.10D-08
 IDIUse=1 WtCom= 1.00D+00 WtEn= 0.00D+00
 Coeff-Com:  0.331D-04-0.304D-03 0.273D-03 0.371D-02 0.249D-02-0.342D-01
 Coeff-Com: -0.354D-01 0.160D+00 0.708D-01-0.444D+00 0.793D-01 0.120D+01
 Coeff:      0.331D-04-0.304D-03 0.273D-03 0.371D-02 0.249D-02-0.342D-01
 Coeff:     -0.354D-01 0.160D+00 0.708D-01-0.444D+00 0.793D-01 0.120D+01
 RMSDP=5.54D-06 MaxDP=2.73D-04 DE=-1.36D-06 OVMax= 0.00D+00

 Cycle  13  Pass 1  IDiag  1:
 RMSU=  6.99D-07    CP:  9.92D-01  1.17D+00  9.62D-01  1.34D+00  1.51D+00
                    CP:  3.00D+00  3.00D+00  3.00D+00  3.00D+00  2.48D+00
                    CP:  1.56D+00  1.49D+00
 E= -474.498731148666     Delta-E=       -0.000000144442 Rises=F Damp=F
 DIIS: error= 2.96D-06 at cycle  13 NSaved=  13.
 NSaved=13 IEnMin=13 EnMin= -474.498731148666     IErMin=13 ErrMin= 2.96D-06
 ErrMax= 2.96D-06  0.00D+00 EMaxC= 1.00D-01 BMatC= 9.96D-10 BMatP= 9.04D-09
 IDIUse=1 WtCom= 1.00D+00 WtEn= 0.00D+00
 Coeff-Com:  0.227D-04-0.135D-03-0.177D-03 0.107D-02 0.330D-02-0.570D-02
 Coeff-Com: -0.310D-01-0.702D-02 0.122D+00-0.920D-01-0.132D+00 0.154D+00
 Coeff-Com:  0.987D+00
 Coeff:      0.227D-04-0.135D-03-0.177D-03 0.107D-02 0.330D-02-0.570D-02
 Coeff:     -0.310D-01-0.702D-02 0.122D+00-0.920D-01-0.132D+00 0.154D+00
 Coeff:      0.987D+00
 RMSDP=5.81D-07 MaxDP=3.19D-05 DE=-1.44D-07 OVMax= 0.00D+00

 Cycle  14  Pass 1  IDiag  1:
 RMSU=  2.44D-07    CP:  9.92D-01  1.17D+00  9.62D-01  1.34D+00  1.51D+00
                    CP:  3.00D+00  3.00D+00  3.00D+00  3.00D+00  2.49D+00
                    CP:  1.57D+00  1.67D+00  1.31D+00
 E= -474.498731157561     Delta-E=       -0.000000008896 Rises=F Damp=F
 DIIS: error= 1.73D-06 at cycle  14 NSaved=  14.
 NSaved=14 IEnMin=14 EnMin= -474.498731157561     IErMin=14 ErrMin= 1.73D-06
 ErrMax= 1.73D-06  0.00D+00 EMaxC= 1.00D-01 BMatC= 2.97D-10 BMatP= 9.96D-10
 IDIUse=1 WtCom= 1.00D+00 WtEn= 0.00D+00
 Coeff-Com: -0.112D-04 0.832D-04-0.942D-05-0.992D-03-0.600D-03 0.623D-02
 Coeff-Com:  0.121D-01-0.233D-01-0.367D-01 0.793D-01 0.394D-01-0.256D+00
 Coeff-Com: -0.228D+00 0.141D+01
 Coeff:     -0.112D-04 0.832D-04-0.942D-05-0.992D-03-0.600D-03 0.623D-02
 Coeff:      0.121D-01-0.233D-01-0.367D-01 0.793D-01 0.394D-01-0.256D+00
 Coeff:     -0.228D+00 0.141D+01
 RMSDP=5.21D-07 MaxDP=2.45D-05 DE=-8.90D-09 OVMax= 0.00D+00

 Cycle  15  Pass 1  IDiag  1:
 RMSU=  1.37D-07    CP:  9.92D-01  1.17D+00  9.62D-01  1.34D+00  1.51D+00
                    CP:  3.00D+00  3.00D+00  3.00D+00  3.00D+00  2.50D+00
                    CP:  1.58D+00  1.75D+00  1.65D+00  2.09D+00
 E= -474.498731162343     Delta-E=       -0.000000004781 Rises=F Damp=F
 DIIS: error= 7.29D-07 at cycle  15 NSaved=  15.
 NSaved=15 IEnMin=15 EnMin= -474.498731162343     IErMin=15 ErrMin= 7.29D-07
 ErrMax= 7.29D-07  0.00D+00 EMaxC= 1.00D-01 BMatC= 1.25D-10 BMatP= 2.97D-10
 IDIUse=1 WtCom= 1.00D+00 WtEn= 0.00D+00
 Coeff-Com: -0.659D-05 0.369D-04 0.745D-04-0.316D-03-0.975D-03 0.903D-03
 Coeff-Com:  0.104D-01 0.298D-02-0.344D-01 0.156D-01 0.590D-01-0.405D-01
 Coeff-Com: -0.354D+00-0.467D-01 0.139D+01
 Coeff:     -0.659D-05 0.369D-04 0.745D-04-0.316D-03-0.975D-03 0.903D-03
 Coeff:      0.104D-01 0.298D-02-0.344D-01 0.156D-01 0.590D-01-0.405D-01
 Coeff:     -0.354D+00-0.467D-01 0.139D+01
 RMSDP=3.56D-07 MaxDP=1.72D-05 DE=-4.78D-09 OVMax= 0.00D+00

 Cycle  16  Pass 1  IDiag  1:
 RMSU=  6.51D-08    CP:  9.92D-01  1.17D+00  9.62D-01  1.34D+00  1.51D+00
                    CP:  3.00D+00  3.00D+00  3.00D+00  3.00D+00  2.50D+00
                    CP:  1.58D+00  1.81D+00  1.88D+00  3.00D+00  1.93D+00
 E= -474.498731164572     Delta-E=       -0.000000002229 Rises=F Damp=F
 DIIS: error= 4.09D-07 at cycle  16 NSaved=  16.
 NSaved=16 IEnMin=16 EnMin= -474.498731164572     IErMin=16 ErrMin= 4.09D-07
 ErrMax= 4.09D-07  0.00D+00 EMaxC= 1.00D-01 BMatC= 3.34D-11 BMatP= 1.25D-10
 IDIUse=1 WtCom= 1.00D+00 WtEn= 0.00D+00
 Coeff-Com:  0.564D-05-0.389D-04-0.279D-05 0.424D-03 0.374D-03-0.249D-02
 Coeff-Com: -0.583D-02 0.602D-02 0.230D-01-0.386D-01-0.146D-01 0.917D-01
 Coeff-Com:  0.148D+00-0.437D+00-0.466D+00 0.169D+01
 Coeff:      0.564D-05-0.389D-04-0.279D-05 0.424D-03 0.374D-03-0.249D-02
 Coeff:     -0.583D-02 0.602D-02 0.230D-01-0.386D-01-0.146D-01 0.917D-01
 Coeff:      0.148D+00-0.437D+00-0.466D+00 0.169D+01
 RMSDP=3.02D-07 MaxDP=1.63D-05 DE=-2.23D-09 OVMax= 0.00D+00

 Cycle  17  Pass 1  IDiag  1:
 RMSU=  1.47D-07    CP:  9.92D-01  1.17D+00  9.62D-01  1.34D+00  1.51D+00
                    CP:  3.00D+00  3.00D+00  3.00D+00  3.00D+00  2.50D+00
                    CP:  1.58D+00  1.85D+00  2.05D+00  3.00D+00  2.88D+00
                    CP:  3.00D+00
 E= -474.498731165475     Delta-E=       -0.000000000903 Rises=F Damp=F
 DIIS: error= 2.26D-07 at cycle  17 NSaved=  17.
 NSaved=17 IEnMin=17 EnMin= -474.498731165475     IErMin=17 ErrMin= 2.26D-07
 ErrMax= 2.26D-07  0.00D+00 EMaxC= 1.00D-01 BMatC= 8.53D-12 BMatP= 3.34D-11
 IDIUse=1 WtCom= 1.00D+00 WtEn= 0.00D+00
 Coeff-Com:  0.153D-05-0.849D-05-0.195D-04 0.705D-04 0.223D-03-0.165D-03
 Coeff-Com: -0.240D-02-0.132D-02 0.911D-02-0.500D-02-0.853D-02 0.636D-03
 Coeff-Com:  0.809D-01 0.719D-02-0.380D+00 0.108D+00 0.119D+01
 Coeff:      0.153D-05-0.849D-05-0.195D-04 0.705D-04 0.223D-03-0.165D-03
 Coeff:     -0.240D-02-0.132D-02 0.911D-02-0.500D-02-0.853D-02 0.636D-03
 Coeff:      0.809D-01 0.719D-02-0.380D+00 0.108D+00 0.119D+01
 RMSDP=1.24D-07 MaxDP=5.94D-06 DE=-9.03D-10 OVMax= 0.00D+00

 Cycle  18  Pass 1  IDiag  1:
 RMSU=  7.74D-08    CP:  9.92D-01  1.17D+00  9.62D-01  1.34D+00  1.51D+00
                    CP:  3.00D+00  3.00D+00  3.00D+00  3.00D+00  2.50D+00
                    CP:  1.58D+00  1.86D+00  2.11D+00  3.00D+00  3.00D+00
                    CP:  3.00D+00  1.47D+00
 E= -474.498731165643     Delta-E=       -0.000000000168 Rises=F Damp=F
 DIIS: error= 2.43D-07 at cycle  18 NSaved=  18.
 NSaved=18 IEnMin=18 EnMin= -474.498731165643     IErMin=17 ErrMin= 2.26D-07
 ErrMax= 2.43D-07  0.00D+00 EMaxC= 1.00D-01 BMatC= 1.77D-12 BMatP= 8.53D-12
 IDIUse=1 WtCom= 1.00D+00 WtEn= 0.00D+00
 Coeff-Com: -0.195D-05 0.134D-04 0.431D-06-0.143D-03-0.122D-03 0.857D-03
 Coeff-Com:  0.186D-02-0.178D-02-0.758D-02 0.114D-01 0.728D-02-0.331D-01
 Coeff-Com: -0.445D-01 0.150D+00 0.159D+00-0.485D+00-0.214D+00 0.146D+01
 Coeff:     -0.195D-05 0.134D-04 0.431D-06-0.143D-03-0.122D-03 0.857D-03
 Coeff:      0.186D-02-0.178D-02-0.758D-02 0.114D-01 0.728D-02-0.331D-01
 Coeff:     -0.445D-01 0.150D+00 0.159D+00-0.485D+00-0.214D+00 0.146D+01
 RMSDP=4.90D-08 MaxDP=2.33D-06 DE=-1.68D-10 OVMax= 0.00D+00

 Cycle  19  Pass 1  IDiag  1:
 RMSU=  1.56D-08    CP:  9.92D-01  1.17D+00  9.62D-01  1.34D+00  1.51D+00
                    CP:  3.00D+00  3.00D+00  3.00D+00  3.00D+00  2.50D+00
                    CP:  1.58D+00  1.87D+00  2.13D+00  3.00D+00  3.00D+00
                    CP:  3.00D+00  1.60D+00  1.50D+00
 E= -474.498731165651     Delta-E=       -0.000000000008 Rises=F Damp=F
 DIIS: error= 1.13D-07 at cycle  19 NSaved=  19.
 NSaved=19 IEnMin=19 EnMin= -474.498731165651     IErMin=19 ErrMin= 1.13D-07
 ErrMax= 1.13D-07  0.00D+00 EMaxC= 1.00D-01 BMatC= 3.24D-13 BMatP= 1.77D-12
 IDIUse=1 WtCom= 1.00D+00 WtEn= 0.00D+00
 Coeff-Com: -0.309D-06 0.184D-05 0.418D-05-0.167D-04-0.436D-04 0.591D-04
 Coeff-Com:  0.397D-03 0.303D-03-0.178D-02 0.987D-03 0.198D-02-0.873D-03
 Coeff-Com: -0.148D-01-0.204D-02 0.591D-01 0.309D-02-0.272D+00 0.590D-01
 Coeff-Com:  0.117D+01
 Coeff:     -0.309D-06 0.184D-05 0.418D-05-0.167D-04-0.436D-04 0.591D-04
 Coeff:      0.397D-03 0.303D-03-0.178D-02 0.987D-03 0.198D-02-0.873D-03
 Coeff:     -0.148D-01-0.204D-02 0.591D-01 0.309D-02-0.272D+00 0.590D-01
 Coeff:      0.117D+01
 RMSDP=1.91D-08 MaxDP=9.69D-07 DE=-8.19D-12 OVMax= 0.00D+00

 Cycle  20  Pass 1  IDiag  1:
 RMSU=  3.49D-09    CP:  9.92D-01  1.17D+00  9.62D-01  1.34D+00  1.51D+00
                    CP:  3.00D+00  3.00D+00  3.00D+00  3.00D+00  2.50D+00
                    CP:  1.58D+00  1.87D+00  2.13D+00  3.00D+00  3.00D+00
                    CP:  3.00D+00  1.66D+00  1.68D+00  1.42D+00
 E= -474.498731165661     Delta-E=       -0.000000000010 Rises=F Damp=F
 DIIS: error= 5.22D-08 at cycle  20 NSaved=  20.
 NSaved=20 IEnMin=20 EnMin= -474.498731165661     IErMin=20 ErrMin= 5.22D-08
 ErrMax= 5.22D-08  0.00D+00 EMaxC= 1.00D-01 BMatC= 5.42D-14 BMatP= 3.24D-13
 IDIUse=1 WtCom= 1.00D+00 WtEn= 0.00D+00
 Coeff-Com:  0.388D-06-0.267D-05 0.271D-06 0.268D-04 0.265D-04-0.167D-03
 Coeff-Com: -0.384D-03 0.405D-03 0.140D-02-0.221D-02-0.137D-02 0.644D-02
 Coeff-Com:  0.879D-02-0.269D-01-0.369D-01 0.107D+00 0.248D-01-0.264D+00
 Coeff-Com: -0.513D-01 0.123D+01
 Coeff:      0.388D-06-0.267D-05 0.271D-06 0.268D-04 0.265D-04-0.167D-03
 Coeff:     -0.384D-03 0.405D-03 0.140D-02-0.221D-02-0.137D-02 0.644D-02
 Coeff:      0.879D-02-0.269D-01-0.369D-01 0.107D+00 0.248D-01-0.264D+00
 Coeff:     -0.513D-01 0.123D+01
 RMSDP=5.51D-09 MaxDP=5.50D-07 DE=-1.00D-11 OVMax= 0.00D+00

 SCF Done:  E(RZINDO/S) =  -474.498731166     A.U. after   20 cycles
            NFock= 20  Conv=0.55D-08     -V/T= 0.9488
 KE=-9.264906919604D+03 PE=-1.730350049911D-07 EE= 4.495182516679D+03
 Leave Link  502 at Wed Apr 27 03:47:45 2022, MaxMem=  6710886400 cpu:              18.8 elap:               0.8
 (Enter /sw/apps/gaussian-16.0/g16/l801.exe)
 Range of M.O.s used for correlation:     1   338
 NBasis=   338 NAE=   176 NBE=   176 NFC=     0 NFV=     0
 NROrb=    338 NOA=   176 NOB=   176 NVA=   162 NVB=   162
 Leave Link  801 at Wed Apr 27 03:47:45 2022, MaxMem=  6710886400 cpu:               0.5 elap:               0.0
 (Enter /sw/apps/gaussian-16.0/g16/l914.exe)
 RHF ground state
 Two-electron integral symmetry not used.
 MDV=  6710886400 DFT=F DoStab=F Mixed=F DoRPA=F DoScal=F NonHer=F
 Making orbital integer symmetry assigments:
 Orbital symmetries:
       Occupied  (A) (A) (A) (A) (A) (A) (A) (A) (A) (A) (A) (A)
                 (A) (A) (A) (A) (A) (A) (A) (A) (A) (A) (A) (A)
                 (A) (A) (A) (A) (A) (A) (A) (A) (A) (A) (A) (A)
                 (A) (A) (A) (A) (A) (A) (A) (A) (A) (A) (A) (A)
                 (A) (A) (A) (A) (A) (A) (A) (A) (A) (A) (A) (A)
                 (A) (A) (A) (A) (A) (A) (A) (A) (A) (A) (A) (A)
                 (A) (A) (A) (A) (A) (A) (A) (A) (A) (A) (A) (A)
                 (A) (A) (A) (A) (A) (A) (A) (A) (A) (A) (A) (A)
                 (A) (A) (A) (A) (A) (A) (A) (A) (A) (A) (A) (A)
                 (A) (A) (A) (A) (A) (A) (A) (A) (A) (A) (A) (A)
                 (A) (A) (A) (A) (A) (A) (A) (A) (A) (A) (A) (A)
                 (A) (A) (A) (A) (A) (A) (A) (A) (A) (A) (A) (A)
                 (A) (A) (A) (A) (A) (A) (A) (A) (A) (A) (A) (A)
                 (A) (A) (A) (A) (A) (A) (A) (A) (A) (A) (A) (A)
                 (A) (A) (A) (A) (A) (A) (A) (A)
       Virtual   (A) (A) (A) (A) (A) (A) (A) (A) (A) (A) (A) (A)
                 (A) (A) (A) (A) (A) (A) (A) (A) (A) (A) (A) (A)
                 (A) (A) (A) (A) (A) (A) (A) (A) (A) (A) (A) (A)
                 (A) (A) (A) (A) (A) (A) (A) (A) (A) (A) (A) (A)
                 (A) (A) (A) (A) (A) (A) (A) (A) (A) (A) (A) (A)
                 (A) (A) (A) (A) (A) (A) (A) (A) (A) (A) (A) (A)
                 (A) (A) (A) (A) (A) (A) (A) (A) (A) (A) (A) (A)
                 (A) (A) (A) (A) (A) (A) (A) (A) (A) (A) (A) (A)
                 (A) (A) (A) (A) (A) (A) (A) (A) (A) (A) (A) (A)
                 (A) (A) (A) (A) (A) (A) (A) (A) (A) (A) (A) (A)
                 (A) (A) (A) (A) (A) (A) (A) (A) (A) (A) (A) (A)
                 (A) (A) (A) (A) (A) (A) (A) (A) (A) (A) (A) (A)
                 (A) (A) (A) (A) (A) (A) (A) (A) (A) (A) (A) (A)
                 (A) (A) (A) (A) (A) (A)
    20 initial guesses have been made.
 Convergence on wavefunction:    0.001000000000000
 Davidson Disk Diagonalization:  ConvIn= 1.00D-03 SkipCon=T Conv= 1.00D-03.
 Max sub-space:  2000 roots to seek:    20 dimension of matrix:        57024
 Iteration     1 Dimension    20 NMult     0 NNew     20
 CISAX will form    20 AO SS matrices at one time.
 NMat=    20 NSing=    20 JSym2X= 0.
 New state      3 was old state      4
 New state      4 was old state      3
 New state      5 was old state     10
 Excitation Energies [eV] at current iteration:
 Root      1 :     1.617358644361294
 Root      2 :     2.095795506678496
 Root      3 :     3.278888070246922
 Root      4 :     3.428018739766796
 Root      5 :     3.534613429352845
 Root      6 :     3.611284340058358
 Root      7 :     3.667562727384785
 Root      8 :     3.768488355804036
 Root      9 :     3.880503157136368
 Root     10 :     4.027490750071241
 Root     11 :     4.123292108632235
 Root     12 :     4.162234973621336
 Root     13 :     4.366638045808401
 Root     14 :     4.392995771835418
 Root     15 :     4.474673211281409
 Root     16 :     4.569288831271710
 Root     17 :     4.672475405506356
 Root     18 :     5.296326087408514
 Root     19 :     5.322185575332261
 Root     20 :     5.522477476041909
 Iteration     2 Dimension    40 NMult    20 NNew     20
 CISAX will form    20 AO SS matrices at one time.
 NMat=    20 NSing=    20 JSym2X= 0.
 Root      1 not converged, maximum delta is    0.046761371516660
 Root      2 not converged, maximum delta is    0.029644262044775
 Root      3 not converged, maximum delta is    0.315060931597266
 Root      4 not converged, maximum delta is    0.381706139282190
 Root      5 not converged, maximum delta is    0.233370496789270
 Excitation Energies [eV] at current iteration:
 Root      1 :     1.289713424714290   Change is   -0.327645219647004
 Root      2 :     1.894828801695039   Change is   -0.200966704983457
 Root      3 :     2.959734246144852   Change is   -0.319153824102070
 Root      4 :     3.094647492789918   Change is   -0.333371246976878
 Root      5 :     3.317926533435966   Change is   -0.216686895916879
 Root      6 :     3.428791451445264   Change is   -0.238771275939521
 Root      7 :     3.487257862293438   Change is   -0.393245294842931
 Root      8 :     3.546005982115125   Change is   -0.222482373688911
 Root      9 :     3.601949717798479   Change is   -0.009334622259879
 Root     10 :     3.675400080095855   Change is   -0.352090669975386
 Root     11 :     3.826298035286927   Change is   -0.742990795984783
 Root     12 :     3.888372182528109   Change is   -0.273862791093228
 Root     13 :     4.056587548058450   Change is   -0.310050497749951
 Root     14 :     4.069997913869559   Change is   -0.053294194762676
 Root     15 :     4.224165928608486   Change is   -0.250507282672923
 Root     16 :     4.297764611682412   Change is   -0.095231160153006
 Root     17 :     4.408705154983011   Change is   -0.263770250523346
 Root     18 :     5.238672248295527   Change is   -0.083513327036734
 Root     19 :     5.285909844217110   Change is   -0.010416243191404
 Root     20 :     5.501020466035744   Change is   -0.021457010006166
 Iteration     3 Dimension    45 NMult    40 NNew      5
 CISAX will form     5 AO SS matrices at one time.
 NMat=     5 NSing=     5 JSym2X= 0.
 Root      1 not converged, maximum delta is    0.012680573521462
 Root      2 not converged, maximum delta is    0.021054180630757
 Root      3 not converged, maximum delta is    0.033114604976822
 Root      4 not converged, maximum delta is    0.031901076792251
 Root      5 not converged, maximum delta is    0.027417922908305
 Excitation Energies [eV] at current iteration:
 Root      1 :     1.272799506868749   Change is   -0.016913917845541
 Root      2 :     1.867206575374625   Change is   -0.027622226320414
 Root      3 :     2.934587199139782   Change is   -0.025147047005070
 Root      4 :     3.062213951490747   Change is   -0.032433541299170
 Root      5 :     3.280540402835409   Change is   -0.037386130600556
 Iteration     4 Dimension    50 NMult    45 NNew      5
 CISAX will form     5 AO SS matrices at one time.
 NMat=     5 NSing=     5 JSym2X= 0.
 Root      1 not converged, maximum delta is    0.001795230738140
 Root      2 not converged, maximum delta is    0.002565481878606
 Root      3 not converged, maximum delta is    0.006518254880747
 Root      4 not converged, maximum delta is    0.006359823133934
 Root      5 not converged, maximum delta is    0.011471877947459
 Excitation Energies [eV] at current iteration:
 Root      1 :     1.272103249595513   Change is   -0.000696257273235
 Root      2 :     1.866400315115993   Change is   -0.000806260258632
 Root      3 :     2.931946863185734   Change is   -0.002640335954047
 Root      4 :     3.058351076885014   Change is   -0.003862874605733
 Root      5 :     3.275953467699236   Change is   -0.004586935136173
 Iteration     5 Dimension    55 NMult    50 NNew      5
 CISAX will form     5 AO SS matrices at one time.
 NMat=     5 NSing=     5 JSym2X= 0.
 Root      1 has converged.
 Root      2 not converged, maximum delta is    0.001731228687454
 Root      3 not converged, maximum delta is    0.008562266084881
 Root      4 not converged, maximum delta is    0.011923186008640
 Root      5 not converged, maximum delta is    0.050566450902397
 Excitation Energies [eV] at current iteration:
 Root      1 :     1.272059144498042   Change is   -0.000044105097472
 Root      2 :     1.866292539694075   Change is   -0.000107775421917
 Root      3 :     2.930997690231901   Change is   -0.000949172953833
 Root      4 :     3.056287039807520   Change is   -0.002064037077494
 Root      5 :     3.265811061100820   Change is   -0.010142406598416
 Iteration     6 Dimension    59 NMult    55 NNew      4
 CISAX will form     4 AO SS matrices at one time.
 NMat=     4 NSing=     4 JSym2X= 0.
 Root      1 has converged.
 Root      2 has converged.
 Root      3 not converged, maximum delta is    0.024199498044377
 Root      4 not converged, maximum delta is    0.066608831884789
 Root      5 not converged, maximum delta is    0.511747170892519
 Excitation Energies [eV] at current iteration:
 Root      1 :     1.272058914445127   Change is   -0.000000230052914
 Root      2 :     1.866262091200270   Change is   -0.000030448493805
 Root      3 :     2.929583587295589   Change is   -0.001414102936312
 Root      4 :     3.047747808655811   Change is   -0.008539231151709
 Root      5 :     3.076399093217928   Change is   -0.189411967882892
 Iteration     7 Dimension    62 NMult    59 NNew      3
 CISAX will form     3 AO SS matrices at one time.
 NMat=     3 NSing=     3 JSym2X= 0.
 Root      1 has converged.
 Root      2 has converged.
 Root      3 not converged, maximum delta is    0.023864565370714
 New state      4 was old state      5
 Root      4 not converged, maximum delta is    0.183159183104721
 New state      5 was old state      4
 Root      5 not converged, maximum delta is    0.205436103582472
 Excitation Energies [eV] at current iteration:
 Root      1 :     1.272058789212681   Change is   -0.000000125232446
 Root      2 :     1.866258773526049   Change is   -0.000003317674221
 Root      3 :     2.928277019796704   Change is   -0.001306567498885
 Root      4 :     2.973592997228239   Change is   -0.102806095989689
 Root      5 :     3.025462946182889   Change is   -0.022284862472922
 Iteration     8 Dimension    65 NMult    62 NNew      3
 CISAX will form     3 AO SS matrices at one time.
 NMat=     3 NSing=     3 JSym2X= 0.
 Root      1 has converged.
 Root      2 has converged.
 Root      3 not converged, maximum delta is    0.007229492215861
 Root      4 not converged, maximum delta is    0.038308072826776
 Root      5 not converged, maximum delta is    0.059887225601160
 Excitation Energies [eV] at current iteration:
 Root      1 :     1.272058704117810   Change is   -0.000000085094871
 Root      2 :     1.866258406341706   Change is   -0.000000367184343
 Root      3 :     2.927901838623813   Change is   -0.000375181172890
 Root      4 :     2.958416667019095   Change is   -0.015176330209144
 Root      5 :     3.014531535265961   Change is   -0.010931410916928
 Iteration     9 Dimension    68 NMult    65 NNew      3
 CISAX will form     3 AO SS matrices at one time.
 NMat=     3 NSing=     3 JSym2X= 0.
 Root      1 has converged.
 Root      2 has converged.
 Root      3 not converged, maximum delta is    0.001978537564246
 Root      4 not converged, maximum delta is    0.008946836237096
 Root      5 not converged, maximum delta is    0.015400553593343
 Excitation Energies [eV] at current iteration:
 Root      1 :     1.272058680672399   Change is   -0.000000023445411
 Root      2 :     1.866258351436865   Change is   -0.000000054904841
 Root      3 :     2.927821450178124   Change is   -0.000080388445689
 Root      4 :     2.956117878720579   Change is   -0.002298788298516
 Root      5 :     3.011425179534419   Change is   -0.003106355731542
 Iteration    10 Dimension    71 NMult    68 NNew      3
 CISAX will form     3 AO SS matrices at one time.
 NMat=     3 NSing=     3 JSym2X= 0.
 Root      1 has converged.
 Root      2 has converged.
 Root      3 has converged.
 Root      4 not converged, maximum delta is    0.002475641015306
 Root      5 not converged, maximum delta is    0.006890019561305
 Excitation Energies [eV] at current iteration:
 Root      1 :     1.272058631107620   Change is   -0.000000049564778
 Root      2 :     1.866258341459411   Change is   -0.000000009977454
 Root      3 :     2.927800004596858   Change is   -0.000021445581266
 Root      4 :     2.955771716596463   Change is   -0.000346162124116
 Root      5 :     3.010421430782054   Change is   -0.001003748752365
 Iteration    11 Dimension    73 NMult    71 NNew      2
 CISAX will form     2 AO SS matrices at one time.
 NMat=     2 NSing=     2 JSym2X= 0.
 Root      1 has converged.
 Root      2 has converged.
 Root      3 has converged.
 Root      4 has converged.
 Root      5 not converged, maximum delta is    0.002941261896339
 Excitation Energies [eV] at current iteration:
 Root      1 :     1.272058621653234   Change is   -0.000000009454386
 Root      2 :     1.866258330253662   Change is   -0.000000011205749
 Root      3 :     2.927796042011689   Change is   -0.000003962585169
 Root      4 :     2.955725146331461   Change is   -0.000046570265001
 Root      5 :     3.010217592010465   Change is   -0.000203838771589
 Iteration    12 Dimension    74 NMult    73 NNew      1
 CISAX will form     1 AO SS matrices at one time.
 NMat=     1 NSing=     1 JSym2X= 0.
 Root      1 has converged.
 Root      2 has converged.
 Root      3 has converged.
 Root      4 has converged.
 Root      5 not converged, maximum delta is    0.001407518877276
 Excitation Energies [eV] at current iteration:
 Root      1 :     1.272058611769059   Change is   -0.000000009884176
 Root      2 :     1.866258326381187   Change is   -0.000000003872475
 Root      3 :     2.927795177010459   Change is   -0.000000865001230
 Root      4 :     2.955723645993938   Change is   -0.000001500337523
 Root      5 :     3.010174746543101   Change is   -0.000042845467364
 Iteration    13 Dimension    75 NMult    74 NNew      1
 CISAX will form     1 AO SS matrices at one time.
 NMat=     1 NSing=     1 JSym2X= 0.
 Root      1 has converged.
 Root      2 has converged.
 Root      3 has converged.
 Root      4 has converged.
 Root      5 has converged.
 Excitation Energies [eV] at current iteration:
 Root      1 :     1.272058577117741   Change is   -0.000000034651317
 Root      2 :     1.866258315143118   Change is   -0.000000011238069
 Root      3 :     2.927794959375148   Change is   -0.000000217635311
 Root      4 :     2.955723225424831   Change is   -0.000000420569108
 Root      5 :     3.010166704796251   Change is   -0.000008041746850
 Convergence achieved on expansion vectors.
 ***********************************************************************
 Excited states from <AA,BB:AA,BB> singles matrix:
 ***********************************************************************
 
 1PDM for each excited state written to RWF  633
 Ground to excited state transition densities written to RWF  633
 Ground to excited state transition electric dipole moments (Au):
       state          X           Y           Z        Dip. S.      Osc.
         1         3.0033     -2.9367      0.1258     17.6597      0.5504
         2         0.3792      0.5572     -0.1203      0.4688      0.0214
         3        -1.9674     -2.8312      0.1293     11.9027      0.8538
         4        -0.4981     -0.4847      0.0099      0.4832      0.0350
         5        -0.2290     -0.3687     -0.0202      0.1888      0.0139
 Ground to excited state transition velocity dipole moments (Au):
       state          X           Y           Z        Dip. S.      Osc.
         1         0.0568     -0.0192     -0.0084      0.0037      0.0522
         2        -0.0049     -0.0056     -0.0001      0.0001      0.0005
         3         0.0532      0.0972      0.0043      0.0123      0.0763
         4         0.0185      0.0093      0.0098      0.0005      0.0032
         5         0.0099      0.0018      0.0031      0.0001      0.0007
 Ground to excited state transition magnetic dipole moments (Au):
       state          X           Y           Z
         1        -0.0042      0.0893     -0.2705
         2         0.0263     -0.0162     -0.3687
         3        -0.0596     -0.0685      0.5726
         4        -0.5128     -0.5226      0.1792
         5         0.2177     -0.6112      0.2435
 Ground to excited state transition velocity quadrupole moments (Au):
       state          XX          YY          ZZ          XY          XZ          YZ
         1         1.1595      0.0075     -0.0161     -0.2032     -0.0649     -0.0401
         2        -0.1232      0.0153      0.0060     -0.0745     -0.0017      0.0195
         3         0.4933      0.3275     -0.0997      0.5811      0.0685     -0.1006
         4         0.3488     -0.1042     -0.0166      0.2180      0.0300      0.1156
         5         0.3935     -0.3022      0.0341      0.4171      0.0299     -0.0103
 <0|del|b> * <b|rxdel|0> + <0|del|b> * <b|delr+rdel|0>
 Rotatory Strengths (R) in cgs (10**-40 erg-esu-cm/Gauss)
       state          XX          YY          ZZ    R(velocity)    E-M Angle
         1         7.4790    -14.7610     11.8399      1.5193       89.00
         2         0.7160     -0.9603      0.3457      0.0338       90.00
         3       -27.6267    -28.1466      7.1907    -16.1942       96.60
         4        -4.0640    -25.1379    -52.7265    -27.3095      136.82
         5         2.9916      4.8040      3.8868      3.8941       75.48
 1/2[<0|r|b>*<b|rxdel|0> + (<0|rxdel|b>*<b|r|0>)*]
 Rotatory Strengths (R) in cgs (10**-40 erg-esu-cm/Gauss)
       state          XX          YY          ZZ     R(length)
         1         8.9600    185.5336     24.0729     72.8555
         2        -7.0562      6.3809    -31.3788    -10.6847
         3       -82.8730   -137.1358    -52.3428    -90.7839
         4      -180.6211   -179.1214     -1.2549   -120.3325
         5        35.2557   -159.3665      3.4787    -40.2107
  1/2[<0|del|b>*<b|r|0> + (<0|r|b>*<b|del|0>)*] (Au)
       state          X           Y           Z        Dip. S.   Osc.(frdel)
         1         0.1705      0.0565     -0.0011     -0.2259     -0.1506
         2        -0.0019     -0.0031      0.0000      0.0050      0.0033
         3        -0.1047     -0.2753      0.0006      0.3795      0.2530
         4        -0.0092     -0.0045      0.0001      0.0136      0.0091
         5        -0.0023     -0.0007     -0.0001      0.0030      0.0020

 Excitation energies and oscillator strengths:
 
 Excited State   1:      Singlet-A      1.2721 eV  974.67 nm  f=0.5504  <S**2>=0.000
     175 ->178        -0.21120
     176 ->177         0.65703
 This state for optimization and/or second-order correction.
 Total Energy, E(CIS/TDA) =  -474.451983873    
 Copying the excited state density for this state as the 1-particle RhoCI density.
 
 Excited State   2:      Singlet-A      1.8663 eV  664.35 nm  f=0.0214  <S**2>=0.000
     175 ->177         0.52784
     176 ->178         0.44667
 
 Excited State   3:      Singlet-A      2.9278 eV  423.47 nm  f=0.8538  <S**2>=0.000
     175 ->177        -0.33950
     176 ->178         0.44763
     176 ->179        -0.33696
 
 Excited State   4:      Singlet-A      2.9557 eV  419.47 nm  f=0.0350  <S**2>=0.000
     170 ->177         0.27594
     170 ->179        -0.36301
     170 ->181         0.35691
     170 ->186         0.17928
     170 ->188         0.19180
 
 Excited State   5:      Singlet-A      3.0102 eV  411.88 nm  f=0.0139  <S**2>=0.000
     168 ->177         0.31202
     168 ->178        -0.13207
     168 ->179         0.29511
     168 ->181         0.25282
     168 ->186        -0.19650
     176 ->179         0.31599
 SavETr:  write IOETrn=   770 NScale= 10 NData=  16 NLR=1 NState=    5 LETran=     100.
 Leave Link  914 at Wed Apr 27 03:47:49 2022, MaxMem=  6710886400 cpu:             114.0 elap:               4.8
 (Enter /sw/apps/gaussian-16.0/g16/l601.exe)
 Copying SCF densities to generalized density rwf, IOpCl= 0 IROHF=0.

 **********************************************************************

            Population analysis using the SCF density.

 **********************************************************************

 Orbital symmetries:
       Occupied  (A) (A) (A) (A) (A) (A) (A) (A) (A) (A) (A) (A)
                 (A) (A) (A) (A) (A) (A) (A) (A) (A) (A) (A) (A)
                 (A) (A) (A) (A) (A) (A) (A) (A) (A) (A) (A) (A)
                 (A) (A) (A) (A) (A) (A) (A) (A) (A) (A) (A) (A)
                 (A) (A) (A) (A) (A) (A) (A) (A) (A) (A) (A) (A)
                 (A) (A) (A) (A) (A) (A) (A) (A) (A) (A) (A) (A)
                 (A) (A) (A) (A) (A) (A) (A) (A) (A) (A) (A) (A)
                 (A) (A) (A) (A) (A) (A) (A) (A) (A) (A) (A) (A)
                 (A) (A) (A) (A) (A) (A) (A) (A) (A) (A) (A) (A)
                 (A) (A) (A) (A) (A) (A) (A) (A) (A) (A) (A) (A)
                 (A) (A) (A) (A) (A) (A) (A) (A) (A) (A) (A) (A)
                 (A) (A) (A) (A) (A) (A) (A) (A) (A) (A) (A) (A)
                 (A) (A) (A) (A) (A) (A) (A) (A) (A) (A) (A) (A)
                 (A) (A) (A) (A) (A) (A) (A) (A) (A) (A) (A) (A)
                 (A) (A) (A) (A) (A) (A) (A) (A)
       Virtual   (A) (A) (A) (A) (A) (A) (A) (A) (A) (A) (A) (A)
                 (A) (A) (A) (A) (A) (A) (A) (A) (A) (A) (A) (A)
                 (A) (A) (A) (A) (A) (A) (A) (A) (A) (A) (A) (A)
                 (A) (A) (A) (A) (A) (A) (A) (A) (A) (A) (A) (A)
                 (A) (A) (A) (A) (A) (A) (A) (A) (A) (A) (A) (A)
                 (A) (A) (A) (A) (A) (A) (A) (A) (A) (A) (A) (A)
                 (A) (A) (A) (A) (A) (A) (A) (A) (A) (A) (A) (A)
                 (A) (A) (A) (A) (A) (A) (A) (A) (A) (A) (A) (A)
                 (A) (A) (A) (A) (A) (A) (A) (A) (A) (A) (A) (A)
                 (A) (A) (A) (A) (A) (A) (A) (A) (A) (A) (A) (A)
                 (A) (A) (A) (A) (A) (A) (A) (A) (A) (A) (A) (A)
                 (A) (A) (A) (A) (A) (A) (A) (A) (A) (A) (A) (A)
                 (A) (A) (A) (A) (A) (A) (A) (A) (A) (A) (A) (A)
                 (A) (A) (A) (A) (A) (A)
 The electronic state is 1-A.
 Alpha  occ. eigenvalues --   -1.85102  -1.82211  -1.80244  -1.73864  -1.71533
 Alpha  occ. eigenvalues --   -1.69340  -1.67025  -1.62373  -1.62301  -1.60003
 Alpha  occ. eigenvalues --   -1.55470  -1.50689  -1.48608  -1.47764  -1.46845
 Alpha  occ. eigenvalues --   -1.44955  -1.43943  -1.40264  -1.40203  -1.38383
 Alpha  occ. eigenvalues --   -1.36766  -1.33394  -1.32885  -1.32174  -1.29629
 Alpha  occ. eigenvalues --   -1.27510  -1.24812  -1.22377  -1.19976  -1.18366
 Alpha  occ. eigenvalues --   -1.17793  -1.15809  -1.15367  -1.15120  -1.13310
 Alpha  occ. eigenvalues --   -1.12393  -1.11138  -1.09890  -1.04940  -1.03208
 Alpha  occ. eigenvalues --   -1.02894  -1.00960  -0.98459  -0.97621  -0.97538
 Alpha  occ. eigenvalues --   -0.95466  -0.94495  -0.94303  -0.93640  -0.93066
 Alpha  occ. eigenvalues --   -0.92390  -0.90436  -0.88881  -0.88598  -0.86263
 Alpha  occ. eigenvalues --   -0.85212  -0.84067  -0.83566  -0.82820  -0.81072
 Alpha  occ. eigenvalues --   -0.80122  -0.79539  -0.78945  -0.76911  -0.76113
 Alpha  occ. eigenvalues --   -0.75818  -0.75222  -0.75168  -0.74239  -0.73208
 Alpha  occ. eigenvalues --   -0.72598  -0.72092  -0.71341  -0.70659  -0.70125
 Alpha  occ. eigenvalues --   -0.69988  -0.69517  -0.69112  -0.68973  -0.68332
 Alpha  occ. eigenvalues --   -0.67520  -0.67059  -0.66711  -0.66472  -0.66165
 Alpha  occ. eigenvalues --   -0.65827  -0.65105  -0.64581  -0.64145  -0.63863
 Alpha  occ. eigenvalues --   -0.63778  -0.63294  -0.62970  -0.61978  -0.61893
 Alpha  occ. eigenvalues --   -0.61534  -0.60881  -0.60590  -0.60290  -0.60220
 Alpha  occ. eigenvalues --   -0.59834  -0.59625  -0.59072  -0.58649  -0.57991
 Alpha  occ. eigenvalues --   -0.57887  -0.57366  -0.57300  -0.56603  -0.56291
 Alpha  occ. eigenvalues --   -0.55771  -0.55544  -0.55290  -0.54977  -0.54094
 Alpha  occ. eigenvalues --   -0.53902  -0.53766  -0.53318  -0.53104  -0.52790
 Alpha  occ. eigenvalues --   -0.52530  -0.52302  -0.51676  -0.51640  -0.51474
 Alpha  occ. eigenvalues --   -0.51018  -0.50784  -0.50681  -0.50273  -0.49850
 Alpha  occ. eigenvalues --   -0.49581  -0.49369  -0.49268  -0.49232  -0.48994
 Alpha  occ. eigenvalues --   -0.48844  -0.48463  -0.48266  -0.48006  -0.47838
 Alpha  occ. eigenvalues --   -0.47703  -0.47466  -0.47110  -0.47010  -0.46460
 Alpha  occ. eigenvalues --   -0.46235  -0.46180  -0.45714  -0.45509  -0.45359
 Alpha  occ. eigenvalues --   -0.45029  -0.44947  -0.44814  -0.44265  -0.43920
 Alpha  occ. eigenvalues --   -0.43412  -0.43156  -0.43085  -0.42507  -0.42104
 Alpha  occ. eigenvalues --   -0.41905  -0.41226  -0.40481  -0.39929  -0.38918
 Alpha  occ. eigenvalues --   -0.37979  -0.36433  -0.35133  -0.34744  -0.34182
 Alpha  occ. eigenvalues --   -0.33178  -0.33033  -0.32557  -0.31849  -0.26117
 Alpha  occ. eigenvalues --   -0.21560
 Alpha virt. eigenvalues --   -0.08011  -0.02328  -0.00317   0.00642   0.01518
 Alpha virt. eigenvalues --    0.02863   0.03046   0.03494   0.04525   0.05204
 Alpha virt. eigenvalues --    0.06511   0.06781   0.07387   0.07577   0.08007
 Alpha virt. eigenvalues --    0.08327   0.08611   0.08628   0.09051   0.09433
 Alpha virt. eigenvalues --    0.09509   0.10051   0.10265   0.10438   0.10605
 Alpha virt. eigenvalues --    0.10990   0.11423   0.11763   0.12076   0.12145
 Alpha virt. eigenvalues --    0.12655   0.12914   0.13153   0.13243   0.13362
 Alpha virt. eigenvalues --    0.13550   0.14025   0.14207   0.14835   0.15240
 Alpha virt. eigenvalues --    0.15242   0.15317   0.15404   0.15530   0.15978
 Alpha virt. eigenvalues --    0.16086   0.16249   0.16667   0.16774   0.17039
 Alpha virt. eigenvalues --    0.17262   0.17513   0.17928   0.18018   0.18257
 Alpha virt. eigenvalues --    0.18329   0.18611   0.19075   0.19119   0.19145
 Alpha virt. eigenvalues --    0.19639   0.20099   0.20339   0.21134   0.21366
 Alpha virt. eigenvalues --    0.21678   0.21899   0.22893   0.23220   0.23680
 Alpha virt. eigenvalues --    0.23775   0.23795   0.23940   0.24081   0.24128
 Alpha virt. eigenvalues --    0.24167   0.24390   0.24422   0.24545   0.24599
 Alpha virt. eigenvalues --    0.24751   0.24802   0.24808   0.24888   0.25006
 Alpha virt. eigenvalues --    0.25079   0.25084   0.25148   0.25238   0.25324
 Alpha virt. eigenvalues --    0.25405   0.25494   0.25560   0.25573   0.25655
 Alpha virt. eigenvalues --    0.25795   0.25830   0.25887   0.25961   0.26097
 Alpha virt. eigenvalues --    0.26163   0.26378   0.26423   0.26470   0.26770
 Alpha virt. eigenvalues --    0.26900   0.26913   0.26919   0.26936   0.27070
 Alpha virt. eigenvalues --    0.27195   0.27380   0.27390   0.27862   0.28139
 Alpha virt. eigenvalues --    0.28274   0.28668   0.28832   0.29602   0.29608
 Alpha virt. eigenvalues --    0.29799   0.29957   0.30629   0.30909   0.31364
 Alpha virt. eigenvalues --    0.32010   0.32197   0.32955   0.33875   0.35136
 Alpha virt. eigenvalues --    0.35192   0.35267   0.35823   0.35844   0.36149
 Alpha virt. eigenvalues --    0.36619   0.36649   0.37096   0.37586   0.38088
 Alpha virt. eigenvalues --    0.38906   0.39456   0.39787   0.40847   0.41166
 Alpha virt. eigenvalues --    0.41458   0.41721   0.41889   0.42291   0.42661
 Alpha virt. eigenvalues --    0.43773   0.44425   0.44670   0.46252   0.46376
 Alpha virt. eigenvalues --    0.47924   0.48245   0.49152   0.51849   0.53367
 Alpha virt. eigenvalues --    0.55791   0.56281
          Condensed to atoms (all electrons):
 Mulliken charges:
               1
     1  Mg   0.429553
     2  C   -0.049560
     3  C   -0.063929
     4  C   -0.071417
     5  C   -0.077677
     6  N   -0.259396
     7  C    0.140991
     8  C    0.013526
     9  C    0.005762
    10  C    0.084669
    11  C   -0.048787
    12  C   -0.012933
    13  C    0.008810
    14  C    0.463246
    15  O   -0.505357
    16  O   -0.281031
    17  N   -0.292482
    18  C    0.087231
    19  C    0.008289
    20  C   -0.058889
    21  C    0.133635
    22  C   -0.040262
    23  C    0.338823
    24  O   -0.526045
    25  C   -0.033654
    26  N   -0.272581
    27  C    0.123410
    28  C   -0.000787
    29  C    0.001814
    30  C    0.146007
    31  C   -0.048266
    32  C   -0.032663
    33  C   -0.052114
    34  N   -0.333506
    35  C    0.105667
    36  C    0.025703
    37  C   -0.053349
    38  C    0.117744
    39  C   -0.045339
    40  C    0.348611
    41  O   -0.503496
    42  C    0.058413
    43  C    0.493735
    44  O   -0.511807
    45  O   -0.284077
    46  C    0.075196
    47  C    0.109034
    48  C   -0.085998
    49  C   -0.010299
    50  C   -0.042944
    51  C   -0.020567
    52  C   -0.033142
    53  C   -0.034480
    54  C   -0.022430
    55  C   -0.054416
    56  C   -0.053262
    57  C   -0.029417
    58  C   -0.025015
    59  C   -0.004868
    60  C   -0.073807
    61  C   -0.033176
    62  C   -0.039784
    63  C   -0.024400
    64  C   -0.005538
    65  C   -0.058248
    66  C   -0.056652
    67  H    0.017567
    68  H    0.043994
    69  H    0.025589
    70  H    0.040790
    71  H    0.023244
    72  H    0.027561
    73  H    0.023828
    74  H    0.018975
    75  H    0.025714
    76  H    0.020815
    77  H    0.043658
    78  H    0.034200
    79  H    0.028968
    80  H    0.029327
    81  H    0.026200
    82  H    0.025314
    83  H    0.042677
    84  H    0.037102
    85  H    0.023175
    86  H    0.039063
    87  H    0.031783
    88  H    0.029691
    89  H    0.006920
    90  H    0.022250
    91  H    0.017198
    92  H    0.014664
    93  H    0.018813
    94  H    0.020045
    95  H    0.029209
    96  H    0.035251
    97  H    0.043816
    98  H    0.048230
    99  H    0.034228
   100  H    0.049276
   101  H    0.044423
   102  H    0.042928
   103  H    0.059738
   104  H    0.027259
   105  H    0.024578
   106  H    0.023479
   107  H    0.032312
   108  H    0.016269
   109  H    0.019263
   110  H    0.016013
   111  H    0.022714
   112  H    0.011326
   113  H    0.020843
   114  H    0.031816
   115  H    0.028015
   116  H    0.013505
   117  H    0.023952
   118  H    0.020352
   119  H    0.009986
   120  H    0.014042
   121  H    0.014745
   122  H    0.015844
   123  H    0.009190
   124  H    0.033349
   125  H    0.004534
   126  H    0.014938
   127  H    0.029985
   128  H    0.024358
   129  H    0.010020
   130  H    0.024794
   131  H    0.018233
   132  H    0.009874
   133  H    0.015301
   134  H    0.007897
   135  H    0.022215
   136  H    0.017106
   137  H    0.016158
   138  H    0.019166
   139  H    0.014954
   140  H    0.023365
 Sum of Mulliken charges =  -0.00000
 Mulliken charges with hydrogens summed into heavy atoms:
               1
     1  Mg   0.429553
     2  C   -0.049560
     3  C   -0.046362
     4  C   -0.027423
     5  C   -0.052088
     6  N   -0.259396
     7  C    0.140991
     8  C    0.054316
     9  C    0.029006
    10  C    0.084669
    11  C    0.021577
    12  C    0.033596
    13  C    0.086667
    14  C    0.463246
    15  O   -0.505357
    16  O   -0.281031
    17  N   -0.292482
    18  C    0.087231
    19  C    0.008289
    20  C   -0.058889
    21  C    0.133635
    22  C    0.044233
    23  C    0.338823
    24  O   -0.526045
    25  C    0.071439
    26  N   -0.272581
    27  C    0.123410
    28  C    0.022387
    29  C    0.040877
    30  C    0.146007
    31  C    0.020128
    32  C    0.006785
    33  C    0.001408
    34  N   -0.333506
    35  C    0.105667
    36  C    0.025703
    37  C   -0.053349
    38  C    0.117744
    39  C    0.062937
    40  C    0.348611
    41  O   -0.503496
    42  C    0.106643
    43  C    0.493735
    44  O   -0.511807
    45  O   -0.284077
    46  C    0.203123
    47  C    0.211700
    48  C   -0.058739
    49  C   -0.010299
    50  C    0.037425
    51  C    0.014966
    52  C    0.005584
    53  C   -0.002311
    54  C    0.009386
    55  C    0.011056
    56  C   -0.022924
    57  C   -0.000630
    58  C    0.000019
    59  C    0.028481
    60  C   -0.024349
    61  C    0.001203
    62  C    0.003243
    63  C    0.000775
    64  C    0.002359
    65  C   -0.002768
    66  C    0.000834
 Charge=              0.0000 electrons
 Dipole moment (field-independent basis, Debye):
    X=             -6.8073    Y=              2.6861    Z=              4.0114  Tot=              8.3454
 N-N= 4.295225671933D+03 E-N= 0.000000000000D+00  KE=-9.264906919604D+03
 Leave Link  601 at Wed Apr 27 03:47:50 2022, MaxMem=  6710886400 cpu:               4.1 elap:               0.2
 (Enter /sw/apps/gaussian-16.0/g16/l9999.exe)
 1\1\GINC-BP1-COMPUTE155\SP\RZINDO CIS\STO-3G\C55H74Mg1N4O6\OF15641\27-
 Apr-2022\0\\#p ZINDO=(nstates=5)\\step_1051_chromophore_21 ZINDO\\0,1\
 Mg,0,15.975,51.301,25.625\C,0,17.765,50.277,28.382\C,0,13.524,52.415,2
 7.669\C,0,14.279,52.179,22.937\C,0,18.563,50.052,23.524\N,0,15.779,51.
 358,27.808\C,0,16.612,51.031,28.748\C,0,16.122,51.339,30.132\C,0,14.6,
 51.559,29.896\C,0,14.584,51.764,28.376\C,0,13.63,50.479,30.429\C,0,16.
 838,52.527,30.784\C,0,17.252,52.291,32.242\C,0,16.244,51.513,33.148\O,
 0,16.476,50.483,33.807\O,0,14.984,52.157,33.157\N,0,14.175,52.33,25.38
 \C,0,13.303,52.676,26.33\C,0,12.161,53.369,25.717\C,0,12.318,53.201,24
 .329\C,0,13.63,52.496,24.179\C,0,11.097,54.025,26.58\C,0,11.453,53.524
 ,23.195\O,0,11.753,53.298,22.058\C,0,10.196,54.234,23.462\N,0,16.328,5
 0.999,23.432\C,0,15.52,51.681,22.634\C,0,15.994,51.45,21.132\C,0,17.37
 7,50.708,21.327\C,0,17.487,50.629,22.827\C,0,15.13,50.836,20.035\C,0,1
 8.662,51.413,20.6\C,0,19.301,50.749,19.435\N,0,17.667,50.148,25.828\C,
 0,18.621,49.716,24.896\C,0,19.679,49.009,25.654\C,0,19.362,49.197,27.0
 65\C,0,18.097,49.853,27.078\C,0,20.924,48.396,25.003\C,0,19.895,49.061
 ,28.443\O,0,20.886,48.633,28.965\C,0,18.748,49.636,29.281\C,0,18.196,4
 8.425,29.992\O,0,17.95,47.327,29.552\O,0,18.099,48.721,31.327\C,0,17.8
 78,47.643,32.282\C,0,14.08,51.688,34.227\C,0,12.642,52.23,34.081\C,0,1
 1.547,51.972,34.82\C,0,11.528,51.053,36.027\C,0,10.142,52.634,34.569\C
 ,0,9.721,53.84,35.426\C,0,9.357,55.091,34.55\C,0,7.927,55.66,34.826\C,
 0,7.627,56.762,33.836\C,0,8.049,56.316,36.326\C,0,6.857,56.12,37.231\C
 ,0,6.503,57.362,37.965\C,0,5.166,57.991,37.589\C,0,5.185,59.502,38.008
 \C,0,3.979,57.352,38.397\C,0,2.692,57.365,37.552\C,0,1.745,58.519,37.9
 58\C,0,0.378,58.09,38.392\C,0,0.434,57.344,39.738\C,0,-0.454,57.368,37
 .317\H,0,12.733,52.837,28.292\H,0,13.782,52.444,22.002\H,0,19.432,49.6
 38,23.008\H,0,16.229,50.404,30.681\H,0,14.31,52.462,30.434\H,0,14.017,
 49.868,31.244\H,0,13.389,49.857,29.567\H,0,12.712,50.908,30.831\H,0,16
 .299,53.474,30.819\H,0,17.716,52.798,30.199\H,0,17.544,53.243,32.684\H
 ,0,18.146,51.669,32.188\H,0,11.309,54.089,27.647\H,0,10.143,53.513,26.
 449\H,0,10.989,55.045,26.213\H,0,10.426,55.065,24.129\H,0,9.451,53.627
 ,23.978\H,0,9.88,54.683,22.52\H,0,16.144,52.46,20.751\H,0,17.336,49.68
 7,20.946\H,0,14.666,51.535,19.339\H,0,14.486,50.015,20.348\H,0,15.895,
 50.342,19.435\H,0,19.454,51.607,21.323\H,0,18.326,52.369,20.197\H,0,18
 .864,51.057,18.485\H,0,19.162,49.676,19.566\H,0,20.346,51.018,19.28\H,
 0,21.588,48.548,25.854\H,0,21.325,48.934,24.144\H,0,20.798,47.322,24.8
 63\H,0,19.206,50.269,30.041\H,0,17.459,48.034,33.21\H,0,18.807,47.135,
 32.539\H,0,17.067,47.023,31.899\H,0,14.516,52.101,35.137\H,0,14.057,50
 .605,34.349\H,0,12.463,52.858,33.209\H,0,10.984,51.544,36.835\H,0,12.5
 38,50.82,36.363\H,0,10.974,50.154,35.758\H,0,9.387,51.857,34.686\H,0,9
 .979,52.929,33.532\H,0,10.451,54.236,36.132\H,0,8.987,53.561,36.181\H,
 0,9.356,54.897,33.477\H,0,10.124,55.851,34.698\H,0,7.181,54.867,34.879
 \H,0,8.488,57.424,33.744\H,0,6.846,57.4,34.25\H,0,7.291,56.192,32.969\
 H,0,8.393,57.347,36.241\H,0,8.831,55.826,36.906\H,0,7.172,55.294,37.86
 9\H,0,6.035,55.73,36.63\H,0,7.334,58.068,37.964\H,0,6.557,57.062,39.01
 2\H,0,4.996,58.001,36.513\H,0,4.184,59.933,38.007\H,0,5.506,60.158,37.
 199\H,0,5.58,59.738,38.996\H,0,3.807,57.881,39.334\H,0,4.228,56.328,38
 .674\H,0,2.217,56.385,37.588\H,0,3.066,57.584,36.551\H,0,1.653,59.232,
 37.139\H,0,2.186,59.079,38.783\H,0,-0.104,59.038,38.63\H,0,1.458,57.09
 5,40.016\H,0,-0.184,56.451,39.65\H,0,-0.006,57.926,40.548\H,0,-1.337,5
 7.916,36.987\H,0,-0.918,56.481,37.749\H,0,0.184,57.084,36.481\\Version
 =ES64L-G16RevA.03\State=1-A\HF=-474.4987312\RMSD=5.510e-09\PG=C01 [X(C
 55H74Mg1N4O6)]\\@


 The cat could very well be man's best friend
 but would never stoop to admitting it.
                               -- Doug Larson
 Job cpu time:       0 days  0 hours  2 minutes 43.4 seconds.
 Elapsed time:       0 days  0 hours  0 minutes  7.2 seconds.
 File lengths (MBytes):  RWF=   1273 Int=      0 D2E=      0 Chk=     38 Scr=      1
 Normal termination of Gaussian 16 at Wed Apr 27 03:47:50 2022.
