 Entering Gaussian System, Link 0=g16
 Initial command:
 /sw/apps/gaussian-16.0/g16/l1.exe "/tmp/Gau-126442.inp" -scrdir="/tmp/"
 Entering Link 1 = /sw/apps/gaussian-16.0/g16/l1.exe PID=    126443.
  
 Copyright (c) 1988,1990,1992,1993,1995,1998,2003,2009,2016,
            Gaussian, Inc.  All Rights Reserved.
  
 This is part of the Gaussian(R) 16 program.  It is based on
 the Gaussian(R) 09 system (copyright 2009, Gaussian, Inc.),
 the Gaussian(R) 03 system (copyright 2003, Gaussian, Inc.),
 the Gaussian(R) 98 system (copyright 1998, Gaussian, Inc.),
 the Gaussian(R) 94 system (copyright 1995, Gaussian, Inc.),
 the Gaussian 92(TM) system (copyright 1992, Gaussian, Inc.),
 the Gaussian 90(TM) system (copyright 1990, Gaussian, Inc.),
 the Gaussian 88(TM) system (copyright 1988, Gaussian, Inc.),
 the Gaussian 86(TM) system (copyright 1986, Carnegie Mellon
 University), and the Gaussian 82(TM) system (copyright 1983,
 Carnegie Mellon University). Gaussian is a federally registered
 trademark of Gaussian, Inc.
  
 This software contains proprietary and confidential information,
 including trade secrets, belonging to Gaussian, Inc.
  
 This software is provided under written license and may be
 used, copied, transmitted, or stored only in accord with that
 written license.
  
 The following legend is applicable only to US Government
 contracts under FAR:
  
                    RESTRICTED RIGHTS LEGEND
  
 Use, reproduction and disclosure by the US Government is
 subject to restrictions as set forth in subparagraphs (a)
 and (c) of the Commercial Computer Software - Restricted
 Rights clause in FAR 52.227-19.
  
 Gaussian, Inc.
 340 Quinnipiac St., Bldg. 40, Wallingford CT 06492
  
  
 ---------------------------------------------------------------
 Warning -- This program may not be used in any manner that
 competes with the business of Gaussian, Inc. or will provide
 assistance to any competitor of Gaussian, Inc.  The licensee
 of this program is prohibited from giving any competitor of
 Gaussian, Inc. access to this program.  By using this program,
 the user acknowledges that Gaussian, Inc. is engaged in the
 business of creating and licensing software in the field of
 computational chemistry and represents and warrants to the
 licensee that it is not a competitor of Gaussian, Inc. and that
 it will not use this program in any manner prohibited above.
 ---------------------------------------------------------------
  

 Cite this work as:
 Gaussian 16, Revision A.03,
 M. J. Frisch, G. W. Trucks, H. B. Schlegel, G. E. Scuseria, 
 M. A. Robb, J. R. Cheeseman, G. Scalmani, V. Barone, 
 G. A. Petersson, H. Nakatsuji, X. Li, M. Caricato, A. V. Marenich, 
 J. Bloino, B. G. Janesko, R. Gomperts, B. Mennucci, H. P. Hratchian, 
 J. V. Ortiz, A. F. Izmaylov, J. L. Sonnenberg, D. Williams-Young, 
 F. Ding, F. Lipparini, F. Egidi, J. Goings, B. Peng, A. Petrone, 
 T. Henderson, D. Ranasinghe, V. G. Zakrzewski, J. Gao, N. Rega, 
 G. Zheng, W. Liang, M. Hada, M. Ehara, K. Toyota, R. Fukuda, 
 J. Hasegawa, M. Ishida, T. Nakajima, Y. Honda, O. Kitao, H. Nakai, 
 T. Vreven, K. Throssell, J. A. Montgomery, Jr., J. E. Peralta, 
 F. Ogliaro, M. J. Bearpark, J. J. Heyd, E. N. Brothers, K. N. Kudin, 
 V. N. Staroverov, T. A. Keith, R. Kobayashi, J. Normand, 
 K. Raghavachari, A. P. Rendell, J. C. Burant, S. S. Iyengar, 
 J. Tomasi, M. Cossi, J. M. Millam, M. Klene, C. Adamo, R. Cammi, 
 J. W. Ochterski, R. L. Martin, K. Morokuma, O. Farkas, 
 J. B. Foresman, and D. J. Fox, Gaussian, Inc., Wallingford CT, 2016.
 
 ******************************************
 Gaussian 16:  ES64L-G16RevA.03 25-Dec-2016
                 5-May-2022 
 ******************************************
 %nproc=24
 Will use up to   24 processors via shared memory.
 %mem=50gb
 --------------------
 #p ZINDO=(nstates=5)
 --------------------
 1/38=1,172=1/1;
 2/12=2,17=6,18=5,40=1/2;
 3/5=2,25=1,41=400000/1,2,3,8;
 4/5=3,35=1/1;
 5/5=2,35=1,38=5/2;
 8/6=1,108=5/1;
 9/41=5,42=1,49=10/14;
 6/7=2,8=2,9=2,10=2/1;
 99/5=1,9=1/99;
 Leave Link    1 at Thu May  5 13:02:10 2022, MaxMem=  6710886400 cpu:               1.3 elap:               0.1
 (Enter /sw/apps/gaussian-16.0/g16/l101.exe)
 ----------------------------
 step_851_chromophore_8 ZINDO
 ----------------------------
 Symbolic Z-matrix:
 Charge =  0 Multiplicity = 1
 Mg                    45.454    2.942     46.791 
 C                     43.518    5.698     46.648 
 C                     42.601    0.946     46.996 
 C                     47.261    0.123     46.394 
 C                     48.23     4.935     45.707 
 N                     43.327    3.353     46.632 
 C                     42.769    4.538     46.65 
 C                     41.236    4.404     46.447 
 C                     41.       2.967     47.027 
 C                     42.435    2.319     46.859 
 C                     40.586    2.96      48.551 
 C                     40.723    4.501     44.899 
 C                     39.944    5.745     44.449 
 C                     40.266    6.353     43.063 
 O                     40.696    7.475     42.886 
 O                     39.933    5.466     42.063 
 N                     45.045    0.792     46.941 
 C                     43.819    0.217     46.935 
 C                     43.992   -1.184     46.995 
 C                     45.346   -1.517     46.813 
 C                     45.984   -0.181     46.735 
 C                     42.785   -2.052     47.099 
 C                     45.834   -2.938     46.686 
 O                     45.063   -3.883     46.779 
 C                     47.313   -3.221     46.634 
 N                     47.431    2.594     46.161 
 C                     47.941    1.32      46.169 
 C                     49.399    1.303     45.628 
 C                     49.751    2.865     45.421 
 C                     48.396    3.512     45.715 
 C                     50.294    0.583     46.604 
 C                     50.367    3.266     44.076 
 C                     51.799    3.925     44.004 
 N                     45.827    4.884     46.285 
 C                     46.983    5.541     45.993 
 C                     46.703    6.939     46.24 
 C                     45.343    7.039     46.506 
 C                     44.88     5.769     46.515 
 C                     47.552    8.076     46.077 
 C                     44.282    8.023     46.662 
 O                     44.248    9.231     46.743 
 C                     43.034    7.127     46.823 
 C                     42.327    7.379     48.086 
 O                     42.7      6.994     49.193 
 O                     41.114    7.912     47.82 
 C                     40.293    8.191     49.005 
 C                     40.082    6.001     40.669 
 C                     40.928    5.079     39.926 
 C                     41.362    5.328     38.683 
 C                     41.046    6.616     37.778 
 C                     42.393    4.413     38.054 
 C                     41.996    3.734     36.695 
 C                     41.82     2.233     36.76 
 C                     41.909    1.672     35.323 
 C                     40.743    0.673     34.995 
 C                     43.242    0.969     35.016 
 C                     43.825    1.311     33.721 
 C                     44.92     2.372     33.952 
 C                     45.237    3.114     32.688 
 C                     46.809    3.149     32.536 
 C                     44.631    4.618     32.625 
 C                     43.43     4.669     31.715 
 C                     43.791    4.81      30.227 
 C                     43.231    3.765     29.213 
 C                     41.675    3.885     29.188 
 C                     43.821    3.885     27.818 
 H                     41.607    0.497     47.034 
 H                     47.962   -0.714     46.403 
 H                     49.092    5.591     45.565 
 H                     40.64     5.067     47.073 
 H                     40.214    2.459     46.468 
 H                     41.266    2.507     49.273 
 H                     39.641    2.424     48.632 
 H                     40.58     4.001     48.875 
 H                     40.244    3.574     44.584 
 H                     41.656    4.55      44.337 
 H                     39.893    6.516     45.218 
 H                     38.917    5.407     44.305 
 H                     42.889   -2.955     46.497 
 H                     41.983   -1.488     46.623 
 H                     42.448   -2.214     48.123 
 H                     48.007   -2.879     47.402 
 H                     47.618   -2.995     45.613 
 H                     47.332   -4.309     46.697 
 H                     49.435    0.807     44.658 
 H                     50.464    3.231     46.159 
 H                     49.885    0.544     47.613 
 H                     51.25     1.1       46.686 
 H                     50.531   -0.421     46.254 
 H                     49.603    3.664     43.408 
 H                     50.404    2.358     43.475 
 H                     52.295    4.118     44.956 
 H                     51.68     4.856     43.45 
 H                     52.32     3.188     43.394 
 H                     48.141    8.019     45.162 
 H                     48.251    8.179     46.906 
 H                     46.916    8.957     45.99 
 H                     42.353    7.429     46.028 
 H                     39.423    8.792     48.743 
 H                     40.838    8.656     49.827 
 H                     39.886    7.214     49.267 
 H                     40.196    7.083     40.609 
 H                     39.151    5.886     40.114 
 H                     41.375    4.247     40.469 
 H                     42.009    6.995     37.439 
 H                     40.509    7.45      38.229 
 H                     40.521    6.422     36.842 
 H                     42.604    3.646     38.799 
 H                     43.263    5.059     37.939 
 H                     42.792    3.841     35.958 
 H                     41.036    4.175     36.426 
 H                     40.842    2.085     37.219 
 H                     42.654    1.816     37.325 
 H                     41.753    2.56      34.709 
 H                     41.054   -0.352     34.795 
 H                     40.203    1.156     34.18 
 H                     40.089    0.669     35.867 
 H                     43.165   -0.119     35.016 
 H                     43.907    1.184     35.853 
 H                     43.072    1.846     33.143 
 H                     44.237    0.418     33.252 
 H                     45.855    1.955     34.327 
 H                     44.523    3.125     34.633 
 H                     44.81     2.581     31.839 
 H                     47.382    2.223     32.59 
 H                     47.236    3.911     33.187 
 H                     47.146    3.499     31.56 
 H                     45.452    5.177     32.175 
 H                     44.439    5.095     33.586 
 H                     43.001    5.649     31.922 
 H                     42.729    3.847     31.863 
 H                     44.867    4.651     30.154 
 H                     43.596    5.826     29.881 
 H                     43.576    2.767     29.484 
 H                     41.349    4.086     28.168 
 H                     41.305    4.626     29.896 
 H                     41.293    2.902     29.465 
 H                     44.662    3.192     27.781 
 H                     44.079    4.943     27.776 
 H                     43.16     3.631     26.99 
 
 ITRead=  0  0  0  0  0  0  0  0  0  0  0  0  0  0  0  0  0  0  0  0
 ITRead=  0  0  0  0  0  0  0  0  0  0  0  0  0  0  0  0  0  0  0  0
 ITRead=  0  0  0  0  0  0  0  0  0  0  0  0  0  0  0  0  0  0  0  0
 ITRead=  0  0  0  0  0  0  0  0  0  0  0  0  0  0  0  0  0  0  0  0
 ITRead=  0  0  0  0  0  0  0  0  0  0  0  0  0  0  0  0  0  0  0  0
 ITRead=  0  0  0  0  0  0  0  0  0  0  0  0  0  0  0  0  0  0  0  0
 ITRead=  0  0  0  0  0  0  0  0  0  0  0  0  0  0  0  0  0  0  0  0
 MicOpt= -1 -1 -1 -1 -1 -1 -1 -1 -1 -1 -1 -1 -1 -1 -1 -1 -1 -1 -1 -1
 MicOpt= -1 -1 -1 -1 -1 -1 -1 -1 -1 -1 -1 -1 -1 -1 -1 -1 -1 -1 -1 -1
 MicOpt= -1 -1 -1 -1 -1 -1 -1 -1 -1 -1 -1 -1 -1 -1 -1 -1 -1 -1 -1 -1
 MicOpt= -1 -1 -1 -1 -1 -1 -1 -1 -1 -1 -1 -1 -1 -1 -1 -1 -1 -1 -1 -1
 MicOpt= -1 -1 -1 -1 -1 -1 -1 -1 -1 -1 -1 -1 -1 -1 -1 -1 -1 -1 -1 -1
 MicOpt= -1 -1 -1 -1 -1 -1 -1 -1 -1 -1 -1 -1 -1 -1 -1 -1 -1 -1 -1 -1
 MicOpt= -1 -1 -1 -1 -1 -1 -1 -1 -1 -1 -1 -1 -1 -1 -1 -1 -1 -1 -1 -1
 NAtoms=    140 NQM=      140 NQMF=       0 NMMI=      0 NMMIF=      0
                NMic=       0 NMicF=      0.
                    Isotopes and Nuclear Properties:
 (Nuclear quadrupole moments (NQMom) in fm**2, nuclear magnetic moments (NMagM)
  in nuclear magnetons)

  Atom         1           2           3           4           5           6           7           8           9          10
 IAtWgt=          24          12          12          12          12          14          12          12          12          12
 AtmWgt=  23.9850450  12.0000000  12.0000000  12.0000000  12.0000000  14.0030740  12.0000000  12.0000000  12.0000000  12.0000000
 NucSpn=           0           0           0           0           0           2           0           0           0           0
 AtZEff=  -0.0000000  -0.0000000  -0.0000000  -0.0000000  -0.0000000  -0.0000000  -0.0000000  -0.0000000  -0.0000000  -0.0000000
 NQMom=    0.0000000   0.0000000   0.0000000   0.0000000   0.0000000   2.0440000   0.0000000   0.0000000   0.0000000   0.0000000
 NMagM=    0.0000000   0.0000000   0.0000000   0.0000000   0.0000000   0.4037610   0.0000000   0.0000000   0.0000000   0.0000000
 AtZNuc=  12.0000000   6.0000000   6.0000000   6.0000000   6.0000000   7.0000000   6.0000000   6.0000000   6.0000000   6.0000000

  Atom        11          12          13          14          15          16          17          18          19          20
 IAtWgt=          12          12          12          12          16          16          14          12          12          12
 AtmWgt=  12.0000000  12.0000000  12.0000000  12.0000000  15.9949146  15.9949146  14.0030740  12.0000000  12.0000000  12.0000000
 NucSpn=           0           0           0           0           0           0           2           0           0           0
 AtZEff=  -0.0000000  -0.0000000  -0.0000000  -0.0000000  -0.0000000  -0.0000000  -0.0000000  -0.0000000  -0.0000000  -0.0000000
 NQMom=    0.0000000   0.0000000   0.0000000   0.0000000   0.0000000   0.0000000   2.0440000   0.0000000   0.0000000   0.0000000
 NMagM=    0.0000000   0.0000000   0.0000000   0.0000000   0.0000000   0.0000000   0.4037610   0.0000000   0.0000000   0.0000000
 AtZNuc=   6.0000000   6.0000000   6.0000000   6.0000000   8.0000000   8.0000000   7.0000000   6.0000000   6.0000000   6.0000000

  Atom        21          22          23          24          25          26          27          28          29          30
 IAtWgt=          12          12          12          16          12          14          12          12          12          12
 AtmWgt=  12.0000000  12.0000000  12.0000000  15.9949146  12.0000000  14.0030740  12.0000000  12.0000000  12.0000000  12.0000000
 NucSpn=           0           0           0           0           0           2           0           0           0           0
 AtZEff=  -0.0000000  -0.0000000  -0.0000000  -0.0000000  -0.0000000  -0.0000000  -0.0000000  -0.0000000  -0.0000000  -0.0000000
 NQMom=    0.0000000   0.0000000   0.0000000   0.0000000   0.0000000   2.0440000   0.0000000   0.0000000   0.0000000   0.0000000
 NMagM=    0.0000000   0.0000000   0.0000000   0.0000000   0.0000000   0.4037610   0.0000000   0.0000000   0.0000000   0.0000000
 AtZNuc=   6.0000000   6.0000000   6.0000000   8.0000000   6.0000000   7.0000000   6.0000000   6.0000000   6.0000000   6.0000000

  Atom        31          32          33          34          35          36          37          38          39          40
 IAtWgt=          12          12          12          14          12          12          12          12          12          12
 AtmWgt=  12.0000000  12.0000000  12.0000000  14.0030740  12.0000000  12.0000000  12.0000000  12.0000000  12.0000000  12.0000000
 NucSpn=           0           0           0           2           0           0           0           0           0           0
 AtZEff=  -0.0000000  -0.0000000  -0.0000000  -0.0000000  -0.0000000  -0.0000000  -0.0000000  -0.0000000  -0.0000000  -0.0000000
 NQMom=    0.0000000   0.0000000   0.0000000   2.0440000   0.0000000   0.0000000   0.0000000   0.0000000   0.0000000   0.0000000
 NMagM=    0.0000000   0.0000000   0.0000000   0.4037610   0.0000000   0.0000000   0.0000000   0.0000000   0.0000000   0.0000000
 AtZNuc=   6.0000000   6.0000000   6.0000000   7.0000000   6.0000000   6.0000000   6.0000000   6.0000000   6.0000000   6.0000000

  Atom        41          42          43          44          45          46          47          48          49          50
 IAtWgt=          16          12          12          16          16          12          12          12          12          12
 AtmWgt=  15.9949146  12.0000000  12.0000000  15.9949146  15.9949146  12.0000000  12.0000000  12.0000000  12.0000000  12.0000000
 NucSpn=           0           0           0           0           0           0           0           0           0           0
 AtZEff=  -0.0000000  -0.0000000  -0.0000000  -0.0000000  -0.0000000  -0.0000000  -0.0000000  -0.0000000  -0.0000000  -0.0000000
 NQMom=    0.0000000   0.0000000   0.0000000   0.0000000   0.0000000   0.0000000   0.0000000   0.0000000   0.0000000   0.0000000
 NMagM=    0.0000000   0.0000000   0.0000000   0.0000000   0.0000000   0.0000000   0.0000000   0.0000000   0.0000000   0.0000000
 AtZNuc=   8.0000000   6.0000000   6.0000000   8.0000000   8.0000000   6.0000000   6.0000000   6.0000000   6.0000000   6.0000000

  Atom        51          52          53          54          55          56          57          58          59          60
 IAtWgt=          12          12          12          12          12          12          12          12          12          12
 AtmWgt=  12.0000000  12.0000000  12.0000000  12.0000000  12.0000000  12.0000000  12.0000000  12.0000000  12.0000000  12.0000000
 NucSpn=           0           0           0           0           0           0           0           0           0           0
 AtZEff=  -0.0000000  -0.0000000  -0.0000000  -0.0000000  -0.0000000  -0.0000000  -0.0000000  -0.0000000  -0.0000000  -0.0000000
 NQMom=    0.0000000   0.0000000   0.0000000   0.0000000   0.0000000   0.0000000   0.0000000   0.0000000   0.0000000   0.0000000
 NMagM=    0.0000000   0.0000000   0.0000000   0.0000000   0.0000000   0.0000000   0.0000000   0.0000000   0.0000000   0.0000000
 AtZNuc=   6.0000000   6.0000000   6.0000000   6.0000000   6.0000000   6.0000000   6.0000000   6.0000000   6.0000000   6.0000000

  Atom        61          62          63          64          65          66          67          68          69          70
 IAtWgt=          12          12          12          12          12          12           1           1           1           1
 AtmWgt=  12.0000000  12.0000000  12.0000000  12.0000000  12.0000000  12.0000000   1.0078250   1.0078250   1.0078250   1.0078250
 NucSpn=           0           0           0           0           0           0           1           1           1           1
 AtZEff=  -0.0000000  -0.0000000  -0.0000000  -0.0000000  -0.0000000  -0.0000000  -0.0000000  -0.0000000  -0.0000000  -0.0000000
 NQMom=    0.0000000   0.0000000   0.0000000   0.0000000   0.0000000   0.0000000   0.0000000   0.0000000   0.0000000   0.0000000
 NMagM=    0.0000000   0.0000000   0.0000000   0.0000000   0.0000000   0.0000000   2.7928460   2.7928460   2.7928460   2.7928460
 AtZNuc=   6.0000000   6.0000000   6.0000000   6.0000000   6.0000000   6.0000000   1.0000000   1.0000000   1.0000000   1.0000000

  Atom        71          72          73          74          75          76          77          78          79          80
 IAtWgt=           1           1           1           1           1           1           1           1           1           1
 AtmWgt=   1.0078250   1.0078250   1.0078250   1.0078250   1.0078250   1.0078250   1.0078250   1.0078250   1.0078250   1.0078250
 NucSpn=           1           1           1           1           1           1           1           1           1           1
 AtZEff=  -0.0000000  -0.0000000  -0.0000000  -0.0000000  -0.0000000  -0.0000000  -0.0000000  -0.0000000  -0.0000000  -0.0000000
 NQMom=    0.0000000   0.0000000   0.0000000   0.0000000   0.0000000   0.0000000   0.0000000   0.0000000   0.0000000   0.0000000
 NMagM=    2.7928460   2.7928460   2.7928460   2.7928460   2.7928460   2.7928460   2.7928460   2.7928460   2.7928460   2.7928460
 AtZNuc=   1.0000000   1.0000000   1.0000000   1.0000000   1.0000000   1.0000000   1.0000000   1.0000000   1.0000000   1.0000000

  Atom        81          82          83          84          85          86          87          88          89          90
 IAtWgt=           1           1           1           1           1           1           1           1           1           1
 AtmWgt=   1.0078250   1.0078250   1.0078250   1.0078250   1.0078250   1.0078250   1.0078250   1.0078250   1.0078250   1.0078250
 NucSpn=           1           1           1           1           1           1           1           1           1           1
 AtZEff=  -0.0000000  -0.0000000  -0.0000000  -0.0000000  -0.0000000  -0.0000000  -0.0000000  -0.0000000  -0.0000000  -0.0000000
 NQMom=    0.0000000   0.0000000   0.0000000   0.0000000   0.0000000   0.0000000   0.0000000   0.0000000   0.0000000   0.0000000
 NMagM=    2.7928460   2.7928460   2.7928460   2.7928460   2.7928460   2.7928460   2.7928460   2.7928460   2.7928460   2.7928460
 AtZNuc=   1.0000000   1.0000000   1.0000000   1.0000000   1.0000000   1.0000000   1.0000000   1.0000000   1.0000000   1.0000000

  Atom        91          92          93          94          95          96          97          98          99         100
 IAtWgt=           1           1           1           1           1           1           1           1           1           1
 AtmWgt=   1.0078250   1.0078250   1.0078250   1.0078250   1.0078250   1.0078250   1.0078250   1.0078250   1.0078250   1.0078250
 NucSpn=           1           1           1           1           1           1           1           1           1           1
 AtZEff=  -0.0000000  -0.0000000  -0.0000000  -0.0000000  -0.0000000  -0.0000000  -0.0000000  -0.0000000  -0.0000000  -0.0000000
 NQMom=    0.0000000   0.0000000   0.0000000   0.0000000   0.0000000   0.0000000   0.0000000   0.0000000   0.0000000   0.0000000
 NMagM=    2.7928460   2.7928460   2.7928460   2.7928460   2.7928460   2.7928460   2.7928460   2.7928460   2.7928460   2.7928460
 AtZNuc=   1.0000000   1.0000000   1.0000000   1.0000000   1.0000000   1.0000000   1.0000000   1.0000000   1.0000000   1.0000000

  Atom       101         102         103         104         105         106         107         108         109         110
 IAtWgt=           1           1           1           1           1           1           1           1           1           1
 AtmWgt=   1.0078250   1.0078250   1.0078250   1.0078250   1.0078250   1.0078250   1.0078250   1.0078250   1.0078250   1.0078250
 NucSpn=           1           1           1           1           1           1           1           1           1           1
 AtZEff=  -0.0000000  -0.0000000  -0.0000000  -0.0000000  -0.0000000  -0.0000000  -0.0000000  -0.0000000  -0.0000000  -0.0000000
 NQMom=    0.0000000   0.0000000   0.0000000   0.0000000   0.0000000   0.0000000   0.0000000   0.0000000   0.0000000   0.0000000
 NMagM=    2.7928460   2.7928460   2.7928460   2.7928460   2.7928460   2.7928460   2.7928460   2.7928460   2.7928460   2.7928460
 AtZNuc=   1.0000000   1.0000000   1.0000000   1.0000000   1.0000000   1.0000000   1.0000000   1.0000000   1.0000000   1.0000000

  Atom       111         112         113         114         115         116         117         118         119         120
 IAtWgt=           1           1           1           1           1           1           1           1           1           1
 AtmWgt=   1.0078250   1.0078250   1.0078250   1.0078250   1.0078250   1.0078250   1.0078250   1.0078250   1.0078250   1.0078250
 NucSpn=           1           1           1           1           1           1           1           1           1           1
 AtZEff=  -0.0000000  -0.0000000  -0.0000000  -0.0000000  -0.0000000  -0.0000000  -0.0000000  -0.0000000  -0.0000000  -0.0000000
 NQMom=    0.0000000   0.0000000   0.0000000   0.0000000   0.0000000   0.0000000   0.0000000   0.0000000   0.0000000   0.0000000
 NMagM=    2.7928460   2.7928460   2.7928460   2.7928460   2.7928460   2.7928460   2.7928460   2.7928460   2.7928460   2.7928460
 AtZNuc=   1.0000000   1.0000000   1.0000000   1.0000000   1.0000000   1.0000000   1.0000000   1.0000000   1.0000000   1.0000000

  Atom       121         122         123         124         125         126         127         128         129         130
 IAtWgt=           1           1           1           1           1           1           1           1           1           1
 AtmWgt=   1.0078250   1.0078250   1.0078250   1.0078250   1.0078250   1.0078250   1.0078250   1.0078250   1.0078250   1.0078250
 NucSpn=           1           1           1           1           1           1           1           1           1           1
 AtZEff=  -0.0000000  -0.0000000  -0.0000000  -0.0000000  -0.0000000  -0.0000000  -0.0000000  -0.0000000  -0.0000000  -0.0000000
 NQMom=    0.0000000   0.0000000   0.0000000   0.0000000   0.0000000   0.0000000   0.0000000   0.0000000   0.0000000   0.0000000
 NMagM=    2.7928460   2.7928460   2.7928460   2.7928460   2.7928460   2.7928460   2.7928460   2.7928460   2.7928460   2.7928460
 AtZNuc=   1.0000000   1.0000000   1.0000000   1.0000000   1.0000000   1.0000000   1.0000000   1.0000000   1.0000000   1.0000000

  Atom       131         132         133         134         135         136         137         138         139         140
 IAtWgt=           1           1           1           1           1           1           1           1           1           1
 AtmWgt=   1.0078250   1.0078250   1.0078250   1.0078250   1.0078250   1.0078250   1.0078250   1.0078250   1.0078250   1.0078250
 NucSpn=           1           1           1           1           1           1           1           1           1           1
 AtZEff=  -0.0000000  -0.0000000  -0.0000000  -0.0000000  -0.0000000  -0.0000000  -0.0000000  -0.0000000  -0.0000000  -0.0000000
 NQMom=    0.0000000   0.0000000   0.0000000   0.0000000   0.0000000   0.0000000   0.0000000   0.0000000   0.0000000   0.0000000
 NMagM=    2.7928460   2.7928460   2.7928460   2.7928460   2.7928460   2.7928460   2.7928460   2.7928460   2.7928460   2.7928460
 AtZNuc=   1.0000000   1.0000000   1.0000000   1.0000000   1.0000000   1.0000000   1.0000000   1.0000000   1.0000000   1.0000000
 Leave Link  101 at Thu May  5 13:02:11 2022, MaxMem=  6710886400 cpu:               4.5 elap:               0.2
 (Enter /sw/apps/gaussian-16.0/g16/l202.exe)
 Stoichiometry    C55H74MgN4O6
 Framework group  C1[X(C55H74MgN4O6)]
 Deg. of freedom   414
 Full point group                 C1      NOp   1
 Largest Abelian subgroup         C1      NOp   1
 Largest concise Abelian subgroup C1      NOp   1
                         Standard orientation:                         
 ---------------------------------------------------------------------
 Center     Atomic      Atomic             Coordinates (Angstroms)
 Number     Number       Type             X           Y           Z
 ---------------------------------------------------------------------
      1         12           0        4.519148    1.000138    0.231989
      2          6           0        4.128337   -2.310842    0.730747
      3          6           0        4.430150    0.493064   -3.217736
      4          6           0        4.359777    4.315070   -0.364203
      5          6           0        3.726135    1.531729    3.687684
      6          7           0        4.119782   -0.733206   -1.014749
      7          6           0        4.061226   -1.976795   -0.607354
      8          6           0        3.690782   -2.905516   -1.794579
      9          6           0        4.258428   -2.069878   -2.993141
     10          6           0        4.258836   -0.607311   -2.386304
     11          6           0        5.726957   -2.476181   -3.408306
     12          6           0        2.094297   -3.193650   -1.987188
     13          6           0        1.545399   -4.590803   -1.665395
     14          6           0        0.196460   -4.696160   -0.914657
     15          8           0        0.054682   -5.204813    0.179091
     16          8           0       -0.823470   -4.192386   -1.691582
     17          7           0        4.648952    2.273382   -1.549662
     18          6           0        4.513760    1.857762   -2.831349
     19          6           0        4.609676    2.989823   -3.671329
     20          6           0        4.583332    4.169243   -2.906081
     21          6           0        4.560441    3.638041   -1.522129
     22          6           0        4.589475    2.790977   -5.148198
     23          6           0        4.528668    5.546173   -3.518117
     24          8           0        4.546923    5.701067   -4.731291
     25          6           0        4.644790    6.763242   -2.637496
     26          7           0        4.117024    2.652633    1.470573
     27          6           0        4.197167    3.926097    0.965493
     28          6           0        3.821780    4.976906    2.048831
     29          6           0        3.636163    4.097555    3.390056
     30          6           0        3.769868    2.679456    2.831319
     31          6           0        4.899888    6.027012    2.132259
     32          6           0        2.363158    4.339450    4.208731
     33          6           0        2.442707    4.840802    5.702855
     34          7           0        4.034109   -0.115991    1.870745
     35          6           0        3.864391    0.217657    3.179609
     36          6           0        4.061697   -1.011161    3.917776
     37          6           0        4.173687   -2.032270    2.982282
     38          6           0        4.146653   -1.424105    1.775321
     39          6           0        3.980209   -1.246713    5.324195
     40          6           0        4.198821   -3.483724    2.877580
     41          8           0        4.260818   -4.392729    3.675608
     42          6           0        4.231048   -3.694952    1.347683
     43          6           0        5.404498   -4.466957    0.916934
     44          8           0        6.550699   -4.027061    0.842640
     45          8           0        4.998882   -5.657829    0.423466
     46          6           0        6.081824   -6.520445   -0.065652
     47          6           0       -2.198693   -4.361705   -1.115601
     48          6           0       -2.831794   -3.051794   -1.081464
     49          6           0       -4.021810   -2.831857   -0.506228
     50          6           0       -4.971944   -3.907179    0.214018
     51          6           0       -4.521154   -1.410808   -0.341603
     52          6           0       -5.907479   -1.071416   -0.996162
     53          6           0       -5.844157   -0.104575   -2.157803
     54          6           0       -7.255426    0.486401   -2.373856
     55          6           0       -7.698767    0.447517   -3.879538
     56          6           0       -7.403812    1.931378   -1.868514
     57          6           0       -8.630078    2.189489   -1.117828
     58          6           0       -8.291774    2.143180    0.386005
     59          6           0       -9.521665    1.926542    1.216176
     60          6           0       -9.498456    2.984032    2.389499
     61          6           0       -9.669933    0.425055    1.813482
     62          6           0      -10.708308   -0.352170    1.044846
     63          6           0      -12.148584   -0.082506    1.510926
     64          6           0      -13.205725    0.382909    0.462279
     65          6           0      -13.404936   -0.761421   -0.580307
     66          6           0      -14.527882    0.815822    1.073027
     67          1           0        4.362927    0.139940   -4.248205
     68          1           0        4.456814    5.400487   -0.431329
     69          1           0        3.672820    1.653229    4.772091
     70          1           0        4.238552   -3.846852   -1.816840
     71          1           0        3.621780   -2.187724   -3.870142
     72          1           0        6.525513   -1.745099   -3.279003
     73          1           0        5.708970   -2.736306   -4.466083
     74          1           0        6.035577   -3.265277   -2.722175
     75          1           0        1.739338   -2.818400   -2.946972
     76          1           0        1.638899   -2.546437   -1.237213
     77          1           0        2.294518   -5.251911   -1.229323
     78          1           0        1.292297   -5.031680   -2.630421
     79          1           0        4.013806    3.570007   -5.648544
     80          1           0        4.020468    1.875166   -5.307560
     81          1           0        5.571583    2.592386   -5.577634
     82          1           0        5.480928    6.921479   -1.956132
     83          1           0        3.661328    6.893228   -2.187553
     84          1           0        4.722762    7.562476   -3.374531
     85          1           0        2.867903    5.444798    1.805095
     86          1           0        4.444308    4.253813    4.103817
     87          1           0        5.857590    5.691189    1.736137
     88          1           0        5.081308    6.294588    3.173143
     89          1           0        4.590649    6.948634    1.640660
     90          1           0        1.609600    3.586617    3.976963
     91          1           0        1.781099    5.076427    3.656368
     92          1           0        3.441505    4.957034    6.125303
     93          1           0        1.867614    4.129490    6.295427
     94          1           0        1.903404    5.783571    5.618894
     95          1           0        3.137090   -0.726509    5.777992
     96          1           0        4.880433   -0.916357    5.840833
     97          1           0        3.812348   -2.313268    5.474226
     98          1           0        3.361678   -4.310636    1.119388
     99          1           0        5.717469   -7.527662   -0.264406
    100          1           0        6.953568   -6.557719    0.588264
    101          1           0        6.308858   -6.108870   -1.049463
    102          1           0       -2.258831   -5.066297   -0.286594
    103          1           0       -2.852267   -4.864547   -1.828343
    104          1           0       -2.232390   -2.188318   -1.367831
    105          1           0       -5.206426   -3.498626    1.195870
    106          1           0       -4.593603   -4.917897    0.364461
    107          1           0       -5.958052   -4.043784   -0.231275
    108          1           0       -3.748033   -0.772446   -0.768935
    109          1           0       -4.546628   -1.278883    0.739779
    110          1           0       -6.552710   -0.544778   -0.292910
    111          1           0       -6.286842   -2.022879   -1.369314
    112          1           0       -5.494908   -0.701625   -3.000789
    113          1           0       -5.184943    0.718489   -1.880905
    114          1           0       -7.893731   -0.213706   -1.833215
    115          1           0       -7.850467    1.422034   -4.342841
    116          1           0       -8.574549   -0.202190   -3.880142
    117          1           0       -6.904858   -0.068889   -4.419119
    118          1           0       -7.399114    2.670624   -2.670490
    119          1           0       -6.500782    2.156416   -1.300259
    120          1           0       -9.294648    1.336806   -1.254198
    121          1           0       -9.039477    3.159582   -1.397943
    122          1           0       -7.810145    3.051149    0.749824
    123          1           0       -7.668331    1.267136    0.565577
    124          1           0      -10.406299    2.095912    0.603024
    125          1           0       -9.369840    4.043254    2.165381
    126          1           0       -8.813371    2.664873    3.174082
    127          1           0      -10.435154    3.041748    2.944396
    128          1           0      -10.032692    0.615417    2.824021
    129          1           0       -8.742103   -0.134434    1.931879
    130          1           0      -10.562216   -1.374860    1.391333
    131          1           0      -10.629117   -0.243804   -0.037270
    132          1           0      -12.099623    0.771808    2.186305
    133          1           0      -12.526462   -0.925085    2.091672
    134          1           0      -12.885929    1.320872    0.007937
    135          1           0      -14.457217   -1.042839   -0.604492
    136          1           0      -12.751516   -1.612650   -0.391373
    137          1           0      -13.160145   -0.329739   -1.551219
    138          1           0      -14.462754    1.895667    1.209378
    139          1           0      -14.553839    0.225180    1.988538
    140          1           0      -15.421049    0.621118    0.480268
 ---------------------------------------------------------------------
 Rotational constants (GHZ):           0.0322175           0.0130750           0.0116947
 Leave Link  202 at Thu May  5 13:02:11 2022, MaxMem=  6710886400 cpu:               0.2 elap:               0.0
 (Enter /sw/apps/gaussian-16.0/g16/l301.exe)
 Standard basis: VSTO-6G (5D, 7F)
 Ernie: Thresh=  0.10000D-02 Tol=  0.10000D-05 Strict=F.
 There are   338 symmetry adapted cartesian basis functions of A   symmetry.
 There are   338 symmetry adapted basis functions of A   symmetry.
   338 basis functions,  2028 primitive gaussians,   338 cartesian basis functions
   176 alpha electrons      176 beta electrons
       nuclear repulsion energy      4904.6218342655 Hartrees.
 IExCor=    0 DFT=F Ex=HF Corr=None ExCW=0 ScaHFX=  1.000000
 ScaDFX=  1.000000  1.000000  1.000000  1.000000 ScalE2=  1.000000  1.000000
 IRadAn=      5 IRanWt=     -1 IRanGd=            0 ICorTp=0 IEmpDi=  4
 Integral buffers will be    131072 words long.
 Regular integral format.
 Two-electron integral symmetry is turned off.
 Leave Link  301 at Thu May  5 13:02:11 2022, MaxMem=  6710886400 cpu:               1.2 elap:               0.1
 (Enter /sw/apps/gaussian-16.0/g16/l302.exe)
 Do NDO integrals.
 NPDir=0 NMtPBC=     1 NCelOv=     1 NCel=       1 NClECP=     1 NCelD=      1
         NCelK=      1 NCelE2=     1 NClLst=     1 CellRange=     0.0.
 One-electron integrals computed using PRISM.
 Generate ZINDO/S integrals.
 NDO Nuclear repulsion=  4417.997111754491 Hartrees.
 NBasis=   338 RedAO= F EigKep=  0.00D+00  NBF=   338
 NBsUse=   338 1.00D-04 EigRej=  0.00D+00 NBFU=   338
 Leave Link  302 at Thu May  5 13:02:11 2022, MaxMem=  6710886400 cpu:               8.0 elap:               0.4
 (Enter /sw/apps/gaussian-16.0/g16/l303.exe)
 DipDrv:  MaxL=1.
 DipDrv:  will hold  3 matrices at once.
 Leave Link  303 at Thu May  5 13:02:11 2022, MaxMem=  6710886400 cpu:               1.4 elap:               0.1
 (Enter /sw/apps/gaussian-16.0/g16/l308.exe)
 Leave Link  308 at Thu May  5 13:02:11 2022, MaxMem=  6710886400 cpu:               4.5 elap:               0.2
 (Enter /sw/apps/gaussian-16.0/g16/l401.exe)
 Simple Huckel Guess.
 JPrj=0 DoOrth=F DoCkMO=F.
 Leave Link  401 at Thu May  5 13:02:11 2022, MaxMem=  6710886400 cpu:               3.3 elap:               0.2
 (Enter /sw/apps/gaussian-16.0/g16/l502.exe)
 Two-electron integral symmetry not used.
 Closed shell SCF:
 Using DIIS extrapolation, IDIIS=  1040.
 Overlap will be assumed to be unity.
 NGot=  6710886400 LenX=  6710643598 LenY=  6710528913
 Requested convergence on RMS density matrix=1.00D-08 within 128 cycles.
 Requested convergence on MAX density matrix=1.00D-06.
 Requested convergence on             energy=1.00D-06.
 No special actions if energy rises.
 Fock matrices will be formed incrementally for  20 cycles.

 Cycle   1  Pass 1  IDiag  1:
 E= -472.702271751177    
 DIIS: error= 5.94D-02 at cycle   1 NSaved=   1.
 NSaved= 1 IEnMin= 1 EnMin= -472.702271751177     IErMin= 1 ErrMin= 5.94D-02
 ErrMax= 5.94D-02  0.00D+00 EMaxC= 1.00D-01 BMatC= 8.31D-01 BMatP= 8.31D-01
 IDIUse=3 WtCom= 4.06D-01 WtEn= 5.94D-01
 Coeff-Com:  0.100D+01
 Coeff-En:   0.100D+01
 Coeff:      0.100D+01
 GapD=    2.000 DampG=2.000 DampE=0.500 DampFc=1.0000 IDamp=-1.
 RMSDP=3.98D-03 MaxDP=1.70D-01              OVMax= 0.00D+00

 Cycle   2  Pass 1  IDiag  1:
 RMSU=  3.98D-03    CP:  9.95D-01
 E= -474.532796452641     Delta-E=       -1.830524701464 Rises=F Damp=F
 DIIS: error= 2.13D-02 at cycle   2 NSaved=   2.
 NSaved= 2 IEnMin= 2 EnMin= -474.532796452641     IErMin= 2 ErrMin= 2.13D-02
 ErrMax= 2.13D-02  0.00D+00 EMaxC= 1.00D-01 BMatC= 5.00D-02 BMatP= 8.31D-01
 IDIUse=3 WtCom= 7.87D-01 WtEn= 2.13D-01
 Coeff-Com: -0.819D-01 0.108D+01
 Coeff-En:   0.000D+00 0.100D+01
 Coeff:     -0.645D-01 0.106D+01
 RMSDP=1.09D-03 MaxDP=5.64D-02 DE=-1.83D+00 OVMax= 0.00D+00

 Cycle   3  Pass 1  IDiag  1:
 RMSU=  1.00D-03    CP:  9.93D-01  1.10D+00
 E= -474.633244198886     Delta-E=       -0.100447746245 Rises=F Damp=F
 DIIS: error= 9.22D-03 at cycle   3 NSaved=   3.
 NSaved= 3 IEnMin= 3 EnMin= -474.633244198886     IErMin= 3 ErrMin= 9.22D-03
 ErrMax= 9.22D-03  0.00D+00 EMaxC= 1.00D-01 BMatC= 6.40D-03 BMatP= 5.00D-02
 IDIUse=3 WtCom= 9.08D-01 WtEn= 9.22D-02
 Coeff-Com: -0.659D-01 0.232D+00 0.834D+00
 Coeff-En:   0.000D+00 0.000D+00 0.100D+01
 Coeff:     -0.598D-01 0.211D+00 0.849D+00
 RMSDP=3.62D-04 MaxDP=1.66D-02 DE=-1.00D-01 OVMax= 0.00D+00

 Cycle   4  Pass 1  IDiag  1:
 RMSU=  2.40D-04    CP:  9.93D-01  1.17D+00  9.26D-01
 E= -474.644911559531     Delta-E=       -0.011667360644 Rises=F Damp=F
 DIIS: error= 1.46D-03 at cycle   4 NSaved=   4.
 NSaved= 4 IEnMin= 4 EnMin= -474.644911559531     IErMin= 4 ErrMin= 1.46D-03
 ErrMax= 1.46D-03  0.00D+00 EMaxC= 1.00D-01 BMatC= 2.94D-04 BMatP= 6.40D-03
 IDIUse=3 WtCom= 9.85D-01 WtEn= 1.46D-02
 Coeff-Com:  0.230D-03-0.352D-01 0.314D-01 0.100D+01
 Coeff-En:   0.000D+00 0.000D+00 0.000D+00 0.100D+01
 Coeff:      0.226D-03-0.347D-01 0.310D-01 0.100D+01
 RMSDP=1.24D-04 MaxDP=7.36D-03 DE=-1.17D-02 OVMax= 0.00D+00

 Cycle   5  Pass 1  IDiag  1:
 RMSU=  8.00D-05    CP:  9.93D-01  1.17D+00  1.02D+00  1.06D+00
 E= -474.645876172071     Delta-E=       -0.000964612540 Rises=F Damp=F
 DIIS: error= 5.20D-04 at cycle   5 NSaved=   5.
 NSaved= 5 IEnMin= 5 EnMin= -474.645876172071     IErMin= 5 ErrMin= 5.20D-04
 ErrMax= 5.20D-04  0.00D+00 EMaxC= 1.00D-01 BMatC= 5.18D-05 BMatP= 2.94D-04
 IDIUse=3 WtCom= 9.95D-01 WtEn= 5.20D-03
 Coeff-Com:  0.599D-02-0.247D-01-0.938D-01 0.185D+00 0.928D+00
 Coeff-En:   0.000D+00 0.000D+00 0.000D+00 0.000D+00 0.100D+01
 Coeff:      0.596D-02-0.246D-01-0.933D-01 0.184D+00 0.928D+00
 RMSDP=6.18D-05 MaxDP=3.56D-03 DE=-9.65D-04 OVMax= 0.00D+00

 Cycle   6  Pass 1  IDiag  1:
 RMSU=  3.57D-05    CP:  9.92D-01  1.18D+00  1.03D+00  1.25D+00  1.07D+00
 E= -474.646059858226     Delta-E=       -0.000183686156 Rises=F Damp=F
 DIIS: error= 2.56D-04 at cycle   6 NSaved=   6.
 NSaved= 6 IEnMin= 6 EnMin= -474.646059858226     IErMin= 6 ErrMin= 2.56D-04
 ErrMax= 2.56D-04  0.00D+00 EMaxC= 1.00D-01 BMatC= 7.63D-06 BMatP= 5.18D-05
 IDIUse=3 WtCom= 9.97D-01 WtEn= 2.56D-03
 Coeff-Com:  0.153D-03 0.438D-02-0.192D-01-0.994D-01 0.122D+00 0.992D+00
 Coeff-En:   0.000D+00 0.000D+00 0.000D+00 0.000D+00 0.000D+00 0.100D+01
 Coeff:      0.152D-03 0.437D-02-0.191D-01-0.992D-01 0.122D+00 0.992D+00
 RMSDP=2.68D-05 MaxDP=1.89D-03 DE=-1.84D-04 OVMax= 0.00D+00

 Cycle   7  Pass 1  IDiag  1:
 RMSU=  1.30D-05    CP:  9.92D-01  1.18D+00  1.04D+00  1.29D+00  1.26D+00
                    CP:  1.36D+00
 E= -474.646096696635     Delta-E=       -0.000036838409 Rises=F Damp=F
 DIIS: error= 1.01D-04 at cycle   7 NSaved=   7.
 NSaved= 7 IEnMin= 7 EnMin= -474.646096696635     IErMin= 7 ErrMin= 1.01D-04
 ErrMax= 1.01D-04  0.00D+00 EMaxC= 1.00D-01 BMatC= 1.06D-06 BMatP= 7.63D-06
 IDIUse=3 WtCom= 9.99D-01 WtEn= 1.01D-03
 Coeff-Com: -0.566D-03 0.243D-02 0.791D-02-0.171D-01-0.681D-01-0.131D+00
 Coeff-Com:  0.121D+01
 Coeff-En:   0.000D+00 0.000D+00 0.000D+00 0.000D+00 0.000D+00 0.000D+00
 Coeff-En:   0.100D+01
 Coeff:     -0.566D-03 0.242D-02 0.790D-02-0.171D-01-0.680D-01-0.131D+00
 Coeff:      0.121D+01
 RMSDP=2.46D-05 MaxDP=1.59D-03 DE=-3.68D-05 OVMax= 0.00D+00

 Cycle   8  Pass 1  IDiag  1:
 RMSU=  8.68D-06    CP:  9.92D-01  1.18D+00  1.04D+00  1.33D+00  1.32D+00
                    CP:  1.86D+00  1.82D+00
 E= -474.646113154047     Delta-E=       -0.000016457412 Rises=F Damp=F
 DIIS: error= 9.00D-05 at cycle   8 NSaved=   8.
 NSaved= 8 IEnMin= 8 EnMin= -474.646113154047     IErMin= 8 ErrMin= 9.00D-05
 ErrMax= 9.00D-05  0.00D+00 EMaxC= 1.00D-01 BMatC= 9.23D-07 BMatP= 1.06D-06
 IDIUse=1 WtCom= 1.00D+00 WtEn= 0.00D+00
 Coeff-Com: -0.237D-04-0.120D-02 0.511D-02 0.238D-01-0.122D-01-0.370D+00
 Coeff-Com:  0.455D+00 0.899D+00
 Coeff:     -0.237D-04-0.120D-02 0.511D-02 0.238D-01-0.122D-01-0.370D+00
 Coeff:      0.455D+00 0.899D+00
 RMSDP=1.67D-05 MaxDP=9.23D-04 DE=-1.65D-05 OVMax= 0.00D+00

 Cycle   9  Pass 1  IDiag  1:
 RMSU=  3.10D-06    CP:  9.92D-01  1.18D+00  1.04D+00  1.34D+00  1.36D+00
                    CP:  2.16D+00  2.61D+00  1.59D+00
 E= -474.646122752313     Delta-E=       -0.000009598266 Rises=F Damp=F
 DIIS: error= 5.41D-05 at cycle   9 NSaved=   9.
 NSaved= 9 IEnMin= 9 EnMin= -474.646122752313     IErMin= 9 ErrMin= 5.41D-05
 ErrMax= 5.41D-05  0.00D+00 EMaxC= 1.00D-01 BMatC= 4.50D-07 BMatP= 9.23D-07
 IDIUse=1 WtCom= 1.00D+00 WtEn= 0.00D+00
 Coeff-Com:  0.306D-03-0.120D-02-0.438D-02 0.129D-02 0.657D-01 0.181D-02
 Coeff-Com: -0.350D+00-0.107D+01 0.236D+01
 Coeff:      0.306D-03-0.120D-02-0.438D-02 0.129D-02 0.657D-01 0.181D-02
 Coeff:     -0.350D+00-0.107D+01 0.236D+01
 RMSDP=3.40D-05 MaxDP=1.74D-03 DE=-9.60D-06 OVMax= 0.00D+00

 Cycle  10  Pass 1  IDiag  1:
 RMSU=  1.46D-05    CP:  9.92D-01  1.18D+00  1.04D+00  1.38D+00  1.41D+00
                    CP:  2.76D+00  3.00D+00  3.00D+00  3.00D+00
 E= -474.646135624902     Delta-E=       -0.000012872589 Rises=F Damp=F
 DIIS: error= 3.61D-05 at cycle  10 NSaved=  10.
 NSaved=10 IEnMin=10 EnMin= -474.646135624902     IErMin=10 ErrMin= 3.61D-05
 ErrMax= 3.61D-05  0.00D+00 EMaxC= 1.00D-01 BMatC= 1.94D-07 BMatP= 4.50D-07
 IDIUse=1 WtCom= 1.00D+00 WtEn= 0.00D+00
 Coeff-Com: -0.131D-03 0.120D-02-0.555D-03-0.190D-01 0.761D-02 0.111D+00
 Coeff-Com:  0.157D+00-0.635D+00-0.370D+00 0.175D+01
 Coeff:     -0.131D-03 0.120D-02-0.555D-03-0.190D-01 0.761D-02 0.111D+00
 Coeff:      0.157D+00-0.635D+00-0.370D+00 0.175D+01
 RMSDP=2.75D-05 MaxDP=1.27D-03 DE=-1.29D-05 OVMax= 0.00D+00

 Cycle  11  Pass 1  IDiag  1:
 RMSU=  1.45D-05    CP:  9.92D-01  1.18D+00  1.04D+00  1.40D+00  1.44D+00
                    CP:  3.00D+00  3.00D+00  3.00D+00  3.00D+00  2.19D+00
 E= -474.646141202281     Delta-E=       -0.000005577379 Rises=F Damp=F
 DIIS: error= 1.67D-05 at cycle  11 NSaved=  11.
 NSaved=11 IEnMin=11 EnMin= -474.646141202281     IErMin=11 ErrMin= 1.67D-05
 ErrMax= 1.67D-05  0.00D+00 EMaxC= 1.00D-01 BMatC= 3.99D-08 BMatP= 1.94D-07
 IDIUse=1 WtCom= 1.00D+00 WtEn= 0.00D+00
 Coeff-Com: -0.834D-04 0.329D-03 0.145D-02-0.234D-02-0.114D-01-0.238D-01
 Coeff-Com:  0.161D+00 0.233D+00-0.669D+00-0.861D-01 0.140D+01
 Coeff:     -0.834D-04 0.329D-03 0.145D-02-0.234D-02-0.114D-01-0.238D-01
 Coeff:      0.161D+00 0.233D+00-0.669D+00-0.861D-01 0.140D+01
 RMSDP=1.47D-05 MaxDP=6.88D-04 DE=-5.58D-06 OVMax= 0.00D+00

 Cycle  12  Pass 1  IDiag  1:
 RMSU=  3.60D-06    CP:  9.92D-01  1.18D+00  1.04D+00  1.41D+00  1.45D+00
                    CP:  3.00D+00  3.00D+00  3.00D+00  3.00D+00  2.80D+00
                    CP:  1.73D+00
 E= -474.646142380020     Delta-E=       -0.000001177739 Rises=F Damp=F
 DIIS: error= 5.83D-06 at cycle  12 NSaved=  12.
 NSaved=12 IEnMin=12 EnMin= -474.646142380020     IErMin=12 ErrMin= 5.83D-06
 ErrMax= 5.83D-06  0.00D+00 EMaxC= 1.00D-01 BMatC= 7.54D-09 BMatP= 3.99D-08
 IDIUse=1 WtCom= 1.00D+00 WtEn= 0.00D+00
 Coeff-Com:  0.399D-04-0.313D-03 0.793D-04 0.405D-02 0.210D-02-0.331D-01
 Coeff-Com: -0.278D-01 0.995D-01 0.196D+00-0.462D+00-0.810D-01 0.130D+01
 Coeff:      0.399D-04-0.313D-03 0.793D-04 0.405D-02 0.210D-02-0.331D-01
 Coeff:     -0.278D-01 0.995D-01 0.196D+00-0.462D+00-0.810D-01 0.130D+01
 RMSDP=3.88D-06 MaxDP=1.79D-04 DE=-1.18D-06 OVMax= 0.00D+00

 Cycle  13  Pass 1  IDiag  1:
 RMSU=  1.28D-06    CP:  9.92D-01  1.18D+00  1.03D+00  1.42D+00  1.46D+00
                    CP:  3.00D+00  3.00D+00  3.00D+00  3.00D+00  2.94D+00
                    CP:  1.92D+00  1.27D+00
 E= -474.646142521849     Delta-E=       -0.000000141829 Rises=F Damp=F
 DIIS: error= 3.51D-06 at cycle  13 NSaved=  13.
 NSaved=13 IEnMin=13 EnMin= -474.646142521849     IErMin=13 ErrMin= 3.51D-06
 ErrMax= 3.51D-06  0.00D+00 EMaxC= 1.00D-01 BMatC= 2.06D-09 BMatP= 7.54D-09
 IDIUse=1 WtCom= 1.00D+00 WtEn= 0.00D+00
 Coeff-Com:  0.846D-05-0.123D-04-0.301D-03-0.966D-04 0.232D-02 0.558D-02
 Coeff-Com: -0.144D-01-0.936D-01 0.131D+00 0.525D-01-0.189D+00-0.233D+00
 Coeff-Com:  0.134D+01
 Coeff:      0.846D-05-0.123D-04-0.301D-03-0.966D-04 0.232D-02 0.558D-02
 Coeff:     -0.144D-01-0.936D-01 0.131D+00 0.525D-01-0.189D+00-0.233D+00
 Coeff:      0.134D+01
 RMSDP=1.65D-06 MaxDP=7.80D-05 DE=-1.42D-07 OVMax= 0.00D+00

 Cycle  14  Pass 1  IDiag  1:
 RMSU=  3.73D-07    CP:  9.92D-01  1.18D+00  1.03D+00  1.42D+00  1.46D+00
                    CP:  3.00D+00  3.00D+00  3.00D+00  3.00D+00  2.98D+00
                    CP:  1.99D+00  1.41D+00  1.72D+00
 E= -474.646142561674     Delta-E=       -0.000000039824 Rises=F Damp=F
 DIIS: error= 2.60D-06 at cycle  14 NSaved=  14.
 NSaved=14 IEnMin=14 EnMin= -474.646142561674     IErMin=14 ErrMin= 2.60D-06
 ErrMax= 2.60D-06  0.00D+00 EMaxC= 1.00D-01 BMatC= 1.03D-09 BMatP= 2.06D-09
 IDIUse=1 WtCom= 1.00D+00 WtEn= 0.00D+00
 Coeff-Com: -0.265D-04 0.184D-03 0.447D-04-0.205D-02-0.254D-02 0.144D-01
 Coeff-Com:  0.344D-01-0.622D-01-0.999D-01 0.190D+00 0.138D+00-0.638D+00
 Coeff-Com: -0.371D+00 0.180D+01
 Coeff:     -0.265D-04 0.184D-03 0.447D-04-0.205D-02-0.254D-02 0.144D-01
 Coeff:      0.344D-01-0.622D-01-0.999D-01 0.190D+00 0.138D+00-0.638D+00
 Coeff:     -0.371D+00 0.180D+01
 RMSDP=1.55D-06 MaxDP=7.71D-05 DE=-3.98D-08 OVMax= 0.00D+00

 Cycle  15  Pass 1  IDiag  1:
 RMSU=  1.61D-07    CP:  9.92D-01  1.18D+00  1.03D+00  1.42D+00  1.46D+00
                    CP:  3.00D+00  3.00D+00  3.00D+00  3.00D+00  3.00D+00
                    CP:  2.03D+00  1.53D+00  2.63D+00  2.49D+00
 E= -474.646142586103     Delta-E=       -0.000000024429 Rises=F Damp=F
 DIIS: error= 9.83D-07 at cycle  15 NSaved=  15.
 NSaved=15 IEnMin=15 EnMin= -474.646142586103     IErMin=15 ErrMin= 9.83D-07
 ErrMax= 9.83D-07  0.00D+00 EMaxC= 1.00D-01 BMatC= 2.19D-10 BMatP= 1.03D-09
 IDIUse=1 WtCom= 1.00D+00 WtEn= 0.00D+00
 Coeff-Com: -0.208D-05 0.109D-06 0.108D-03 0.142D-03-0.128D-02-0.162D-02
 Coeff-Com:  0.852D-02 0.128D-01-0.225D-01-0.287D-01 0.720D-01 0.804D-01
 Coeff-Com: -0.396D+00-0.126D+00 0.140D+01
 Coeff:     -0.208D-05 0.109D-06 0.108D-03 0.142D-03-0.128D-02-0.162D-02
 Coeff:      0.852D-02 0.128D-01-0.225D-01-0.287D-01 0.720D-01 0.804D-01
 Coeff:     -0.396D+00-0.126D+00 0.140D+01
 RMSDP=7.91D-07 MaxDP=4.15D-05 DE=-2.44D-08 OVMax= 0.00D+00

 Cycle  16  Pass 1  IDiag  1:
 RMSU=  2.36D-07    CP:  9.92D-01  1.18D+00  1.03D+00  1.42D+00  1.46D+00
                    CP:  3.00D+00  3.00D+00  3.00D+00  3.00D+00  3.00D+00
                    CP:  2.05D+00  1.59D+00  3.00D+00  3.00D+00  1.80D+00
 E= -474.646142591178     Delta-E=       -0.000000005075 Rises=F Damp=F
 DIIS: error= 3.82D-07 at cycle  16 NSaved=  16.
 NSaved=16 IEnMin=16 EnMin= -474.646142591178     IErMin=16 ErrMin= 3.82D-07
 ErrMax= 3.82D-07  0.00D+00 EMaxC= 1.00D-01 BMatC= 3.52D-11 BMatP= 2.19D-10
 IDIUse=1 WtCom= 1.00D+00 WtEn= 0.00D+00
 Coeff-Com:  0.616D-05-0.421D-04-0.668D-05 0.495D-03 0.322D-03-0.288D-02
 Coeff-Com: -0.635D-02 0.803D-02 0.293D-01-0.469D-01-0.271D-01 0.135D+00
 Coeff-Com:  0.846D-01-0.453D+00 0.128D+00 0.115D+01
 Coeff:      0.616D-05-0.421D-04-0.668D-05 0.495D-03 0.322D-03-0.288D-02
 Coeff:     -0.635D-02 0.803D-02 0.293D-01-0.469D-01-0.271D-01 0.135D+00
 Coeff:      0.846D-01-0.453D+00 0.128D+00 0.115D+01
 RMSDP=2.78D-07 MaxDP=1.44D-05 DE=-5.07D-09 OVMax= 0.00D+00

 Cycle  17  Pass 1  IDiag  1:
 RMSU=  1.21D-07    CP:  9.92D-01  1.18D+00  1.03D+00  1.42D+00  1.46D+00
                    CP:  3.00D+00  3.00D+00  3.00D+00  3.00D+00  3.00D+00
                    CP:  2.06D+00  1.61D+00  3.00D+00  3.00D+00  2.20D+00
                    CP:  1.88D+00
 E= -474.646142591660     Delta-E=       -0.000000000483 Rises=F Damp=F
 DIIS: error= 1.43D-07 at cycle  17 NSaved=  17.
 NSaved=17 IEnMin=17 EnMin= -474.646142591660     IErMin=17 ErrMin= 1.43D-07
 ErrMax= 1.43D-07  0.00D+00 EMaxC= 1.00D-01 BMatC= 2.43D-12 BMatP= 3.52D-11
 IDIUse=1 WtCom= 1.00D+00 WtEn= 0.00D+00
 Coeff-Com:  0.259D-06-0.464D-06-0.138D-04-0.293D-06 0.109D-03 0.138D-03
 Coeff-Com: -0.847D-03-0.236D-02 0.417D-02 0.994D-03-0.452D-02-0.947D-02
 Coeff-Com:  0.436D-01 0.131D-02-0.103D+00-0.573D-01 0.113D+01
 Coeff:      0.259D-06-0.464D-06-0.138D-04-0.293D-06 0.109D-03 0.138D-03
 Coeff:     -0.847D-03-0.236D-02 0.417D-02 0.994D-03-0.452D-02-0.947D-02
 Coeff:      0.436D-01 0.131D-02-0.103D+00-0.573D-01 0.113D+01
 RMSDP=3.10D-08 MaxDP=1.58D-06 DE=-4.83D-10 OVMax= 0.00D+00

 Cycle  18  Pass 1  IDiag  1:
 RMSU=  1.69D-08    CP:  9.92D-01  1.18D+00  1.03D+00  1.42D+00  1.46D+00
                    CP:  3.00D+00  3.00D+00  3.00D+00  3.00D+00  3.00D+00
                    CP:  2.06D+00  1.61D+00  3.00D+00  3.00D+00  2.26D+00
                    CP:  1.98D+00  1.06D+00
 E= -474.646142591685     Delta-E=       -0.000000000025 Rises=F Damp=F
 DIIS: error= 8.36D-08 at cycle  18 NSaved=  18.
 NSaved=18 IEnMin=18 EnMin= -474.646142591685     IErMin=18 ErrMin= 8.36D-08
 ErrMax= 8.36D-08  0.00D+00 EMaxC= 1.00D-01 BMatC= 4.53D-13 BMatP= 2.43D-12
 IDIUse=1 WtCom= 1.00D+00 WtEn= 0.00D+00
 Coeff-Com: -0.109D-05 0.748D-05 0.451D-07-0.834D-04-0.588D-04 0.521D-03
 Coeff-Com:  0.108D-02-0.150D-02-0.467D-02 0.733D-02 0.523D-02-0.242D-01
 Coeff-Com: -0.110D-01 0.713D-01-0.109D-01-0.218D+00 0.246D-02 0.118D+01
 Coeff:     -0.109D-05 0.748D-05 0.451D-07-0.834D-04-0.588D-04 0.521D-03
 Coeff:      0.108D-02-0.150D-02-0.467D-02 0.733D-02 0.523D-02-0.242D-01
 Coeff:     -0.110D-01 0.713D-01-0.109D-01-0.218D+00 0.246D-02 0.118D+01
 RMSDP=1.47D-08 MaxDP=9.03D-07 DE=-2.46D-11 OVMax= 0.00D+00

 Cycle  19  Pass 1  IDiag  1:
 RMSU=  5.24D-09    CP:  9.92D-01  1.18D+00  1.03D+00  1.42D+00  1.46D+00
                    CP:  3.00D+00  3.00D+00  3.00D+00  3.00D+00  3.00D+00
                    CP:  2.06D+00  1.61D+00  3.00D+00  3.00D+00  2.29D+00
                    CP:  2.01D+00  1.08D+00  1.49D+00
 E= -474.646142591685     Delta-E=        0.000000000000 Rises=F Damp=F
 DIIS: error= 4.48D-08 at cycle  19 NSaved=  19.
 NSaved=19 IEnMin=18 EnMin= -474.646142591685     IErMin=19 ErrMin= 4.48D-08
 ErrMax= 4.48D-08  0.00D+00 EMaxC= 1.00D-01 BMatC= 5.22D-14 BMatP= 4.53D-13
 IDIUse=1 WtCom= 1.00D+00 WtEn= 0.00D+00
 Coeff-Com: -0.152D-07-0.231D-07 0.204D-05 0.998D-06-0.140D-04-0.240D-04
 Coeff-Com:  0.600D-04 0.323D-03-0.395D-03-0.257D-03 0.585D-03 0.168D-02
 Coeff-Com: -0.481D-02-0.525D-02 0.174D-01 0.128D-01-0.154D+00-0.631D-02
 Coeff-Com:  0.114D+01
 Coeff:     -0.152D-07-0.231D-07 0.204D-05 0.998D-06-0.140D-04-0.240D-04
 Coeff:      0.600D-04 0.323D-03-0.395D-03-0.257D-03 0.585D-03 0.168D-02
 Coeff:     -0.481D-02-0.525D-02 0.174D-01 0.128D-01-0.154D+00-0.631D-02
 Coeff:      0.114D+01
 RMSDP=4.89D-09 MaxDP=3.40D-07 DE= 0.00D+00 OVMax= 0.00D+00

 SCF Done:  E(RZINDO/S) =  -474.646142592     A.U. after   19 cycles
            NFock= 19  Conv=0.49D-08     -V/T= 0.9501
 KE=-9.510439098065D+03 PE=-7.751041266602D-07 EE= 4.617795844493D+03
 Leave Link  502 at Thu May  5 13:02:12 2022, MaxMem=  6710886400 cpu:              17.9 elap:               0.8
 (Enter /sw/apps/gaussian-16.0/g16/l801.exe)
 Range of M.O.s used for correlation:     1   338
 NBasis=   338 NAE=   176 NBE=   176 NFC=     0 NFV=     0
 NROrb=    338 NOA=   176 NOB=   176 NVA=   162 NVB=   162
 Leave Link  801 at Thu May  5 13:02:12 2022, MaxMem=  6710886400 cpu:               0.5 elap:               0.0
 (Enter /sw/apps/gaussian-16.0/g16/l914.exe)
 RHF ground state
 Two-electron integral symmetry not used.
 MDV=  6710886400 DFT=F DoStab=F Mixed=F DoRPA=F DoScal=F NonHer=F
 Making orbital integer symmetry assigments:
 Orbital symmetries:
       Occupied  (A) (A) (A) (A) (A) (A) (A) (A) (A) (A) (A) (A)
                 (A) (A) (A) (A) (A) (A) (A) (A) (A) (A) (A) (A)
                 (A) (A) (A) (A) (A) (A) (A) (A) (A) (A) (A) (A)
                 (A) (A) (A) (A) (A) (A) (A) (A) (A) (A) (A) (A)
                 (A) (A) (A) (A) (A) (A) (A) (A) (A) (A) (A) (A)
                 (A) (A) (A) (A) (A) (A) (A) (A) (A) (A) (A) (A)
                 (A) (A) (A) (A) (A) (A) (A) (A) (A) (A) (A) (A)
                 (A) (A) (A) (A) (A) (A) (A) (A) (A) (A) (A) (A)
                 (A) (A) (A) (A) (A) (A) (A) (A) (A) (A) (A) (A)
                 (A) (A) (A) (A) (A) (A) (A) (A) (A) (A) (A) (A)
                 (A) (A) (A) (A) (A) (A) (A) (A) (A) (A) (A) (A)
                 (A) (A) (A) (A) (A) (A) (A) (A) (A) (A) (A) (A)
                 (A) (A) (A) (A) (A) (A) (A) (A) (A) (A) (A) (A)
                 (A) (A) (A) (A) (A) (A) (A) (A) (A) (A) (A) (A)
                 (A) (A) (A) (A) (A) (A) (A) (A)
       Virtual   (A) (A) (A) (A) (A) (A) (A) (A) (A) (A) (A) (A)
                 (A) (A) (A) (A) (A) (A) (A) (A) (A) (A) (A) (A)
                 (A) (A) (A) (A) (A) (A) (A) (A) (A) (A) (A) (A)
                 (A) (A) (A) (A) (A) (A) (A) (A) (A) (A) (A) (A)
                 (A) (A) (A) (A) (A) (A) (A) (A) (A) (A) (A) (A)
                 (A) (A) (A) (A) (A) (A) (A) (A) (A) (A) (A) (A)
                 (A) (A) (A) (A) (A) (A) (A) (A) (A) (A) (A) (A)
                 (A) (A) (A) (A) (A) (A) (A) (A) (A) (A) (A) (A)
                 (A) (A) (A) (A) (A) (A) (A) (A) (A) (A) (A) (A)
                 (A) (A) (A) (A) (A) (A) (A) (A) (A) (A) (A) (A)
                 (A) (A) (A) (A) (A) (A) (A) (A) (A) (A) (A) (A)
                 (A) (A) (A) (A) (A) (A) (A) (A) (A) (A) (A) (A)
                 (A) (A) (A) (A) (A) (A) (A) (A) (A) (A) (A) (A)
                 (A) (A) (A) (A) (A) (A)
    20 initial guesses have been made.
 Convergence on wavefunction:    0.001000000000000
 Davidson Disk Diagonalization:  ConvIn= 1.00D-03 SkipCon=T Conv= 1.00D-03.
 Max sub-space:  2000 roots to seek:    20 dimension of matrix:        57024
 Iteration     1 Dimension    20 NMult     0 NNew     20
 CISAX will form    20 AO SS matrices at one time.
 NMat=    20 NSing=    20 JSym2X= 0.
 New state      3 was old state      6
 New state      5 was old state      3
 Excitation Energies [eV] at current iteration:
 Root      1 :     1.654014891719533
 Root      2 :     2.154825209387702
 Root      3 :     3.148612626918707
 Root      4 :     3.313635635895214
 Root      5 :     3.500860900235309
 Root      6 :     3.546943357867686
 Root      7 :     3.742380013701292
 Root      8 :     3.750080961227163
 Root      9 :     3.890585303930290
 Root     10 :     4.063327932707866
 Root     11 :     4.202406085431596
 Root     12 :     4.221295437267417
 Root     13 :     4.472060968057143
 Root     14 :     4.512753433030655
 Root     15 :     4.546796228475493
 Root     16 :     4.578188338429878
 Root     17 :     4.679399261209852
 Root     18 :     4.788534545178744
 Root     19 :     4.845640666487659
 Root     20 :     5.613743008827873
 Iteration     2 Dimension    40 NMult    20 NNew     20
 CISAX will form    20 AO SS matrices at one time.
 NMat=    20 NSing=    20 JSym2X= 0.
 Root      1 not converged, maximum delta is    0.042553066402645
 Root      2 not converged, maximum delta is    0.029859828203744
 New state      3 was old state      4
 Root      3 not converged, maximum delta is    0.289817450503603
 New state      4 was old state      3
 Root      4 not converged, maximum delta is    0.265081372233481
 Root      5 not converged, maximum delta is    0.208617181174185
 Excitation Energies [eV] at current iteration:
 Root      1 :     1.295267504104030   Change is   -0.358747387615503
 Root      2 :     1.959005043826423   Change is   -0.195820165561279
 Root      3 :     3.024542894226377   Change is   -0.289092741668837
 Root      4 :     3.125331808733192   Change is   -0.023280818185514
 Root      5 :     3.182387428054880   Change is   -0.318473472180429
 Root      6 :     3.345136925594170   Change is   -0.201806432273515
 Root      7 :     3.454600323675313   Change is   -0.287779690025979
 Root      8 :     3.516700635243480   Change is   -0.233380325983683
 Root      9 :     3.659398505608139   Change is   -0.231186798322150
 Root     10 :     3.741996357700862   Change is   -0.321331575007004
 Root     11 :     3.777329579851786   Change is   -0.735423853178870
 Root     12 :     3.819165413413221   Change is   -0.969369131765523
 Root     13 :     3.864095873274772   Change is   -0.357199563992644
 Root     14 :     4.087519650694300   Change is   -0.114886434737296
 Root     15 :     4.257467190626257   Change is   -0.320721147803620
 Root     16 :     4.309577599762540   Change is   -0.162483368294603
 Root     17 :     4.385441709907768   Change is   -0.293957551302084
 Root     18 :     4.504700133364735   Change is   -0.042096095110758
 Root     19 :     4.841150904648159   Change is   -0.004489761839500
 Root     20 :     5.608009470930044   Change is   -0.005733537897829
 Iteration     3 Dimension    45 NMult    40 NNew      5
 CISAX will form     5 AO SS matrices at one time.
 NMat=     5 NSing=     5 JSym2X= 0.
 Root      1 not converged, maximum delta is    0.015364905902614
 Root      2 not converged, maximum delta is    0.018299066643314
 Root      3 not converged, maximum delta is    0.033299992688865
 Root      4 not converged, maximum delta is    0.081103737326976
 Root      5 not converged, maximum delta is    0.115248351595762
 Excitation Energies [eV] at current iteration:
 Root      1 :     1.278274816314854   Change is   -0.016992687789177
 Root      2 :     1.933027432360135   Change is   -0.025977611466288
 Root      3 :     3.004199576369162   Change is   -0.020343317857216
 Root      4 :     3.115849042541828   Change is   -0.009482766191365
 Root      5 :     3.158727095377181   Change is   -0.023660332677699
 Iteration     4 Dimension    50 NMult    45 NNew      5
 CISAX will form     5 AO SS matrices at one time.
 NMat=     5 NSing=     5 JSym2X= 0.
 Root      1 not converged, maximum delta is    0.002729864049637
 Root      2 not converged, maximum delta is    0.003164036914798
 Root      3 not converged, maximum delta is    0.006904520222321
 Root      4 not converged, maximum delta is    0.010182217423401
 Root      5 not converged, maximum delta is    0.014851474327542
 Excitation Energies [eV] at current iteration:
 Root      1 :     1.277514864452707   Change is   -0.000759951862147
 Root      2 :     1.932362367797308   Change is   -0.000665064562827
 Root      3 :     3.002098050067179   Change is   -0.002101526301982
 Root      4 :     3.114751547857065   Change is   -0.001097494684763
 Root      5 :     3.156343163416288   Change is   -0.002383931960894
 Iteration     5 Dimension    55 NMult    50 NNew      5
 CISAX will form     5 AO SS matrices at one time.
 NMat=     5 NSing=     5 JSym2X= 0.
 Root      1 has converged.
 Root      2 has converged.
 Root      3 not converged, maximum delta is    0.006214326996854
 Root      4 not converged, maximum delta is    0.005785103867525
 Root      5 not converged, maximum delta is    0.015033605117907
 Excitation Energies [eV] at current iteration:
 Root      1 :     1.277469479564611   Change is   -0.000045384888096
 Root      2 :     1.932323442158420   Change is   -0.000038925638888
 Root      3 :     3.001563994432251   Change is   -0.000534055634929
 Root      4 :     3.114420615207113   Change is   -0.000330932649952
 Root      5 :     3.155044310427967   Change is   -0.001298852988321
 Iteration     6 Dimension    58 NMult    55 NNew      3
 CISAX will form     3 AO SS matrices at one time.
 NMat=     3 NSing=     3 JSym2X= 0.
 Root      1 has converged.
 Root      2 has converged.
 Root      3 not converged, maximum delta is    0.020737299436988
 Root      4 not converged, maximum delta is    0.073790453662474
 Root      5 not converged, maximum delta is    0.224914990946289
 Excitation Energies [eV] at current iteration:
 Root      1 :     1.277469397104972   Change is   -0.000000082459639
 Root      2 :     1.932322088228475   Change is   -0.000001353929945
 Root      3 :     3.000810535525168   Change is   -0.000753458907082
 Root      4 :     3.112762184130764   Change is   -0.001658431076349
 Root      5 :     3.136543770753474   Change is   -0.018500539674493
 Iteration     7 Dimension    61 NMult    58 NNew      3
 CISAX will form     3 AO SS matrices at one time.
 NMat=     3 NSing=     3 JSym2X= 0.
 Root      1 has converged.
 Root      2 has converged.
 Root      3 not converged, maximum delta is    0.028493330609312
 New state      4 was old state      5
 Root      4 not converged, maximum delta is    0.387447254813894
 No map to state      5
 Excitation Energies [eV] at current iteration:
 Root      1 :     1.277469198164831   Change is   -0.000000198940141
 Root      2 :     1.932321405447996   Change is   -0.000000682780479
 Root      3 :     2.999874473148305   Change is   -0.000936062376863
 Root      4 :     3.068969315621121   Change is   -0.067574455132354
 Root      5 :     3.076514900837085
 Iteration     8 Dimension    64 NMult    61 NNew      3
 CISAX will form     3 AO SS matrices at one time.
 NMat=     3 NSing=     3 JSym2X= 0.
 Root      1 has converged.
 Root      2 has converged.
 New state      3 was old state      5
 Root      3 not converged, maximum delta is    0.112030400489136
 New state      4 was old state      3
 Root      4 not converged, maximum delta is    0.020586607188944
 New state      5 was old state      4
 Root      5 not converged, maximum delta is    0.093519973433498
 Excitation Energies [eV] at current iteration:
 Root      1 :     1.277469155177975   Change is   -0.000000042986856
 Root      2 :     1.932320997324013   Change is   -0.000000408123983
 Root      3 :     2.978627453439167   Change is   -0.097887447397917
 Root      4 :     2.999624383124005   Change is   -0.000250090024300
 Root      5 :     3.058518324360670   Change is   -0.010450991260450
 Iteration     9 Dimension    67 NMult    64 NNew      3
 CISAX will form     3 AO SS matrices at one time.
 NMat=     3 NSing=     3 JSym2X= 0.
 Root      1 has converged.
 Root      2 has converged.
 Root      3 not converged, maximum delta is    0.009321802505488
 Root      4 not converged, maximum delta is    0.002904147886511
 Root      5 not converged, maximum delta is    0.013728383758426
 Excitation Energies [eV] at current iteration:
 Root      1 :     1.277469151494619   Change is   -0.000000003683356
 Root      2 :     1.932320934344515   Change is   -0.000000062979498
 Root      3 :     2.968111720439280   Change is   -0.010515732999887
 Root      4 :     2.999529344069281   Change is   -0.000095039054724
 Root      5 :     3.055442929390797   Change is   -0.003075394969873
 Iteration    10 Dimension    70 NMult    67 NNew      3
 CISAX will form     3 AO SS matrices at one time.
 NMat=     3 NSing=     3 JSym2X= 0.
 Root      1 has converged.
 Root      2 has converged.
 Root      3 not converged, maximum delta is    0.008476609884313
 Root      4 not converged, maximum delta is    0.001614819113946
 Root      5 not converged, maximum delta is    0.012658175886981
 Excitation Energies [eV] at current iteration:
 Root      1 :     1.277469134132454   Change is   -0.000000017362165
 Root      2 :     1.932320867159427   Change is   -0.000000067185088
 Root      3 :     2.966347326957382   Change is   -0.001764393481898
 Root      4 :     2.999497062736589   Change is   -0.000032281332693
 Root      5 :     3.054055362769437   Change is   -0.001387566621361
 Iteration    11 Dimension    73 NMult    70 NNew      3
 CISAX will form     3 AO SS matrices at one time.
 NMat=     3 NSing=     3 JSym2X= 0.
 Root      1 has converged.
 Root      2 has converged.
 Root      3 not converged, maximum delta is    0.004965017155349
 Root      4 has converged.
 Root      5 not converged, maximum delta is    0.006892755361326
 Excitation Energies [eV] at current iteration:
 Root      1 :     1.277469130227556   Change is   -0.000000003904897
 Root      2 :     1.932320856993277   Change is   -0.000000010166150
 Root      3 :     2.965916441428572   Change is   -0.000430885528810
 Root      4 :     2.999487227866081   Change is   -0.000009834870507
 Root      5 :     3.053542185317540   Change is   -0.000513177451897
 Iteration    12 Dimension    75 NMult    73 NNew      2
 CISAX will form     2 AO SS matrices at one time.
 NMat=     2 NSing=     2 JSym2X= 0.
 Root      1 has converged.
 Root      2 has converged.
 Root      3 not converged, maximum delta is    0.001020388142569
 Root      4 has converged.
 Root      5 not converged, maximum delta is    0.001495558599071
 Excitation Energies [eV] at current iteration:
 Root      1 :     1.277469121557470   Change is   -0.000000008670086
 Root      2 :     1.932320851091253   Change is   -0.000000005902024
 Root      3 :     2.965845963077861   Change is   -0.000070478350711
 Root      4 :     2.999485731729152   Change is   -0.000001496136929
 Root      5 :     3.053456355238432   Change is   -0.000085830079108
 Iteration    13 Dimension    77 NMult    75 NNew      2
 CISAX will form     2 AO SS matrices at one time.
 NMat=     2 NSing=     2 JSym2X= 0.
 Root      1 has converged.
 Root      2 has converged.
 Root      3 has converged.
 Root      4 has converged.
 Root      5 has converged.
 Excitation Energies [eV] at current iteration:
 Root      1 :     1.277469119856433   Change is   -0.000000001701038
 Root      2 :     1.932320800534204   Change is   -0.000000050557049
 Root      3 :     2.965834859165953   Change is   -0.000011103911909
 Root      4 :     2.999485568481342   Change is   -0.000000163247811
 Root      5 :     3.053446566343145   Change is   -0.000009788895287
 Convergence achieved on expansion vectors.
 ***********************************************************************
 Excited states from <AA,BB:AA,BB> singles matrix:
 ***********************************************************************
 
 1PDM for each excited state written to RWF  633
 Ground to excited state transition densities written to RWF  633
 Ground to excited state transition electric dipole moments (Au):
       state          X           Y           Z        Dip. S.      Osc.
         1         0.3796      2.4142     -3.6396     19.2191      0.6015
         2         0.0201     -0.5030     -0.1163      0.2669      0.0126
         3        -0.0148      0.2731      0.0859      0.0822      0.0060
         4        -0.0935      2.8644      1.7021     11.1106      0.8165
         5        -0.0715      0.4956      0.2783      0.3281      0.0245
 Ground to excited state transition velocity dipole moments (Au):
       state          X           Y           Z        Dip. S.      Osc.
         1         0.0033      0.0079     -0.0661      0.0044      0.0631
         2        -0.0023      0.0168     -0.0021      0.0003      0.0027
         3        -0.0060     -0.0001     -0.0021      0.0000      0.0002
         4        -0.0004     -0.0837     -0.0515      0.0097      0.0585
         5        -0.0028     -0.0211     -0.0163      0.0007      0.0043
 Ground to excited state transition magnetic dipole moments (Au):
       state          X           Y           Z
         1         0.1195      0.4497     -0.0141
         2         0.3361     -0.0075      0.1932
         3         0.0554      0.2350     -0.6766
         4        -0.0371      0.6673     -0.8485
         5         0.1450     -0.4764      0.2169
 Ground to excited state transition velocity quadrupole moments (Au):
       state          XX          YY          ZZ          XY          XZ          YZ
         1         0.1334      0.1150     -0.1611     -0.0303     -0.4179      0.0144
         2        -0.0847      0.0677     -0.0222      0.1708      0.0210     -0.0874
         3        -0.0935      0.1261     -0.0074     -0.0877      0.0188     -0.0501
         4         0.2284     -0.0493     -0.2157     -0.6537     -0.3415     -0.6329
         5        -0.0392      0.0640     -0.0693     -0.1164     -0.1269     -0.2032
 <0|del|b> * <b|rxdel|0> + <0|del|b> * <b|delr+rdel|0>
 Rotatory Strengths (R) in cgs (10**-40 erg-esu-cm/Gauss)
       state          XX          YY          ZZ    R(velocity)    E-M Angle
         1        73.6427     -4.7243      4.4967     24.4717       80.96
         2        -6.1916     -3.0466     -3.6552     -4.2978      101.28
         3         5.0741      3.8783     -2.1694      2.2610       76.80
         4       -22.6193     33.1553    -88.3383    -25.9341       96.56
         5        18.1065    -16.5565     37.0594     12.8698       65.11
 1/2[<0|r|b>*<b|rxdel|0> + (<0|rxdel|b>*<b|r|0>)*]
 Rotatory Strengths (R) in cgs (10**-40 erg-esu-cm/Gauss)
       state          XX          YY          ZZ     R(length)
         1       -32.0684   -767.7421    -36.2679   -278.6928
         2        -4.7792     -2.6569     15.8860      2.8166
         3         0.5791    -45.3910     41.1153     -1.2322
         4        -2.4493  -1351.6776   1021.3581   -110.9229
         5         7.3295    166.9453    -42.6757     43.8664
  1/2[<0|del|b>*<b|r|0> + (<0|r|b>*<b|del|0>)*] (Au)
       state          X           Y           Z        Dip. S.   Osc.(frdel)
         1         0.0013      0.0191      0.2406     -0.2609     -0.1739
         2        -0.0000     -0.0084      0.0002      0.0082      0.0055
         3         0.0001     -0.0000     -0.0002      0.0001      0.0001
         4         0.0000     -0.2398     -0.0877      0.3275      0.2183
         5         0.0002     -0.0105     -0.0045      0.0148      0.0099

 Excitation energies and oscillator strengths:
 
 Excited State   1:      Singlet-A      1.2775 eV  970.55 nm  f=0.6015  <S**2>=0.000
     175 ->178        -0.18944
     176 ->177         0.66251
 This state for optimization and/or second-order correction.
 Total Energy, E(CIS/TDA) =  -474.599196465    
 Copying the excited state density for this state as the 1-particle RhoCI density.
 
 Excited State   2:      Singlet-A      1.9323 eV  641.63 nm  f=0.0126  <S**2>=0.000
     175 ->177         0.51284
     176 ->178         0.46222
 
 Excited State   3:      Singlet-A      2.9658 eV  418.04 nm  f=0.0060  <S**2>=0.000
     167 ->179         0.11412
     167 ->180         0.10357
     168 ->177         0.26012
     168 ->178        -0.18982
     168 ->179        -0.34005
     168 ->180        -0.29357
     168 ->185        -0.19413
     168 ->187        -0.10349
     169 ->177         0.10401
     169 ->179        -0.12622
     169 ->180        -0.11016
 
 Excited State   4:      Singlet-A      2.9995 eV  413.35 nm  f=0.8165  <S**2>=0.000
     175 ->177        -0.36197
     176 ->178         0.44897
     176 ->179         0.28563
     176 ->181         0.10470
 
 Excited State   5:      Singlet-A      3.0534 eV  406.05 nm  f=0.0245  <S**2>=0.000
     170 ->177         0.30689
     170 ->179         0.34695
     170 ->180        -0.30873
     170 ->183        -0.12164
     170 ->184         0.10710
     170 ->185         0.19967
     170 ->187        -0.14568
     176 ->179         0.16301
 SavETr:  write IOETrn=   770 NScale= 10 NData=  16 NLR=1 NState=    5 LETran=     100.
 Leave Link  914 at Thu May  5 13:02:17 2022, MaxMem=  6710886400 cpu:             105.0 elap:               4.4
 (Enter /sw/apps/gaussian-16.0/g16/l601.exe)
 Copying SCF densities to generalized density rwf, IOpCl= 0 IROHF=0.

 **********************************************************************

            Population analysis using the SCF density.

 **********************************************************************

 Orbital symmetries:
       Occupied  (A) (A) (A) (A) (A) (A) (A) (A) (A) (A) (A) (A)
                 (A) (A) (A) (A) (A) (A) (A) (A) (A) (A) (A) (A)
                 (A) (A) (A) (A) (A) (A) (A) (A) (A) (A) (A) (A)
                 (A) (A) (A) (A) (A) (A) (A) (A) (A) (A) (A) (A)
                 (A) (A) (A) (A) (A) (A) (A) (A) (A) (A) (A) (A)
                 (A) (A) (A) (A) (A) (A) (A) (A) (A) (A) (A) (A)
                 (A) (A) (A) (A) (A) (A) (A) (A) (A) (A) (A) (A)
                 (A) (A) (A) (A) (A) (A) (A) (A) (A) (A) (A) (A)
                 (A) (A) (A) (A) (A) (A) (A) (A) (A) (A) (A) (A)
                 (A) (A) (A) (A) (A) (A) (A) (A) (A) (A) (A) (A)
                 (A) (A) (A) (A) (A) (A) (A) (A) (A) (A) (A) (A)
                 (A) (A) (A) (A) (A) (A) (A) (A) (A) (A) (A) (A)
                 (A) (A) (A) (A) (A) (A) (A) (A) (A) (A) (A) (A)
                 (A) (A) (A) (A) (A) (A) (A) (A) (A) (A) (A) (A)
                 (A) (A) (A) (A) (A) (A) (A) (A)
       Virtual   (A) (A) (A) (A) (A) (A) (A) (A) (A) (A) (A) (A)
                 (A) (A) (A) (A) (A) (A) (A) (A) (A) (A) (A) (A)
                 (A) (A) (A) (A) (A) (A) (A) (A) (A) (A) (A) (A)
                 (A) (A) (A) (A) (A) (A) (A) (A) (A) (A) (A) (A)
                 (A) (A) (A) (A) (A) (A) (A) (A) (A) (A) (A) (A)
                 (A) (A) (A) (A) (A) (A) (A) (A) (A) (A) (A) (A)
                 (A) (A) (A) (A) (A) (A) (A) (A) (A) (A) (A) (A)
                 (A) (A) (A) (A) (A) (A) (A) (A) (A) (A) (A) (A)
                 (A) (A) (A) (A) (A) (A) (A) (A) (A) (A) (A) (A)
                 (A) (A) (A) (A) (A) (A) (A) (A) (A) (A) (A) (A)
                 (A) (A) (A) (A) (A) (A) (A) (A) (A) (A) (A) (A)
                 (A) (A) (A) (A) (A) (A) (A) (A) (A) (A) (A) (A)
                 (A) (A) (A) (A) (A) (A) (A) (A) (A) (A) (A) (A)
                 (A) (A) (A) (A) (A) (A)
 The electronic state is 1-A.
 Alpha  occ. eigenvalues --   -1.89267  -1.82067  -1.79390  -1.74043  -1.72070
 Alpha  occ. eigenvalues --   -1.71095  -1.68938  -1.62187  -1.60349  -1.60088
 Alpha  occ. eigenvalues --   -1.55375  -1.51164  -1.49697  -1.46986  -1.46573
 Alpha  occ. eigenvalues --   -1.44152  -1.43430  -1.41647  -1.40244  -1.39437
 Alpha  occ. eigenvalues --   -1.37096  -1.35261  -1.33967  -1.32105  -1.28692
 Alpha  occ. eigenvalues --   -1.28325  -1.27018  -1.23439  -1.21028  -1.19082
 Alpha  occ. eigenvalues --   -1.18632  -1.15699  -1.15615  -1.14915  -1.13778
 Alpha  occ. eigenvalues --   -1.12597  -1.10543  -1.09987  -1.04893  -1.03273
 Alpha  occ. eigenvalues --   -1.02132  -1.01078  -0.98220  -0.97771  -0.96727
 Alpha  occ. eigenvalues --   -0.95917  -0.94768  -0.94279  -0.93319  -0.92948
 Alpha  occ. eigenvalues --   -0.90993  -0.90842  -0.88331  -0.87631  -0.86654
 Alpha  occ. eigenvalues --   -0.86347  -0.85235  -0.83736  -0.82796  -0.81047
 Alpha  occ. eigenvalues --   -0.79912  -0.79050  -0.78032  -0.77044  -0.76853
 Alpha  occ. eigenvalues --   -0.76389  -0.75381  -0.74590  -0.74257  -0.73683
 Alpha  occ. eigenvalues --   -0.72776  -0.72465  -0.71769  -0.71024  -0.70859
 Alpha  occ. eigenvalues --   -0.70270  -0.69822  -0.68625  -0.68551  -0.67437
 Alpha  occ. eigenvalues --   -0.67087  -0.66835  -0.66060  -0.65977  -0.65768
 Alpha  occ. eigenvalues --   -0.65651  -0.65308  -0.64967  -0.63925  -0.63649
 Alpha  occ. eigenvalues --   -0.63257  -0.62929  -0.62594  -0.62358  -0.62020
 Alpha  occ. eigenvalues --   -0.61972  -0.61699  -0.60465  -0.59717  -0.59579
 Alpha  occ. eigenvalues --   -0.59169  -0.58652  -0.58414  -0.58290  -0.58042
 Alpha  occ. eigenvalues --   -0.57450  -0.57398  -0.56858  -0.56682  -0.56312
 Alpha  occ. eigenvalues --   -0.56089  -0.55887  -0.55506  -0.55446  -0.54939
 Alpha  occ. eigenvalues --   -0.54420  -0.54379  -0.53758  -0.53359  -0.53056
 Alpha  occ. eigenvalues --   -0.52271  -0.52036  -0.51920  -0.51741  -0.51614
 Alpha  occ. eigenvalues --   -0.51377  -0.50968  -0.50868  -0.50641  -0.50366
 Alpha  occ. eigenvalues --   -0.50190  -0.49998  -0.49197  -0.48929  -0.48694
 Alpha  occ. eigenvalues --   -0.48257  -0.48169  -0.47998  -0.47907  -0.47442
 Alpha  occ. eigenvalues --   -0.47290  -0.47234  -0.46908  -0.46677  -0.46599
 Alpha  occ. eigenvalues --   -0.46311  -0.45931  -0.45737  -0.45477  -0.45405
 Alpha  occ. eigenvalues --   -0.44901  -0.44792  -0.44614  -0.44438  -0.44155
 Alpha  occ. eigenvalues --   -0.43934  -0.43801  -0.42558  -0.42044  -0.41932
 Alpha  occ. eigenvalues --   -0.41659  -0.41137  -0.40822  -0.39311  -0.38820
 Alpha  occ. eigenvalues --   -0.38238  -0.36509  -0.35691  -0.35295  -0.34682
 Alpha  occ. eigenvalues --   -0.33247  -0.32949  -0.32390  -0.31961  -0.26934
 Alpha  occ. eigenvalues --   -0.21773
 Alpha virt. eigenvalues --   -0.08334  -0.02462  -0.00306   0.01282   0.01395
 Alpha virt. eigenvalues --    0.02011   0.02660   0.02902   0.04690   0.04749
 Alpha virt. eigenvalues --    0.06130   0.07394   0.07669   0.07839   0.08359
 Alpha virt. eigenvalues --    0.08671   0.08774   0.09316   0.09473   0.09678
 Alpha virt. eigenvalues --    0.09852   0.10017   0.10487   0.10521   0.11023
 Alpha virt. eigenvalues --    0.11272   0.11604   0.11759   0.12028   0.12312
 Alpha virt. eigenvalues --    0.12650   0.12718   0.13253   0.13367   0.13663
 Alpha virt. eigenvalues --    0.13761   0.13989   0.14121   0.14450   0.14540
 Alpha virt. eigenvalues --    0.14887   0.15492   0.15507   0.15738   0.15823
 Alpha virt. eigenvalues --    0.15971   0.16120   0.16514   0.16705   0.16887
 Alpha virt. eigenvalues --    0.17358   0.17581   0.17730   0.17985   0.18064
 Alpha virt. eigenvalues --    0.18552   0.18646   0.18999   0.19112   0.19182
 Alpha virt. eigenvalues --    0.19694   0.19720   0.20027   0.20579   0.21319
 Alpha virt. eigenvalues --    0.21447   0.21552   0.22901   0.23020   0.23371
 Alpha virt. eigenvalues --    0.23569   0.23844   0.23879   0.24155   0.24173
 Alpha virt. eigenvalues --    0.24307   0.24581   0.24736   0.24785   0.24819
 Alpha virt. eigenvalues --    0.24877   0.24898   0.25073   0.25171   0.25201
 Alpha virt. eigenvalues --    0.25222   0.25262   0.25263   0.25390   0.25462
 Alpha virt. eigenvalues --    0.25536   0.25692   0.25742   0.25936   0.26001
 Alpha virt. eigenvalues --    0.26050   0.26137   0.26230   0.26333   0.26409
 Alpha virt. eigenvalues --    0.26432   0.26597   0.26610   0.26682   0.26707
 Alpha virt. eigenvalues --    0.26783   0.26807   0.26818   0.26951   0.27042
 Alpha virt. eigenvalues --    0.27125   0.27239   0.27593   0.27862   0.27974
 Alpha virt. eigenvalues --    0.27996   0.28264   0.28798   0.28972   0.29149
 Alpha virt. eigenvalues --    0.29700   0.30373   0.30669   0.31217   0.31475
 Alpha virt. eigenvalues --    0.31770   0.32094   0.32953   0.33494   0.33953
 Alpha virt. eigenvalues --    0.34963   0.35249   0.35362   0.35487   0.36030
 Alpha virt. eigenvalues --    0.36251   0.36465   0.36576   0.37194   0.37932
 Alpha virt. eigenvalues --    0.39151   0.39810   0.39969   0.40639   0.40922
 Alpha virt. eigenvalues --    0.41028   0.41516   0.42012   0.42102   0.43364
 Alpha virt. eigenvalues --    0.43574   0.44694   0.45611   0.46115   0.47639
 Alpha virt. eigenvalues --    0.47888   0.48129   0.48428   0.51006   0.53890
 Alpha virt. eigenvalues --    0.55283   0.57306
          Condensed to atoms (all electrons):
 Mulliken charges:
               1
     1  Mg   0.428933
     2  C   -0.040195
     3  C   -0.077626
     4  C   -0.068607
     5  C   -0.063545
     6  N   -0.272161
     7  C    0.140682
     8  C   -0.004453
     9  C   -0.010196
    10  C    0.122633
    11  C   -0.055648
    12  C   -0.025216
    13  C    0.006734
    14  C    0.469251
    15  O   -0.508317
    16  O   -0.277533
    17  N   -0.327994
    18  C    0.122210
    19  C    0.046811
    20  C   -0.058140
    21  C    0.134498
    22  C   -0.043326
    23  C    0.337856
    24  O   -0.516541
    25  C   -0.038613
    26  N   -0.269790
    27  C    0.131493
    28  C    0.004087
    29  C    0.002265
    30  C    0.096902
    31  C   -0.046027
    32  C   -0.045302
    33  C   -0.055579
    34  N   -0.320026
    35  C    0.081951
    36  C    0.037443
    37  C   -0.059047
    38  C    0.135907
    39  C   -0.036191
    40  C    0.338263
    41  O   -0.511884
    42  C    0.053986
    43  C    0.496350
    44  O   -0.536332
    45  O   -0.261365
    46  C    0.074921
    47  C    0.101270
    48  C   -0.066902
    49  C   -0.024167
    50  C   -0.052405
    51  C   -0.030577
    52  C   -0.038868
    53  C   -0.036427
    54  C   -0.019726
    55  C   -0.066789
    56  C   -0.026592
    57  C   -0.032472
    58  C   -0.034094
    59  C   -0.018168
    60  C   -0.066664
    61  C   -0.036530
    62  C   -0.031081
    63  C   -0.034148
    64  C   -0.017357
    65  C   -0.060534
    66  C   -0.060244
    67  H    0.034503
    68  H    0.015037
    69  H    0.039049
    70  H    0.029346
    71  H    0.027420
    72  H    0.026776
    73  H    0.021877
    74  H    0.026188
    75  H    0.033655
    76  H    0.020998
    77  H    0.042668
    78  H    0.029558
    79  H    0.042243
    80  H    0.012497
    81  H    0.041024
    82  H    0.047497
    83  H    0.037402
    84  H    0.027112
    85  H    0.035751
    86  H    0.032918
    87  H    0.025717
    88  H    0.013403
    89  H    0.017708
    90  H    0.027585
    91  H    0.005404
    92  H    0.031909
    93  H    0.023016
    94  H    0.024100
    95  H    0.021025
    96  H    0.033777
    97  H    0.032926
    98  H    0.051187
    99  H    0.030876
   100  H    0.057685
   101  H    0.032943
   102  H    0.071508
   103  H    0.035310
   104  H    0.041339
   105  H    0.022350
   106  H    0.024539
   107  H    0.026182
   108  H    0.018108
   109  H    0.026623
   110  H    0.024170
   111  H    0.025575
   112  H    0.022527
   113  H    0.022762
   114  H    0.022479
   115  H    0.028771
   116  H    0.018061
   117  H    0.014787
   118  H    0.009931
   119  H    0.011605
   120  H    0.024553
   121  H    0.024021
   122  H    0.023514
   123  H    0.019094
   124  H    0.022623
   125  H    0.021231
   126  H    0.017664
   127  H    0.002026
   128  H    0.016120
   129  H    0.023474
   130  H    0.009945
   131  H    0.029504
   132  H    0.006724
   133  H    0.022216
   134  H    0.018679
   135  H    0.021448
   136  H    0.024047
   137  H    0.013414
   138  H    0.017146
   139  H    0.021421
   140  H    0.020681
 Sum of Mulliken charges =   0.00000
 Mulliken charges with hydrogens summed into heavy atoms:
               1
     1  Mg   0.428933
     2  C   -0.040195
     3  C   -0.043122
     4  C   -0.053569
     5  C   -0.024496
     6  N   -0.272161
     7  C    0.140682
     8  C    0.024893
     9  C    0.017224
    10  C    0.122633
    11  C    0.019194
    12  C    0.029436
    13  C    0.078961
    14  C    0.469251
    15  O   -0.508317
    16  O   -0.277533
    17  N   -0.327994
    18  C    0.122210
    19  C    0.046811
    20  C   -0.058140
    21  C    0.134498
    22  C    0.052438
    23  C    0.337856
    24  O   -0.516541
    25  C    0.073398
    26  N   -0.269790
    27  C    0.131493
    28  C    0.039837
    29  C    0.035183
    30  C    0.096902
    31  C    0.010802
    32  C   -0.012313
    33  C    0.023446
    34  N   -0.320026
    35  C    0.081951
    36  C    0.037443
    37  C   -0.059047
    38  C    0.135907
    39  C    0.051538
    40  C    0.338263
    41  O   -0.511884
    42  C    0.105173
    43  C    0.496350
    44  O   -0.536332
    45  O   -0.261365
    46  C    0.196424
    47  C    0.208088
    48  C   -0.025563
    49  C   -0.024167
    50  C    0.020665
    51  C    0.014154
    52  C    0.010877
    53  C    0.008862
    54  C    0.002753
    55  C   -0.005171
    56  C   -0.005056
    57  C    0.016102
    58  C    0.008514
    59  C    0.004455
    60  C   -0.025743
    61  C    0.003064
    62  C    0.008369
    63  C   -0.005208
    64  C    0.001322
    65  C   -0.001624
    66  C   -0.000995
 Charge=              0.0000 electrons
 Dipole moment (field-independent basis, Debye):
    X=             -3.3170    Y=              3.2903    Z=             -0.9318  Tot=              4.7642
 N-N= 4.417997111754D+03 E-N= 0.000000000000D+00  KE=-9.510439098065D+03
 Leave Link  601 at Thu May  5 13:02:17 2022, MaxMem=  6710886400 cpu:               1.0 elap:               0.1
 (Enter /sw/apps/gaussian-16.0/g16/l9999.exe)
 1\1\GINC-BP1-COMPUTE159\SP\RZINDO CIS\STO-3G\C55H74Mg1N4O6\OF15641\05-
 May-2022\0\\#p ZINDO=(nstates=5)\\step_851_chromophore_8 ZINDO\\0,1\Mg
 ,0,45.454,2.942,46.791\C,0,43.518,5.698,46.648\C,0,42.601,0.946,46.996
 \C,0,47.261,0.123,46.394\C,0,48.23,4.935,45.707\N,0,43.327,3.353,46.63
 2\C,0,42.769,4.538,46.65\C,0,41.236,4.404,46.447\C,0,41.,2.967,47.027\
 C,0,42.435,2.319,46.859\C,0,40.586,2.96,48.551\C,0,40.723,4.501,44.899
 \C,0,39.944,5.745,44.449\C,0,40.266,6.353,43.063\O,0,40.696,7.475,42.8
 86\O,0,39.933,5.466,42.063\N,0,45.045,0.792,46.941\C,0,43.819,0.217,46
 .935\C,0,43.992,-1.184,46.995\C,0,45.346,-1.517,46.813\C,0,45.984,-0.1
 81,46.735\C,0,42.785,-2.052,47.099\C,0,45.834,-2.938,46.686\O,0,45.063
 ,-3.883,46.779\C,0,47.313,-3.221,46.634\N,0,47.431,2.594,46.161\C,0,47
 .941,1.32,46.169\C,0,49.399,1.303,45.628\C,0,49.751,2.865,45.421\C,0,4
 8.396,3.512,45.715\C,0,50.294,0.583,46.604\C,0,50.367,3.266,44.076\C,0
 ,51.799,3.925,44.004\N,0,45.827,4.884,46.285\C,0,46.983,5.541,45.993\C
 ,0,46.703,6.939,46.24\C,0,45.343,7.039,46.506\C,0,44.88,5.769,46.515\C
 ,0,47.552,8.076,46.077\C,0,44.282,8.023,46.662\O,0,44.248,9.231,46.743
 \C,0,43.034,7.127,46.823\C,0,42.327,7.379,48.086\O,0,42.7,6.994,49.193
 \O,0,41.114,7.912,47.82\C,0,40.293,8.191,49.005\C,0,40.082,6.001,40.66
 9\C,0,40.928,5.079,39.926\C,0,41.362,5.328,38.683\C,0,41.046,6.616,37.
 778\C,0,42.393,4.413,38.054\C,0,41.996,3.734,36.695\C,0,41.82,2.233,36
 .76\C,0,41.909,1.672,35.323\C,0,40.743,0.673,34.995\C,0,43.242,0.969,3
 5.016\C,0,43.825,1.311,33.721\C,0,44.92,2.372,33.952\C,0,45.237,3.114,
 32.688\C,0,46.809,3.149,32.536\C,0,44.631,4.618,32.625\C,0,43.43,4.669
 ,31.715\C,0,43.791,4.81,30.227\C,0,43.231,3.765,29.213\C,0,41.675,3.88
 5,29.188\C,0,43.821,3.885,27.818\H,0,41.607,0.497,47.034\H,0,47.962,-0
 .714,46.403\H,0,49.092,5.591,45.565\H,0,40.64,5.067,47.073\H,0,40.214,
 2.459,46.468\H,0,41.266,2.507,49.273\H,0,39.641,2.424,48.632\H,0,40.58
 ,4.001,48.875\H,0,40.244,3.574,44.584\H,0,41.656,4.55,44.337\H,0,39.89
 3,6.516,45.218\H,0,38.917,5.407,44.305\H,0,42.889,-2.955,46.497\H,0,41
 .983,-1.488,46.623\H,0,42.448,-2.214,48.123\H,0,48.007,-2.879,47.402\H
 ,0,47.618,-2.995,45.613\H,0,47.332,-4.309,46.697\H,0,49.435,0.807,44.6
 58\H,0,50.464,3.231,46.159\H,0,49.885,0.544,47.613\H,0,51.25,1.1,46.68
 6\H,0,50.531,-0.421,46.254\H,0,49.603,3.664,43.408\H,0,50.404,2.358,43
 .475\H,0,52.295,4.118,44.956\H,0,51.68,4.856,43.45\H,0,52.32,3.188,43.
 394\H,0,48.141,8.019,45.162\H,0,48.251,8.179,46.906\H,0,46.916,8.957,4
 5.99\H,0,42.353,7.429,46.028\H,0,39.423,8.792,48.743\H,0,40.838,8.656,
 49.827\H,0,39.886,7.214,49.267\H,0,40.196,7.083,40.609\H,0,39.151,5.88
 6,40.114\H,0,41.375,4.247,40.469\H,0,42.009,6.995,37.439\H,0,40.509,7.
 45,38.229\H,0,40.521,6.422,36.842\H,0,42.604,3.646,38.799\H,0,43.263,5
 .059,37.939\H,0,42.792,3.841,35.958\H,0,41.036,4.175,36.426\H,0,40.842
 ,2.085,37.219\H,0,42.654,1.816,37.325\H,0,41.753,2.56,34.709\H,0,41.05
 4,-0.352,34.795\H,0,40.203,1.156,34.18\H,0,40.089,0.669,35.867\H,0,43.
 165,-0.119,35.016\H,0,43.907,1.184,35.853\H,0,43.072,1.846,33.143\H,0,
 44.237,0.418,33.252\H,0,45.855,1.955,34.327\H,0,44.523,3.125,34.633\H,
 0,44.81,2.581,31.839\H,0,47.382,2.223,32.59\H,0,47.236,3.911,33.187\H,
 0,47.146,3.499,31.56\H,0,45.452,5.177,32.175\H,0,44.439,5.095,33.586\H
 ,0,43.001,5.649,31.922\H,0,42.729,3.847,31.863\H,0,44.867,4.651,30.154
 \H,0,43.596,5.826,29.881\H,0,43.576,2.767,29.484\H,0,41.349,4.086,28.1
 68\H,0,41.305,4.626,29.896\H,0,41.293,2.902,29.465\H,0,44.662,3.192,27
 .781\H,0,44.079,4.943,27.776\H,0,43.16,3.631,26.99\\Version=ES64L-G16R
 evA.03\State=1-A\HF=-474.6461426\RMSD=4.890e-09\PG=C01 [X(C55H74Mg1N4O
 6)]\\@


 IT IS NOT EASY TO DESCRIBE
     THE SEA WITH THE MOUTH

                   -- KOKYU
 Job cpu time:       0 days  0 hours  2 minutes 30.0 seconds.
 Elapsed time:       0 days  0 hours  0 minutes  6.5 seconds.
 File lengths (MBytes):  RWF=   1274 Int=      0 D2E=      0 Chk=     38 Scr=      1
 Normal termination of Gaussian 16 at Thu May  5 13:02:17 2022.
