 Entering Gaussian System, Link 0=g16
 Initial command:
 /sw/apps/gaussian-16.0/g16/l1.exe "/tmp/Gau-168342.inp" -scrdir="/tmp/"
 Entering Link 1 = /sw/apps/gaussian-16.0/g16/l1.exe PID=    168343.
  
 Copyright (c) 1988,1990,1992,1993,1995,1998,2003,2009,2016,
            Gaussian, Inc.  All Rights Reserved.
  
 This is part of the Gaussian(R) 16 program.  It is based on
 the Gaussian(R) 09 system (copyright 2009, Gaussian, Inc.),
 the Gaussian(R) 03 system (copyright 2003, Gaussian, Inc.),
 the Gaussian(R) 98 system (copyright 1998, Gaussian, Inc.),
 the Gaussian(R) 94 system (copyright 1995, Gaussian, Inc.),
 the Gaussian 92(TM) system (copyright 1992, Gaussian, Inc.),
 the Gaussian 90(TM) system (copyright 1990, Gaussian, Inc.),
 the Gaussian 88(TM) system (copyright 1988, Gaussian, Inc.),
 the Gaussian 86(TM) system (copyright 1986, Carnegie Mellon
 University), and the Gaussian 82(TM) system (copyright 1983,
 Carnegie Mellon University). Gaussian is a federally registered
 trademark of Gaussian, Inc.
  
 This software contains proprietary and confidential information,
 including trade secrets, belonging to Gaussian, Inc.
  
 This software is provided under written license and may be
 used, copied, transmitted, or stored only in accord with that
 written license.
  
 The following legend is applicable only to US Government
 contracts under FAR:
  
                    RESTRICTED RIGHTS LEGEND
  
 Use, reproduction and disclosure by the US Government is
 subject to restrictions as set forth in subparagraphs (a)
 and (c) of the Commercial Computer Software - Restricted
 Rights clause in FAR 52.227-19.
  
 Gaussian, Inc.
 340 Quinnipiac St., Bldg. 40, Wallingford CT 06492
  
  
 ---------------------------------------------------------------
 Warning -- This program may not be used in any manner that
 competes with the business of Gaussian, Inc. or will provide
 assistance to any competitor of Gaussian, Inc.  The licensee
 of this program is prohibited from giving any competitor of
 Gaussian, Inc. access to this program.  By using this program,
 the user acknowledges that Gaussian, Inc. is engaged in the
 business of creating and licensing software in the field of
 computational chemistry and represents and warrants to the
 licensee that it is not a competitor of Gaussian, Inc. and that
 it will not use this program in any manner prohibited above.
 ---------------------------------------------------------------
  

 Cite this work as:
 Gaussian 16, Revision A.03,
 M. J. Frisch, G. W. Trucks, H. B. Schlegel, G. E. Scuseria, 
 M. A. Robb, J. R. Cheeseman, G. Scalmani, V. Barone, 
 G. A. Petersson, H. Nakatsuji, X. Li, M. Caricato, A. V. Marenich, 
 J. Bloino, B. G. Janesko, R. Gomperts, B. Mennucci, H. P. Hratchian, 
 J. V. Ortiz, A. F. Izmaylov, J. L. Sonnenberg, D. Williams-Young, 
 F. Ding, F. Lipparini, F. Egidi, J. Goings, B. Peng, A. Petrone, 
 T. Henderson, D. Ranasinghe, V. G. Zakrzewski, J. Gao, N. Rega, 
 G. Zheng, W. Liang, M. Hada, M. Ehara, K. Toyota, R. Fukuda, 
 J. Hasegawa, M. Ishida, T. Nakajima, Y. Honda, O. Kitao, H. Nakai, 
 T. Vreven, K. Throssell, J. A. Montgomery, Jr., J. E. Peralta, 
 F. Ogliaro, M. J. Bearpark, J. J. Heyd, E. N. Brothers, K. N. Kudin, 
 V. N. Staroverov, T. A. Keith, R. Kobayashi, J. Normand, 
 K. Raghavachari, A. P. Rendell, J. C. Burant, S. S. Iyengar, 
 J. Tomasi, M. Cossi, J. M. Millam, M. Klene, C. Adamo, R. Cammi, 
 J. W. Ochterski, R. L. Martin, K. Morokuma, O. Farkas, 
 J. B. Foresman, and D. J. Fox, Gaussian, Inc., Wallingford CT, 2016.
 
 ******************************************
 Gaussian 16:  ES64L-G16RevA.03 25-Dec-2016
                30-Apr-2022 
 ******************************************
 %nproc=24
 Will use up to   24 processors via shared memory.
 %mem=75GB
 -----------------------------------
 #p cam-b3lyp/Def2SVP td=(nstates=5)
 -----------------------------------
 1/38=1,172=1/1;
 2/12=2,17=6,18=5,40=1/2;
 3/5=43,7=101,11=9,25=1,30=1,74=-40/1,2,3,8;
 4//1;
 5/5=2,38=5/2;
 8/6=1,10=1,108=5/1;
 9/41=5,42=1,70=2/14;
 6/7=2,8=2,9=2,10=2/1;
 99/5=1,9=1/99;
 Leave Link    1 at Sat Apr 30 00:57:57 2022, MaxMem= 10066329600 cpu:               0.6 elap:               0.0
 (Enter /sw/apps/gaussian-16.0/g16/l101.exe)
 -----------------------------------------------------
 step_51_chromophore_8 TDDFT with cam-b3lyp functional
 -----------------------------------------------------
 Symbolic Z-matrix:
 Charge =  0 Multiplicity = 1
 Mg                    44.435    3.202     47.837 
 C                     42.19     5.813     47.212 
 C                     41.824    1.035     47.404 
 C                     46.744    0.756     47.869 
 C                     47.104    5.584     47.504 
 N                     42.3      3.454     47.06 
 C                     41.586    4.599     47.04 
 C                     40.111    4.277     46.676 
 C                     40.007    2.795     46.999 
 C                     41.517    2.354     47.121 
 C                     39.135    2.367     48.218 
 C                     39.712    4.558     45.124 
 C                     38.525    5.379     44.953 
 C                     37.991    5.619     43.542 
 O                     36.923    5.178     43.147 
 O                     38.824    6.4       42.815 
 N                     44.269    1.223     47.869 
 C                     43.123    0.472     47.653 
 C                     43.454   -0.915     47.738 
 C                     44.781   -1.03      48.121 
 C                     45.342    0.397     47.957 
 C                     42.446   -2.016     47.475 
 C                     45.493   -2.332     48.566 
 O                     44.836   -3.389     48.548 
 C                     46.939   -2.443     48.934 
 N                     46.625    3.153     47.685 
 C                     47.37     1.992     47.822 
 C                     48.862    2.255     47.772 
 C                     48.942    3.836     47.797 
 C                     47.44     4.23      47.688 
 C                     49.672    1.571     48.991 
 C                     49.727    4.471     46.622 
 C                     50.934    5.438     46.93 
 N                     44.669    5.277     47.339 
 C                     45.769    6.105     47.293 
 C                     45.306    7.453     47.021 
 C                     43.935    7.486     47.117 
 C                     43.582    6.102     47.249 
 C                     46.256    8.553     46.727 
 C                     42.699    8.254     47.16 
 O                     42.457    9.466     47.032 
 C                     41.464    7.216     47.253 
 C                     40.653    7.268     48.563 
 O                     41.027    6.768     49.615 
 O                     39.39     7.736     48.27 
 C                     38.406    7.81      49.393 
 C                     38.503    6.489     41.404 
 C                     39.773    6.155     40.63 
 C                     39.906    5.789     39.387 
 C                     38.852    5.625     38.293 
 C                     41.334    5.36      38.943 
 C                     41.782    4.026     39.539 
 C                     42.845    3.388     38.587 
 C                     42.254    2.249     37.66 
 C                     42.449    0.938     38.475 
 C                     43.005    2.264     36.257 
 C                     42.166    3.219     35.311 
 C                     43.007    4.461     34.814 
 C                     43.629    4.264     33.371 
 C                     45.144    4.338     33.462 
 C                     43.086    5.365     32.364 
 C                     42.664    4.603     31.141 
 C                     43.735    4.347     30.103 
 C                     43.262    4.264     28.654 
 C                     44.251    4.757     27.58 
 C                     42.694    2.897     28.37 
 H                     40.986    0.345     47.288 
 H                     47.457   -0.071     47.886 
 H                     47.935    6.29      47.549 
 H                     39.574    4.888     47.401 
 H                     39.538    2.269     46.167 
 H                     38.354    1.643     47.983 
 H                     38.803    3.251     48.762 
 H                     39.653    1.852     49.027 
 H                     39.44     3.681     44.537 
 H                     40.496    5.021     44.524 
 H                     38.739    6.368     45.358 
 H                     37.738    4.921     45.552 
 H                     42.844   -2.655     46.687 
 H                     41.506   -1.667     47.049 
 H                     42.253   -2.604     48.372 
 H                     47.488   -2.769     48.051 
 H                     46.921   -3.264     49.652 
 H                     47.374   -1.535     49.351 
 H                     49.287    1.905     46.832 
 H                     49.394    4.033     48.769 
 H                     50.367    0.756     48.791 
 H                     49.013    1.075     49.703 
 H                     50.19     2.285     49.632 
 H                     49.023    4.92      45.922 
 H                     50.164    3.636     46.074 
 H                     51.774    5.07      46.34 
 H                     51.201    5.25      47.97 
 H                     50.736    6.48      46.68 
 H                     47.285    8.329     47.009 
 H                     45.998    9.412     47.347 
 H                     46.22     8.64      45.641 
 H                     40.759    7.284     46.425 
 H                     37.47     7.558     48.894 
 H                     38.428    8.826     49.785 
 H                     38.6      7.181     50.262 
 H                     38.264    7.526     41.172 
 H                     37.716    5.803     41.088 
 H                     40.673    6.04      41.234 
 H                     39.094    4.822     37.597 
 H                     38.741    6.533     37.701 
 H                     37.868    5.619     38.762 
 H                     41.935    6.234     39.192 
 H                     41.404    5.383     37.855 
 H                     40.921    3.358     39.558 
 H                     42.321    4.244     40.461 
 H                     43.603    3.009     39.273 
 H                     43.312    4.168     37.986 
 H                     41.178    2.354     37.527 
 H                     42.404    1.102     39.552 
 H                     43.412    0.471     38.271 
 H                     41.652    0.204     38.352 
 H                     43.023    1.232     35.906 
 H                     44.058    2.509     36.393 
 H                     41.198    3.644     35.578 
 H                     41.836    2.651     34.441 
 H                     43.769    4.807     35.513 
 H                     42.326    5.302     34.937 
 H                     43.407    3.284     32.949 
 H                     45.594    4.001     32.528 
 H                     45.453    3.828     34.374 
 H                     45.403    5.389     33.587 
 H                     43.873    6.054     32.06 
 H                     42.198    5.919     32.667 
 H                     41.908    5.27      30.726 
 H                     42.051    3.712     31.27 
 H                     44.145    3.407     30.472 
 H                     44.66     4.91      30.224 
 H                     42.459    4.984     28.495 
 H                     44.171    5.834     27.434 
 H                     44.167    4.272     26.607 
 H                     45.271    4.57      27.917 
 H                     41.951    2.539     29.084 
 H                     43.499    2.163     28.365 
 H                     42.289    2.995     27.363 
 
 ITRead=  0  0  0  0  0  0  0  0  0  0  0  0  0  0  0  0  0  0  0  0
 ITRead=  0  0  0  0  0  0  0  0  0  0  0  0  0  0  0  0  0  0  0  0
 ITRead=  0  0  0  0  0  0  0  0  0  0  0  0  0  0  0  0  0  0  0  0
 ITRead=  0  0  0  0  0  0  0  0  0  0  0  0  0  0  0  0  0  0  0  0
 ITRead=  0  0  0  0  0  0  0  0  0  0  0  0  0  0  0  0  0  0  0  0
 ITRead=  0  0  0  0  0  0  0  0  0  0  0  0  0  0  0  0  0  0  0  0
 ITRead=  0  0  0  0  0  0  0  0  0  0  0  0  0  0  0  0  0  0  0  0
 MicOpt= -1 -1 -1 -1 -1 -1 -1 -1 -1 -1 -1 -1 -1 -1 -1 -1 -1 -1 -1 -1
 MicOpt= -1 -1 -1 -1 -1 -1 -1 -1 -1 -1 -1 -1 -1 -1 -1 -1 -1 -1 -1 -1
 MicOpt= -1 -1 -1 -1 -1 -1 -1 -1 -1 -1 -1 -1 -1 -1 -1 -1 -1 -1 -1 -1
 MicOpt= -1 -1 -1 -1 -1 -1 -1 -1 -1 -1 -1 -1 -1 -1 -1 -1 -1 -1 -1 -1
 MicOpt= -1 -1 -1 -1 -1 -1 -1 -1 -1 -1 -1 -1 -1 -1 -1 -1 -1 -1 -1 -1
 MicOpt= -1 -1 -1 -1 -1 -1 -1 -1 -1 -1 -1 -1 -1 -1 -1 -1 -1 -1 -1 -1
 MicOpt= -1 -1 -1 -1 -1 -1 -1 -1 -1 -1 -1 -1 -1 -1 -1 -1 -1 -1 -1 -1
 NAtoms=    140 NQM=      140 NQMF=       0 NMMI=      0 NMMIF=      0
                NMic=       0 NMicF=      0.
                    Isotopes and Nuclear Properties:
 (Nuclear quadrupole moments (NQMom) in fm**2, nuclear magnetic moments (NMagM)
  in nuclear magnetons)

  Atom         1           2           3           4           5           6           7           8           9          10
 IAtWgt=          24          12          12          12          12          14          12          12          12          12
 AtmWgt=  23.9850450  12.0000000  12.0000000  12.0000000  12.0000000  14.0030740  12.0000000  12.0000000  12.0000000  12.0000000
 NucSpn=           0           0           0           0           0           2           0           0           0           0
 AtZEff=  -0.0000000  -0.0000000  -0.0000000  -0.0000000  -0.0000000  -0.0000000  -0.0000000  -0.0000000  -0.0000000  -0.0000000
 NQMom=    0.0000000   0.0000000   0.0000000   0.0000000   0.0000000   2.0440000   0.0000000   0.0000000   0.0000000   0.0000000
 NMagM=    0.0000000   0.0000000   0.0000000   0.0000000   0.0000000   0.4037610   0.0000000   0.0000000   0.0000000   0.0000000
 AtZNuc=  12.0000000   6.0000000   6.0000000   6.0000000   6.0000000   7.0000000   6.0000000   6.0000000   6.0000000   6.0000000

  Atom        11          12          13          14          15          16          17          18          19          20
 IAtWgt=          12          12          12          12          16          16          14          12          12          12
 AtmWgt=  12.0000000  12.0000000  12.0000000  12.0000000  15.9949146  15.9949146  14.0030740  12.0000000  12.0000000  12.0000000
 NucSpn=           0           0           0           0           0           0           2           0           0           0
 AtZEff=  -0.0000000  -0.0000000  -0.0000000  -0.0000000  -0.0000000  -0.0000000  -0.0000000  -0.0000000  -0.0000000  -0.0000000
 NQMom=    0.0000000   0.0000000   0.0000000   0.0000000   0.0000000   0.0000000   2.0440000   0.0000000   0.0000000   0.0000000
 NMagM=    0.0000000   0.0000000   0.0000000   0.0000000   0.0000000   0.0000000   0.4037610   0.0000000   0.0000000   0.0000000
 AtZNuc=   6.0000000   6.0000000   6.0000000   6.0000000   8.0000000   8.0000000   7.0000000   6.0000000   6.0000000   6.0000000

  Atom        21          22          23          24          25          26          27          28          29          30
 IAtWgt=          12          12          12          16          12          14          12          12          12          12
 AtmWgt=  12.0000000  12.0000000  12.0000000  15.9949146  12.0000000  14.0030740  12.0000000  12.0000000  12.0000000  12.0000000
 NucSpn=           0           0           0           0           0           2           0           0           0           0
 AtZEff=  -0.0000000  -0.0000000  -0.0000000  -0.0000000  -0.0000000  -0.0000000  -0.0000000  -0.0000000  -0.0000000  -0.0000000
 NQMom=    0.0000000   0.0000000   0.0000000   0.0000000   0.0000000   2.0440000   0.0000000   0.0000000   0.0000000   0.0000000
 NMagM=    0.0000000   0.0000000   0.0000000   0.0000000   0.0000000   0.4037610   0.0000000   0.0000000   0.0000000   0.0000000
 AtZNuc=   6.0000000   6.0000000   6.0000000   8.0000000   6.0000000   7.0000000   6.0000000   6.0000000   6.0000000   6.0000000

  Atom        31          32          33          34          35          36          37          38          39          40
 IAtWgt=          12          12          12          14          12          12          12          12          12          12
 AtmWgt=  12.0000000  12.0000000  12.0000000  14.0030740  12.0000000  12.0000000  12.0000000  12.0000000  12.0000000  12.0000000
 NucSpn=           0           0           0           2           0           0           0           0           0           0
 AtZEff=  -0.0000000  -0.0000000  -0.0000000  -0.0000000  -0.0000000  -0.0000000  -0.0000000  -0.0000000  -0.0000000  -0.0000000
 NQMom=    0.0000000   0.0000000   0.0000000   2.0440000   0.0000000   0.0000000   0.0000000   0.0000000   0.0000000   0.0000000
 NMagM=    0.0000000   0.0000000   0.0000000   0.4037610   0.0000000   0.0000000   0.0000000   0.0000000   0.0000000   0.0000000
 AtZNuc=   6.0000000   6.0000000   6.0000000   7.0000000   6.0000000   6.0000000   6.0000000   6.0000000   6.0000000   6.0000000

  Atom        41          42          43          44          45          46          47          48          49          50
 IAtWgt=          16          12          12          16          16          12          12          12          12          12
 AtmWgt=  15.9949146  12.0000000  12.0000000  15.9949146  15.9949146  12.0000000  12.0000000  12.0000000  12.0000000  12.0000000
 NucSpn=           0           0           0           0           0           0           0           0           0           0
 AtZEff=  -0.0000000  -0.0000000  -0.0000000  -0.0000000  -0.0000000  -0.0000000  -0.0000000  -0.0000000  -0.0000000  -0.0000000
 NQMom=    0.0000000   0.0000000   0.0000000   0.0000000   0.0000000   0.0000000   0.0000000   0.0000000   0.0000000   0.0000000
 NMagM=    0.0000000   0.0000000   0.0000000   0.0000000   0.0000000   0.0000000   0.0000000   0.0000000   0.0000000   0.0000000
 AtZNuc=   8.0000000   6.0000000   6.0000000   8.0000000   8.0000000   6.0000000   6.0000000   6.0000000   6.0000000   6.0000000

  Atom        51          52          53          54          55          56          57          58          59          60
 IAtWgt=          12          12          12          12          12          12          12          12          12          12
 AtmWgt=  12.0000000  12.0000000  12.0000000  12.0000000  12.0000000  12.0000000  12.0000000  12.0000000  12.0000000  12.0000000
 NucSpn=           0           0           0           0           0           0           0           0           0           0
 AtZEff=  -0.0000000  -0.0000000  -0.0000000  -0.0000000  -0.0000000  -0.0000000  -0.0000000  -0.0000000  -0.0000000  -0.0000000
 NQMom=    0.0000000   0.0000000   0.0000000   0.0000000   0.0000000   0.0000000   0.0000000   0.0000000   0.0000000   0.0000000
 NMagM=    0.0000000   0.0000000   0.0000000   0.0000000   0.0000000   0.0000000   0.0000000   0.0000000   0.0000000   0.0000000
 AtZNuc=   6.0000000   6.0000000   6.0000000   6.0000000   6.0000000   6.0000000   6.0000000   6.0000000   6.0000000   6.0000000

  Atom        61          62          63          64          65          66          67          68          69          70
 IAtWgt=          12          12          12          12          12          12           1           1           1           1
 AtmWgt=  12.0000000  12.0000000  12.0000000  12.0000000  12.0000000  12.0000000   1.0078250   1.0078250   1.0078250   1.0078250
 NucSpn=           0           0           0           0           0           0           1           1           1           1
 AtZEff=  -0.0000000  -0.0000000  -0.0000000  -0.0000000  -0.0000000  -0.0000000  -0.0000000  -0.0000000  -0.0000000  -0.0000000
 NQMom=    0.0000000   0.0000000   0.0000000   0.0000000   0.0000000   0.0000000   0.0000000   0.0000000   0.0000000   0.0000000
 NMagM=    0.0000000   0.0000000   0.0000000   0.0000000   0.0000000   0.0000000   2.7928460   2.7928460   2.7928460   2.7928460
 AtZNuc=   6.0000000   6.0000000   6.0000000   6.0000000   6.0000000   6.0000000   1.0000000   1.0000000   1.0000000   1.0000000

  Atom        71          72          73          74          75          76          77          78          79          80
 IAtWgt=           1           1           1           1           1           1           1           1           1           1
 AtmWgt=   1.0078250   1.0078250   1.0078250   1.0078250   1.0078250   1.0078250   1.0078250   1.0078250   1.0078250   1.0078250
 NucSpn=           1           1           1           1           1           1           1           1           1           1
 AtZEff=  -0.0000000  -0.0000000  -0.0000000  -0.0000000  -0.0000000  -0.0000000  -0.0000000  -0.0000000  -0.0000000  -0.0000000
 NQMom=    0.0000000   0.0000000   0.0000000   0.0000000   0.0000000   0.0000000   0.0000000   0.0000000   0.0000000   0.0000000
 NMagM=    2.7928460   2.7928460   2.7928460   2.7928460   2.7928460   2.7928460   2.7928460   2.7928460   2.7928460   2.7928460
 AtZNuc=   1.0000000   1.0000000   1.0000000   1.0000000   1.0000000   1.0000000   1.0000000   1.0000000   1.0000000   1.0000000

  Atom        81          82          83          84          85          86          87          88          89          90
 IAtWgt=           1           1           1           1           1           1           1           1           1           1
 AtmWgt=   1.0078250   1.0078250   1.0078250   1.0078250   1.0078250   1.0078250   1.0078250   1.0078250   1.0078250   1.0078250
 NucSpn=           1           1           1           1           1           1           1           1           1           1
 AtZEff=  -0.0000000  -0.0000000  -0.0000000  -0.0000000  -0.0000000  -0.0000000  -0.0000000  -0.0000000  -0.0000000  -0.0000000
 NQMom=    0.0000000   0.0000000   0.0000000   0.0000000   0.0000000   0.0000000   0.0000000   0.0000000   0.0000000   0.0000000
 NMagM=    2.7928460   2.7928460   2.7928460   2.7928460   2.7928460   2.7928460   2.7928460   2.7928460   2.7928460   2.7928460
 AtZNuc=   1.0000000   1.0000000   1.0000000   1.0000000   1.0000000   1.0000000   1.0000000   1.0000000   1.0000000   1.0000000

  Atom        91          92          93          94          95          96          97          98          99         100
 IAtWgt=           1           1           1           1           1           1           1           1           1           1
 AtmWgt=   1.0078250   1.0078250   1.0078250   1.0078250   1.0078250   1.0078250   1.0078250   1.0078250   1.0078250   1.0078250
 NucSpn=           1           1           1           1           1           1           1           1           1           1
 AtZEff=  -0.0000000  -0.0000000  -0.0000000  -0.0000000  -0.0000000  -0.0000000  -0.0000000  -0.0000000  -0.0000000  -0.0000000
 NQMom=    0.0000000   0.0000000   0.0000000   0.0000000   0.0000000   0.0000000   0.0000000   0.0000000   0.0000000   0.0000000
 NMagM=    2.7928460   2.7928460   2.7928460   2.7928460   2.7928460   2.7928460   2.7928460   2.7928460   2.7928460   2.7928460
 AtZNuc=   1.0000000   1.0000000   1.0000000   1.0000000   1.0000000   1.0000000   1.0000000   1.0000000   1.0000000   1.0000000

  Atom       101         102         103         104         105         106         107         108         109         110
 IAtWgt=           1           1           1           1           1           1           1           1           1           1
 AtmWgt=   1.0078250   1.0078250   1.0078250   1.0078250   1.0078250   1.0078250   1.0078250   1.0078250   1.0078250   1.0078250
 NucSpn=           1           1           1           1           1           1           1           1           1           1
 AtZEff=  -0.0000000  -0.0000000  -0.0000000  -0.0000000  -0.0000000  -0.0000000  -0.0000000  -0.0000000  -0.0000000  -0.0000000
 NQMom=    0.0000000   0.0000000   0.0000000   0.0000000   0.0000000   0.0000000   0.0000000   0.0000000   0.0000000   0.0000000
 NMagM=    2.7928460   2.7928460   2.7928460   2.7928460   2.7928460   2.7928460   2.7928460   2.7928460   2.7928460   2.7928460
 AtZNuc=   1.0000000   1.0000000   1.0000000   1.0000000   1.0000000   1.0000000   1.0000000   1.0000000   1.0000000   1.0000000

  Atom       111         112         113         114         115         116         117         118         119         120
 IAtWgt=           1           1           1           1           1           1           1           1           1           1
 AtmWgt=   1.0078250   1.0078250   1.0078250   1.0078250   1.0078250   1.0078250   1.0078250   1.0078250   1.0078250   1.0078250
 NucSpn=           1           1           1           1           1           1           1           1           1           1
 AtZEff=  -0.0000000  -0.0000000  -0.0000000  -0.0000000  -0.0000000  -0.0000000  -0.0000000  -0.0000000  -0.0000000  -0.0000000
 NQMom=    0.0000000   0.0000000   0.0000000   0.0000000   0.0000000   0.0000000   0.0000000   0.0000000   0.0000000   0.0000000
 NMagM=    2.7928460   2.7928460   2.7928460   2.7928460   2.7928460   2.7928460   2.7928460   2.7928460   2.7928460   2.7928460
 AtZNuc=   1.0000000   1.0000000   1.0000000   1.0000000   1.0000000   1.0000000   1.0000000   1.0000000   1.0000000   1.0000000

  Atom       121         122         123         124         125         126         127         128         129         130
 IAtWgt=           1           1           1           1           1           1           1           1           1           1
 AtmWgt=   1.0078250   1.0078250   1.0078250   1.0078250   1.0078250   1.0078250   1.0078250   1.0078250   1.0078250   1.0078250
 NucSpn=           1           1           1           1           1           1           1           1           1           1
 AtZEff=  -0.0000000  -0.0000000  -0.0000000  -0.0000000  -0.0000000  -0.0000000  -0.0000000  -0.0000000  -0.0000000  -0.0000000
 NQMom=    0.0000000   0.0000000   0.0000000   0.0000000   0.0000000   0.0000000   0.0000000   0.0000000   0.0000000   0.0000000
 NMagM=    2.7928460   2.7928460   2.7928460   2.7928460   2.7928460   2.7928460   2.7928460   2.7928460   2.7928460   2.7928460
 AtZNuc=   1.0000000   1.0000000   1.0000000   1.0000000   1.0000000   1.0000000   1.0000000   1.0000000   1.0000000   1.0000000

  Atom       131         132         133         134         135         136         137         138         139         140
 IAtWgt=           1           1           1           1           1           1           1           1           1           1
 AtmWgt=   1.0078250   1.0078250   1.0078250   1.0078250   1.0078250   1.0078250   1.0078250   1.0078250   1.0078250   1.0078250
 NucSpn=           1           1           1           1           1           1           1           1           1           1
 AtZEff=  -0.0000000  -0.0000000  -0.0000000  -0.0000000  -0.0000000  -0.0000000  -0.0000000  -0.0000000  -0.0000000  -0.0000000
 NQMom=    0.0000000   0.0000000   0.0000000   0.0000000   0.0000000   0.0000000   0.0000000   0.0000000   0.0000000   0.0000000
 NMagM=    2.7928460   2.7928460   2.7928460   2.7928460   2.7928460   2.7928460   2.7928460   2.7928460   2.7928460   2.7928460
 AtZNuc=   1.0000000   1.0000000   1.0000000   1.0000000   1.0000000   1.0000000   1.0000000   1.0000000   1.0000000   1.0000000
 Leave Link  101 at Sat Apr 30 00:57:57 2022, MaxMem= 10066329600 cpu:               2.9 elap:               0.1
 (Enter /sw/apps/gaussian-16.0/g16/l202.exe)
 Stoichiometry    C55H74MgN4O6
 Framework group  C1[X(C55H74MgN4O6)]
 Deg. of freedom   414
 Full point group                 C1      NOp   1
 Largest Abelian subgroup         C1      NOp   1
 Largest concise Abelian subgroup C1      NOp   1
                         Standard orientation:                         
 ---------------------------------------------------------------------
 Center     Atomic      Atomic             Coordinates (Angstroms)
 Number     Number       Type             X           Y           Z
 ---------------------------------------------------------------------
      1         12           0       -4.639684   -0.889815    0.047210
      2          6           0       -3.605979    2.318413    0.988858
      3          6           0       -4.053560    0.021459   -3.197283
      4          6           0       -5.082128   -4.135983   -0.715713
      5          6           0       -4.459181   -1.828697    3.510488
      6          7           0       -3.614692    0.912758   -0.914861
      7          6           0       -3.443611    2.128677   -0.354955
      8          6           0       -2.937809    3.123647   -1.434772
      9          6           0       -3.338979    2.436957   -2.730530
     10          6           0       -3.656285    0.963204   -2.264874
     11          6           0       -4.477173    3.077728   -3.581092
     12          6           0       -1.336445    3.409409   -1.405761
     13          6           0       -0.982944    4.818802   -1.375758
     14          6           0        0.491113    5.211547   -1.456904
     15          8           0        0.974739    5.801060   -2.410692
     16          8           0        1.167735    4.859627   -0.338552
     17          7           0       -4.776323   -1.835357   -1.694139
     18          6           0       -4.480844   -1.328807   -2.951148
     19          6           0       -4.688674   -2.352987   -3.925015
     20          6           0       -5.224037   -3.463264   -3.291365
     21          6           0       -5.035076   -3.163933   -1.790485
     22          6           0       -4.383843   -2.158610   -5.396997
     23          6           0       -5.826193   -4.709500   -3.987410
     24          8           0       -5.800838   -4.749592   -5.231183
     25          6           0       -6.359733   -5.917781   -3.284521
     26          7           0       -4.736803   -2.744913    1.218014
     27          6           0       -5.028385   -3.980289    0.660750
     28          6           0       -5.129175   -5.074539    1.704872
     29          6           0       -5.064282   -4.269245    3.066444
     30          6           0       -4.763696   -2.826250    2.565910
     31          6           0       -6.471363   -5.963562    1.570391
     32          6           0       -3.947087   -4.718875    4.041013
     33          6           0       -4.327153   -5.145452    5.510837
     34          7           0       -4.042491   -0.007197    1.910737
     35          6           0       -4.068180   -0.466912    3.209083
     36          6           0       -3.662566    0.621008    4.079351
     37          6           0       -3.602458    1.783735    3.348325
     38          6           0       -3.780252    1.332138    1.998533
     39          6           0       -3.408559    0.402892    5.523941
     40          6           0       -3.459025    3.231808    3.304971
     41          8           0       -3.229416    4.080894    4.182595
     42          6           0       -3.477959    3.693705    1.756549
     43          6           0       -4.683278    4.559293    1.338830
     44          8           0       -5.799623    4.110101    1.118419
     45          8           0       -4.222307    5.822042    1.033849
     46          6           0       -5.221452    6.818729    0.540713
     47          6           0        2.608562    4.993530   -0.427843
     48          6           0        3.213388    3.662397    0.003203
     49          6           0        4.408460    3.192915   -0.216075
     50          6           0        5.601051    3.833756   -0.924381
     51          6           0        4.662413    1.721236    0.219851
     52          6           0        3.938016    0.694748   -0.650232
     53          6           0        4.723552   -0.655073   -0.585169
     54          6           0        5.637935   -0.910726   -1.851848
     55          6           0        4.726056   -1.687672   -2.844725
     56          6           0        6.946375   -1.701837   -1.410529
     57          6           0        8.037958   -0.605202   -1.068912
     58          6           0        8.514338   -0.681224    0.435792
     59          6           0        9.863644   -1.487311    0.629542
     60          6           0        9.608653   -2.686347    1.527469
     61          6           0       10.991745   -0.562764    1.257000
     62          6           0       12.204318   -0.788758    0.400817
     63          6           0       13.098084   -1.946394    0.789510
     64          6           0       14.582859   -1.786250    0.473255
     65          6           0       15.568221   -2.469455    1.441211
     66          6           0       14.842737   -2.104033   -0.977071
     67          1           0       -3.887883    0.319883   -4.234247
     68          1           0       -5.230284   -5.176835   -1.011119
     69          1           0       -4.552661   -2.121616    4.557618
     70          1           0       -3.558697    3.995227   -1.229444
     71          1           0       -2.494212    2.429283   -3.419855
     72          1           0       -4.201968    3.295215   -4.613722
     73          1           0       -4.924436    3.906804   -3.033182
     74          1           0       -5.369550    2.470350   -3.732037
     75          1           0       -0.778581    3.077552   -2.281169
     76          1           0       -0.800138    2.939545   -0.580759
     77          1           0       -1.346836    5.236836   -0.437263
     78          1           0       -1.517612    5.293762   -2.198240
     79          1           0       -3.686681   -2.938803   -5.701847
     80          1           0       -3.834497   -1.244960   -5.621360
     81          1           0       -5.288570   -2.207605   -6.002530
     82          1           0       -5.565706   -6.662937   -3.244140
     83          1           0       -7.121031   -6.262109   -3.985772
     84          1           0       -6.765283   -5.725225   -2.291531
     85          1           0       -4.266253   -5.737734    1.657294
     86          1           0       -6.066522   -4.410326    3.470805
     87          1           0       -6.401544   -7.010654    1.277179
     88          1           0       -7.134781   -5.600766    0.785855
     89          1           0       -7.120452   -5.917500    2.445356
     90          1           0       -3.146139   -3.980203    4.033100
     91          1           0       -3.504538   -5.608276    3.591999
     92          1           0       -3.858866   -6.116621    5.674126
     93          1           0       -5.400172   -5.336472    5.491441
     94          1           0       -3.992072   -4.441631    6.272299
     95          1           0       -3.817241   -0.534004    5.903079
     96          1           0       -3.941028    1.166821    6.091158
     97          1           0       -2.322042    0.341788    5.587263
     98          1           0       -2.573720    4.207646    1.431818
     99          1           0       -4.637647    7.389730   -0.181596
    100          1           0       -5.549303    7.408509    1.395743
    101          1           0       -6.144229    6.424009    0.115134
    102          1           0        2.930063    5.730766    0.306618
    103          1           0        2.967141    5.226501   -1.431320
    104          1           0        2.506576    2.933000    0.398725
    105          1           0        6.214177    3.104094   -1.453019
    106          1           0        6.257234    4.348486   -0.223149
    107          1           0        5.245533    4.703039   -1.477741
    108          1           0        4.402803    1.736574    1.277890
    109          1           0        5.735071    1.537184    0.288428
    110          1           0        3.973747    1.041480   -1.682901
    111          1           0        2.976949    0.486961   -0.179802
    112          1           0        3.934819   -1.401692   -0.488940
    113          1           0        5.316063   -0.689169    0.328865
    114          1           0        5.896673    0.018660   -2.357602
    115          1           0        3.673178   -1.422984   -2.743531
    116          1           0        4.791593   -2.765526   -2.699782
    117          1           0        4.891347   -1.448166   -3.895634
    118          1           0        7.228094   -2.328208   -2.257195
    119          1           0        6.709067   -2.419647   -0.625824
    120          1           0        7.907877    0.461760   -1.252242
    121          1           0        8.902254   -0.755594   -1.716058
    122          1           0        7.757493   -1.031367    1.138321
    123          1           0        8.520942    0.358755    0.759168
    124          1           0       10.245852   -1.895965   -0.305705
    125          1           0       10.463641   -3.362285    1.504481
    126          1           0        8.637799   -3.105213    1.264187
    127          1           0        9.521296   -2.307171    2.545262
    128          1           0       11.248251   -0.873222    2.269090
    129          1           0       10.825065    0.513556    1.225031
    130          1           0       12.742025    0.148949    0.543042
    131          1           0       12.089320   -0.755273   -0.681747
    132          1           0       12.627646   -2.754113    0.229028
    133          1           0       12.909800   -2.385776    1.768656
    134          1           0       14.875232   -0.747946    0.631155
    135          1           0       15.789151   -1.830601    2.296021
    136          1           0       16.512349   -2.790595    1.000187
    137          1           0       15.108306   -3.371580    1.845669
    138          1           0       14.195335   -1.595823   -1.693034
    139          1           0       14.711918   -3.172609   -1.143917
    140          1           0       15.892839   -1.844244   -1.109262
 ---------------------------------------------------------------------
 Rotational constants (GHZ):           0.0318664           0.0123424           0.0110699
 Leave Link  202 at Sat Apr 30 00:57:57 2022, MaxMem= 10066329600 cpu:               0.2 elap:               0.0
 (Enter /sw/apps/gaussian-16.0/g16/l301.exe)
 Standard basis: def2SVP (5D, 7F)
 Ernie: Thresh=  0.10000D-02 Tol=  0.10000D-05 Strict=F.
 There are  1364 symmetry adapted cartesian basis functions of A   symmetry.
 There are  1298 symmetry adapted basis functions of A   symmetry.
  1298 basis functions,  2180 primitive gaussians,  1364 cartesian basis functions
   246 alpha electrons      246 beta electrons
       nuclear repulsion energy      9682.4626971548 Hartrees.
 IExCor=20419 DFT=T Ex+Corr=CAM-B3LYP ExCW=0 ScaHFX=  1.000000
 ScaDFX=  1.000000  1.000000  1.000000  0.810000 ScalE2=  1.000000  1.000000
 IRadAn=      5 IRanWt=     -1 IRanGd=            0 ICorTp=0 IEmpDi=  4
 HFx  wShort=  0.000000 wLong=  0.330000 cFull=  0.190000 cShort=  0.000000 cLong=  0.460000
 DFx  wShort=  0.000000 wLong=  0.330000 cFull=  0.190000 cShort=  0.000000 cLong=  0.460000
 NAtoms=  140 NActive=  140 NUniq=  140 SFac= 1.00D+00 NAtFMM=   60 NAOKFM=T Big=T
 Integral buffers will be    131072 words long.
 Raffenetti 1 integral format.
 Two-electron integral symmetry is turned on.
 Leave Link  301 at Sat Apr 30 00:57:58 2022, MaxMem= 10066329600 cpu:               1.3 elap:               0.1
 (Enter /sw/apps/gaussian-16.0/g16/l302.exe)
 NPDir=0 NMtPBC=     1 NCelOv=     1 NCel=       1 NClECP=     1 NCelD=      1
         NCelK=      1 NCelE2=     1 NClLst=     1 CellRange=     0.0.
 One-electron integrals computed using PRISM.
 One-electron integral symmetry used in STVInt
   1 Symmetry operations used in ECPInt.
 ECPInt:  NShTT=  192510 NPrTT=  683786 LenC2=   99532 LenP2D=  214618.
 LDataN:  DoStor=T MaxTD1= 4 Len=   56
 NBasis=  1298 RedAO= T EigKep=  3.13D-04  NBF=  1298
 NBsUse=  1298 1.00D-06 EigRej= -1.00D+00 NBFU=  1298
 Precomputing XC quadrature grid using
 IXCGrd= 4 IRadAn=           5 IRanWt=          -1 IRanGd=           0 AccXCQ= 0.00D+00.
 Generated NRdTot=       0 NPtTot=           0 NUsed=           0 NTot=          32
 NSgBfM=  1013   989   998  1009  1013 MxSgAt=   140 MxSgA2=   140.
 Leave Link  302 at Sat Apr 30 00:58:02 2022, MaxMem= 10066329600 cpu:             103.8 elap:               4.3
 (Enter /sw/apps/gaussian-16.0/g16/l303.exe)
 DipDrv:  MaxL=1.
 Leave Link  303 at Sat Apr 30 00:58:02 2022, MaxMem= 10066329600 cpu:               7.2 elap:               0.3
 (Enter /sw/apps/gaussian-16.0/g16/l308.exe)
 Leave Link  308 at Sat Apr 30 00:58:03 2022, MaxMem= 10066329600 cpu:              10.5 elap:               0.5
 (Enter /sw/apps/gaussian-16.0/g16/l401.exe)
 ExpMin= 3.36D-02 ExpMax= 4.95D+03 ExpMxC= 7.45D+02 IAcc=3 IRadAn=         5 AccDes= 0.00D+00
 Harris functional with IExCor=20419 and IRadAn=       5 diagonalized for initial guess.
 HarFok:  IExCor=20419 AccDes= 0.00D+00 IRadAn=         5 IDoV= 1 UseB2=F ITyADJ=14
 ICtDFT=  3500011 ScaDFX=  1.000000  1.000000  1.000000  1.000000
 FoFCou: FMM=F IPFlag=           0 FMFlag=      100000 FMFlg1=        2001
         NFxFlg=           0 DoJE=T BraDBF=F KetDBF=T FulRan=T
         wScrn=  0.000000 ICntrl=       500 IOpCl=  0 I1Cent=   200000004 NGrid=           0
         NMat0=    1 NMatS0=      1 NMatT0=    0 NMatD0=    1 NMtDS0=    0 NMtDT0=    0
 Petite list used in FoFCou.
 Harris En= -2890.88222891834    
 JPrj=0 DoOrth=F DoCkMO=F.
 Leave Link  401 at Sat Apr 30 00:58:10 2022, MaxMem= 10066329600 cpu:             168.2 elap:               7.0
 (Enter /sw/apps/gaussian-16.0/g16/l502.exe)
 Integral symmetry usage will be decided dynamically.
 Closed shell SCF:
 Using DIIS extrapolation, IDIIS=  1040.
 NGot= 10066329600 LenX= 10062561258 LenY= 10060699398
 Requested convergence on RMS density matrix=1.00D-08 within 128 cycles.
 Requested convergence on MAX density matrix=1.00D-06.
 Requested convergence on             energy=1.00D-06.
 No special actions if energy rises.
 Fock matrices will be formed incrementally for  20 cycles.

 Cycle   1  Pass 1  IDiag  1:
 FoFJK:  IHMeth= 1 ICntrl=       0 DoSepK=T KAlg= 0 I1Cent=           0 FoldK=F
 IRaf=         1 NMat=       1 IRICut=       1 DoRegI=T DoRafI=F ISym2E= 0 IDoP0=0 IntGTp=1.
 FoFCou: FMM=T IPFlag=           0 FMFlag=      100000 FMFlg1=        2001
         NFxFlg=           0 DoJE=T BraDBF=F KetDBF=F FulRan=T
         wScrn=  0.000000 ICntrl=       500 IOpCl=  0 I1Cent=           0 NGrid=           0
         NMat0=    1 NMatS0=      1 NMatT0=    0 NMatD0=    1 NMtDS0=    0 NMtDT0=    0
 Symmetry not used in FoFCou.
 FMM levels:  10  Number of levels for PrismC:   9
 E= -3006.48647643803    
 DIIS: error= 1.88D-02 at cycle   1 NSaved=   1.
 NSaved= 1 IEnMin= 1 EnMin= -3006.48647643803     IErMin= 1 ErrMin= 1.88D-02
 ErrMax= 1.88D-02  0.00D+00 EMaxC= 1.00D-01 BMatC= 1.27D+00 BMatP= 1.27D+00
 IDIUse=3 WtCom= 8.12D-01 WtEn= 1.88D-01
 Coeff-Com:  0.100D+01
 Coeff-En:   0.100D+01
 Coeff:      0.100D+01
 Gap=     0.123 Goal=   None    Shift=    0.000
 GapD=    0.123 DampG=1.000 DampE=0.500 DampFc=0.5000 IDamp=-1.
 Damping current iteration by 5.00D-01
 RMSDP=1.51D-03 MaxDP=1.20D-01              OVMax= 1.89D-01

 Cycle   2  Pass 1  IDiag  1:
 RMSU=  7.44D-04    CP:  9.86D-01
 E= -3006.79736911274     Delta-E=       -0.310892674706 Rises=F Damp=T
 DIIS: error= 1.13D-02 at cycle   2 NSaved=   2.
 NSaved= 2 IEnMin= 2 EnMin= -3006.79736911274     IErMin= 2 ErrMin= 1.13D-02
 ErrMax= 1.13D-02  0.00D+00 EMaxC= 1.00D-01 BMatC= 2.30D-01 BMatP= 1.27D+00
 IDIUse=3 WtCom= 8.87D-01 WtEn= 1.13D-01
 Coeff-Com: -0.228D+00 0.123D+01
 Coeff-En:   0.000D+00 0.100D+01
 Coeff:     -0.202D+00 0.120D+01
 Gap=     0.136 Goal=   None    Shift=    0.000
 RMSDP=6.82D-04 MaxDP=6.74D-02 DE=-3.11D-01 OVMax= 1.53D-01

 Cycle   3  Pass 1  IDiag  1:
 RMSU=  6.62D-04    CP:  9.76D-01  1.19D+00
 E= -3007.03744347696     Delta-E=       -0.240074364225 Rises=F Damp=F
 DIIS: error= 1.26D-02 at cycle   3 NSaved=   3.
 NSaved= 3 IEnMin= 3 EnMin= -3007.03744347696     IErMin= 2 ErrMin= 1.13D-02
 ErrMax= 1.26D-02  0.00D+00 EMaxC= 1.00D-01 BMatC= 1.36D-01 BMatP= 2.30D-01
 IDIUse=3 WtCom= 8.74D-01 WtEn= 1.26D-01
 Coeff-Com: -0.263D+00 0.639D+00 0.625D+00
 Coeff-En:   0.000D+00 0.000D+00 0.100D+01
 Coeff:     -0.230D+00 0.558D+00 0.672D+00
 Gap=     0.124 Goal=   None    Shift=    0.000
 RMSDP=4.39D-04 MaxDP=4.65D-02 DE=-2.40D-01 OVMax= 1.15D-01

 Cycle   4  Pass 1  IDiag  1:
 RMSU=  2.58D-04    CP:  9.74D-01  1.48D+00  5.76D-01
 E= -3007.12851554241     Delta-E=       -0.091072065443 Rises=F Damp=F
 DIIS: error= 6.65D-03 at cycle   4 NSaved=   4.
 NSaved= 4 IEnMin= 4 EnMin= -3007.12851554241     IErMin= 4 ErrMin= 6.65D-03
 ErrMax= 6.65D-03  0.00D+00 EMaxC= 1.00D-01 BMatC= 3.14D-02 BMatP= 1.36D-01
 IDIUse=3 WtCom= 9.33D-01 WtEn= 6.65D-02
 Coeff-Com: -0.111D+00 0.226D+00 0.402D+00 0.482D+00
 Coeff-En:   0.000D+00 0.000D+00 0.194D+00 0.806D+00
 Coeff:     -0.103D+00 0.211D+00 0.388D+00 0.504D+00
 Gap=     0.124 Goal=   None    Shift=    0.000
 RMSDP=1.64D-04 MaxDP=1.91D-02 DE=-9.11D-02 OVMax= 4.57D-02

 Cycle   5  Pass 1  IDiag  1:
 RMSU=  6.54D-05    CP:  9.73D-01  1.44D+00  7.17D-01  5.53D-01
 E= -3007.15509557127     Delta-E=       -0.026580028862 Rises=F Damp=F
 DIIS: error= 6.88D-04 at cycle   5 NSaved=   5.
 NSaved= 5 IEnMin= 5 EnMin= -3007.15509557127     IErMin= 5 ErrMin= 6.88D-04
 ErrMax= 6.88D-04  0.00D+00 EMaxC= 1.00D-01 BMatC= 6.60D-04 BMatP= 3.14D-02
 IDIUse=3 WtCom= 9.93D-01 WtEn= 6.88D-03
 Coeff-Com: -0.389D-01 0.764D-01 0.163D+00 0.245D+00 0.554D+00
 Coeff-En:   0.000D+00 0.000D+00 0.000D+00 0.000D+00 0.100D+01
 Coeff:     -0.387D-01 0.758D-01 0.162D+00 0.244D+00 0.557D+00
 Gap=     0.123 Goal=   None    Shift=    0.000
 RMSDP=3.42D-05 MaxDP=3.88D-03 DE=-2.66D-02 OVMax= 1.34D-02

 Cycle   6  Pass 1  IDiag  1:
 RMSU=  2.60D-05    CP:  9.73D-01  1.45D+00  7.16D-01  6.09D-01  7.43D-01
 E= -3007.15561975264     Delta-E=       -0.000524181374 Rises=F Damp=F
 DIIS: error= 2.59D-04 at cycle   6 NSaved=   6.
 NSaved= 6 IEnMin= 6 EnMin= -3007.15561975264     IErMin= 6 ErrMin= 2.59D-04
 ErrMax= 2.59D-04  0.00D+00 EMaxC= 1.00D-01 BMatC= 9.96D-05 BMatP= 6.60D-04
 IDIUse=3 WtCom= 9.97D-01 WtEn= 2.59D-03
 Coeff-Com:  0.105D-02-0.391D-02 0.104D-01 0.350D-01 0.301D+00 0.656D+00
 Coeff-En:   0.000D+00 0.000D+00 0.000D+00 0.000D+00 0.105D+00 0.895D+00
 Coeff:      0.105D-02-0.390D-02 0.104D-01 0.349D-01 0.301D+00 0.657D+00
 Gap=     0.124 Goal=   None    Shift=    0.000
 RMSDP=1.43D-05 MaxDP=1.59D-03 DE=-5.24D-04 OVMax= 7.44D-03

 Cycle   7  Pass 1  IDiag  1:
 RMSU=  9.29D-06    CP:  9.73D-01  1.45D+00  7.22D-01  6.10D-01  8.51D-01
                    CP:  7.13D-01
 E= -3007.15571731561     Delta-E=       -0.000097562966 Rises=F Damp=F
 DIIS: error= 9.02D-05 at cycle   7 NSaved=   7.
 NSaved= 7 IEnMin= 7 EnMin= -3007.15571731561     IErMin= 7 ErrMin= 9.02D-05
 ErrMax= 9.02D-05  0.00D+00 EMaxC= 1.00D-01 BMatC= 1.54D-05 BMatP= 9.96D-05
 IDIUse=1 WtCom= 1.00D+00 WtEn= 0.00D+00
 Coeff-Com:  0.426D-02-0.928D-02-0.934D-02-0.584D-02 0.104D+00 0.362D+00
 Coeff-Com:  0.554D+00
 Coeff:      0.426D-02-0.928D-02-0.934D-02-0.584D-02 0.104D+00 0.362D+00
 Coeff:      0.554D+00
 Gap=     0.124 Goal=   None    Shift=    0.000
 RMSDP=6.06D-06 MaxDP=1.05D-03 DE=-9.76D-05 OVMax= 3.03D-03

 Cycle   8  Pass 1  IDiag  1:
 RMSU=  3.82D-06    CP:  9.73D-01  1.45D+00  7.22D-01  6.14D-01  8.55D-01
                    CP:  8.58D-01  7.35D-01
 E= -3007.15573425071     Delta-E=       -0.000016935097 Rises=F Damp=F
 DIIS: error= 3.09D-05 at cycle   8 NSaved=   8.
 NSaved= 8 IEnMin= 8 EnMin= -3007.15573425071     IErMin= 8 ErrMin= 3.09D-05
 ErrMax= 3.09D-05  0.00D+00 EMaxC= 1.00D-01 BMatC= 2.07D-06 BMatP= 1.54D-05
 IDIUse=1 WtCom= 1.00D+00 WtEn= 0.00D+00
 Coeff-Com:  0.230D-02-0.457D-02-0.774D-02-0.120D-01-0.933D-02 0.599D-01
 Coeff-Com:  0.292D+00 0.679D+00
 Coeff:      0.230D-02-0.457D-02-0.774D-02-0.120D-01-0.933D-02 0.599D-01
 Coeff:      0.292D+00 0.679D+00
 Gap=     0.124 Goal=   None    Shift=    0.000
 RMSDP=2.39D-06 MaxDP=1.63D-04 DE=-1.69D-05 OVMax= 1.26D-03

 Cycle   9  Pass 1  IDiag  1:
 RMSU=  1.44D-06    CP:  9.73D-01  1.45D+00  7.23D-01  6.14D-01  8.69D-01
                    CP:  8.67D-01  8.97D-01  8.60D-01
 E= -3007.15573705061     Delta-E=       -0.000002799909 Rises=F Damp=F
 DIIS: error= 1.87D-05 at cycle   9 NSaved=   9.
 NSaved= 9 IEnMin= 9 EnMin= -3007.15573705061     IErMin= 9 ErrMin= 1.87D-05
 ErrMax= 1.87D-05  0.00D+00 EMaxC= 1.00D-01 BMatC= 3.50D-07 BMatP= 2.07D-06
 IDIUse=1 WtCom= 1.00D+00 WtEn= 0.00D+00
 Coeff-Com:  0.678D-03-0.125D-02-0.288D-02-0.589D-02-0.191D-01-0.146D-01
 Coeff-Com:  0.838D-01 0.373D+00 0.587D+00
 Coeff:      0.678D-03-0.125D-02-0.288D-02-0.589D-02-0.191D-01-0.146D-01
 Coeff:      0.838D-01 0.373D+00 0.587D+00
 Gap=     0.124 Goal=   None    Shift=    0.000
 RMSDP=8.41D-07 MaxDP=1.23D-04 DE=-2.80D-06 OVMax= 3.74D-04

 Cycle  10  Pass 1  IDiag  1:
 RMSU=  5.59D-07    CP:  9.73D-01  1.45D+00  7.23D-01  6.15D-01  8.71D-01
                    CP:  8.80D-01  9.06D-01  9.79D-01  9.03D-01
 E= -3007.15573750000     Delta-E=       -0.000000449387 Rises=F Damp=F
 DIIS: error= 4.59D-06 at cycle  10 NSaved=  10.
 NSaved=10 IEnMin=10 EnMin= -3007.15573750000     IErMin=10 ErrMin= 4.59D-06
 ErrMax= 4.59D-06  0.00D+00 EMaxC= 1.00D-01 BMatC= 3.21D-08 BMatP= 3.50D-07
 IDIUse=1 WtCom= 1.00D+00 WtEn= 0.00D+00
 Coeff-Com: -0.192D-03 0.418D-03 0.412D-03-0.861D-04-0.628D-02-0.190D-01
 Coeff-Com: -0.266D-01 0.287D-01 0.215D+00 0.808D+00
 Coeff:     -0.192D-03 0.418D-03 0.412D-03-0.861D-04-0.628D-02-0.190D-01
 Coeff:     -0.266D-01 0.287D-01 0.215D+00 0.808D+00
 Gap=     0.124 Goal=   None    Shift=    0.000
 RMSDP=4.58D-07 MaxDP=6.21D-05 DE=-4.49D-07 OVMax= 1.77D-04

 Cycle  11  Pass 1  IDiag  1:
 RMSU=  2.62D-07    CP:  9.73D-01  1.45D+00  7.23D-01  6.15D-01  8.72D-01
                    CP:  8.86D-01  9.27D-01  1.02D+00  1.06D+00  1.05D+00
 E= -3007.15573757255     Delta-E=       -0.000000072550 Rises=F Damp=F
 DIIS: error= 1.97D-06 at cycle  11 NSaved=  11.
 NSaved=11 IEnMin=11 EnMin= -3007.15573757255     IErMin=11 ErrMin= 1.97D-06
 ErrMax= 1.97D-06  0.00D+00 EMaxC= 1.00D-01 BMatC= 1.10D-08 BMatP= 3.21D-08
 IDIUse=1 WtCom= 1.00D+00 WtEn= 0.00D+00
 Coeff-Com: -0.204D-03 0.408D-03 0.677D-03 0.921D-03 0.191D-03-0.661D-02
 Coeff-Com: -0.285D-01-0.464D-01-0.127D-01 0.425D+00 0.667D+00
 Coeff:     -0.204D-03 0.408D-03 0.677D-03 0.921D-03 0.191D-03-0.661D-02
 Coeff:     -0.285D-01-0.464D-01-0.127D-01 0.425D+00 0.667D+00
 Gap=     0.124 Goal=   None    Shift=    0.000
 RMSDP=1.98D-07 MaxDP=3.09D-05 DE=-7.26D-08 OVMax= 1.03D-04

 Cycle  12  Pass 1  IDiag  1:
 RMSU=  1.10D-07    CP:  9.73D-01  1.45D+00  7.23D-01  6.15D-01  8.72D-01
                    CP:  8.87D-01  9.31D-01  1.04D+00  1.10D+00  1.24D+00
                    CP:  9.69D-01
 E= -3007.15573759101     Delta-E=       -0.000000018455 Rises=F Damp=F
 DIIS: error= 1.19D-06 at cycle  12 NSaved=  12.
 NSaved=12 IEnMin=12 EnMin= -3007.15573759101     IErMin=12 ErrMin= 1.19D-06
 ErrMax= 1.19D-06  0.00D+00 EMaxC= 1.00D-01 BMatC= 1.32D-09 BMatP= 1.10D-08
 IDIUse=1 WtCom= 1.00D+00 WtEn= 0.00D+00
 Coeff-Com: -0.698D-04 0.136D-03 0.264D-03 0.442D-03 0.879D-03-0.321D-03
 Coeff-Com: -0.990D-02-0.225D-01-0.379D-01 0.982D-01 0.288D+00 0.682D+00
 Coeff:     -0.698D-04 0.136D-03 0.264D-03 0.442D-03 0.879D-03-0.321D-03
 Coeff:     -0.990D-02-0.225D-01-0.379D-01 0.982D-01 0.288D+00 0.682D+00
 Gap=     0.124 Goal=   None    Shift=    0.000
 RMSDP=7.89D-08 MaxDP=7.28D-06 DE=-1.85D-08 OVMax= 5.48D-05

 Cycle  13  Pass 1  IDiag  1:
 RMSU=  5.64D-08    CP:  9.73D-01  1.45D+00  7.23D-01  6.15D-01  8.72D-01
                    CP:  8.88D-01  9.31D-01  1.04D+00  1.12D+00  1.28D+00
                    CP:  1.11D+00  1.06D+00
 E= -3007.15573759446     Delta-E=       -0.000000003454 Rises=F Damp=F
 DIIS: error= 5.35D-07 at cycle  13 NSaved=  13.
 NSaved=13 IEnMin=13 EnMin= -3007.15573759446     IErMin=13 ErrMin= 5.35D-07
 ErrMax= 5.35D-07  0.00D+00 EMaxC= 1.00D-01 BMatC= 4.56D-10 BMatP= 1.32D-09
 IDIUse=1 WtCom= 1.00D+00 WtEn= 0.00D+00
 Coeff-Com:  0.147D-04-0.319D-04-0.329D-04 0.426D-05 0.375D-03 0.164D-02
 Coeff-Com:  0.169D-02 0.124D-02-0.192D-01-0.536D-01-0.371D-01 0.345D+00
 Coeff-Com:  0.760D+00
 Coeff:      0.147D-04-0.319D-04-0.329D-04 0.426D-05 0.375D-03 0.164D-02
 Coeff:      0.169D-02 0.124D-02-0.192D-01-0.536D-01-0.371D-01 0.345D+00
 Coeff:      0.760D+00
 Gap=     0.124 Goal=   None    Shift=    0.000
 RMSDP=6.33D-08 MaxDP=7.34D-06 DE=-3.45D-09 OVMax= 4.03D-05

 Cycle  14  Pass 1  IDiag  1:
 RMSU=  2.94D-08    CP:  9.73D-01  1.45D+00  7.23D-01  6.15D-01  8.72D-01
                    CP:  8.88D-01  9.32D-01  1.05D+00  1.13D+00  1.33D+00
                    CP:  1.19D+00  1.42D+00  1.23D+00
 E= -3007.15573759629     Delta-E=       -0.000000001826 Rises=F Damp=F
 DIIS: error= 4.91D-07 at cycle  14 NSaved=  14.
 NSaved=14 IEnMin=14 EnMin= -3007.15573759629     IErMin=14 ErrMin= 4.91D-07
 ErrMax= 4.91D-07  0.00D+00 EMaxC= 1.00D-01 BMatC= 1.41D-10 BMatP= 4.56D-10
 IDIUse=1 WtCom= 1.00D+00 WtEn= 0.00D+00
 Coeff-Com:  0.323D-04-0.643D-04-0.111D-03-0.153D-03-0.168D-03 0.958D-03
 Coeff-Com:  0.388D-02 0.969D-02 0.247D-02-0.517D-01-0.122D+00-0.494D-01
 Coeff-Com:  0.380D+00 0.827D+00
 Coeff:      0.323D-04-0.643D-04-0.111D-03-0.153D-03-0.168D-03 0.958D-03
 Coeff:      0.388D-02 0.969D-02 0.247D-02-0.517D-01-0.122D+00-0.494D-01
 Coeff:      0.380D+00 0.827D+00
 Gap=     0.124 Goal=   None    Shift=    0.000
 RMSDP=4.44D-08 MaxDP=3.42D-06 DE=-1.83D-09 OVMax= 3.06D-05

 Cycle  15  Pass 1  IDiag  1:
 RMSU=  1.73D-08    CP:  9.73D-01  1.45D+00  7.23D-01  6.15D-01  8.72D-01
                    CP:  8.88D-01  9.32D-01  1.05D+00  1.13D+00  1.34D+00
                    CP:  1.26D+00  1.61D+00  1.72D+00  1.26D+00
 E= -3007.15573759724     Delta-E=       -0.000000000948 Rises=F Damp=F
 DIIS: error= 1.61D-07 at cycle  15 NSaved=  15.
 NSaved=15 IEnMin=15 EnMin= -3007.15573759724     IErMin=15 ErrMin= 1.61D-07
 ErrMax= 1.61D-07  0.00D+00 EMaxC= 1.00D-01 BMatC= 4.01D-11 BMatP= 1.41D-10
 IDIUse=1 WtCom= 1.00D+00 WtEn= 0.00D+00
 Coeff-Com:  0.958D-05-0.183D-04-0.383D-04-0.648D-04-0.193D-03-0.229D-04
 Coeff-Com:  0.927D-03 0.415D-02 0.521D-02-0.623D-02-0.481D-01-0.123D+00
 Coeff-Com: -0.745D-01 0.334D+00 0.908D+00
 Coeff:      0.958D-05-0.183D-04-0.383D-04-0.648D-04-0.193D-03-0.229D-04
 Coeff:      0.927D-03 0.415D-02 0.521D-02-0.623D-02-0.481D-01-0.123D+00
 Coeff:     -0.745D-01 0.334D+00 0.908D+00
 Gap=     0.124 Goal=   None    Shift=    0.000
 RMSDP=3.19D-08 MaxDP=2.44D-06 DE=-9.48D-10 OVMax= 2.16D-05

 Cycle  16  Pass 1  IDiag  1:
 RMSU=  8.26D-09    CP:  9.73D-01  1.45D+00  7.23D-01  6.15D-01  8.72D-01
                    CP:  8.88D-01  9.32D-01  1.05D+00  1.13D+00  1.36D+00
                    CP:  1.29D+00  1.77D+00  1.99D+00  1.73D+00  1.27D+00
 E= -3007.15573759750     Delta-E=       -0.000000000266 Rises=F Damp=F
 DIIS: error= 1.24D-07 at cycle  16 NSaved=  16.
 NSaved=16 IEnMin=16 EnMin= -3007.15573759750     IErMin=16 ErrMin= 1.24D-07
 ErrMax= 1.24D-07  0.00D+00 EMaxC= 1.00D-01 BMatC= 1.60D-11 BMatP= 4.01D-11
 IDIUse=1 WtCom= 1.00D+00 WtEn= 0.00D+00
 Coeff-Com: -0.593D-05 0.123D-04 0.175D-04 0.173D-04-0.651D-04-0.329D-03
 Coeff-Com: -0.974D-03-0.755D-03 0.162D-02 0.162D-01 0.141D-01-0.488D-01
 Coeff-Com: -0.165D+00-0.104D+00 0.547D+00 0.740D+00
 Coeff:     -0.593D-05 0.123D-04 0.175D-04 0.173D-04-0.651D-04-0.329D-03
 Coeff:     -0.974D-03-0.755D-03 0.162D-02 0.162D-01 0.141D-01-0.488D-01
 Coeff:     -0.165D+00-0.104D+00 0.547D+00 0.740D+00
 Gap=     0.124 Goal=   None    Shift=    0.000
 RMSDP=1.54D-08 MaxDP=1.14D-06 DE=-2.66D-10 OVMax= 9.46D-06

 Cycle  17  Pass 1  IDiag  1:
 RMSU=  4.24D-09    CP:  9.73D-01  1.45D+00  7.23D-01  6.15D-01  8.72D-01
                    CP:  8.88D-01  9.32D-01  1.05D+00  1.13D+00  1.36D+00
                    CP:  1.31D+00  1.83D+00  2.15D+00  1.92D+00  1.64D+00
                    CP:  1.07D+00
 E= -3007.15573759744     Delta-E=        0.000000000065 Rises=F Damp=F
 DIIS: error= 4.24D-08 at cycle  17 NSaved=  17.
 NSaved=17 IEnMin=16 EnMin= -3007.15573759750     IErMin=17 ErrMin= 4.24D-08
 ErrMax= 4.24D-08  0.00D+00 EMaxC= 1.00D-01 BMatC= 2.61D-12 BMatP= 1.60D-11
 IDIUse=1 WtCom= 1.00D+00 WtEn= 0.00D+00
 Coeff-Com: -0.475D-05 0.949D-05 0.162D-04 0.213D-04 0.522D-05-0.136D-03
 Coeff-Com: -0.714D-03-0.115D-02-0.495D-03 0.973D-02 0.169D-01 0.366D-02
 Coeff-Com: -0.589D-01-0.141D+00 0.777D-01 0.320D+00 0.774D+00
 Coeff:     -0.475D-05 0.949D-05 0.162D-04 0.213D-04 0.522D-05-0.136D-03
 Coeff:     -0.714D-03-0.115D-02-0.495D-03 0.973D-02 0.169D-01 0.366D-02
 Coeff:     -0.589D-01-0.141D+00 0.777D-01 0.320D+00 0.774D+00
 Gap=     0.124 Goal=   None    Shift=    0.000
 RMSDP=6.36D-09 MaxDP=5.31D-07 DE= 6.55D-11 OVMax= 4.24D-06

 SCF Done:  E(RCAM-B3LYP) =  -3007.15573760     A.U. after   17 cycles
            NFock= 17  Conv=0.64D-08     -V/T= 2.0108
 KE= 2.974984211641D+03 PE=-2.635601724624D+04 EE= 1.069141459984D+04
 Leave Link  502 at Sat Apr 30 01:06:58 2022, MaxMem= 10066329600 cpu:           12305.5 elap:             527.8
 (Enter /sw/apps/gaussian-16.0/g16/l801.exe)
 DoSCS=F DFT=T ScalE2(SS,OS)=  1.000000  1.000000
 ExpMin= 3.36D-02 ExpMax= 4.95D+03 ExpMxC= 7.45D+02 IAcc=3 IRadAn=         5 AccDes= 0.00D+00
 HarFok:  IExCor=  205 AccDes= 0.00D+00 IRadAn=         5 IDoV=-2 UseB2=F ITyADJ=14
 ICtDFT= 12500011 ScaDFX=  1.000000  1.000000  1.000000  1.000000
 GSVD:  LWork=       -5460 too small for GESVD, short by       25550 words or       25550 for optimal perf.
 Largest valence mixing into a core orbital is  1.84D-04
 Largest core mixing into a valence orbital is  5.10D-05
 Range of M.O.s used for correlation:    71  1298
 NBasis=  1298 NAE=   246 NBE=   246 NFC=    70 NFV=     0
 NROrb=   1228 NOA=   176 NOB=   176 NVA=  1052 NVB=  1052
 Leave Link  801 at Sat Apr 30 01:06:58 2022, MaxMem= 10066329600 cpu:               6.9 elap:               0.3
 (Enter /sw/apps/gaussian-16.0/g16/l914.exe)
 RHF ground state
 Two-electron integrals replicated using symmetry.
 MDV= 10066329600 DFT=T DoStab=F Mixed=T DoRPA=T DoScal=F NonHer=T
 Making orbital integer symmetry assigments:
 Orbital symmetries:
       Occupied  (A) (A) (A) (A) (A) (A) (A) (A) (A) (A) (A) (A)
                 (A) (A) (A) (A) (A) (A) (A) (A) (A) (A) (A) (A)
                 (A) (A) (A) (A) (A) (A) (A) (A) (A) (A) (A) (A)
                 (A) (A) (A) (A) (A) (A) (A) (A) (A) (A) (A) (A)
                 (A) (A) (A) (A) (A) (A) (A) (A) (A) (A) (A) (A)
                 (A) (A) (A) (A) (A) (A) (A) (A) (A) (A) (A) (A)
                 (A) (A) (A) (A) (A) (A) (A) (A) (A) (A) (A) (A)
                 (A) (A) (A) (A) (A) (A) (A) (A) (A) (A) (A) (A)
                 (A) (A) (A) (A) (A) (A) (A) (A) (A) (A) (A) (A)
                 (A) (A) (A) (A) (A) (A) (A) (A) (A) (A) (A) (A)
                 (A) (A) (A) (A) (A) (A) (A) (A) (A) (A) (A) (A)
                 (A) (A) (A) (A) (A) (A) (A) (A) (A) (A) (A) (A)
                 (A) (A) (A) (A) (A) (A) (A) (A) (A) (A) (A) (A)
                 (A) (A) (A) (A) (A) (A) (A) (A) (A) (A) (A) (A)
                 (A) (A) (A) (A) (A) (A) (A) (A) (A) (A) (A) (A)
                 (A) (A) (A) (A) (A) (A) (A) (A) (A) (A) (A) (A)
                 (A) (A) (A) (A) (A) (A) (A) (A) (A) (A) (A) (A)
                 (A) (A) (A) (A) (A) (A) (A) (A) (A) (A) (A) (A)
                 (A) (A) (A) (A) (A) (A) (A) (A) (A) (A) (A) (A)
                 (A) (A) (A) (A) (A) (A) (A) (A) (A) (A) (A) (A)
                 (A) (A) (A) (A) (A) (A)
       Virtual   (A) (A) (A) (A) (A) (A) (A) (A) (A) (A) (A) (A)
                 (A) (A) (A) (A) (A) (A) (A) (A) (A) (A) (A) (A)
                 (A) (A) (A) (A) (A) (A) (A) (A) (A) (A) (A) (A)
                 (A) (A) (A) (A) (A) (A) (A) (A) (A) (A) (A) (A)
                 (A) (A) (A) (A) (A) (A) (A) (A) (A) (A) (A) (A)
                 (A) (A) (A) (A) (A) (A) (A) (A) (A) (A) (A) (A)
                 (A) (A) (A) (A) (A) (A) (A) (A) (A) (A) (A) (A)
                 (A) (A) (A) (A) (A) (A) (A) (A) (A) (A) (A) (A)
                 (A) (A) (A) (A) (A) (A) (A) (A) (A) (A) (A) (A)
                 (A) (A) (A) (A) (A) (A) (A) (A) (A) (A) (A) (A)
                 (A) (A) (A) (A) (A) (A) (A) (A) (A) (A) (A) (A)
                 (A) (A) (A) (A) (A) (A) (A) (A) (A) (A) (A) (A)
                 (A) (A) (A) (A) (A) (A) (A) (A) (A) (A) (A) (A)
                 (A) (A) (A) (A) (A) (A) (A) (A) (A) (A) (A) (A)
                 (A) (A) (A) (A) (A) (A) (A) (A) (A) (A) (A) (A)
                 (A) (A) (A) (A) (A) (A) (A) (A) (A) (A) (A) (A)
                 (A) (A) (A) (A) (A) (A) (A) (A) (A) (A) (A) (A)
                 (A) (A) (A) (A) (A) (A) (A) (A) (A) (A) (A) (A)
                 (A) (A) (A) (A) (A) (A) (A) (A) (A) (A) (A) (A)
                 (A) (A) (A) (A) (A) (A) (A) (A) (A) (A) (A) (A)
                 (A) (A) (A) (A) (A) (A) (A) (A) (A) (A) (A) (A)
                 (A) (A) (A) (A) (A) (A) (A) (A) (A) (A) (A) (A)
                 (A) (A) (A) (A) (A) (A) (A) (A) (A) (A) (A) (A)
                 (A) (A) (A) (A) (A) (A) (A) (A) (A) (A) (A) (A)
                 (A) (A) (A) (A) (A) (A) (A) (A) (A) (A) (A) (A)
                 (A) (A) (A) (A) (A) (A) (A) (A) (A) (A) (A) (A)
                 (A) (A) (A) (A) (A) (A) (A) (A) (A) (A) (A) (A)
                 (A) (A) (A) (A) (A) (A) (A) (A) (A) (A) (A) (A)
                 (A) (A) (A) (A) (A) (A) (A) (A) (A) (A) (A) (A)
                 (A) (A) (A) (A) (A) (A) (A) (A) (A) (A) (A) (A)
                 (A) (A) (A) (A) (A) (A) (A) (A) (A) (A) (A) (A)
                 (A) (A) (A) (A) (A) (A) (A) (A) (A) (A) (A) (A)
                 (A) (A) (A) (A) (A) (A) (A) (A) (A) (A) (A) (A)
                 (A) (A) (A) (A) (A) (A) (A) (A) (A) (A) (A) (A)
                 (A) (A) (A) (A) (A) (A) (A) (A) (A) (A) (A) (A)
                 (A) (A) (A) (A) (A) (A) (A) (A) (A) (A) (A) (A)
                 (A) (A) (A) (A) (A) (A) (A) (A) (A) (A) (A) (A)
                 (A) (A) (A) (A) (A) (A) (A) (A) (A) (A) (A) (A)
                 (A) (A) (A) (A) (A) (A) (A) (A) (A) (A) (A) (A)
                 (A) (A) (A) (A) (A) (A) (A) (A) (A) (A) (A) (A)
                 (A) (A) (A) (A) (A) (A) (A) (A) (A) (A) (A) (A)
                 (A) (A) (A) (A) (A) (A) (A) (A) (A) (A) (A) (A)
                 (A) (A) (A) (A) (A) (A) (A) (A) (A) (A) (A) (A)
                 (A) (A) (A) (A) (A) (A) (A) (A) (A) (A) (A) (A)
                 (A) (A) (A) (A) (A) (A) (A) (A) (A) (A) (A) (A)
                 (A) (A) (A) (A) (A) (A) (A) (A) (A) (A) (A) (A)
                 (A) (A) (A) (A) (A) (A) (A) (A) (A) (A) (A) (A)
                 (A) (A) (A) (A) (A) (A) (A) (A) (A) (A) (A) (A)
                 (A) (A) (A) (A) (A) (A) (A) (A) (A) (A) (A) (A)
                 (A) (A) (A) (A) (A) (A) (A) (A) (A) (A) (A) (A)
                 (A) (A) (A) (A) (A) (A) (A) (A) (A) (A) (A) (A)
                 (A) (A) (A) (A) (A) (A) (A) (A) (A) (A) (A) (A)
                 (A) (A) (A) (A) (A) (A) (A) (A) (A) (A) (A) (A)
                 (A) (A) (A) (A) (A) (A) (A) (A) (A) (A) (A) (A)
                 (A) (A) (A) (A) (A) (A) (A) (A) (A) (A) (A) (A)
                 (A) (A) (A) (A) (A) (A) (A) (A) (A) (A) (A) (A)
                 (A) (A) (A) (A) (A) (A) (A) (A) (A) (A) (A) (A)
                 (A) (A) (A) (A) (A) (A) (A) (A) (A) (A) (A) (A)
                 (A) (A) (A) (A) (A) (A) (A) (A) (A) (A) (A) (A)
                 (A) (A) (A) (A) (A) (A) (A) (A) (A) (A) (A) (A)
                 (A) (A) (A) (A) (A) (A) (A) (A) (A) (A) (A) (A)
                 (A) (A) (A) (A) (A) (A) (A) (A) (A) (A) (A) (A)
                 (A) (A) (A) (A) (A) (A) (A) (A) (A) (A) (A) (A)
                 (A) (A) (A) (A) (A) (A) (A) (A) (A) (A) (A) (A)
                 (A) (A) (A) (A) (A) (A) (A) (A) (A) (A) (A) (A)
                 (A) (A) (A) (A) (A) (A) (A) (A) (A) (A) (A) (A)
                 (A) (A) (A) (A) (A) (A) (A) (A) (A) (A) (A) (A)
                 (A) (A) (A) (A) (A) (A) (A) (A) (A) (A) (A) (A)
                 (A) (A) (A) (A) (A) (A) (A) (A) (A) (A) (A) (A)
                 (A) (A) (A) (A) (A) (A) (A) (A) (A) (A) (A) (A)
                 (A) (A) (A) (A) (A) (A) (A) (A) (A) (A) (A) (A)
                 (A) (A) (A) (A) (A) (A) (A) (A) (A) (A) (A) (A)
                 (A) (A) (A) (A) (A) (A) (A) (A) (A) (A) (A) (A)
                 (A) (A) (A) (A) (A) (A) (A) (A) (A) (A) (A) (A)
                 (A) (A) (A) (A) (A) (A) (A) (A) (A) (A) (A) (A)
                 (A) (A) (A) (A) (A) (A) (A) (A) (A) (A) (A) (A)
                 (A) (A) (A) (A) (A) (A) (A) (A) (A) (A) (A) (A)
                 (A) (A) (A) (A) (A) (A) (A) (A) (A) (A) (A) (A)
                 (A) (A) (A) (A) (A) (A) (A) (A) (A) (A) (A) (A)
                 (A) (A) (A) (A) (A) (A) (A) (A) (A) (A) (A) (A)
                 (A) (A) (A) (A) (A) (A) (A) (A) (A) (A) (A) (A)
                 (A) (A) (A) (A) (A) (A) (A) (A) (A) (A) (A) (A)
                 (A) (A) (A) (A) (A) (A) (A) (A) (A) (A) (A) (A)
                 (A) (A) (A) (A) (A) (A) (A) (A) (A) (A) (A) (A)
                 (A) (A) (A) (A) (A) (A) (A) (A) (A) (A) (A) (A)
                 (A) (A) (A) (A) (A) (A) (A) (A) (A) (A) (A) (A)
                 (A) (A) (A) (A) (A) (A) (A) (A) (A) (A) (A) (A)
                 (A) (A) (A) (A) (A) (A) (A) (A)
    20 initial guesses have been made.
 Convergence on wavefunction:    0.001000000000000
 Davidson Disk Diagonalization:  ConvIn= 1.00D-03 SkipCon=T Conv= 1.00D-03.
 Max sub-space:  2000 roots to seek:    20 dimension of matrix:       370304
 Iteration     1 Dimension    20 NMult     0 NNew     20
 CISAX will form    20 AO SS matrices at one time.
 NMat=    20 NSing=    20 JSym2X= 0.
 FoFJK:  IHMeth= 1 ICntrl=       0 DoSepK=T KAlg= 0 I1Cent=           0 FoldK=F
 IRaf=         1 NMat=      40 IRICut=       1 DoRegI=T DoRafI=F ISym2E= 0 IDoP0=3 IntGTp=3.
 FoFCou: FMM=T IPFlag=           0 FMFlag=      100000 FMFlg1=        2001
         NFxFlg=           0 DoJE=F BraDBF=F KetDBF=F FulRan=T
         wScrn=  0.000000 ICntrl=       500 IOpCl=  0 I1Cent=           0 NGrid=           0
         NMat0=   20 NMatS0=     20 NMatT0=    0 NMatD0=   20 NMtDS0=    0 NMtDT0=    0
 Symmetry not used in FoFCou.
 FMM levels:  10  Number of levels for PrismC:   9
 New state      3 was old state      5
 New state      4 was old state     13
 New state      5 was old state      7
 Excitation Energies [eV] at current iteration:
 Root      1 :     2.223861824888151
 Root      2 :     2.655098101255726
 Root      3 :     3.817607286554300
 Root      4 :     3.866944267355661
 Root      5 :     3.948945582438357
 Root      6 :     4.183579716506548
 Root      7 :     4.242325079855914
 Root      8 :     4.341963833754776
 Root      9 :     4.366603250377948
 Root     10 :     4.507616964448509
 Root     11 :     4.606121480668870
 Root     12 :     4.675800050266083
 Root     13 :     4.837892755772489
 Root     14 :     4.919232509735399
 Root     15 :     5.045769645063340
 Root     16 :     5.111549457243124
 Root     17 :     5.207920928387608
 Root     18 :     5.631451977684782
 Root     19 :     5.667224168067089
 Root     20 :     5.845892222567913
 Iteration     2 Dimension    30 NMult    20 NNew     10
 CISAX will form    10 AO SS matrices at one time.
 NMat=    10 NSing=    10 JSym2X= 0.
 Root      1 not converged, maximum delta is    0.075612358241876
 Root      2 not converged, maximum delta is    0.056324182398690
 Root      3 not converged, maximum delta is    0.091515345991651
 Root      4 not converged, maximum delta is    0.289811112749131
 Root      5 not converged, maximum delta is    0.323594688776758
 Excitation Energies [eV] at current iteration:
 Root      1 :     1.736512321861118   Change is   -0.487349503027033
 Root      2 :     2.278616840606172   Change is   -0.376481260649554
 Root      3 :     3.511027564432471   Change is   -0.306579722121828
 Root      4 :     3.541977514039986   Change is   -0.324966753315676
 Root      5 :     3.732885830375922   Change is   -0.216059752062435
 Iteration     3 Dimension    40 NMult    30 NNew     10
 CISAX will form    10 AO SS matrices at one time.
 NMat=    10 NSing=    10 JSym2X= 0.
 Root      1 not converged, maximum delta is    0.023387301361251
 Root      2 not converged, maximum delta is    0.015544420364569
 New state      3 was old state      4
 Root      3 not converged, maximum delta is    0.213775359255696
 New state      4 was old state      3
 Root      4 not converged, maximum delta is    0.161698528980897
 Root      5 not converged, maximum delta is    0.160121388821340
 Excitation Energies [eV] at current iteration:
 Root      1 :     1.694912808500389   Change is   -0.041599513360729
 Root      2 :     2.258569953026478   Change is   -0.020046887579695
 Root      3 :     3.468761484642883   Change is   -0.073216029397103
 Root      4 :     3.491148326717771   Change is   -0.019879237714701
 Root      5 :     3.650068765808110   Change is   -0.082817064567812
 Iteration     4 Dimension    50 NMult    40 NNew     10
 CISAX will form    10 AO SS matrices at one time.
 NMat=    10 NSing=    10 JSym2X= 0.
 Root      1 not converged, maximum delta is    0.003442940440206
 Root      2 not converged, maximum delta is    0.003296117474682
 Root      3 not converged, maximum delta is    0.139584712602671
 Root      4 not converged, maximum delta is    0.120949809897050
 Root      5 not converged, maximum delta is    0.208176437719962
 Excitation Energies [eV] at current iteration:
 Root      1 :     1.690258033710505   Change is   -0.004654774789883
 Root      2 :     2.255756747983644   Change is   -0.002813205042834
 Root      3 :     3.443220613182972   Change is   -0.025540871459912
 Root      4 :     3.468738155127324   Change is   -0.022410171590447
 Root      5 :     3.569533973262933   Change is   -0.080534792545176
 Iteration     5 Dimension    60 NMult    50 NNew     10
 CISAX will form    10 AO SS matrices at one time.
 NMat=    10 NSing=    10 JSym2X= 0.
 Root      1 not converged, maximum delta is    0.001175493572079
 Root      2 has converged.
 Root      3 not converged, maximum delta is    0.043854237070012
 Root      4 not converged, maximum delta is    0.081569026851898
 Root      5 not converged, maximum delta is    0.143072097540602
 Excitation Energies [eV] at current iteration:
 Root      1 :     1.689879114341411   Change is   -0.000378919369094
 Root      2 :     2.255551046441156   Change is   -0.000205701542488
 Root      3 :     3.437580543247385   Change is   -0.005640069935586
 Root      4 :     3.455742989782619   Change is   -0.012995165344705
 Root      5 :     3.529678672597610   Change is   -0.039855300665324
 Iteration     6 Dimension    68 NMult    60 NNew      8
 CISAX will form     8 AO SS matrices at one time.
 NMat=     8 NSing=     8 JSym2X= 0.
 Root      1 has converged.
 Root      2 has converged.
 Root      3 not converged, maximum delta is    0.015166333741352
 Root      4 not converged, maximum delta is    0.022292075457682
 Root      5 not converged, maximum delta is    0.038516508304716
 Excitation Energies [eV] at current iteration:
 Root      1 :     1.689840272946201   Change is   -0.000038841395210
 Root      2 :     2.255548163933490   Change is   -0.000002882507666
 Root      3 :     3.436773315668537   Change is   -0.000807227578848
 Root      4 :     3.452826320123309   Change is   -0.002916669659310
 Root      5 :     3.523197007933115   Change is   -0.006481664664495
 Iteration     7 Dimension    74 NMult    68 NNew      6
 CISAX will form     6 AO SS matrices at one time.
 NMat=     6 NSing=     6 JSym2X= 0.
 Root      1 has converged.
 Root      2 has converged.
 Root      3 not converged, maximum delta is    0.001519029217383
 Root      4 not converged, maximum delta is    0.003260075539184
 Root      5 not converged, maximum delta is    0.004517633343723
 Excitation Energies [eV] at current iteration:
 Root      1 :     1.689840189747346   Change is   -0.000000083198856
 Root      2 :     2.255546533932700   Change is   -0.000001630000789
 Root      3 :     3.436665564692789   Change is   -0.000107750975748
 Root      4 :     3.452480364714003   Change is   -0.000345955409306
 Root      5 :     3.522443111989811   Change is   -0.000753895943304
 Iteration     8 Dimension    80 NMult    74 NNew      6
 CISAX will form     6 AO SS matrices at one time.
 NMat=     6 NSing=     6 JSym2X= 0.
 Root      1 has converged.
 Root      2 has converged.
 Root      3 has converged.
 Root      4 has converged.
 Root      5 has converged.
 Excitation Energies [eV] at current iteration:
 Root      1 :     1.689839665659377   Change is   -0.000000524087968
 Root      2 :     2.255545945362790   Change is   -0.000000588569911
 Root      3 :     3.436650869278259   Change is   -0.000014695414530
 Root      4 :     3.452436477971088   Change is   -0.000043886742915
 Root      5 :     3.522346297807787   Change is   -0.000096814182023
 Convergence achieved on expansion vectors.
 ***********************************************************************
 Excited states from <AA,BB:AA,BB> singles matrix:
 ***********************************************************************
 
 1PDM for each excited state written to RWF  633
 Ground to excited state transition densities written to RWF  633
 Ground to excited state transition electric dipole moments (Au):
       state          X           Y           Z        Dip. S.      Osc.
         1         0.4735      1.3983      2.6475      9.1888      0.3804
         2        -0.3301     -1.2863      0.4164      1.9369      0.1070
         3        -0.5066     -1.6181      0.7533      3.4423      0.2898
         4         0.1523      0.1362      0.0627      0.0457      0.0039
         5        -0.3874     -1.3820      0.4958      2.3059      0.1990
 Ground to excited state transition velocity dipole moments (Au):
       state          X           Y           Z        Dip. S.      Osc.
         1        -0.0286     -0.0842     -0.1588      0.0331      0.3557
         2         0.0257      0.1009     -0.0316      0.0118      0.0953
         3         0.0624      0.1983     -0.0889      0.0511      0.2698
         4        -0.0149     -0.0163     -0.0093      0.0006      0.0030
         5         0.0515      0.1730     -0.0619      0.0364      0.1876
 Ground to excited state transition magnetic dipole moments (Au):
       state          X           Y           Z
         1         0.1550     -1.2817      0.6067
         2         0.2865     -0.3884     -0.8577
         3         0.0345     -1.0000     -2.1416
         4        -0.7458      0.3176     -0.1236
         5         0.1094     -0.0096     -0.8491
 Ground to excited state transition velocity quadrupole moments (Au):
       state          XX          YY          ZZ          XY          XZ          YZ
         1         0.4250      0.1801     -0.0289      0.7771      1.3475      0.3005
         2        -0.3082     -0.2138     -0.2044     -0.8998      0.2106      0.0465
         3        -0.6776     -0.7189      0.2989     -1.6432      0.8655      0.6622
         4         0.2255      0.3138     -0.0225      0.2374      0.1956      0.2927
         5        -0.6182     -0.5667      0.1849     -1.5428      0.5739      0.4360
 <0|del|b> * <b|rxdel|0> + <0|del|b> * <b|delr+rdel|0>
 Rotatory Strengths (R) in cgs (10**-40 erg-esu-cm/Gauss)
       state          XX          YY          ZZ    R(velocity)    E-M Angle
         1         9.4438     79.8690     -7.8301     27.1609       88.42
         2       -21.1233     30.8062    -50.2598    -13.5256       92.54
         3       -93.3309    245.7339   -184.2822    -10.6264       90.61
         4        -8.4972     28.0840     19.6212     13.0694       69.01
         5       128.8729    -40.5946    220.7468    103.0084       69.75
 1/2[<0|r|b>*<b|rxdel|0> + (<0|rxdel|b>*<b|r|0>)*]
 Rotatory Strengths (R) in cgs (10**-40 erg-esu-cm/Gauss)
       state          XX          YY          ZZ     R(length)
         1       -51.9160   1267.4340  -1135.8440     26.5580
         2        66.8949   -353.3313    252.5391    -11.2991
         3        12.3581  -1144.2439   1140.8110      2.9751
         4        80.3059    -30.5804      5.4864     18.4040
         5        29.9630     -9.3362    297.6907    106.1058
  1/2[<0|del|b>*<b|r|0> + (<0|r|b>*<b|del|0>)*] (Au)
       state          X           Y           Z        Dip. S.   Osc.(frdel)
         1        -0.0136     -0.1178     -0.4204      0.5518      0.3678
         2        -0.0085     -0.1298     -0.0132      0.1515      0.1010
         3        -0.0316     -0.3209     -0.0670      0.4194      0.2796
         4        -0.0023     -0.0022     -0.0006      0.0051      0.0034
         5        -0.0200     -0.2391     -0.0307      0.2898      0.1932

 Excitation energies and oscillator strengths:
 
 Excited State   1:      Singlet-A      1.6898 eV  733.70 nm  f=0.3804  <S**2>=0.000
     245 -> 248        0.17224
     246 -> 247        0.68622
     245 <- 248        0.10387
 This state for optimization and/or second-order correction.
 Total Energy, E(TD-HF/TD-DFT) =  -3007.09363713    
 Copying the excited state density for this state as the 1-particle RhoCI density.
 
 Excited State   2:      Singlet-A      2.2555 eV  549.69 nm  f=0.1070  <S**2>=0.000
     245 -> 247        0.63388
     246 -> 248       -0.29484
 
 Excited State   3:      Singlet-A      3.4367 eV  360.77 nm  f=0.2898  <S**2>=0.000
     241 -> 247       -0.16895
     241 -> 249       -0.13312
     242 -> 247        0.34055
     245 -> 247        0.20693
     246 -> 248        0.50798
 
 Excited State   4:      Singlet-A      3.4524 eV  359.12 nm  f=0.0039  <S**2>=0.000
     240 -> 248       -0.10266
     240 -> 251       -0.10665
     241 -> 247        0.13823
     241 -> 249        0.11205
     243 -> 247        0.15733
     244 -> 247        0.59389
 
 Excited State   5:      Singlet-A      3.5223 eV  351.99 nm  f=0.1990  <S**2>=0.000
     241 -> 247        0.43245
     241 -> 249        0.28045
     241 -> 250       -0.17840
     242 -> 247       -0.13269
     244 -> 247       -0.12198
     245 -> 247        0.15966
     246 -> 248        0.31794
 SavETr:  write IOETrn=   770 NScale= 10 NData=  16 NLR=1 NState=    5 LETran=     100.
 Leave Link  914 at Sat Apr 30 01:33:32 2022, MaxMem= 10066329600 cpu:           38039.8 elap:            1594.2
 (Enter /sw/apps/gaussian-16.0/g16/l601.exe)
 Copying SCF densities to generalized density rwf, IOpCl= 0 IROHF=0.
 Hyperfine terms turned off by default for NAtoms > 100.

 **********************************************************************

            Population analysis using the SCF density.

 **********************************************************************

 Orbital symmetries:
       Occupied  (A) (A) (A) (A) (A) (A) (A) (A) (A) (A) (A) (A)
                 (A) (A) (A) (A) (A) (A) (A) (A) (A) (A) (A) (A)
                 (A) (A) (A) (A) (A) (A) (A) (A) (A) (A) (A) (A)
                 (A) (A) (A) (A) (A) (A) (A) (A) (A) (A) (A) (A)
                 (A) (A) (A) (A) (A) (A) (A) (A) (A) (A) (A) (A)
                 (A) (A) (A) (A) (A) (A) (A) (A) (A) (A) (A) (A)
                 (A) (A) (A) (A) (A) (A) (A) (A) (A) (A) (A) (A)
                 (A) (A) (A) (A) (A) (A) (A) (A) (A) (A) (A) (A)
                 (A) (A) (A) (A) (A) (A) (A) (A) (A) (A) (A) (A)
                 (A) (A) (A) (A) (A) (A) (A) (A) (A) (A) (A) (A)
                 (A) (A) (A) (A) (A) (A) (A) (A) (A) (A) (A) (A)
                 (A) (A) (A) (A) (A) (A) (A) (A) (A) (A) (A) (A)
                 (A) (A) (A) (A) (A) (A) (A) (A) (A) (A) (A) (A)
                 (A) (A) (A) (A) (A) (A) (A) (A) (A) (A) (A) (A)
                 (A) (A) (A) (A) (A) (A) (A) (A) (A) (A) (A) (A)
                 (A) (A) (A) (A) (A) (A) (A) (A) (A) (A) (A) (A)
                 (A) (A) (A) (A) (A) (A) (A) (A) (A) (A) (A) (A)
                 (A) (A) (A) (A) (A) (A) (A) (A) (A) (A) (A) (A)
                 (A) (A) (A) (A) (A) (A) (A) (A) (A) (A) (A) (A)
[...]
 Alpha virt. eigenvalues --    1.22196   1.22423   1.23174   1.23244   1.23949
 Alpha virt. eigenvalues --    1.24454   1.24805   1.25157   1.25541   1.25838
 Alpha virt. eigenvalues --    1.26482   1.26638   1.27964   1.28217   1.29086
 Alpha virt. eigenvalues --    1.29295   1.29716   1.29875   1.30581   1.31181
 Alpha virt. eigenvalues --    1.31540   1.32340   1.33054   1.33357   1.33885
 Alpha virt. eigenvalues --    1.33975   1.34869   1.35719   1.36328   1.36482
 Alpha virt. eigenvalues --    1.36644   1.36883   1.36994   1.37187   1.37747
 Alpha virt. eigenvalues --    1.37944   1.38062   1.38650   1.39152   1.39498
 Alpha virt. eigenvalues --    1.39964   1.40221   1.40392   1.41014   1.41667
 Alpha virt. eigenvalues --    1.42295   1.42696   1.42729   1.43195   1.43477
 Alpha virt. eigenvalues --    1.44046   1.44143   1.44358   1.45017   1.45453
 Alpha virt. eigenvalues --    1.45542   1.45691   1.46101   1.46527   1.46853
 Alpha virt. eigenvalues --    1.47279   1.47359   1.47863   1.48484   1.48697
 Alpha virt. eigenvalues --    1.49570   1.50313   1.50553   1.50712   1.51070
 Alpha virt. eigenvalues --    1.51822   1.51963   1.52230   1.52394   1.53148
 Alpha virt. eigenvalues --    1.53376   1.55084   1.55616   1.56622   1.56673
 Alpha virt. eigenvalues --    1.57018   1.57187   1.57801   1.58195   1.58277
 Alpha virt. eigenvalues --    1.58444   1.58844   1.59131   1.59152   1.59635
 Alpha virt. eigenvalues --    1.59718   1.59850   1.60134   1.60271   1.60564
 Alpha virt. eigenvalues --    1.60725   1.61097   1.61375   1.61665   1.62063
 Alpha virt. eigenvalues --    1.62223   1.62424   1.62463   1.62885   1.63064
 Alpha virt. eigenvalues --    1.63330   1.63736   1.64235   1.64276   1.64902
 Alpha virt. eigenvalues --    1.65132   1.65287   1.65802   1.66124   1.66483
 Alpha virt. eigenvalues --    1.66739   1.67357   1.67834   1.68287   1.68787
 Alpha virt. eigenvalues --    1.68967   1.70233   1.70375   1.70872   1.71144
 Alpha virt. eigenvalues --    1.71739   1.72240   1.72543   1.72662   1.73025
 Alpha virt. eigenvalues --    1.73364   1.73423   1.74001   1.74260   1.74465
 Alpha virt. eigenvalues --    1.74914   1.75177   1.75825   1.76749   1.76796
 Alpha virt. eigenvalues --    1.76864   1.77203   1.77655   1.77893   1.77994
 Alpha virt. eigenvalues --    1.78470   1.78813   1.79093   1.79217   1.79580
 Alpha virt. eigenvalues --    1.79901   1.80105   1.80306   1.80421   1.81022
 Alpha virt. eigenvalues --    1.81200   1.81292   1.81757   1.81959   1.82247
 Alpha virt. eigenvalues --    1.82299   1.82540   1.82579   1.82916   1.83017
 Alpha virt. eigenvalues --    1.83406   1.83707   1.83812   1.84052   1.84295
 Alpha virt. eigenvalues --    1.84478   1.84707   1.84840   1.85197   1.85440
 Alpha virt. eigenvalues --    1.85517   1.85692   1.86093   1.86232   1.86633
 Alpha virt. eigenvalues --    1.86648   1.86857   1.86884   1.87352   1.87635
 Alpha virt. eigenvalues --    1.87865   1.88266   1.88373   1.88567   1.88713
 Alpha virt. eigenvalues --    1.88937   1.89154   1.89241   1.89591   1.89719
 Alpha virt. eigenvalues --    1.89861   1.90095   1.90248   1.90481   1.90548
 Alpha virt. eigenvalues --    1.90757   1.90970   1.91273   1.91535   1.91606
 Alpha virt. eigenvalues --    1.91679   1.91931   1.92137   1.92272   1.92836
 Alpha virt. eigenvalues --    1.93326   1.93577   1.93606   1.93853   1.93910
 Alpha virt. eigenvalues --    1.94181   1.94480   1.94944   1.95004   1.95368
 Alpha virt. eigenvalues --    1.95661   1.95793   1.96108   1.96541   1.96837
 Alpha virt. eigenvalues --    1.96869   1.97051   1.97111   1.97272   1.97542
 Alpha virt. eigenvalues --    1.97642   1.97923   1.98073   1.98591   1.98896
 Alpha virt. eigenvalues --    1.99103   1.99330   1.99916   2.00083   2.00240
 Alpha virt. eigenvalues --    2.00383   2.00500   2.00608   2.01040   2.01301
 Alpha virt. eigenvalues --    2.01667   2.01751   2.02473   2.02583   2.02867
 Alpha virt. eigenvalues --    2.03026   2.03169   2.03571   2.03776   2.04145
 Alpha virt. eigenvalues --    2.04440   2.04921   2.05061   2.05322   2.05515
 Alpha virt. eigenvalues --    2.05624   2.06114   2.06230   2.06334   2.06928
 Alpha virt. eigenvalues --    2.07041   2.07520   2.07908   2.08444   2.08606
 Alpha virt. eigenvalues --    2.08785   2.09174   2.09371   2.09631   2.09722
 Alpha virt. eigenvalues --    2.10220   2.10470   2.10738   2.10895   2.11266
 Alpha virt. eigenvalues --    2.11371   2.11802   2.11882   2.12134   2.12256
 Alpha virt. eigenvalues --    2.12896   2.13011   2.13131   2.13681   2.14051
 Alpha virt. eigenvalues --    2.14130   2.14393   2.14438   2.14951   2.15503
 Alpha virt. eigenvalues --    2.16223   2.16354   2.16517   2.16837   2.16951
 Alpha virt. eigenvalues --    2.17279   2.17887   2.18066   2.18360   2.18547
 Alpha virt. eigenvalues --    2.19006   2.19345   2.20072   2.20142   2.20215
 Alpha virt. eigenvalues --    2.20807   2.20945   2.21064   2.21141   2.21777
 Alpha virt. eigenvalues --    2.21964   2.22114   2.22553   2.23194   2.23751
 Alpha virt. eigenvalues --    2.24134   2.24331   2.25009   2.25387   2.25586
 Alpha virt. eigenvalues --    2.25869   2.26408   2.26821   2.27587   2.27798
 Alpha virt. eigenvalues --    2.28710   2.28777   2.29956   2.30008   2.30252
 Alpha virt. eigenvalues --    2.31207   2.31855   2.32306   2.32660   2.33065
 Alpha virt. eigenvalues --    2.33454   2.33861   2.34271   2.35000   2.35289
 Alpha virt. eigenvalues --    2.35883   2.36353   2.36417   2.36590   2.36965
 Alpha virt. eigenvalues --    2.37229   2.37456   2.37665   2.38994   2.39043
 Alpha virt. eigenvalues --    2.39311   2.39529   2.39973   2.40178   2.40487
 Alpha virt. eigenvalues --    2.40814   2.40973   2.41435   2.41773   2.42401
 Alpha virt. eigenvalues --    2.42821   2.43062   2.43361   2.43896   2.44054
 Alpha virt. eigenvalues --    2.44836   2.44890   2.45011   2.45582   2.45839
 Alpha virt. eigenvalues --    2.46165   2.46425   2.47045   2.47184   2.47318
 Alpha virt. eigenvalues --    2.47731   2.47993   2.48591   2.49017   2.49555
 Alpha virt. eigenvalues --    2.49678   2.50152   2.50865   2.51087   2.51197
 Alpha virt. eigenvalues --    2.51705   2.51924   2.52104   2.52590   2.52817
 Alpha virt. eigenvalues --    2.53088   2.53336   2.53407   2.54357   2.54727
 Alpha virt. eigenvalues --    2.55445   2.55576   2.55812   2.56349   2.56799
 Alpha virt. eigenvalues --    2.57335   2.58271   2.58719   2.58914   2.59626
 Alpha virt. eigenvalues --    2.59691   2.59735   2.60506   2.61337   2.61813
 Alpha virt. eigenvalues --    2.62325   2.62852   2.63202   2.63366   2.63883
 Alpha virt. eigenvalues --    2.63916   2.64371   2.65280   2.65463   2.66297
 Alpha virt. eigenvalues --    2.66642   2.66981   2.67246   2.67832   2.67849
 Alpha virt. eigenvalues --    2.68046   2.68283   2.69026   2.69212   2.69399
 Alpha virt. eigenvalues --    2.69573   2.70168   2.70504   2.70937   2.71346
 Alpha virt. eigenvalues --    2.71822   2.72117   2.72956   2.73175   2.73308
 Alpha virt. eigenvalues --    2.73650   2.74271   2.74364   2.74759   2.75325
 Alpha virt. eigenvalues --    2.75702   2.76032   2.76072   2.76421   2.77024
 Alpha virt. eigenvalues --    2.77545   2.78482   2.78823   2.79039   2.79296
 Alpha virt. eigenvalues --    2.79400   2.80022   2.80432   2.80569   2.80840
 Alpha virt. eigenvalues --    2.81590   2.81790   2.82468   2.82584   2.82644
 Alpha virt. eigenvalues --    2.83978   2.84480   2.84919   2.85192   2.85445
 Alpha virt. eigenvalues --    2.85832   2.86966   2.87271   2.87522   2.88951
 Alpha virt. eigenvalues --    2.89811   2.90393   2.90661   2.91103   2.91355
 Alpha virt. eigenvalues --    2.91804   2.92230   2.92446   2.93162   2.93213
 Alpha virt. eigenvalues --    2.93994   2.94450   2.95539   2.95778   2.95968
 Alpha virt. eigenvalues --    2.96273   2.96448   2.96925   2.97382   2.97477
 Alpha virt. eigenvalues --    2.97787   2.98093   2.98425   2.98776   2.99159
 Alpha virt. eigenvalues --    2.99521   2.99781   3.00171   3.00311   3.00531
 Alpha virt. eigenvalues --    3.01027   3.01060   3.01181   3.01497   3.01935
 Alpha virt. eigenvalues --    3.02112   3.02194   3.02950   3.03163   3.03459
 Alpha virt. eigenvalues --    3.03782   3.03924   3.04316   3.04591   3.04696
 Alpha virt. eigenvalues --    3.05135   3.05392   3.05722   3.06273   3.06837
 Alpha virt. eigenvalues --    3.07987   3.08293   3.08446   3.08526   3.08727
 Alpha virt. eigenvalues --    3.08910   3.09118   3.09553   3.09716   3.10509
 Alpha virt. eigenvalues --    3.10714   3.11297   3.11305   3.11682   3.12161
 Alpha virt. eigenvalues --    3.12300   3.13065   3.14263   3.14582   3.16183
 Alpha virt. eigenvalues --    3.16468   3.16624   3.17369   3.17429   3.17796
 Alpha virt. eigenvalues --    3.18319   3.18727   3.19690   3.19882   3.20262
 Alpha virt. eigenvalues --    3.21000   3.21187   3.23615   3.24297   3.24380
 Alpha virt. eigenvalues --    3.25596   3.26757   3.27494   3.27928   3.28500
 Alpha virt. eigenvalues --    3.32864   3.34446   3.41533   3.43379   3.45415
 Alpha virt. eigenvalues --    3.46864   3.48216   3.49311   3.52831   3.56236
 Alpha virt. eigenvalues --    3.58827   3.64890   3.67860   3.68230   3.71792
 Alpha virt. eigenvalues --    3.72253   3.72405
          Condensed to atoms (all electrons):
 Mulliken charges:
               1
     1  Mg   0.840386
     2  C   -0.015969
     3  C   -0.070132
     4  C   -0.061205
     5  C   -0.070188
     6  N   -0.245335
     7  C   -0.090621
     8  C    0.047546
     9  C   -0.076356
    10  C    0.055711
    11  C    0.058639
    12  C    0.066867
    13  C    0.063945
    14  C    0.136291
    15  O   -0.225788
    16  O   -0.321758
    17  N   -0.422543
    18  C    0.162132
    19  C   -0.152735
    20  C   -0.047576
    21  C    0.157496
    22  C    0.147987
    23  C   -0.006983
    24  O   -0.236163
    25  C    0.063629
    26  N   -0.284231
    27  C    0.026975
    28  C   -0.012150
    29  C   -0.017575
    30  C    0.032443
    31  C    0.033948
    32  C   -0.002734
    33  C    0.016715
    34  N   -0.320802
    35  C    0.126338
    36  C   -0.221710
    37  C    0.070789
    38  C    0.076606
    39  C    0.131639
    40  C    0.083438
    41  O   -0.186117
    42  C   -0.038933
    43  C    0.223378
    44  O   -0.217720
    45  O   -0.349695
    46  C    0.165820
    47  C    0.287995
    48  C   -0.148049
    49  C   -0.182362
    50  C    0.104301
    51  C    0.032706
    52  C    0.063236
    53  C    0.023319
    54  C   -0.137985
    55  C    0.044460
    56  C    0.085451
    57  C    0.016980
    58  C    0.028688
    59  C   -0.116846
    60  C    0.053527
    61  C    0.088290
    62  C   -0.024728
    63  C    0.049360
    64  C   -0.110065
    65  C    0.034138
    66  C    0.047966
    67  H   -0.019630
    68  H   -0.039484
    69  H   -0.026974
    70  H    0.007513
    71  H    0.011551
    72  H    0.020419
    73  H    0.009889
    74  H    0.008724
    75  H    0.009072
    76  H    0.017802
    77  H    0.026381
    78  H    0.012358
    79  H    0.026507
    80  H   -0.007243
    81  H    0.041255
    82  H    0.049867
    83  H    0.038196
    84  H    0.026840
    85  H    0.025051
    86  H    0.010295
    87  H    0.017890
    88  H    0.010877
    89  H    0.012748
    90  H    0.022156
    91  H   -0.002736
    92  H    0.013230
    93  H    0.010087
    94  H    0.031449
    95  H   -0.005017
    96  H    0.038073
    97  H    0.041367
    98  H    0.042032
    99  H    0.048999
   100  H    0.045342
   101  H    0.050225
   102  H    0.030917
   103  H    0.051968
   104  H    0.002152
   105  H    0.026456
   106  H    0.017369
   107  H   -0.003953
   108  H    0.007487
   109  H   -0.019532
   110  H    0.010324
   111  H    0.005835
   112  H   -0.007466
   113  H   -0.006905
   114  H   -0.001303
   115  H   -0.000306
   116  H    0.007107
   117  H   -0.000403
   118  H   -0.008876
   119  H    0.007123
   120  H   -0.003695
   121  H   -0.008236
   122  H   -0.013802
   123  H   -0.018473
   124  H    0.009748
   125  H    0.006187
   126  H    0.010419
   127  H   -0.000002
   128  H   -0.005161
   129  H   -0.001530
   130  H   -0.028326
   131  H   -0.004754
   132  H   -0.023066
   133  H   -0.018986
   134  H   -0.006387
   135  H    0.011036
   136  H    0.003929
   137  H   -0.001432
   138  H    0.009500
   139  H    0.000691
   140  H    0.005149
 Sum of Mulliken charges =  -0.00000
 Mulliken charges with hydrogens summed into heavy atoms:
               1
     1  Mg   0.840386
     2  C   -0.015969
     3  C   -0.089762
     4  C   -0.100689
     5  C   -0.097162
     6  N   -0.245335
     7  C   -0.090621
     8  C    0.055058
     9  C   -0.064805
    10  C    0.055711
    11  C    0.097672
    12  C    0.093741
    13  C    0.102684
    14  C    0.136291
    15  O   -0.225788
    16  O   -0.321758
    17  N   -0.422543
    18  C    0.162132
    19  C   -0.152735
    20  C   -0.047576
    21  C    0.157496
    22  C    0.208507
    23  C   -0.006983
    24  O   -0.236163
    25  C    0.178532
    26  N   -0.284231
    27  C    0.026975
    28  C    0.012901
    29  C   -0.007280
    30  C    0.032443
    31  C    0.075463
    32  C    0.016686
    33  C    0.071482
    34  N   -0.320802
    35  C    0.126338
    36  C   -0.221710
    37  C    0.070789
    38  C    0.076606
    39  C    0.206063
    40  C    0.083438
    41  O   -0.186117
    42  C    0.003099
    43  C    0.223378
    44  O   -0.217720
    45  O   -0.349695
    46  C    0.310386
    47  C    0.370880
    48  C   -0.145897
    49  C   -0.182362
    50  C    0.144173
    51  C    0.020662
    52  C    0.079396
    53  C    0.008947
    54  C   -0.139288
    55  C    0.050858
    56  C    0.083698
    57  C    0.005049
    58  C   -0.003587
    59  C   -0.107098
    60  C    0.070131
    61  C    0.081600
    62  C   -0.057809
    63  C    0.007307
    64  C   -0.116452
    65  C    0.047671
    66  C    0.063306
 Electronic spatial extent (au):  <R**2>=         103014.4096
 Charge=             -0.0000 electrons
 Dipole moment (field-independent basis, Debye):
    X=              0.1670    Y=             -3.2332    Z=              1.1851  Tot=              3.4476
 Quadrupole moment (field-independent basis, Debye-Ang):
   XX=           -385.5311   YY=           -394.8731   ZZ=           -430.1728
   XY=              9.3038   XZ=             -7.2086   YZ=            -34.3755
 Traceless Quadrupole moment (field-independent basis, Debye-Ang):
   XX=             17.9945   YY=              8.6526   ZZ=            -26.6471
   XY=              9.3038   XZ=             -7.2086   YZ=            -34.3755
 Octapole moment (field-independent basis, Debye-Ang**2):
  XXX=            -26.7029  YYY=             -3.7547  ZZZ=             94.0857  XYY=           -206.0748
  XXY=             54.9939  XXZ=             85.9500  XZZ=             68.6426  YZZ=              2.2054
  YYZ=             82.4989  XYZ=            207.9744
 Hexadecapole moment (field-independent basis, Debye-Ang**3):
 XXXX=         -98903.5882 YYYY=         -26071.1682 ZZZZ=         -16251.9087 XXXY=            774.1846
 XXXZ=           -242.9648 YYYX=           -324.6473 YYYZ=           -130.5376 ZZZX=           -646.8859
 ZZZY=           -992.4439 XXYY=         -19986.8542 XXZZ=         -19930.5275 YYZZ=          -8211.8404
 XXYZ=           -899.3043 YYXZ=           -183.2552 ZZXY=           -386.5815
 N-N= 9.682462697155D+03 E-N=-2.635601725757D+04  KE= 2.974984211641D+03
 Leave Link  601 at Sat Apr 30 01:33:33 2022, MaxMem= 10066329600 cpu:              11.9 elap:               0.6
 (Enter /sw/apps/gaussian-16.0/g16/l9999.exe)
 1\1\GINC-BP1-COMPUTE159\SP\RCAM-B3LYP TD-FC\def2SVP\C55H74Mg1N4O6\OF15
 641\30-Apr-2022\0\\#p cam-b3lyp/Def2SVP td=(nstates=5)\\step_51_chromo
 phore_8 TDDFT with cam-b3lyp functional\\0,1\Mg,0,44.435,3.202,47.837\
 C,0,42.19,5.813,47.212\C,0,41.824,1.035,47.404\C,0,46.744,0.756,47.869
 \C,0,47.104,5.584,47.504\N,0,42.3,3.454,47.06\C,0,41.586,4.599,47.04\C
 ,0,40.111,4.277,46.676\C,0,40.007,2.795,46.999\C,0,41.517,2.354,47.121
 \C,0,39.135,2.367,48.218\C,0,39.712,4.558,45.124\C,0,38.525,5.379,44.9
 53\C,0,37.991,5.619,43.542\O,0,36.923,5.178,43.147\O,0,38.824,6.4,42.8
 15\N,0,44.269,1.223,47.869\C,0,43.123,0.472,47.653\C,0,43.454,-0.915,4
 7.738\C,0,44.781,-1.03,48.121\C,0,45.342,0.397,47.957\C,0,42.446,-2.01
 6,47.475\C,0,45.493,-2.332,48.566\O,0,44.836,-3.389,48.548\C,0,46.939,
 -2.443,48.934\N,0,46.625,3.153,47.685\C,0,47.37,1.992,47.822\C,0,48.86
 2,2.255,47.772\C,0,48.942,3.836,47.797\C,0,47.44,4.23,47.688\C,0,49.67
 2,1.571,48.991\C,0,49.727,4.471,46.622\C,0,50.934,5.438,46.93\N,0,44.6
 69,5.277,47.339\C,0,45.769,6.105,47.293\C,0,45.306,7.453,47.021\C,0,43
 .935,7.486,47.117\C,0,43.582,6.102,47.249\C,0,46.256,8.553,46.727\C,0,
 42.699,8.254,47.16\O,0,42.457,9.466,47.032\C,0,41.464,7.216,47.253\C,0
 ,40.653,7.268,48.563\O,0,41.027,6.768,49.615\O,0,39.39,7.736,48.27\C,0
 ,38.406,7.81,49.393\C,0,38.503,6.489,41.404\C,0,39.773,6.155,40.63\C,0
 ,39.906,5.789,39.387\C,0,38.852,5.625,38.293\C,0,41.334,5.36,38.943\C,
 0,41.782,4.026,39.539\C,0,42.845,3.388,38.587\C,0,42.254,2.249,37.66\C
 ,0,42.449,0.938,38.475\C,0,43.005,2.264,36.257\C,0,42.166,3.219,35.311
 \C,0,43.007,4.461,34.814\C,0,43.629,4.264,33.371\C,0,45.144,4.338,33.4
 62\C,0,43.086,5.365,32.364\C,0,42.664,4.603,31.141\C,0,43.735,4.347,30
 .103\C,0,43.262,4.264,28.654\C,0,44.251,4.757,27.58\C,0,42.694,2.897,2
 8.37\H,0,40.986,0.345,47.288\H,0,47.457,-0.071,47.886\H,0,47.935,6.29,
 47.549\H,0,39.574,4.888,47.401\H,0,39.538,2.269,46.167\H,0,38.354,1.64
 3,47.983\H,0,38.803,3.251,48.762\H,0,39.653,1.852,49.027\H,0,39.44,3.6
 81,44.537\H,0,40.496,5.021,44.524\H,0,38.739,6.368,45.358\H,0,37.738,4
 .921,45.552\H,0,42.844,-2.655,46.687\H,0,41.506,-1.667,47.049\H,0,42.2
 53,-2.604,48.372\H,0,47.488,-2.769,48.051\H,0,46.921,-3.264,49.652\H,0
 ,47.374,-1.535,49.351\H,0,49.287,1.905,46.832\H,0,49.394,4.033,48.769\
 H,0,50.367,0.756,48.791\H,0,49.013,1.075,49.703\H,0,50.19,2.285,49.632
 \H,0,49.023,4.92,45.922\H,0,50.164,3.636,46.074\H,0,51.774,5.07,46.34\
 H,0,51.201,5.25,47.97\H,0,50.736,6.48,46.68\H,0,47.285,8.329,47.009\H,
 0,45.998,9.412,47.347\H,0,46.22,8.64,45.641\H,0,40.759,7.284,46.425\H,
 0,37.47,7.558,48.894\H,0,38.428,8.826,49.785\H,0,38.6,7.181,50.262\H,0
 ,38.264,7.526,41.172\H,0,37.716,5.803,41.088\H,0,40.673,6.04,41.234\H,
 0,39.094,4.822,37.597\H,0,38.741,6.533,37.701\H,0,37.868,5.619,38.762\
 H,0,41.935,6.234,39.192\H,0,41.404,5.383,37.855\H,0,40.921,3.358,39.55
 8\H,0,42.321,4.244,40.461\H,0,43.603,3.009,39.273\H,0,43.312,4.168,37.
 986\H,0,41.178,2.354,37.527\H,0,42.404,1.102,39.552\H,0,43.412,0.471,3
 8.271\H,0,41.652,0.204,38.352\H,0,43.023,1.232,35.906\H,0,44.058,2.509
 ,36.393\H,0,41.198,3.644,35.578\H,0,41.836,2.651,34.441\H,0,43.769,4.8
 07,35.513\H,0,42.326,5.302,34.937\H,0,43.407,3.284,32.949\H,0,45.594,4
 .001,32.528\H,0,45.453,3.828,34.374\H,0,45.403,5.389,33.587\H,0,43.873
 ,6.054,32.06\H,0,42.198,5.919,32.667\H,0,41.908,5.27,30.726\H,0,42.051
 ,3.712,31.27\H,0,44.145,3.407,30.472\H,0,44.66,4.91,30.224\H,0,42.459,
 4.984,28.495\H,0,44.171,5.834,27.434\H,0,44.167,4.272,26.607\H,0,45.27
 1,4.57,27.917\H,0,41.951,2.539,29.084\H,0,43.499,2.163,28.365\H,0,42.2
 89,2.995,27.363\\Version=ES64L-G16RevA.03\State=1-A\HF=-3007.1557376\R
 MSD=6.358e-09\PG=C01 [X(C55H74Mg1N4O6)]\\@


 SOME PHYSICISTS WOULD PREFER TO COME BACK TO THE IDEA OF AN OBJECTIVE
 REAL WORLD WHOSE SMALLEST PARTS EXIST OBJECTIVELY IN THE SAME SENSE AS
 STONES OR TREES EXIST INDEPENDENTLY OF WHETHER WE OBSERVE THEM.
 THIS, HOWEVER, IS IMPOSSIBLE.  -- WERNER HEISENBERG
 Job cpu time:       0 days 14 hours  4 minutes 25.3 seconds.
 Elapsed time:       0 days  0 hours 35 minutes 35.6 seconds.
 File lengths (MBytes):  RWF=   8929 Int=      0 D2E=      0 Chk=    390 Scr=      1
 Normal termination of Gaussian 16 at Sat Apr 30 01:33:33 2022.
