 Entering Gaussian System, Link 0=g16
 Initial command:
 /sw/apps/gaussian-16.0/g16/l1.exe "/tmp/Gau-81003.inp" -scrdir="/tmp/"
 Entering Link 1 = /sw/apps/gaussian-16.0/g16/l1.exe PID=     81004.
  
 Copyright (c) 1988,1990,1992,1993,1995,1998,2003,2009,2016,
            Gaussian, Inc.  All Rights Reserved.
  
 This is part of the Gaussian(R) 16 program.  It is based on
 the Gaussian(R) 09 system (copyright 2009, Gaussian, Inc.),
 the Gaussian(R) 03 system (copyright 2003, Gaussian, Inc.),
 the Gaussian(R) 98 system (copyright 1998, Gaussian, Inc.),
 the Gaussian(R) 94 system (copyright 1995, Gaussian, Inc.),
 the Gaussian 92(TM) system (copyright 1992, Gaussian, Inc.),
 the Gaussian 90(TM) system (copyright 1990, Gaussian, Inc.),
 the Gaussian 88(TM) system (copyright 1988, Gaussian, Inc.),
 the Gaussian 86(TM) system (copyright 1986, Carnegie Mellon
 University), and the Gaussian 82(TM) system (copyright 1983,
 Carnegie Mellon University). Gaussian is a federally registered
 trademark of Gaussian, Inc.
  
 This software contains proprietary and confidential information,
 including trade secrets, belonging to Gaussian, Inc.
  
 This software is provided under written license and may be
 used, copied, transmitted, or stored only in accord with that
 written license.
  
 The following legend is applicable only to US Government
 contracts under FAR:
  
                    RESTRICTED RIGHTS LEGEND
  
 Use, reproduction and disclosure by the US Government is
 subject to restrictions as set forth in subparagraphs (a)
 and (c) of the Commercial Computer Software - Restricted
 Rights clause in FAR 52.227-19.
  
 Gaussian, Inc.
 340 Quinnipiac St., Bldg. 40, Wallingford CT 06492
  
  
 ---------------------------------------------------------------
 Warning -- This program may not be used in any manner that
 competes with the business of Gaussian, Inc. or will provide
 assistance to any competitor of Gaussian, Inc.  The licensee
 of this program is prohibited from giving any competitor of
 Gaussian, Inc. access to this program.  By using this program,
 the user acknowledges that Gaussian, Inc. is engaged in the
 business of creating and licensing software in the field of
 computational chemistry and represents and warrants to the
 licensee that it is not a competitor of Gaussian, Inc. and that
 it will not use this program in any manner prohibited above.
 ---------------------------------------------------------------
  

 Cite this work as:
 Gaussian 16, Revision A.03,
 M. J. Frisch, G. W. Trucks, H. B. Schlegel, G. E. Scuseria, 
 M. A. Robb, J. R. Cheeseman, G. Scalmani, V. Barone, 
 G. A. Petersson, H. Nakatsuji, X. Li, M. Caricato, A. V. Marenich, 
 J. Bloino, B. G. Janesko, R. Gomperts, B. Mennucci, H. P. Hratchian, 
 J. V. Ortiz, A. F. Izmaylov, J. L. Sonnenberg, D. Williams-Young, 
 F. Ding, F. Lipparini, F. Egidi, J. Goings, B. Peng, A. Petrone, 
 T. Henderson, D. Ranasinghe, V. G. Zakrzewski, J. Gao, N. Rega, 
 G. Zheng, W. Liang, M. Hada, M. Ehara, K. Toyota, R. Fukuda, 
 J. Hasegawa, M. Ishida, T. Nakajima, Y. Honda, O. Kitao, H. Nakai, 
 T. Vreven, K. Throssell, J. A. Montgomery, Jr., J. E. Peralta, 
 F. Ogliaro, M. J. Bearpark, J. J. Heyd, E. N. Brothers, K. N. Kudin, 
 V. N. Staroverov, T. A. Keith, R. Kobayashi, J. Normand, 
 K. Raghavachari, A. P. Rendell, J. C. Burant, S. S. Iyengar, 
 J. Tomasi, M. Cossi, J. M. Millam, M. Klene, C. Adamo, R. Cammi, 
 J. W. Ochterski, R. L. Martin, K. Morokuma, O. Farkas, 
 J. B. Foresman, and D. J. Fox, Gaussian, Inc., Wallingford CT, 2016.
 
 ******************************************
 Gaussian 16:  ES64L-G16RevA.03 25-Dec-2016
                 4-May-2022 
 ******************************************
 %nproc=24
 Will use up to   24 processors via shared memory.
 %mem=50gb
 --------------------
 #p ZINDO=(nstates=5)
 --------------------
 1/38=1,172=1/1;
 2/12=2,17=6,18=5,40=1/2;
 3/5=2,25=1,41=400000/1,2,3,8;
 4/5=3,35=1/1;
 5/5=2,35=1,38=5/2;
 8/6=1,108=5/1;
 9/41=5,42=1,49=10/14;
 6/7=2,8=2,9=2,10=2/1;
 99/5=1,9=1/99;
 Leave Link    1 at Wed May  4 12:30:50 2022, MaxMem=  6710886400 cpu:               1.1 elap:               0.1
 (Enter /sw/apps/gaussian-16.0/g16/l101.exe)
 ------------------------------
 step_1701_chromophore_21 ZINDO
 ------------------------------
 Symbolic Z-matrix:
 Charge =  0 Multiplicity = 1
 Mg                    16.244    51.507    26.028 
 C                     18.346    50.484    28.628 
 C                     13.722    52.068    28.453 
 C                     14.183    52.383    23.479 
 C                     18.63     50.616    23.677 
 N                     16.034    51.339    28.257 
 C                     17.125    51.103    29.091 
 C                     16.723    51.332    30.592 
 C                     15.19     51.471    30.471 
 C                     14.963    51.63     28.971 
 C                     14.393    50.23     30.941 
 C                     17.47     52.543    31.159 
 C                     17.344    52.82     32.72 
 C                     16.376    51.904    33.544 
 O                     16.708    50.784    33.857 
 O                     15.073    52.452    33.795 
 N                     14.229    52.028    25.941 
 C                     13.401    52.301    27.041 
 C                     12.059    52.525    26.5 
 C                     12.108    52.479    25.033 
 C                     13.547    52.235    24.738 
 C                     10.794    52.733    27.264 
 C                     11.011    52.56     23.939 
 O                     11.325    52.528    22.755 
 C                     9.596     52.713    24.294 
 N                     16.373    51.704    23.977 
 C                     15.447    52.194    23.116 
 C                     16.005    52.266    21.697 
 C                     17.449    51.847    21.888 
 C                     17.484    51.317    23.337 
 C                     15.103    51.605    20.621 
 C                     18.584    52.899    21.569 
 C                     19.003    53.009    20.105 
 N                     18.108    50.703    26.103 
 C                     18.951    50.278    25.021 
 C                     20.118    49.566    25.618 
 C                     19.941    49.573    27.006 
 C                     18.68     50.282    27.237 
 C                     21.236    49.023    24.81 
 C                     20.44     49.283    28.335 
 O                     21.47     48.632    28.662 
 C                     19.407    49.817    29.464 
 C                     19.027    48.622    30.306 
 O                     18.713    47.499    29.921 
 O                     19.262    48.965    31.635 
 C                     18.969    47.954    32.675 
 C                     14.276    51.486    34.583 
 C                     12.991    52.139    35.034 
 C                     11.759    51.585    35.182 
 C                     11.645    50.098    35.173 
 C                     10.599    52.452    35.602 
 C                     10.057    53.443    34.547 
 C                     10.239    54.913    34.998 
 C                     9.006     55.765    35.225 
 C                     9.209     57.274    34.981 
 C                     8.293     55.439    36.595 
 C                     6.795     55.507    36.534 
 C                     6.307     55.937    37.966 
 C                     5.379     57.213    37.997 
 C                     6.24      58.521    37.73 
 C                     4.632     57.333    39.306 
 C                     3.15      57.779    39.018 
 C                     2.156     56.822    39.802 
 C                     0.83      57.482    39.982 
 C                     0.147     57.148    41.371 
 C                    -0.042     56.961    38.806 
 H                     12.934    52.2      29.196 
 H                     13.586    52.733    22.634 
 H                     19.414    50.449    22.936 
 H                     17.172    50.478    31.099 
 H                     14.811    52.305    31.061 
 H                     14.       49.681    30.085 
 H                     13.481    50.489    31.479 
 H                     14.921    49.578    31.637 
 H                     17.021    53.366    30.603 
 H                     18.488    52.518    30.769 
 H                     17.144    53.884    32.844 
 H                     18.353    52.658    33.101 
 H                     10.092    51.972    26.923 
 H                     10.354    53.68     26.951 
 H                     10.988    52.579    28.326 
 H                     9.012     52.686    23.373 
 H                     9.501     53.715    24.712 
 H                     9.197     51.949    24.961 
 H                     15.957    53.311    21.39 
 H                     17.509    51.029    21.17 
 H                     14.398    50.88     21.028 
 H                     15.762    51.148    19.882 
 H                     14.56     52.457    20.212 
 H                     19.377    52.779    22.307 
 H                     18.091    53.861    21.71 
 H                     18.313    52.398    19.523 
 H                     20.041    52.676    20.127 
 H                     18.944    54.039    19.753 
 H                     22.159    49.598    24.881 
 H                     21.064    49.12     23.738 
 H                     21.505    48.023    25.151 
 H                     19.802    50.542    30.175 
 H                     18.255    47.187    32.372 
 H                     18.441    48.456    33.486 
 H                     19.89     47.459    32.981 
 H                     14.832    51.223    35.483 
 H                     14.206    50.536    34.054 
 H                     12.998    53.217    35.191 
 H                     11.299    49.695    34.221 
 H                     10.83     49.882    35.863 
 H                     12.522    49.585    35.568 
 H                     10.907    52.931    36.532 
 H                     9.775     51.772    35.815 
 H                     9.002     53.186    34.447 
 H                     10.603    53.294    33.616 
 H                     10.763    55.348    34.147 
 H                     10.87     55.021    35.88 
 H                     8.311     55.492    34.432 
 H                     8.807     57.86     35.807 
 H                     8.514     57.654    34.233 
 H                     10.191    57.598    34.637 
 H                     8.802     56.049    37.341 
 H                     8.537     54.426    36.915 
 H                     6.337     54.527    36.4 
 H                     6.626     56.075    35.619 
 H                     7.158     56.085    38.631 
 H                     5.806     55.045    38.342 
 H                     4.67      57.109    37.175 
 H                     6.032     59.212    38.548 
 H                     6.021     58.819    36.705 
 H                     7.303     58.284    37.765 
 H                     5.076     58.101    39.939 
 H                     4.614     56.343    39.763 
 H                     2.914     57.707    37.956 
 H                     3.007     58.836    39.243 
 H                     2.62      56.481    40.727 
 H                     2.014     55.874    39.281 
 H                     0.932     58.563    39.878 
 H                    -0.745     56.523    41.32 
 H                    -0.193     58.049    41.882 
 H                     0.805     56.721    42.128 
 H                     0.037     55.874    38.788 
 H                     0.328     57.461    37.911 
 H                    -1.089     57.169    39.029 
 
 ITRead=  0  0  0  0  0  0  0  0  0  0  0  0  0  0  0  0  0  0  0  0
 ITRead=  0  0  0  0  0  0  0  0  0  0  0  0  0  0  0  0  0  0  0  0
 ITRead=  0  0  0  0  0  0  0  0  0  0  0  0  0  0  0  0  0  0  0  0
 ITRead=  0  0  0  0  0  0  0  0  0  0  0  0  0  0  0  0  0  0  0  0
 ITRead=  0  0  0  0  0  0  0  0  0  0  0  0  0  0  0  0  0  0  0  0
 ITRead=  0  0  0  0  0  0  0  0  0  0  0  0  0  0  0  0  0  0  0  0
 ITRead=  0  0  0  0  0  0  0  0  0  0  0  0  0  0  0  0  0  0  0  0
 MicOpt= -1 -1 -1 -1 -1 -1 -1 -1 -1 -1 -1 -1 -1 -1 -1 -1 -1 -1 -1 -1
 MicOpt= -1 -1 -1 -1 -1 -1 -1 -1 -1 -1 -1 -1 -1 -1 -1 -1 -1 -1 -1 -1
 MicOpt= -1 -1 -1 -1 -1 -1 -1 -1 -1 -1 -1 -1 -1 -1 -1 -1 -1 -1 -1 -1
 MicOpt= -1 -1 -1 -1 -1 -1 -1 -1 -1 -1 -1 -1 -1 -1 -1 -1 -1 -1 -1 -1
 MicOpt= -1 -1 -1 -1 -1 -1 -1 -1 -1 -1 -1 -1 -1 -1 -1 -1 -1 -1 -1 -1
 MicOpt= -1 -1 -1 -1 -1 -1 -1 -1 -1 -1 -1 -1 -1 -1 -1 -1 -1 -1 -1 -1
 MicOpt= -1 -1 -1 -1 -1 -1 -1 -1 -1 -1 -1 -1 -1 -1 -1 -1 -1 -1 -1 -1
 NAtoms=    140 NQM=      140 NQMF=       0 NMMI=      0 NMMIF=      0
                NMic=       0 NMicF=      0.
                    Isotopes and Nuclear Properties:
 (Nuclear quadrupole moments (NQMom) in fm**2, nuclear magnetic moments (NMagM)
  in nuclear magnetons)

  Atom         1           2           3           4           5           6           7           8           9          10
 IAtWgt=          24          12          12          12          12          14          12          12          12          12
 AtmWgt=  23.9850450  12.0000000  12.0000000  12.0000000  12.0000000  14.0030740  12.0000000  12.0000000  12.0000000  12.0000000
 NucSpn=           0           0           0           0           0           2           0           0           0           0
 AtZEff=  -0.0000000  -0.0000000  -0.0000000  -0.0000000  -0.0000000  -0.0000000  -0.0000000  -0.0000000  -0.0000000  -0.0000000
 NQMom=    0.0000000   0.0000000   0.0000000   0.0000000   0.0000000   2.0440000   0.0000000   0.0000000   0.0000000   0.0000000
 NMagM=    0.0000000   0.0000000   0.0000000   0.0000000   0.0000000   0.4037610   0.0000000   0.0000000   0.0000000   0.0000000
 AtZNuc=  12.0000000   6.0000000   6.0000000   6.0000000   6.0000000   7.0000000   6.0000000   6.0000000   6.0000000   6.0000000

  Atom        11          12          13          14          15          16          17          18          19          20
 IAtWgt=          12          12          12          12          16          16          14          12          12          12
 AtmWgt=  12.0000000  12.0000000  12.0000000  12.0000000  15.9949146  15.9949146  14.0030740  12.0000000  12.0000000  12.0000000
 NucSpn=           0           0           0           0           0           0           2           0           0           0
 AtZEff=  -0.0000000  -0.0000000  -0.0000000  -0.0000000  -0.0000000  -0.0000000  -0.0000000  -0.0000000  -0.0000000  -0.0000000
 NQMom=    0.0000000   0.0000000   0.0000000   0.0000000   0.0000000   0.0000000   2.0440000   0.0000000   0.0000000   0.0000000
 NMagM=    0.0000000   0.0000000   0.0000000   0.0000000   0.0000000   0.0000000   0.4037610   0.0000000   0.0000000   0.0000000
 AtZNuc=   6.0000000   6.0000000   6.0000000   6.0000000   8.0000000   8.0000000   7.0000000   6.0000000   6.0000000   6.0000000

  Atom        21          22          23          24          25          26          27          28          29          30
 IAtWgt=          12          12          12          16          12          14          12          12          12          12
 AtmWgt=  12.0000000  12.0000000  12.0000000  15.9949146  12.0000000  14.0030740  12.0000000  12.0000000  12.0000000  12.0000000
 NucSpn=           0           0           0           0           0           2           0           0           0           0
 AtZEff=  -0.0000000  -0.0000000  -0.0000000  -0.0000000  -0.0000000  -0.0000000  -0.0000000  -0.0000000  -0.0000000  -0.0000000
 NQMom=    0.0000000   0.0000000   0.0000000   0.0000000   0.0000000   2.0440000   0.0000000   0.0000000   0.0000000   0.0000000
 NMagM=    0.0000000   0.0000000   0.0000000   0.0000000   0.0000000   0.4037610   0.0000000   0.0000000   0.0000000   0.0000000
 AtZNuc=   6.0000000   6.0000000   6.0000000   8.0000000   6.0000000   7.0000000   6.0000000   6.0000000   6.0000000   6.0000000

  Atom        31          32          33          34          35          36          37          38          39          40
 IAtWgt=          12          12          12          14          12          12          12          12          12          12
 AtmWgt=  12.0000000  12.0000000  12.0000000  14.0030740  12.0000000  12.0000000  12.0000000  12.0000000  12.0000000  12.0000000
 NucSpn=           0           0           0           2           0           0           0           0           0           0
 AtZEff=  -0.0000000  -0.0000000  -0.0000000  -0.0000000  -0.0000000  -0.0000000  -0.0000000  -0.0000000  -0.0000000  -0.0000000
 NQMom=    0.0000000   0.0000000   0.0000000   2.0440000   0.0000000   0.0000000   0.0000000   0.0000000   0.0000000   0.0000000
 NMagM=    0.0000000   0.0000000   0.0000000   0.4037610   0.0000000   0.0000000   0.0000000   0.0000000   0.0000000   0.0000000
 AtZNuc=   6.0000000   6.0000000   6.0000000   7.0000000   6.0000000   6.0000000   6.0000000   6.0000000   6.0000000   6.0000000

  Atom        41          42          43          44          45          46          47          48          49          50
 IAtWgt=          16          12          12          16          16          12          12          12          12          12
 AtmWgt=  15.9949146  12.0000000  12.0000000  15.9949146  15.9949146  12.0000000  12.0000000  12.0000000  12.0000000  12.0000000
 NucSpn=           0           0           0           0           0           0           0           0           0           0
 AtZEff=  -0.0000000  -0.0000000  -0.0000000  -0.0000000  -0.0000000  -0.0000000  -0.0000000  -0.0000000  -0.0000000  -0.0000000
 NQMom=    0.0000000   0.0000000   0.0000000   0.0000000   0.0000000   0.0000000   0.0000000   0.0000000   0.0000000   0.0000000
 NMagM=    0.0000000   0.0000000   0.0000000   0.0000000   0.0000000   0.0000000   0.0000000   0.0000000   0.0000000   0.0000000
 AtZNuc=   8.0000000   6.0000000   6.0000000   8.0000000   8.0000000   6.0000000   6.0000000   6.0000000   6.0000000   6.0000000

  Atom        51          52          53          54          55          56          57          58          59          60
 IAtWgt=          12          12          12          12          12          12          12          12          12          12
 AtmWgt=  12.0000000  12.0000000  12.0000000  12.0000000  12.0000000  12.0000000  12.0000000  12.0000000  12.0000000  12.0000000
 NucSpn=           0           0           0           0           0           0           0           0           0           0
 AtZEff=  -0.0000000  -0.0000000  -0.0000000  -0.0000000  -0.0000000  -0.0000000  -0.0000000  -0.0000000  -0.0000000  -0.0000000
 NQMom=    0.0000000   0.0000000   0.0000000   0.0000000   0.0000000   0.0000000   0.0000000   0.0000000   0.0000000   0.0000000
 NMagM=    0.0000000   0.0000000   0.0000000   0.0000000   0.0000000   0.0000000   0.0000000   0.0000000   0.0000000   0.0000000
 AtZNuc=   6.0000000   6.0000000   6.0000000   6.0000000   6.0000000   6.0000000   6.0000000   6.0000000   6.0000000   6.0000000

  Atom        61          62          63          64          65          66          67          68          69          70
 IAtWgt=          12          12          12          12          12          12           1           1           1           1
 AtmWgt=  12.0000000  12.0000000  12.0000000  12.0000000  12.0000000  12.0000000   1.0078250   1.0078250   1.0078250   1.0078250
 NucSpn=           0           0           0           0           0           0           1           1           1           1
 AtZEff=  -0.0000000  -0.0000000  -0.0000000  -0.0000000  -0.0000000  -0.0000000  -0.0000000  -0.0000000  -0.0000000  -0.0000000
 NQMom=    0.0000000   0.0000000   0.0000000   0.0000000   0.0000000   0.0000000   0.0000000   0.0000000   0.0000000   0.0000000
 NMagM=    0.0000000   0.0000000   0.0000000   0.0000000   0.0000000   0.0000000   2.7928460   2.7928460   2.7928460   2.7928460
 AtZNuc=   6.0000000   6.0000000   6.0000000   6.0000000   6.0000000   6.0000000   1.0000000   1.0000000   1.0000000   1.0000000

  Atom        71          72          73          74          75          76          77          78          79          80
 IAtWgt=           1           1           1           1           1           1           1           1           1           1
 AtmWgt=   1.0078250   1.0078250   1.0078250   1.0078250   1.0078250   1.0078250   1.0078250   1.0078250   1.0078250   1.0078250
 NucSpn=           1           1           1           1           1           1           1           1           1           1
 AtZEff=  -0.0000000  -0.0000000  -0.0000000  -0.0000000  -0.0000000  -0.0000000  -0.0000000  -0.0000000  -0.0000000  -0.0000000
 NQMom=    0.0000000   0.0000000   0.0000000   0.0000000   0.0000000   0.0000000   0.0000000   0.0000000   0.0000000   0.0000000
 NMagM=    2.7928460   2.7928460   2.7928460   2.7928460   2.7928460   2.7928460   2.7928460   2.7928460   2.7928460   2.7928460
 AtZNuc=   1.0000000   1.0000000   1.0000000   1.0000000   1.0000000   1.0000000   1.0000000   1.0000000   1.0000000   1.0000000

  Atom        81          82          83          84          85          86          87          88          89          90
 IAtWgt=           1           1           1           1           1           1           1           1           1           1
 AtmWgt=   1.0078250   1.0078250   1.0078250   1.0078250   1.0078250   1.0078250   1.0078250   1.0078250   1.0078250   1.0078250
 NucSpn=           1           1           1           1           1           1           1           1           1           1
 AtZEff=  -0.0000000  -0.0000000  -0.0000000  -0.0000000  -0.0000000  -0.0000000  -0.0000000  -0.0000000  -0.0000000  -0.0000000
 NQMom=    0.0000000   0.0000000   0.0000000   0.0000000   0.0000000   0.0000000   0.0000000   0.0000000   0.0000000   0.0000000
 NMagM=    2.7928460   2.7928460   2.7928460   2.7928460   2.7928460   2.7928460   2.7928460   2.7928460   2.7928460   2.7928460
 AtZNuc=   1.0000000   1.0000000   1.0000000   1.0000000   1.0000000   1.0000000   1.0000000   1.0000000   1.0000000   1.0000000

  Atom        91          92          93          94          95          96          97          98          99         100
 IAtWgt=           1           1           1           1           1           1           1           1           1           1
 AtmWgt=   1.0078250   1.0078250   1.0078250   1.0078250   1.0078250   1.0078250   1.0078250   1.0078250   1.0078250   1.0078250
 NucSpn=           1           1           1           1           1           1           1           1           1           1
 AtZEff=  -0.0000000  -0.0000000  -0.0000000  -0.0000000  -0.0000000  -0.0000000  -0.0000000  -0.0000000  -0.0000000  -0.0000000
 NQMom=    0.0000000   0.0000000   0.0000000   0.0000000   0.0000000   0.0000000   0.0000000   0.0000000   0.0000000   0.0000000
 NMagM=    2.7928460   2.7928460   2.7928460   2.7928460   2.7928460   2.7928460   2.7928460   2.7928460   2.7928460   2.7928460
 AtZNuc=   1.0000000   1.0000000   1.0000000   1.0000000   1.0000000   1.0000000   1.0000000   1.0000000   1.0000000   1.0000000

  Atom       101         102         103         104         105         106         107         108         109         110
 IAtWgt=           1           1           1           1           1           1           1           1           1           1
 AtmWgt=   1.0078250   1.0078250   1.0078250   1.0078250   1.0078250   1.0078250   1.0078250   1.0078250   1.0078250   1.0078250
 NucSpn=           1           1           1           1           1           1           1           1           1           1
 AtZEff=  -0.0000000  -0.0000000  -0.0000000  -0.0000000  -0.0000000  -0.0000000  -0.0000000  -0.0000000  -0.0000000  -0.0000000
 NQMom=    0.0000000   0.0000000   0.0000000   0.0000000   0.0000000   0.0000000   0.0000000   0.0000000   0.0000000   0.0000000
 NMagM=    2.7928460   2.7928460   2.7928460   2.7928460   2.7928460   2.7928460   2.7928460   2.7928460   2.7928460   2.7928460
 AtZNuc=   1.0000000   1.0000000   1.0000000   1.0000000   1.0000000   1.0000000   1.0000000   1.0000000   1.0000000   1.0000000

  Atom       111         112         113         114         115         116         117         118         119         120
 IAtWgt=           1           1           1           1           1           1           1           1           1           1
 AtmWgt=   1.0078250   1.0078250   1.0078250   1.0078250   1.0078250   1.0078250   1.0078250   1.0078250   1.0078250   1.0078250
 NucSpn=           1           1           1           1           1           1           1           1           1           1
 AtZEff=  -0.0000000  -0.0000000  -0.0000000  -0.0000000  -0.0000000  -0.0000000  -0.0000000  -0.0000000  -0.0000000  -0.0000000
 NQMom=    0.0000000   0.0000000   0.0000000   0.0000000   0.0000000   0.0000000   0.0000000   0.0000000   0.0000000   0.0000000
 NMagM=    2.7928460   2.7928460   2.7928460   2.7928460   2.7928460   2.7928460   2.7928460   2.7928460   2.7928460   2.7928460
 AtZNuc=   1.0000000   1.0000000   1.0000000   1.0000000   1.0000000   1.0000000   1.0000000   1.0000000   1.0000000   1.0000000

  Atom       121         122         123         124         125         126         127         128         129         130
 IAtWgt=           1           1           1           1           1           1           1           1           1           1
 AtmWgt=   1.0078250   1.0078250   1.0078250   1.0078250   1.0078250   1.0078250   1.0078250   1.0078250   1.0078250   1.0078250
 NucSpn=           1           1           1           1           1           1           1           1           1           1
 AtZEff=  -0.0000000  -0.0000000  -0.0000000  -0.0000000  -0.0000000  -0.0000000  -0.0000000  -0.0000000  -0.0000000  -0.0000000
 NQMom=    0.0000000   0.0000000   0.0000000   0.0000000   0.0000000   0.0000000   0.0000000   0.0000000   0.0000000   0.0000000
 NMagM=    2.7928460   2.7928460   2.7928460   2.7928460   2.7928460   2.7928460   2.7928460   2.7928460   2.7928460   2.7928460
 AtZNuc=   1.0000000   1.0000000   1.0000000   1.0000000   1.0000000   1.0000000   1.0000000   1.0000000   1.0000000   1.0000000

  Atom       131         132         133         134         135         136         137         138         139         140
 IAtWgt=           1           1           1           1           1           1           1           1           1           1
 AtmWgt=   1.0078250   1.0078250   1.0078250   1.0078250   1.0078250   1.0078250   1.0078250   1.0078250   1.0078250   1.0078250
 NucSpn=           1           1           1           1           1           1           1           1           1           1
 AtZEff=  -0.0000000  -0.0000000  -0.0000000  -0.0000000  -0.0000000  -0.0000000  -0.0000000  -0.0000000  -0.0000000  -0.0000000
 NQMom=    0.0000000   0.0000000   0.0000000   0.0000000   0.0000000   0.0000000   0.0000000   0.0000000   0.0000000   0.0000000
 NMagM=    2.7928460   2.7928460   2.7928460   2.7928460   2.7928460   2.7928460   2.7928460   2.7928460   2.7928460   2.7928460
 AtZNuc=   1.0000000   1.0000000   1.0000000   1.0000000   1.0000000   1.0000000   1.0000000   1.0000000   1.0000000   1.0000000
 Leave Link  101 at Wed May  4 12:30:50 2022, MaxMem=  6710886400 cpu:               3.0 elap:               0.1
 (Enter /sw/apps/gaussian-16.0/g16/l202.exe)
 Stoichiometry    C55H74MgN4O6
 Framework group  C1[X(C55H74MgN4O6)]
 Deg. of freedom   414
 Full point group                 C1      NOp   1
 Largest Abelian subgroup         C1      NOp   1
 Largest concise Abelian subgroup C1      NOp   1
                         Standard orientation:                         
 ---------------------------------------------------------------------
 Center     Atomic      Atomic             Coordinates (Angstroms)
 Number     Number       Type             X           Y           Z
 ---------------------------------------------------------------------
      1         12           0        5.104303    1.096825    0.109912
      2          6           0        5.051453   -2.395980    0.259760
      3          6           0        1.593453    1.006683   -0.360868
      4          6           0        5.192599    4.478640   -0.150912
      5          6           0        8.568380    1.102702    0.229148
      6          7           0        3.496862   -0.466050   -0.009739
      7          6           0        3.734475   -1.802699    0.304018
      8          6           0        2.377467   -2.585700    0.415745
      9          6           0        1.385277   -1.541163   -0.139731
     10          6           0        2.205245   -0.255528   -0.179811
     11          6           0        0.886482   -1.828954   -1.576592
     12          6           0        2.146710   -3.037132    1.861075
     13          6           0        0.921295   -4.011638    2.140399
     14          6           0       -0.027165   -4.347921    0.939402
     15          8           0        0.307472   -5.149897    0.098305
     16          8           0       -1.234952   -3.574709    0.872257
     17          7           0        3.653563    2.530638   -0.312898
     18          6           0        2.268861    2.308526   -0.371024
     19          6           0        1.666322    3.575633   -0.789602
     20          6           0        2.709253    4.604582   -0.890429
     21          6           0        3.950937    3.884954   -0.493393
     22          6           0        0.233809    3.836779   -1.116552
     23          6           0        2.688960    6.083003   -1.360177
     24          8           0        3.714383    6.752380   -1.316394
     25          6           0        1.448973    6.713940   -1.824947
     26          7           0        6.527803    2.587235    0.229825
     27          6           0        6.346537    3.931040    0.214805
     28          6           0        7.666206    4.662557    0.446031
     29          6           0        8.631617    3.525588    0.715219
     30          6           0        7.823845    2.266608    0.335482
     31          6           0        7.979420    5.763032   -0.602374
     32          6           0        9.310424    3.438943    2.139440
     33          6           0       10.555916    4.298596    2.341190
     34          7           0        6.543007   -0.333647    0.211977
     35          6           0        7.969475   -0.184634    0.141396
     36          6           0        8.556762   -1.552746    0.048633
     37          6           0        7.492399   -2.461055    0.053895
     38          6           0        6.280063   -1.644070    0.148453
     39          6           0       10.016685   -1.806967    0.008199
     40          6           0        7.009920   -3.826885    0.086545
     41          8           0        7.670592   -4.895684   -0.026632
     42          6           0        5.391873   -3.860993    0.173995
     43          6           0        4.908423   -4.652899   -1.017873
     44          8           0        5.282270   -4.561942   -2.184027
     45          8           0        4.065120   -5.649619   -0.533616
     46          6           0        3.452745   -6.576241   -1.511337
     47          6           0       -2.029155   -4.002868   -0.300445
     48          6           0       -3.390973   -3.351429   -0.254478
     49          6           0       -4.162800   -2.914929   -1.284233
     50          6           0       -3.804385   -3.339943   -2.668122
     51          6           0       -5.480995   -2.243108   -0.993187
     52          6           0       -5.416006   -0.816926   -0.401029
     53          6           0       -6.023906   -0.761383    1.021924
     54          6           0       -7.255910    0.089929    1.256782
     55          6           0       -7.388756    0.654665    2.685506
     56          6           0       -8.573549   -0.599065    0.727011
     57          6           0       -9.562393    0.356971    0.126566
     58          6           0      -10.988566   -0.257047    0.376925
     59          6           0      -12.004029    0.699115    1.115106
     60          6           0      -11.619300    0.822894    2.651379
     61          6           0      -13.431903    0.224657    0.966930
     62          6           0      -14.364848    1.464210    0.699896
     63          6           0      -15.291842    1.158854   -0.551496
     64          6           0      -16.499240    2.035263   -0.532246
     65          6           0      -17.807239    1.311886   -1.054962
     66          6           0      -16.138263    3.238119   -1.447470
     67          1           0        0.518961    0.974737   -0.547587
     68          1           0        5.262840    5.568584   -0.146055
     69          1           0        9.648917    1.123806    0.382837
     70          1           0        2.582469   -3.509731   -0.124723
     71          1           0        0.488036   -1.468082    0.474204
     72          1           0        1.361319   -1.153783   -2.288814
     73          1           0       -0.169062   -1.594703   -1.715241
     74          1           0        0.958081   -2.870328   -1.890784
     75          1           0        1.983944   -2.087653    2.371037
     76          1           0        3.105683   -3.363996    2.264286
     77          1           0        0.395005   -3.626529    3.013430
     78          1           0        1.389968   -4.943326    2.459442
     79          1           0        0.211505    4.247222   -2.126129
     80          1           0       -0.123757    4.644737   -0.478017
     81          1           0       -0.312315    2.892898   -1.110700
     82          1           0        1.688433    7.725216   -2.156616
     83          1           0        0.811693    6.800820   -0.945129
     84          1           0        0.947183    6.206055   -2.648382
     85          1           0        7.540747    5.266503    1.344968
     86          1           0        9.395975    3.740763   -0.031577
     87          1           0        7.436552    5.640002   -1.539634
     88          1           0        9.057971    5.759460   -0.763511
     89          1           0        7.645000    6.670441   -0.099573
     90          1           0        9.378720    2.388250    2.420994
     91          1           0        8.604349    3.951168    2.793243
     92          1           0       10.662132    4.928628    1.458057
     93          1           0       11.337396    3.554990    2.499798
     94          1           0       10.457935    4.936959    3.219357
     95          1           0       10.425201   -2.213376    0.933154
     96          1           0       10.600898   -0.887955   -0.039650
     97          1           0       10.255159   -2.551775   -0.751427
     98          1           0        4.966089   -4.372161    1.036889
     99          1           0        3.398262   -6.188501   -2.529464
    100          1           0        2.400674   -6.687952   -1.248323
    101          1           0        4.009116   -7.512646   -1.533680
    102          1           0       -2.189533   -5.079529   -0.242264
    103          1           0       -1.442798   -3.893194   -1.212256
    104          1           0       -3.804065   -3.108554    0.723862
    105          1           0       -3.274763   -2.573389   -3.234095
    106          1           0       -4.760639   -3.433922   -3.181664
    107          1           0       -3.332965   -4.321415   -2.721013
    108          1           0       -6.043245   -2.945508   -0.376978
    109          1           0       -5.985345   -2.138487   -1.953099
    110          1           0       -5.985667   -0.204238   -1.100439
    111          1           0       -4.372162   -0.509574   -0.346254
    112          1           0       -5.217820   -0.303458    1.595100
    113          1           0       -6.228543   -1.744808    1.444712
    114          1           0       -7.107287    0.990797    0.662854
    115          1           0       -8.390255    0.485439    3.080016
    116          1           0       -7.459188    1.741832    2.679576
    117          1           0       -6.586057    0.432662    3.388376
    118          1           0       -8.913004   -1.242073    1.538803
    119          1           0       -8.333923   -1.318042   -0.056415
    120          1           0       -9.497488    0.397687   -0.960747
    121          1           0       -9.218764    1.317446    0.511034
    122          1           0      -10.908904   -1.198753    0.920223
    123          1           0      -11.324538   -0.534466   -0.622176
    124          1           0      -11.893932    1.686245    0.664958
    125          1           0      -12.514786    0.579698    3.224816
    126          1           0      -11.156743    1.802873    2.765708
    127          1           0      -10.857495    0.087176    2.907766
    128          1           0      -13.784052   -0.244064    1.885592
    129          1           0      -13.468749   -0.431435    0.096609
    130          1           0      -13.781827    2.357130    0.472952
    131          1           0      -14.919275    1.739252    1.597273
    132          1           0      -15.508759    0.092285   -0.602286
    133          1           0      -14.760073    1.306053   -1.492700
    134          1           0      -16.671797    2.413777    0.476085
    135          1           0      -18.193995    1.668486   -2.010025
    136          1           0      -18.643838    1.442133   -0.368188
    137          1           0      -17.754317    0.224301   -1.106930
    138          1           0      -15.758980    2.839498   -2.388417
    139          1           0      -15.424946    3.841411   -0.886095
    140          1           0      -17.056173    3.765822   -1.708567
 ---------------------------------------------------------------------
 Rotational constants (GHZ):           0.0444004           0.0095912           0.0081903
 Leave Link  202 at Wed May  4 12:30:50 2022, MaxMem=  6710886400 cpu:               0.2 elap:               0.0
 (Enter /sw/apps/gaussian-16.0/g16/l301.exe)
 Standard basis: VSTO-6G (5D, 7F)
 Ernie: Thresh=  0.10000D-02 Tol=  0.10000D-05 Strict=F.
 There are   338 symmetry adapted cartesian basis functions of A   symmetry.
 There are   338 symmetry adapted basis functions of A   symmetry.
   338 basis functions,  2028 primitive gaussians,   338 cartesian basis functions
   176 alpha electrons      176 beta electrons
       nuclear repulsion energy      4784.7321832362 Hartrees.
 IExCor=    0 DFT=F Ex=HF Corr=None ExCW=0 ScaHFX=  1.000000
 ScaDFX=  1.000000  1.000000  1.000000  1.000000 ScalE2=  1.000000  1.000000
 IRadAn=      5 IRanWt=     -1 IRanGd=            0 ICorTp=0 IEmpDi=  4
 Integral buffers will be    131072 words long.
 Regular integral format.
 Two-electron integral symmetry is turned off.
 Leave Link  301 at Wed May  4 12:30:50 2022, MaxMem=  6710886400 cpu:               1.2 elap:               0.1
 (Enter /sw/apps/gaussian-16.0/g16/l302.exe)
 Do NDO integrals.
 NPDir=0 NMtPBC=     1 NCelOv=     1 NCel=       1 NClECP=     1 NCelD=      1
         NCelK=      1 NCelE2=     1 NClLst=     1 CellRange=     0.0.
 One-electron integrals computed using PRISM.
 Generate ZINDO/S integrals.
 NDO Nuclear repulsion=  4302.565616961707 Hartrees.
 NBasis=   338 RedAO= F EigKep=  0.00D+00  NBF=   338
 NBsUse=   338 1.00D-04 EigRej=  0.00D+00 NBFU=   338
 Leave Link  302 at Wed May  4 12:30:51 2022, MaxMem=  6710886400 cpu:               7.8 elap:               0.3
 (Enter /sw/apps/gaussian-16.0/g16/l303.exe)
 DipDrv:  MaxL=1.
 DipDrv:  will hold  3 matrices at once.
 Leave Link  303 at Wed May  4 12:30:51 2022, MaxMem=  6710886400 cpu:               0.6 elap:               0.0
 (Enter /sw/apps/gaussian-16.0/g16/l308.exe)
 Leave Link  308 at Wed May  4 12:30:51 2022, MaxMem=  6710886400 cpu:               4.4 elap:               0.2
 (Enter /sw/apps/gaussian-16.0/g16/l401.exe)
 Simple Huckel Guess.
 JPrj=0 DoOrth=F DoCkMO=F.
 Leave Link  401 at Wed May  4 12:30:51 2022, MaxMem=  6710886400 cpu:               2.6 elap:               0.1
 (Enter /sw/apps/gaussian-16.0/g16/l502.exe)
 Two-electron integral symmetry not used.
 Closed shell SCF:
 Using DIIS extrapolation, IDIIS=  1040.
 Overlap will be assumed to be unity.
 NGot=  6710886400 LenX=  6710643598 LenY=  6710528913
 Requested convergence on RMS density matrix=1.00D-08 within 128 cycles.
 Requested convergence on MAX density matrix=1.00D-06.
 Requested convergence on             energy=1.00D-06.
 No special actions if energy rises.
 Fock matrices will be formed incrementally for  20 cycles.

 Cycle   1  Pass 1  IDiag  1:
 E= -472.062124825829    
 DIIS: error= 5.84D-02 at cycle   1 NSaved=   1.
 NSaved= 1 IEnMin= 1 EnMin= -472.062124825829     IErMin= 1 ErrMin= 5.84D-02
 ErrMax= 5.84D-02  0.00D+00 EMaxC= 1.00D-01 BMatC= 8.26D-01 BMatP= 8.26D-01
 IDIUse=3 WtCom= 4.16D-01 WtEn= 5.84D-01
 Coeff-Com:  0.100D+01
 Coeff-En:   0.100D+01
 Coeff:      0.100D+01
 GapD=    2.000 DampG=2.000 DampE=0.500 DampFc=1.0000 IDamp=-1.
 RMSDP=4.03D-03 MaxDP=1.69D-01              OVMax= 0.00D+00

 Cycle   2  Pass 1  IDiag  1:
 RMSU=  4.02D-03    CP:  9.95D-01
 E= -473.889485793954     Delta-E=       -1.827360968125 Rises=F Damp=F
 DIIS: error= 2.11D-02 at cycle   2 NSaved=   2.
 NSaved= 2 IEnMin= 2 EnMin= -473.889485793954     IErMin= 2 ErrMin= 2.11D-02
 ErrMax= 2.11D-02  0.00D+00 EMaxC= 1.00D-01 BMatC= 5.37D-02 BMatP= 8.26D-01
 IDIUse=3 WtCom= 7.89D-01 WtEn= 2.11D-01
 Coeff-Com: -0.642D-01 0.106D+01
 Coeff-En:   0.000D+00 0.100D+01
 Coeff:     -0.507D-01 0.105D+01
 RMSDP=1.13D-03 MaxDP=6.46D-02 DE=-1.83D+00 OVMax= 0.00D+00

 Cycle   3  Pass 1  IDiag  1:
 RMSU=  1.07D-03    CP:  9.93D-01  1.09D+00
 E= -473.992987678078     Delta-E=       -0.103501884124 Rises=F Damp=F
 DIIS: error= 9.23D-03 at cycle   3 NSaved=   3.
 NSaved= 3 IEnMin= 3 EnMin= -473.992987678078     IErMin= 3 ErrMin= 9.23D-03
 ErrMax= 9.23D-03  0.00D+00 EMaxC= 1.00D-01 BMatC= 7.78D-03 BMatP= 5.37D-02
 IDIUse=3 WtCom= 9.08D-01 WtEn= 9.23D-02
 Coeff-Com: -0.695D-01 0.244D+00 0.825D+00
 Coeff-En:   0.000D+00 0.000D+00 0.100D+01
 Coeff:     -0.631D-01 0.222D+00 0.841D+00
 RMSDP=3.87D-04 MaxDP=1.69D-02 DE=-1.04D-01 OVMax= 0.00D+00

 Cycle   4  Pass 1  IDiag  1:
 RMSU=  2.48D-04    CP:  9.93D-01  1.16D+00  9.19D-01
 E= -474.006775219777     Delta-E=       -0.013787541699 Rises=F Damp=F
 DIIS: error= 1.68D-03 at cycle   4 NSaved=   4.
 NSaved= 4 IEnMin= 4 EnMin= -474.006775219777     IErMin= 4 ErrMin= 1.68D-03
 ErrMax= 1.68D-03  0.00D+00 EMaxC= 1.00D-01 BMatC= 3.11D-04 BMatP= 7.78D-03
 IDIUse=3 WtCom= 9.83D-01 WtEn= 1.68D-02
 Coeff-Com: -0.877D-04-0.344D-01 0.275D-01 0.101D+01
 Coeff-En:   0.000D+00 0.000D+00 0.000D+00 0.100D+01
 Coeff:     -0.862D-04-0.339D-01 0.270D-01 0.101D+01
 RMSDP=1.37D-04 MaxDP=7.88D-03 DE=-1.38D-02 OVMax= 0.00D+00

 Cycle   5  Pass 1  IDiag  1:
 RMSU=  9.22D-05    CP:  9.92D-01  1.16D+00  1.01D+00  1.05D+00
 E= -474.007845688287     Delta-E=       -0.001070468509 Rises=F Damp=F
 DIIS: error= 5.81D-04 at cycle   5 NSaved=   5.
 NSaved= 5 IEnMin= 5 EnMin= -474.007845688287     IErMin= 5 ErrMin= 5.81D-04
 ErrMax= 5.81D-04  0.00D+00 EMaxC= 1.00D-01 BMatC= 6.21D-05 BMatP= 3.11D-04
 IDIUse=3 WtCom= 9.94D-01 WtEn= 5.81D-03
 Coeff-Com:  0.653D-02-0.263D-01-0.975D-01 0.191D+00 0.926D+00
 Coeff-En:   0.000D+00 0.000D+00 0.000D+00 0.000D+00 0.100D+01
 Coeff:      0.649D-02-0.262D-01-0.970D-01 0.190D+00 0.927D+00
 RMSDP=5.76D-05 MaxDP=2.73D-03 DE=-1.07D-03 OVMax= 0.00D+00

 Cycle   6  Pass 1  IDiag  1:
 RMSU=  3.06D-05    CP:  9.92D-01  1.16D+00  1.03D+00  1.23D+00  1.11D+00
 E= -474.008050222550     Delta-E=       -0.000204534264 Rises=F Damp=F
 DIIS: error= 1.85D-04 at cycle   6 NSaved=   6.
 NSaved= 6 IEnMin= 6 EnMin= -474.008050222550     IErMin= 6 ErrMin= 1.85D-04
 ErrMax= 1.85D-04  0.00D+00 EMaxC= 1.00D-01 BMatC= 6.44D-06 BMatP= 6.21D-05
 IDIUse=3 WtCom= 9.98D-01 WtEn= 1.85D-03
 Coeff-Com: -0.101D-03 0.536D-02-0.140D-01-0.962D-01 0.775D-02 0.110D+01
 Coeff-En:   0.000D+00 0.000D+00 0.000D+00 0.000D+00 0.000D+00 0.100D+01
 Coeff:     -0.101D-03 0.535D-02-0.139D-01-0.960D-01 0.773D-02 0.110D+01
 RMSDP=3.45D-05 MaxDP=1.93D-03 DE=-2.05D-04 OVMax= 0.00D+00

 Cycle   7  Pass 1  IDiag  1:
 RMSU=  1.78D-05    CP:  9.92D-01  1.16D+00  1.04D+00  1.26D+00  1.38D+00
                    CP:  1.32D+00
 E= -474.008090271772     Delta-E=       -0.000040049222 Rises=F Damp=F
 DIIS: error= 1.02D-04 at cycle   7 NSaved=   7.
 NSaved= 7 IEnMin= 7 EnMin= -474.008090271772     IErMin= 7 ErrMin= 1.02D-04
 ErrMax= 1.02D-04  0.00D+00 EMaxC= 1.00D-01 BMatC= 1.80D-06 BMatP= 6.44D-06
 IDIUse=3 WtCom= 9.99D-01 WtEn= 1.02D-03
 Coeff-Com: -0.778D-03 0.403D-02 0.764D-02-0.282D-01-0.139D+00 0.239D+00
 Coeff-Com:  0.916D+00
 Coeff-En:   0.000D+00 0.000D+00 0.000D+00 0.000D+00 0.000D+00 0.000D+00
 Coeff-En:   0.100D+01
 Coeff:     -0.777D-03 0.402D-02 0.763D-02-0.282D-01-0.138D+00 0.239D+00
 Coeff:      0.917D+00
 RMSDP=1.73D-05 MaxDP=9.74D-04 DE=-4.00D-05 OVMax= 0.00D+00

 Cycle   8  Pass 1  IDiag  1:
 RMSU=  6.35D-06    CP:  9.92D-01  1.16D+00  1.04D+00  1.27D+00  1.47D+00
                    CP:  1.62D+00  1.54D+00
 E= -474.008103763918     Delta-E=       -0.000013492147 Rises=F Damp=F
 DIIS: error= 5.27D-05 at cycle   8 NSaved=   8.
 NSaved= 8 IEnMin= 8 EnMin= -474.008103763918     IErMin= 8 ErrMin= 5.27D-05
 ErrMax= 5.27D-05  0.00D+00 EMaxC= 1.00D-01 BMatC= 6.41D-07 BMatP= 1.80D-06
 IDIUse=1 WtCom= 1.00D+00 WtEn= 0.00D+00
 Coeff-Com:  0.650D-04-0.126D-02 0.226D-02 0.261D-01-0.316D-01-0.109D+00
 Coeff-Com: -0.341D+00 0.145D+01
 Coeff:      0.650D-04-0.126D-02 0.226D-02 0.261D-01-0.316D-01-0.109D+00
 Coeff:     -0.341D+00 0.145D+01
 RMSDP=2.31D-05 MaxDP=1.05D-03 DE=-1.35D-05 OVMax= 0.00D+00

 Cycle   9  Pass 1  IDiag  1:
 RMSU=  5.00D-06    CP:  9.92D-01  1.16D+00  1.04D+00  1.27D+00  1.59D+00
                    CP:  1.87D+00  2.50D+00  1.95D+00
 E= -474.008115497430     Delta-E=       -0.000011733512 Rises=F Damp=F
 DIIS: error= 5.13D-05 at cycle   9 NSaved=   9.
 NSaved= 9 IEnMin= 9 EnMin= -474.008115497430     IErMin= 9 ErrMin= 5.13D-05
 ErrMax= 5.13D-05  0.00D+00 EMaxC= 1.00D-01 BMatC= 5.40D-07 BMatP= 6.41D-07
 IDIUse=1 WtCom= 1.00D+00 WtEn= 0.00D+00
 Coeff-Com:  0.367D-03-0.165D-02-0.434D-02 0.110D-01 0.406D-01 0.436D-01
 Coeff-Com: -0.862D+00 0.439D+00 0.133D+01
 Coeff:      0.367D-03-0.165D-02-0.434D-02 0.110D-01 0.406D-01 0.436D-01
 Coeff:     -0.862D+00 0.439D+00 0.133D+01
 RMSDP=2.55D-05 MaxDP=1.13D-03 DE=-1.17D-05 OVMax= 0.00D+00

 Cycle  10  Pass 1  IDiag  1:
 RMSU=  1.02D-05    CP:  9.92D-01  1.16D+00  1.04D+00  1.26D+00  1.70D+00
                    CP:  2.13D+00  3.00D+00  3.00D+00  2.16D+00
 E= -474.008125667233     Delta-E=       -0.000010169802 Rises=F Damp=F
 DIIS: error= 3.16D-05 at cycle  10 NSaved=  10.
 NSaved=10 IEnMin=10 EnMin= -474.008125667233     IErMin=10 ErrMin= 3.16D-05
 ErrMax= 3.16D-05  0.00D+00 EMaxC= 1.00D-01 BMatC= 2.28D-07 BMatP= 5.40D-07
 IDIUse=1 WtCom= 1.00D+00 WtEn= 0.00D+00
 Coeff-Com: -0.864D-04 0.929D-03-0.827D-03-0.144D-01-0.110D-03 0.135D+00
 Coeff-Com:  0.177D-01-0.204D+00-0.103D+01 0.210D+01
 Coeff:     -0.864D-04 0.929D-03-0.827D-03-0.144D-01-0.110D-03 0.135D+00
 Coeff:      0.177D-01-0.204D+00-0.103D+01 0.210D+01
 RMSDP=2.97D-05 MaxDP=1.30D-03 DE=-1.02D-05 OVMax= 0.00D+00

 Cycle  11  Pass 1  IDiag  1:
 RMSU=  7.92D-06    CP:  9.92D-01  1.16D+00  1.05D+00  1.26D+00  1.82D+00
                    CP:  2.39D+00  3.00D+00  3.00D+00  3.00D+00  3.00D+00
 E= -474.008133000176     Delta-E=       -0.000007332943 Rises=F Damp=F
 DIIS: error= 1.96D-05 at cycle  11 NSaved=  11.
 NSaved=11 IEnMin=11 EnMin= -474.008133000176     IErMin=11 ErrMin= 1.96D-05
 ErrMax= 1.96D-05  0.00D+00 EMaxC= 1.00D-01 BMatC= 7.68D-08 BMatP= 2.28D-07
 IDIUse=1 WtCom= 1.00D+00 WtEn= 0.00D+00
 Coeff-Com: -0.126D-03 0.537D-03 0.181D-02-0.366D-02-0.178D-01-0.442D-02
 Coeff-Com:  0.220D+00 0.132D+00-0.983D+00 0.156D+00 0.150D+01
 Coeff:     -0.126D-03 0.537D-03 0.181D-02-0.366D-02-0.178D-01-0.442D-02
 Coeff:      0.220D+00 0.132D+00-0.983D+00 0.156D+00 0.150D+01
 RMSDP=2.33D-05 MaxDP=1.01D-03 DE=-7.33D-06 OVMax= 0.00D+00

 Cycle  12  Pass 1  IDiag  1:
 RMSU=  1.32D-05    CP:  9.92D-01  1.16D+00  1.05D+00  1.26D+00  1.91D+00
                    CP:  2.58D+00  3.00D+00  3.00D+00  3.00D+00  3.00D+00
                    CP:  3.00D+00
 E= -474.008135556935     Delta-E=       -0.000002556760 Rises=F Damp=F
 DIIS: error= 6.43D-06 at cycle  12 NSaved=  12.
 NSaved=12 IEnMin=12 EnMin= -474.008135556935     IErMin=12 ErrMin= 6.43D-06
 ErrMax= 6.43D-06  0.00D+00 EMaxC= 1.00D-01 BMatC= 9.90D-09 BMatP= 7.68D-08
 IDIUse=1 WtCom= 1.00D+00 WtEn= 0.00D+00
 Coeff-Com:  0.358D-04-0.313D-03 0.219D-03 0.413D-02 0.153D-02-0.340D-01
 Coeff-Com: -0.570D-01 0.176D+00 0.228D+00-0.569D+00-0.822D-01 0.133D+01
 Coeff:      0.358D-04-0.313D-03 0.219D-03 0.413D-02 0.153D-02-0.340D-01
 Coeff:     -0.570D-01 0.176D+00 0.228D+00-0.569D+00-0.822D-01 0.133D+01
 RMSDP=7.16D-06 MaxDP=3.14D-04 DE=-2.56D-06 OVMax= 0.00D+00

 Cycle  13  Pass 1  IDiag  1:
 RMSU=  5.17D-06    CP:  9.92D-01  1.16D+00  1.05D+00  1.26D+00  1.94D+00
                    CP:  2.64D+00  3.00D+00  3.00D+00  3.00D+00  3.00D+00
                    CP:  3.00D+00  1.30D+00
 E= -474.008135776375     Delta-E=       -0.000000219439 Rises=F Damp=F
 DIIS: error= 2.25D-06 at cycle  13 NSaved=  13.
 NSaved=13 IEnMin=13 EnMin= -474.008135776375     IErMin=13 ErrMin= 2.25D-06
 ErrMax= 2.25D-06  0.00D+00 EMaxC= 1.00D-01 BMatC= 7.64D-10 BMatP= 9.90D-09
 IDIUse=1 WtCom= 1.00D+00 WtEn= 0.00D+00
 Coeff-Com:  0.216D-04-0.119D-03-0.213D-03 0.109D-02 0.332D-02-0.563D-02
 Coeff-Com: -0.414D-01 0.256D-01 0.122D+00-0.781D-01-0.188D+00 0.176D+00
 Coeff-Com:  0.985D+00
 Coeff:      0.216D-04-0.119D-03-0.213D-03 0.109D-02 0.332D-02-0.563D-02
 Coeff:     -0.414D-01 0.256D-01 0.122D+00-0.781D-01-0.188D+00 0.176D+00
 Coeff:      0.985D+00
 RMSDP=1.26D-06 MaxDP=6.00D-05 DE=-2.19D-07 OVMax= 0.00D+00

 Cycle  14  Pass 1  IDiag  1:
 RMSU=  1.92D-07    CP:  9.92D-01  1.16D+00  1.05D+00  1.26D+00  1.94D+00
                    CP:  2.65D+00  3.00D+00  3.00D+00  3.00D+00  3.00D+00
                    CP:  3.00D+00  1.36D+00  1.17D+00
 E= -474.008135784762     Delta-E=       -0.000000008387 Rises=F Damp=F
 DIIS: error= 1.46D-06 at cycle  14 NSaved=  14.
 NSaved=14 IEnMin=14 EnMin= -474.008135784762     IErMin=14 ErrMin= 1.46D-06
 ErrMax= 1.46D-06  0.00D+00 EMaxC= 1.00D-01 BMatC= 1.12D-10 BMatP= 7.64D-10
 IDIUse=1 WtCom= 1.00D+00 WtEn= 0.00D+00
 Coeff-Com: -0.686D-05 0.515D-04-0.229D-04-0.635D-03-0.152D-03 0.416D-02
 Coeff-Com:  0.881D-02-0.176D-01-0.447D-01 0.881D-01 0.103D-01-0.179D+00
 Coeff-Com: -0.395D-01 0.117D+01
 Coeff:     -0.686D-05 0.515D-04-0.229D-04-0.635D-03-0.152D-03 0.416D-02
 Coeff:      0.881D-02-0.176D-01-0.447D-01 0.881D-01 0.103D-01-0.179D+00
 Coeff:     -0.395D-01 0.117D+01
 RMSDP=1.67D-07 MaxDP=1.08D-05 DE=-8.39D-09 OVMax= 0.00D+00

 Cycle  15  Pass 1  IDiag  1:
 RMSU=  1.10D-07    CP:  9.92D-01  1.16D+00  1.05D+00  1.26D+00  1.94D+00
                    CP:  2.65D+00  3.00D+00  3.00D+00  3.00D+00  3.00D+00
                    CP:  3.00D+00  1.36D+00  1.18D+00  1.55D+00
 E= -474.008135785668     Delta-E=       -0.000000000906 Rises=F Damp=F
 DIIS: error= 7.69D-07 at cycle  15 NSaved=  15.
 NSaved=15 IEnMin=15 EnMin= -474.008135785668     IErMin=15 ErrMin= 7.69D-07
 ErrMax= 7.69D-07  0.00D+00 EMaxC= 1.00D-01 BMatC= 2.27D-11 BMatP= 1.12D-10
 IDIUse=1 WtCom= 1.00D+00 WtEn= 0.00D+00
 Coeff-Com: -0.361D-05 0.199D-04 0.367D-04-0.192D-03-0.519D-03 0.931D-03
 Coeff-Com:  0.723D-02-0.366D-02-0.251D-01 0.187D-01 0.268D-01-0.258D-01
 Coeff-Com: -0.169D+00 0.442D-01 0.113D+01
 Coeff:     -0.361D-05 0.199D-04 0.367D-04-0.192D-03-0.519D-03 0.931D-03
 Coeff:      0.723D-02-0.366D-02-0.251D-01 0.187D-01 0.268D-01-0.258D-01
 Coeff:     -0.169D+00 0.442D-01 0.113D+01
 RMSDP=1.09D-07 MaxDP=5.88D-06 DE=-9.06D-10 OVMax= 0.00D+00

 Cycle  16  Pass 1  IDiag  1:
 RMSU=  3.69D-08    CP:  9.92D-01  1.16D+00  1.05D+00  1.26D+00  1.94D+00
                    CP:  2.65D+00  3.00D+00  3.00D+00  3.00D+00  3.00D+00
                    CP:  3.00D+00  1.36D+00  1.19D+00  1.83D+00  1.34D+00
 E= -474.008135785905     Delta-E=       -0.000000000237 Rises=F Damp=F
 DIIS: error= 3.93D-07 at cycle  16 NSaved=  16.
 NSaved=16 IEnMin=16 EnMin= -474.008135785905     IErMin=16 ErrMin= 3.93D-07
 ErrMax= 3.93D-07  0.00D+00 EMaxC= 1.00D-01 BMatC= 4.99D-12 BMatP= 2.27D-11
 IDIUse=1 WtCom= 1.00D+00 WtEn= 0.00D+00
 Coeff-Com:  0.243D-05-0.163D-04-0.148D-06 0.186D-03 0.109D-03-0.104D-02
 Coeff-Com: -0.349D-02 0.492D-02 0.148D-01-0.216D-01-0.113D-01 0.475D-01
 Coeff-Com:  0.424D-01-0.256D+00-0.295D+00 0.148D+01
 Coeff:      0.243D-05-0.163D-04-0.148D-06 0.186D-03 0.109D-03-0.104D-02
 Coeff:     -0.349D-02 0.492D-02 0.148D-01-0.216D-01-0.113D-01 0.475D-01
 Coeff:      0.424D-01-0.256D+00-0.295D+00 0.148D+01
 RMSDP=5.88D-08 MaxDP=4.24D-06 DE=-2.37D-10 OVMax= 0.00D+00

 Cycle  17  Pass 1  IDiag  1:
 RMSU=  1.70D-08    CP:  9.92D-01  1.16D+00  1.05D+00  1.26D+00  1.94D+00
                    CP:  2.65D+00  3.00D+00  3.00D+00  3.00D+00  3.00D+00
                    CP:  3.00D+00  1.36D+00  1.19D+00  2.00D+00  1.65D+00
                    CP:  1.86D+00
 E= -474.008135785961     Delta-E=       -0.000000000055 Rises=F Damp=F
 DIIS: error= 1.15D-07 at cycle  17 NSaved=  17.
 NSaved=17 IEnMin=17 EnMin= -474.008135785961     IErMin=17 ErrMin= 1.15D-07
 ErrMax= 1.15D-07  0.00D+00 EMaxC= 1.00D-01 BMatC= 1.17D-12 BMatP= 4.99D-12
 IDIUse=1 WtCom= 1.00D+00 WtEn= 0.00D+00
 Coeff-Com:  0.782D-06-0.442D-05-0.806D-05 0.453D-04 0.940D-04-0.190D-03
 Coeff-Com: -0.155D-02 0.832D-03 0.487D-02-0.371D-02-0.533D-02 0.603D-02
 Coeff-Com:  0.307D-01-0.177D-01-0.210D+00 0.415D-01 0.115D+01
 Coeff:      0.782D-06-0.442D-05-0.806D-05 0.453D-04 0.940D-04-0.190D-03
 Coeff:     -0.155D-02 0.832D-03 0.487D-02-0.371D-02-0.533D-02 0.603D-02
 Coeff:      0.307D-01-0.177D-01-0.210D+00 0.415D-01 0.115D+01
 RMSDP=2.75D-08 MaxDP=1.40D-06 DE=-5.55D-11 OVMax= 0.00D+00

 Cycle  18  Pass 1  IDiag  1:
 RMSU=  6.51D-09    CP:  9.92D-01  1.16D+00  1.05D+00  1.26D+00  1.94D+00
                    CP:  2.65D+00  3.00D+00  3.00D+00  3.00D+00  3.00D+00
                    CP:  3.00D+00  1.36D+00  1.20D+00  2.04D+00  1.74D+00
                    CP:  2.35D+00  1.66D+00
 E= -474.008135785987     Delta-E=       -0.000000000026 Rises=F Damp=F
 DIIS: error= 4.23D-08 at cycle  18 NSaved=  18.
 NSaved=18 IEnMin=18 EnMin= -474.008135785987     IErMin=18 ErrMin= 4.23D-08
 ErrMax= 4.23D-08  0.00D+00 EMaxC= 1.00D-01 BMatC= 3.77D-13 BMatP= 1.17D-12
 IDIUse=1 WtCom= 1.00D+00 WtEn= 0.00D+00
 Coeff-Com: -0.823D-06 0.550D-05-0.171D-06-0.589D-04-0.443D-04 0.357D-03
 Coeff-Com:  0.115D-02-0.139D-02-0.490D-02 0.675D-02 0.355D-02-0.146D-01
 Coeff-Com: -0.140D-01 0.770D-01 0.122D+00-0.425D+00-0.240D+00 0.149D+01
 Coeff:     -0.823D-06 0.550D-05-0.171D-06-0.589D-04-0.443D-04 0.357D-03
 Coeff:      0.115D-02-0.139D-02-0.490D-02 0.675D-02 0.355D-02-0.146D-01
 Coeff:     -0.140D-01 0.770D-01 0.122D+00-0.425D+00-0.240D+00 0.149D+01
 RMSDP=2.05D-08 MaxDP=9.78D-07 DE=-2.64D-11 OVMax= 0.00D+00

 Cycle  19  Pass 1  IDiag  1:
 RMSU=  3.79D-09    CP:  9.92D-01  1.16D+00  1.05D+00  1.26D+00  1.94D+00
                    CP:  2.65D+00  3.00D+00  3.00D+00  3.00D+00  3.00D+00
                    CP:  3.00D+00  1.36D+00  1.20D+00  2.06D+00  1.80D+00
                    CP:  2.67D+00  2.40D+00  2.10D+00
 E= -474.008135785999     Delta-E=       -0.000000000012 Rises=F Damp=F
 DIIS: error= 2.62D-08 at cycle  19 NSaved=  19.
 NSaved=19 IEnMin=19 EnMin= -474.008135785999     IErMin=19 ErrMin= 2.62D-08
 ErrMax= 2.62D-08  0.00D+00 EMaxC= 1.00D-01 BMatC= 1.23D-13 BMatP= 3.77D-13
 IDIUse=1 WtCom= 1.00D+00 WtEn= 0.00D+00
 Coeff-Com: -0.132D-06 0.730D-06 0.233D-05-0.696D-05-0.215D-04 0.222D-04
 Coeff-Com:  0.265D-03-0.401D-04-0.942D-03 0.512D-03 0.877D-03 0.246D-03
 Coeff-Com: -0.679D-02-0.985D-02 0.480D-01 0.573D-01-0.401D+00-0.301D-01
 Coeff-Com:  0.134D+01
 Coeff:     -0.132D-06 0.730D-06 0.233D-05-0.696D-05-0.215D-04 0.222D-04
 Coeff:      0.265D-03-0.401D-04-0.942D-03 0.512D-03 0.877D-03 0.246D-03
 Coeff:     -0.679D-02-0.985D-02 0.480D-01 0.573D-01-0.401D+00-0.301D-01
 Coeff:      0.134D+01
 RMSDP=1.30D-08 MaxDP=6.31D-07 DE=-1.18D-11 OVMax= 0.00D+00

 Cycle  20  Pass 1  IDiag  1:
 RMSU=  1.84D-09    CP:  9.92D-01  1.16D+00  1.05D+00  1.26D+00  1.94D+00
                    CP:  2.65D+00  3.00D+00  3.00D+00  3.00D+00  3.00D+00
                    CP:  3.00D+00  1.36D+00  1.20D+00  2.07D+00  1.83D+00
                    CP:  2.87D+00  2.84D+00  3.00D+00  1.82D+00
 E= -474.008135785990     Delta-E=        0.000000000009 Rises=F Damp=F
 DIIS: error= 2.15D-08 at cycle  20 NSaved=  20.
 NSaved=20 IEnMin=19 EnMin= -474.008135785999     IErMin=20 ErrMin= 2.15D-08
 ErrMax= 2.15D-08  0.00D+00 EMaxC= 1.00D-01 BMatC= 3.34D-14 BMatP= 1.23D-13
 IDIUse=1 WtCom= 1.00D+00 WtEn= 0.00D+00
 Coeff-Com:  0.276D-06-0.180D-05-0.127D-06 0.187D-04 0.184D-04-0.115D-03
 Coeff-Com: -0.392D-03 0.504D-03 0.153D-02-0.201D-02-0.147D-02 0.474D-02
 Coeff-Com:  0.575D-02-0.241D-01-0.417D-01 0.141D+00 0.604D-01-0.374D+00
 Coeff-Com: -0.279D+00 0.151D+01
 Coeff:      0.276D-06-0.180D-05-0.127D-06 0.187D-04 0.184D-04-0.115D-03
 Coeff:     -0.392D-03 0.504D-03 0.153D-02-0.201D-02-0.147D-02 0.474D-02
 Coeff:      0.575D-02-0.241D-01-0.417D-01 0.141D+00 0.604D-01-0.374D+00
 Coeff:     -0.279D+00 0.151D+01
 RMSDP=7.89D-09 MaxDP=3.46D-07 DE= 9.09D-12 OVMax= 0.00D+00

 SCF Done:  E(RZINDO/S) =  -474.008135786     A.U. after   20 cycles
            NFock= 20  Conv=0.79D-08     -V/T= 0.9489
 KE=-9.279283497881D+03 PE= 5.912152118981D-07 EE= 4.502709744542D+03
 Leave Link  502 at Wed May  4 12:30:52 2022, MaxMem=  6710886400 cpu:              22.7 elap:               1.0
 (Enter /sw/apps/gaussian-16.0/g16/l801.exe)
 Range of M.O.s used for correlation:     1   338
 NBasis=   338 NAE=   176 NBE=   176 NFC=     0 NFV=     0
 NROrb=    338 NOA=   176 NOB=   176 NVA=   162 NVB=   162
 Leave Link  801 at Wed May  4 12:30:52 2022, MaxMem=  6710886400 cpu:               0.5 elap:               0.0
 (Enter /sw/apps/gaussian-16.0/g16/l914.exe)
 RHF ground state
 Two-electron integral symmetry not used.
 MDV=  6710886400 DFT=F DoStab=F Mixed=F DoRPA=F DoScal=F NonHer=F
 Making orbital integer symmetry assigments:
 Orbital symmetries:
       Occupied  (A) (A) (A) (A) (A) (A) (A) (A) (A) (A) (A) (A)
                 (A) (A) (A) (A) (A) (A) (A) (A) (A) (A) (A) (A)
                 (A) (A) (A) (A) (A) (A) (A) (A) (A) (A) (A) (A)
                 (A) (A) (A) (A) (A) (A) (A) (A) (A) (A) (A) (A)
                 (A) (A) (A) (A) (A) (A) (A) (A) (A) (A) (A) (A)
                 (A) (A) (A) (A) (A) (A) (A) (A) (A) (A) (A) (A)
                 (A) (A) (A) (A) (A) (A) (A) (A) (A) (A) (A) (A)
                 (A) (A) (A) (A) (A) (A) (A) (A) (A) (A) (A) (A)
                 (A) (A) (A) (A) (A) (A) (A) (A) (A) (A) (A) (A)
                 (A) (A) (A) (A) (A) (A) (A) (A) (A) (A) (A) (A)
                 (A) (A) (A) (A) (A) (A) (A) (A) (A) (A) (A) (A)
                 (A) (A) (A) (A) (A) (A) (A) (A) (A) (A) (A) (A)
                 (A) (A) (A) (A) (A) (A) (A) (A) (A) (A) (A) (A)
                 (A) (A) (A) (A) (A) (A) (A) (A) (A) (A) (A) (A)
                 (A) (A) (A) (A) (A) (A) (A) (A)
       Virtual   (A) (A) (A) (A) (A) (A) (A) (A) (A) (A) (A) (A)
                 (A) (A) (A) (A) (A) (A) (A) (A) (A) (A) (A) (A)
                 (A) (A) (A) (A) (A) (A) (A) (A) (A) (A) (A) (A)
                 (A) (A) (A) (A) (A) (A) (A) (A) (A) (A) (A) (A)
                 (A) (A) (A) (A) (A) (A) (A) (A) (A) (A) (A) (A)
                 (A) (A) (A) (A) (A) (A) (A) (A) (A) (A) (A) (A)
                 (A) (A) (A) (A) (A) (A) (A) (A) (A) (A) (A) (A)
                 (A) (A) (A) (A) (A) (A) (A) (A) (A) (A) (A) (A)
                 (A) (A) (A) (A) (A) (A) (A) (A) (A) (A) (A) (A)
                 (A) (A) (A) (A) (A) (A) (A) (A) (A) (A) (A) (A)
                 (A) (A) (A) (A) (A) (A) (A) (A) (A) (A) (A) (A)
                 (A) (A) (A) (A) (A) (A) (A) (A) (A) (A) (A) (A)
                 (A) (A) (A) (A) (A) (A) (A) (A) (A) (A) (A) (A)
                 (A) (A) (A) (A) (A) (A)
    20 initial guesses have been made.
 Convergence on wavefunction:    0.001000000000000
 Davidson Disk Diagonalization:  ConvIn= 1.00D-03 SkipCon=T Conv= 1.00D-03.
 Max sub-space:  2000 roots to seek:    20 dimension of matrix:        57024
 Iteration     1 Dimension    20 NMult     0 NNew     20
 CISAX will form    20 AO SS matrices at one time.
 NMat=    20 NSing=    20 JSym2X= 0.
 New state      3 was old state      4
 New state      4 was old state      7
 New state      5 was old state      3
 Excitation Energies [eV] at current iteration:
 Root      1 :     1.593387771159710
 Root      2 :     2.125531234235924
 Root      3 :     3.160584369581879
 Root      4 :     3.336592013212916
 Root      5 :     3.434457583088443
 Root      6 :     3.632053401749678
 Root      7 :     3.691309878641270
 Root      8 :     3.750478849901453
 Root      9 :     3.855408341347862
 Root     10 :     3.957794125753457
 Root     11 :     4.144875615361933
 Root     12 :     4.165185580044073
 Root     13 :     4.183884466181818
 Root     14 :     4.282027040876318
 Root     15 :     4.429634224085765
 Root     16 :     4.482844582674051
 Root     17 :     4.493105409175365
 Root     18 :     4.598127779203891
 Root     19 :     4.839145571967526
 Root     20 :     5.490844544098366
 Iteration     2 Dimension    40 NMult    20 NNew     20
 CISAX will form    20 AO SS matrices at one time.
 NMat=    20 NSing=    20 JSym2X= 0.
 Root      1 not converged, maximum delta is    0.044970676975615
 Root      2 not converged, maximum delta is    0.031401316259196
 Root      3 not converged, maximum delta is    0.172971681134677
 New state      4 was old state      5
 Root      4 not converged, maximum delta is    0.262936849271662
 New state      5 was old state      4
 Root      5 not converged, maximum delta is    0.263249482555667
 Excitation Energies [eV] at current iteration:
 Root      1 :     1.230222491586617   Change is   -0.363165279573093
 Root      2 :     1.929932530882672   Change is   -0.195598703353252
 Root      3 :     2.872077322868730   Change is   -0.288507046713149
 Root      4 :     3.120539203170398   Change is   -0.313918379918045
 Root      5 :     3.147092988503403   Change is   -0.189499024709513
 Root      6 :     3.415470986032390   Change is   -0.216582415717287
 Root      7 :     3.433387764906103   Change is   -0.257922113735168
 Root      8 :     3.461433249167924   Change is   -1.021411333506127
 Root      9 :     3.567622983273021   Change is   -0.287785358074841
 Root     10 :     3.645246132206743   Change is   -0.312547993546714
 Root     11 :     3.738427832754958   Change is   -0.012051017146495
 Root     12 :     3.784723341838983   Change is   -0.360152273522950
 Root     13 :     4.009754764401524   Change is   -0.588373014802367
 Root     14 :     4.032252345372928   Change is   -0.249774695503389
 Root     15 :     4.084703288411156   Change is   -0.080482291632918
 Root     16 :     4.092407332396457   Change is   -0.091477133785361
 Root     17 :     4.140547482766645   Change is   -0.289086741319120
 Root     18 :     4.217157956906163   Change is   -0.275947452269202
 Root     19 :     4.828155193431384   Change is   -0.010990378536143
 Root     20 :     5.466309631186540   Change is   -0.024534912911826
 Iteration     3 Dimension    45 NMult    40 NNew      5
 CISAX will form     5 AO SS matrices at one time.
 NMat=     5 NSing=     5 JSym2X= 0.
 Root      1 not converged, maximum delta is    0.012972289018768
 Root      2 not converged, maximum delta is    0.021051080760846
 Root      3 not converged, maximum delta is    0.015934064091648
 Root      4 not converged, maximum delta is    0.046687397082342
 Root      5 not converged, maximum delta is    0.037690287931382
 Excitation Energies [eV] at current iteration:
 Root      1 :     1.213194898538489   Change is   -0.017027593048128
 Root      2 :     1.903195328120152   Change is   -0.026737202762520
 Root      3 :     2.847806994418827   Change is   -0.024270328449903
 Root      4 :     3.087627501036752   Change is   -0.032911702133646
 Root      5 :     3.118188519602147   Change is   -0.028904468901257
 Iteration     4 Dimension    50 NMult    45 NNew      5
 CISAX will form     5 AO SS matrices at one time.
 NMat=     5 NSing=     5 JSym2X= 0.
 Root      1 not converged, maximum delta is    0.001803523881195
 Root      2 not converged, maximum delta is    0.002740883789226
 Root      3 not converged, maximum delta is    0.005279142031439
 Root      4 not converged, maximum delta is    0.028127946087063
 Root      5 not converged, maximum delta is    0.010029952440606
 Excitation Energies [eV] at current iteration:
 Root      1 :     1.212386004868706   Change is   -0.000808893669784
 Root      2 :     1.902510152500471   Change is   -0.000685175619681
 Root      3 :     2.845701739510604   Change is   -0.002105254908223
 Root      4 :     3.081554109377320   Change is   -0.006073391659432
 Root      5 :     3.116161785253859   Change is   -0.002026734348287
 Iteration     5 Dimension    55 NMult    50 NNew      5
 CISAX will form     5 AO SS matrices at one time.
 NMat=     5 NSing=     5 JSym2X= 0.
 Root      1 has converged.
 Root      2 has converged.
 Root      3 not converged, maximum delta is    0.002312316912513
 Root      4 not converged, maximum delta is    0.275913542364337
 Root      5 not converged, maximum delta is    0.545568488253295
 Excitation Energies [eV] at current iteration:
 Root      1 :     1.212337133431628   Change is   -0.000048871437078
 Root      2 :     1.902472136310351   Change is   -0.000038016190120
 Root      3 :     2.845398601833906   Change is   -0.000303137676698
 Root      4 :     3.041070478699233   Change is   -0.040483630678087
 Root      5 :     3.101078640936184   Change is   -0.015083144317675
 Iteration     6 Dimension    58 NMult    55 NNew      3
 CISAX will form     3 AO SS matrices at one time.
 NMat=     3 NSing=     3 JSym2X= 0.
 Root      1 has converged.
 Root      2 has converged.
 Root      3 has converged.
 Root      4 not converged, maximum delta is    0.214148495536880
 Root      5 not converged, maximum delta is    0.167004019191598
 Excitation Energies [eV] at current iteration:
 Root      1 :     1.212337035408726   Change is   -0.000000098022902
 Root      2 :     1.902471726174081   Change is   -0.000000410136269
 Root      3 :     2.845342224189904   Change is   -0.000056377644002
 Root      4 :     2.917237783964015   Change is   -0.123832694735218
 Root      5 :     3.086167294589894   Change is   -0.014911346346290
 Iteration     7 Dimension    60 NMult    58 NNew      2
 CISAX will form     2 AO SS matrices at one time.
 NMat=     2 NSing=     2 JSym2X= 0.
 Root      1 has converged.
 Root      2 has converged.
 Root      3 has converged.
 Root      4 not converged, maximum delta is    0.012682568199020
 Root      5 not converged, maximum delta is    0.006235568893473
 Excitation Energies [eV] at current iteration:
 Root      1 :     1.212337006067653   Change is   -0.000000029341073
 Root      2 :     1.902471725182113   Change is   -0.000000000991969
 Root      3 :     2.845342020667905   Change is   -0.000000203521999
 Root      4 :     2.901169115020880   Change is   -0.016068668943135
 Root      5 :     3.085623063078333   Change is   -0.000544231511562
 Iteration     8 Dimension    62 NMult    60 NNew      2
 CISAX will form     2 AO SS matrices at one time.
 NMat=     2 NSing=     2 JSym2X= 0.
 Root      1 has converged.
 Root      2 has converged.
 Root      3 has converged.
 Root      4 not converged, maximum delta is    0.014297611759888
 Root      5 not converged, maximum delta is    0.001624581415963
 Excitation Energies [eV] at current iteration:
 Root      1 :     1.212336928960988   Change is   -0.000000077106665
 Root      2 :     1.902471622208733   Change is   -0.000000102973379
 Root      3 :     2.845340127682209   Change is   -0.000001892985697
 Root      4 :     2.898159157375635   Change is   -0.003009957645246
 Root      5 :     3.085546697294908   Change is   -0.000076365783425
 Iteration     9 Dimension    64 NMult    62 NNew      2
 CISAX will form     2 AO SS matrices at one time.
 NMat=     2 NSing=     2 JSym2X= 0.
 Root      1 has converged.
 Root      2 has converged.
 Root      3 not converged, maximum delta is    0.001111694358283
 Root      4 not converged, maximum delta is    0.027636109737825
 Root      5 not converged, maximum delta is    0.008320426371874
 Excitation Energies [eV] at current iteration:
 Root      1 :     1.212336877809030   Change is   -0.000000051151958
 Root      2 :     1.902471352053638   Change is   -0.000000270155095
 Root      3 :     2.845330926830796   Change is   -0.000009200851413
 Root      4 :     2.895882572586860   Change is   -0.002276584788775
 Root      5 :     3.085483690840453   Change is   -0.000063006454455
 Iteration    10 Dimension    67 NMult    64 NNew      3
 CISAX will form     3 AO SS matrices at one time.
 NMat=     3 NSing=     3 JSym2X= 0.
 Root      1 has converged.
 Root      2 has converged.
 Root      3 not converged, maximum delta is    0.001163444507267
 Root      4 not converged, maximum delta is    0.022637286438156
 Root      5 not converged, maximum delta is    0.388917852433409
 Excitation Energies [eV] at current iteration:
 Root      1 :     1.212336766720753   Change is   -0.000000111088277
 Root      2 :     1.902470969614792   Change is   -0.000000382438846
 Root      3 :     2.845307224755892   Change is   -0.000023702074904
 Root      4 :     2.894527360541342   Change is   -0.001355212045518
 Root      5 :     3.078228162635988   Change is   -0.007255528204465
 Iteration    11 Dimension    70 NMult    67 NNew      3
 CISAX will form     3 AO SS matrices at one time.
 NMat=     3 NSing=     3 JSym2X= 0.
 Root      1 has converged.
 Root      2 has converged.
 Root      3 has converged.
 Root      4 not converged, maximum delta is    0.005471164712404
 Root      5 not converged, maximum delta is    0.118146811522017
 Excitation Energies [eV] at current iteration:
 Root      1 :     1.212336693120277   Change is   -0.000000073600476
 Root      2 :     1.902470596803886   Change is   -0.000000372810906
 Root      3 :     2.845300767360037   Change is   -0.000006457395855
 Root      4 :     2.894243281177290   Change is   -0.000284079364052
 Root      5 :     3.057956731005285   Change is   -0.020271431630703
 Iteration    12 Dimension    72 NMult    70 NNew      2
 CISAX will form     2 AO SS matrices at one time.
 NMat=     2 NSing=     2 JSym2X= 0.
 Root      1 has converged.
 Root      2 has converged.
 Root      3 has converged.
 Root      4 has converged.
 Root      5 not converged, maximum delta is    0.007883651980570
 Excitation Energies [eV] at current iteration:
 Root      1 :     1.212336679299706   Change is   -0.000000013820570
 Root      2 :     1.902470461081062   Change is   -0.000000135722824
 Root      3 :     2.845299987211225   Change is   -0.000000780148812
 Root      4 :     2.894204191155630   Change is   -0.000039090021660
 Root      5 :     3.054513865143902   Change is   -0.003442865861383
 Iteration    13 Dimension    73 NMult    72 NNew      1
 CISAX will form     1 AO SS matrices at one time.
 NMat=     1 NSing=     1 JSym2X= 0.
 Root      1 has converged.
 Root      2 has converged.
 Root      3 has converged.
 Root      4 has converged.
 Root      5 not converged, maximum delta is    0.001856935208656
 Excitation Energies [eV] at current iteration:
 Root      1 :     1.212336674434725   Change is   -0.000000004864981
 Root      2 :     1.902470446478935   Change is   -0.000000014602127
 Root      3 :     2.845299987183969   Change is   -0.000000000027256
 Root      4 :     2.894200811972278   Change is   -0.000003379183352
 Root      5 :     3.054100232408912   Change is   -0.000413632734990
 Iteration    14 Dimension    74 NMult    73 NNew      1
 CISAX will form     1 AO SS matrices at one time.
 NMat=     1 NSing=     1 JSym2X= 0.
 Root      1 has converged.
 Root      2 has converged.
 Root      3 has converged.
 Root      4 has converged.
 Root      5 has converged.
 Excitation Energies [eV] at current iteration:
 Root      1 :     1.212336673200721   Change is   -0.000000001234005
 Root      2 :     1.902470438356780   Change is   -0.000000008122154
 Root      3 :     2.845299986465057   Change is   -0.000000000718912
 Root      4 :     2.894200481690004   Change is   -0.000000330282273
 Root      5 :     3.054047128035907   Change is   -0.000053104373005
 Convergence achieved on expansion vectors.
 ***********************************************************************
 Excited states from <AA,BB:AA,BB> singles matrix:
 ***********************************************************************
 
 1PDM for each excited state written to RWF  633
 Ground to excited state transition densities written to RWF  633
 Ground to excited state transition electric dipole moments (Au):
       state          X           Y           Z        Dip. S.      Osc.
         1        -3.4554      2.8714     -0.5020     20.4368      0.6070
         2         0.6137      0.6980      0.0819      0.8706      0.0406
         3         1.5128      2.2076     -0.2653      7.2325      0.5042
         4        -0.0408     -0.2025      0.0176      0.0430      0.0030
         5        -0.2048     -0.3545     -0.0258      0.1683      0.0126
 Ground to excited state transition velocity dipole moments (Au):
       state          X           Y           Z        Dip. S.      Osc.
         1        -0.0765      0.0221      0.0043      0.0064      0.0952
         2        -0.0018     -0.0124     -0.0059      0.0002      0.0018
         3        -0.0390     -0.0582     -0.0007      0.0049      0.0312
         4        -0.0026      0.0032      0.0031      0.0000      0.0002
         5         0.0081      0.0084      0.0074      0.0002      0.0011
 Ground to excited state transition magnetic dipole moments (Au):
       state          X           Y           Z
         1        -0.0296     -0.0863      0.1906
         2        -0.0031      0.0510     -0.3505
         3         0.0659     -0.0056     -0.1525
         4         0.3321     -0.7211     -0.0701
         5        -0.5431     -0.5213      0.0832
 Ground to excited state transition velocity quadrupole moments (Au):
       state          XX          YY          ZZ          XY          XZ          YZ
         1        -1.5447      0.0467      0.0024      0.1861     -0.0000      0.1744
         2        -0.0948     -0.0081      0.0059     -0.0918     -0.0392     -0.0073
         3        -0.1890     -0.2848      0.0504     -0.2208     -0.1122      0.0860
         4        -0.0762      0.0130      0.0105      0.0931      0.0399     -0.0336
         5         0.1496     -0.0357     -0.0448      0.1832      0.0370      0.0974
 <0|del|b> * <b|rxdel|0> + <0|del|b> * <b|delr+rdel|0>
 Rotatory Strengths (R) in cgs (10**-40 erg-esu-cm/Gauss)
       state          XX          YY          ZZ    R(velocity)    E-M Angle
         1        -2.1840    -87.7609    108.7861      6.2804       85.96
         2         7.5114      7.7856     -0.7741      4.8409       72.93
         3       -20.1365    -20.1634     25.8170     -4.8276      100.60
         4        -7.7488     -4.2606    -10.3298     -7.4464      145.46
         5        -8.5367    -13.6554    -29.0678    -17.0867      141.14
 1/2[<0|r|b>*<b|rxdel|0> + (<0|rxdel|b>*<b|r|0>)*]
 Rotatory Strengths (R) in cgs (10**-40 erg-esu-cm/Gauss)
       state          XX          YY          ZZ     R(length)
         1       -72.4070    175.2103     67.6752     56.8262
         2         1.3431    -25.1797     20.2963     -1.1801
         3       -70.4698      8.7044    -28.6084    -30.1246
         4         9.5791   -103.2657      0.8751    -30.9372
         5       -78.6383   -130.6883      1.5199    -69.2689
  1/2[<0|del|b>*<b|r|0> + (<0|r|b>*<b|del|0>)*] (Au)
       state          X           Y           Z        Dip. S.   Osc.(frdel)
         1         0.2644      0.0634     -0.0022     -0.3257     -0.2171
         2        -0.0011     -0.0086     -0.0005      0.0102      0.0068
         3        -0.0590     -0.1284      0.0002      0.1872      0.1248
         4         0.0001     -0.0006      0.0001      0.0005      0.0003
         5        -0.0017     -0.0030     -0.0002      0.0048      0.0032

 Excitation energies and oscillator strengths:
 
 Excited State   1:      Singlet-A      1.2123 eV 1022.69 nm  f=0.6070  <S**2>=0.000
     175 ->178         0.18790
     176 ->177         0.66173
 This state for optimization and/or second-order correction.
 Total Energy, E(CIS/TDA) =  -473.963583233    
 Copying the excited state density for this state as the 1-particle RhoCI density.
 
 Excited State   2:      Singlet-A      1.9025 eV  651.70 nm  f=0.0406  <S**2>=0.000
     175 ->177         0.53626
     176 ->178        -0.42572
     176 ->179         0.10557
 
 Excited State   3:      Singlet-A      2.8453 eV  435.75 nm  f=0.5042  <S**2>=0.000
     175 ->177         0.30269
     176 ->178         0.47815
     176 ->179         0.37297
 
 Excited State   4:      Singlet-A      2.8942 eV  428.39 nm  f=0.0030  <S**2>=0.000
     168 ->177         0.36368
     168 ->178        -0.21354
     168 ->179        -0.40079
     168 ->181         0.21420
     168 ->182        -0.10276
     168 ->186        -0.18794
     168 ->196         0.13291
 
 Excited State   5:      Singlet-A      3.0540 eV  405.97 nm  f=0.0126  <S**2>=0.000
     169 ->177         0.24850
     169 ->179         0.28659
     169 ->181         0.41255
     169 ->186         0.18297
     169 ->187         0.17657
     169 ->188        -0.12954
     170 ->181        -0.11896
 SavETr:  write IOETrn=   770 NScale= 10 NData=  16 NLR=1 NState=    5 LETran=     100.
 Leave Link  914 at Wed May  4 12:30:57 2022, MaxMem=  6710886400 cpu:             118.7 elap:               5.0
 (Enter /sw/apps/gaussian-16.0/g16/l601.exe)
 Copying SCF densities to generalized density rwf, IOpCl= 0 IROHF=0.

 **********************************************************************

            Population analysis using the SCF density.

 **********************************************************************

 Orbital symmetries:
       Occupied  (A) (A) (A) (A) (A) (A) (A) (A) (A) (A) (A) (A)
                 (A) (A) (A) (A) (A) (A) (A) (A) (A) (A) (A) (A)
                 (A) (A) (A) (A) (A) (A) (A) (A) (A) (A) (A) (A)
                 (A) (A) (A) (A) (A) (A) (A) (A) (A) (A) (A) (A)
                 (A) (A) (A) (A) (A) (A) (A) (A) (A) (A) (A) (A)
                 (A) (A) (A) (A) (A) (A) (A) (A) (A) (A) (A) (A)
                 (A) (A) (A) (A) (A) (A) (A) (A) (A) (A) (A) (A)
                 (A) (A) (A) (A) (A) (A) (A) (A) (A) (A) (A) (A)
                 (A) (A) (A) (A) (A) (A) (A) (A) (A) (A) (A) (A)
                 (A) (A) (A) (A) (A) (A) (A) (A) (A) (A) (A) (A)
                 (A) (A) (A) (A) (A) (A) (A) (A) (A) (A) (A) (A)
                 (A) (A) (A) (A) (A) (A) (A) (A) (A) (A) (A) (A)
                 (A) (A) (A) (A) (A) (A) (A) (A) (A) (A) (A) (A)
                 (A) (A) (A) (A) (A) (A) (A) (A) (A) (A) (A) (A)
                 (A) (A) (A) (A) (A) (A) (A) (A)
       Virtual   (A) (A) (A) (A) (A) (A) (A) (A) (A) (A) (A) (A)
                 (A) (A) (A) (A) (A) (A) (A) (A) (A) (A) (A) (A)
                 (A) (A) (A) (A) (A) (A) (A) (A) (A) (A) (A) (A)
                 (A) (A) (A) (A) (A) (A) (A) (A) (A) (A) (A) (A)
                 (A) (A) (A) (A) (A) (A) (A) (A) (A) (A) (A) (A)
                 (A) (A) (A) (A) (A) (A) (A) (A) (A) (A) (A) (A)
                 (A) (A) (A) (A) (A) (A) (A) (A) (A) (A) (A) (A)
                 (A) (A) (A) (A) (A) (A) (A) (A) (A) (A) (A) (A)
                 (A) (A) (A) (A) (A) (A) (A) (A) (A) (A) (A) (A)
                 (A) (A) (A) (A) (A) (A) (A) (A) (A) (A) (A) (A)
                 (A) (A) (A) (A) (A) (A) (A) (A) (A) (A) (A) (A)
                 (A) (A) (A) (A) (A) (A) (A) (A) (A) (A) (A) (A)
                 (A) (A) (A) (A) (A) (A) (A) (A) (A) (A) (A) (A)
                 (A) (A) (A) (A) (A) (A)
 The electronic state is 1-A.
 Alpha  occ. eigenvalues --   -1.83280  -1.81491  -1.77494  -1.71415  -1.69699
 Alpha  occ. eigenvalues --   -1.68358  -1.65631  -1.61752  -1.58765  -1.56307
 Alpha  occ. eigenvalues --   -1.55560  -1.52190  -1.49110  -1.48056  -1.45042
 Alpha  occ. eigenvalues --   -1.43963  -1.43313  -1.40798  -1.39994  -1.38201
 Alpha  occ. eigenvalues --   -1.35843  -1.33832  -1.32457  -1.30602  -1.29492
 Alpha  occ. eigenvalues --   -1.27249  -1.25129  -1.21806  -1.20370  -1.18693
 Alpha  occ. eigenvalues --   -1.16803  -1.15709  -1.15090  -1.14393  -1.12630
 Alpha  occ. eigenvalues --   -1.12525  -1.09515  -1.09124  -1.03905  -1.03349
 Alpha  occ. eigenvalues --   -1.02857  -1.01034  -0.99809  -0.97749  -0.96874
 Alpha  occ. eigenvalues --   -0.94712  -0.94208  -0.93810  -0.93105  -0.92343
 Alpha  occ. eigenvalues --   -0.91397  -0.90683  -0.89186  -0.88377  -0.86238
 Alpha  occ. eigenvalues --   -0.85627  -0.85132  -0.83436  -0.82599  -0.80230
 Alpha  occ. eigenvalues --   -0.79227  -0.79007  -0.78107  -0.76564  -0.75928
 Alpha  occ. eigenvalues --   -0.75539  -0.74633  -0.73826  -0.73189  -0.72592
 Alpha  occ. eigenvalues --   -0.72341  -0.71934  -0.71579  -0.71303  -0.70865
 Alpha  occ. eigenvalues --   -0.70176  -0.69567  -0.69525  -0.68861  -0.67995
 Alpha  occ. eigenvalues --   -0.67339  -0.66918  -0.66680  -0.66151  -0.65493
 Alpha  occ. eigenvalues --   -0.65394  -0.64872  -0.64304  -0.63999  -0.63548
 Alpha  occ. eigenvalues --   -0.63360  -0.63100  -0.62863  -0.62185  -0.61601
 Alpha  occ. eigenvalues --   -0.61246  -0.61135  -0.60790  -0.60325  -0.60185
 Alpha  occ. eigenvalues --   -0.59365  -0.59026  -0.58574  -0.58393  -0.57955
 Alpha  occ. eigenvalues --   -0.57699  -0.57514  -0.57118  -0.56902  -0.56631
 Alpha  occ. eigenvalues --   -0.56547  -0.56429  -0.55945  -0.55262  -0.54922
 Alpha  occ. eigenvalues --   -0.54594  -0.53903  -0.53654  -0.53203  -0.52924
 Alpha  occ. eigenvalues --   -0.52736  -0.52639  -0.52231  -0.51539  -0.51373
 Alpha  occ. eigenvalues --   -0.51157  -0.50901  -0.50573  -0.50421  -0.50009
 Alpha  occ. eigenvalues --   -0.49894  -0.49604  -0.49508  -0.49169  -0.49038
 Alpha  occ. eigenvalues --   -0.48786  -0.48707  -0.48389  -0.48190  -0.47957
 Alpha  occ. eigenvalues --   -0.47830  -0.47533  -0.47204  -0.46769  -0.46660
 Alpha  occ. eigenvalues --   -0.46319  -0.46195  -0.45618  -0.45511  -0.45059
 Alpha  occ. eigenvalues --   -0.44683  -0.44339  -0.44251  -0.44082  -0.44059
 Alpha  occ. eigenvalues --   -0.43832  -0.43427  -0.43310  -0.42989  -0.42255
 Alpha  occ. eigenvalues --   -0.42186  -0.41285  -0.40230  -0.39876  -0.38998
 Alpha  occ. eigenvalues --   -0.37972  -0.36976  -0.35590  -0.34735  -0.34320
 Alpha  occ. eigenvalues --   -0.33445  -0.32238  -0.31869  -0.31493  -0.26549
 Alpha  occ. eigenvalues --   -0.21541
 Alpha virt. eigenvalues --   -0.08571  -0.02187  -0.00542   0.00858   0.01357
 Alpha virt. eigenvalues --    0.02495   0.03047   0.03662   0.04346   0.04453
 Alpha virt. eigenvalues --    0.06316   0.06728   0.07258   0.07275   0.07568
 Alpha virt. eigenvalues --    0.07928   0.08377   0.08947   0.09447   0.09571
 Alpha virt. eigenvalues --    0.09732   0.09800   0.10250   0.10414   0.10551
 Alpha virt. eigenvalues --    0.10935   0.11308   0.11672   0.11801   0.12401
 Alpha virt. eigenvalues --    0.12725   0.13103   0.13188   0.13287   0.13384
 Alpha virt. eigenvalues --    0.13541   0.13771   0.14019   0.14430   0.14919
 Alpha virt. eigenvalues --    0.15041   0.15363   0.15465   0.15516   0.15572
 Alpha virt. eigenvalues --    0.15708   0.16058   0.16324   0.16681   0.16781
 Alpha virt. eigenvalues --    0.17118   0.17466   0.17774   0.17891   0.18018
 Alpha virt. eigenvalues --    0.18210   0.18414   0.18889   0.19042   0.19567
 Alpha virt. eigenvalues --    0.19579   0.19858   0.19922   0.21046   0.21102
 Alpha virt. eigenvalues --    0.21390   0.21917   0.22961   0.23402   0.23489
 Alpha virt. eigenvalues --    0.23849   0.23892   0.23962   0.24026   0.24049
 Alpha virt. eigenvalues --    0.24287   0.24341   0.24426   0.24436   0.24553
 Alpha virt. eigenvalues --    0.24815   0.24826   0.24866   0.24960   0.25088
 Alpha virt. eigenvalues --    0.25247   0.25309   0.25367   0.25407   0.25481
 Alpha virt. eigenvalues --    0.25558   0.25610   0.25689   0.25741   0.25865
 Alpha virt. eigenvalues --    0.25952   0.25997   0.26100   0.26101   0.26133
 Alpha virt. eigenvalues --    0.26240   0.26361   0.26475   0.26591   0.26644
 Alpha virt. eigenvalues --    0.26734   0.26796   0.26845   0.26927   0.27102
 Alpha virt. eigenvalues --    0.27129   0.27389   0.27420   0.27800   0.28179
 Alpha virt. eigenvalues --    0.28321   0.28361   0.28578   0.28722   0.29230
 Alpha virt. eigenvalues --    0.30204   0.30279   0.30731   0.30783   0.31411
 Alpha virt. eigenvalues --    0.31567   0.31639   0.32602   0.34025   0.34531
 Alpha virt. eigenvalues --    0.34893   0.34984   0.35273   0.35749   0.36096
 Alpha virt. eigenvalues --    0.36684   0.36904   0.37208   0.37887   0.38433
 Alpha virt. eigenvalues --    0.38648   0.39189   0.40108   0.40626   0.40894
 Alpha virt. eigenvalues --    0.40995   0.41384   0.41821   0.41967   0.42223
 Alpha virt. eigenvalues --    0.43329   0.44215   0.44827   0.45651   0.45997
 Alpha virt. eigenvalues --    0.46876   0.47623   0.47896   0.50388   0.52931
 Alpha virt. eigenvalues --    0.54156   0.55727
          Condensed to atoms (all electrons):
 Mulliken charges:
               1
     1  Mg   0.414903
     2  C   -0.055107
     3  C   -0.084275
     4  C   -0.047873
     5  C   -0.072007
     6  N   -0.268776
     7  C    0.105377
     8  C    0.006924
     9  C    0.016556
    10  C    0.137869
    11  C   -0.051912
    12  C   -0.020553
    13  C    0.005682
    14  C    0.462090
    15  O   -0.494524
    16  O   -0.278423
    17  N   -0.330207
    18  C    0.080786
    19  C    0.003883
    20  C   -0.082602
    21  C    0.133683
    22  C   -0.045309
    23  C    0.337617
    24  O   -0.530820
    25  C   -0.024785
    26  N   -0.261600
    27  C    0.129140
    28  C   -0.000629
    29  C   -0.008678
    30  C    0.150650
    31  C   -0.050370
    32  C   -0.035508
    33  C   -0.056717
    34  N   -0.320943
    35  C    0.084899
    36  C    0.055908
    37  C   -0.041829
    38  C    0.121409
    39  C   -0.037478
    40  C    0.334803
    41  O   -0.522562
    42  C    0.061561
    43  C    0.488157
    44  O   -0.502566
    45  O   -0.277537
    46  C    0.072545
    47  C    0.109355
    48  C   -0.097950
    49  C   -0.010141
    50  C   -0.042063
    51  C   -0.019744
    52  C   -0.028185
    53  C   -0.030536
    54  C   -0.013044
    55  C   -0.062736
    56  C   -0.033635
    57  C   -0.040548
    58  C   -0.038374
    59  C   -0.018754
    60  C   -0.066779
    61  C   -0.036133
    62  C   -0.046951
    63  C   -0.031268
    64  C   -0.008979
    65  C   -0.065583
    66  C   -0.057584
    67  H    0.030800
    68  H    0.041339
    69  H    0.037829
    70  H    0.043698
    71  H    0.031451
    72  H    0.025794
    73  H    0.011499
    74  H    0.028711
    75  H    0.016058
    76  H    0.028866
    77  H    0.034433
    78  H    0.039781
    79  H    0.026567
    80  H    0.034620
    81  H    0.027830
    82  H    0.032049
    83  H    0.039934
    84  H    0.039096
    85  H    0.022271
    86  H    0.022703
    87  H    0.033623
    88  H    0.019437
    89  H    0.025568
    90  H    0.030635
    91  H    0.014965
    92  H    0.027277
    93  H    0.022987
    94  H    0.022222
    95  H    0.031037
    96  H    0.021785
    97  H    0.043032
    98  H    0.055650
    99  H    0.044209
   100  H    0.038228
   101  H    0.046227
   102  H    0.045541
   103  H    0.053461
   104  H    0.026340
   105  H    0.033134
   106  H    0.013951
   107  H    0.029918
   108  H    0.032335
   109  H    0.011221
   110  H    0.022584
   111  H    0.025993
   112  H    0.006327
   113  H    0.022114
   114  H    0.010764
   115  H    0.018317
   116  H    0.008418
   117  H    0.027083
   118  H    0.022187
   119  H    0.007835
   120  H    0.016548
   121  H    0.032555
   122  H    0.022216
   123  H    0.011930
   124  H    0.022454
   125  H    0.028913
   126  H    0.023741
   127  H    0.017746
   128  H    0.025890
   129  H    0.022217
   130  H    0.019005
   131  H    0.022237
   132  H    0.013608
   133  H    0.018318
   134  H    0.024438
   135  H    0.020791
   136  H    0.009917
   137  H    0.017322
   138  H    0.022887
   139  H    0.023887
   140  H    0.012425
 Sum of Mulliken charges =  -0.00000
 Mulliken charges with hydrogens summed into heavy atoms:
               1
     1  Mg   0.414903
     2  C   -0.055107
     3  C   -0.053476
     4  C   -0.006534
     5  C   -0.034178
     6  N   -0.268776
     7  C    0.105377
     8  C    0.050622
     9  C    0.048008
    10  C    0.137869
    11  C    0.014091
    12  C    0.024371
    13  C    0.079897
    14  C    0.462090
    15  O   -0.494524
    16  O   -0.278423
    17  N   -0.330207
    18  C    0.080786
    19  C    0.003883
    20  C   -0.082602
    21  C    0.133683
    22  C    0.043708
    23  C    0.337617
    24  O   -0.530820
    25  C    0.086294
    26  N   -0.261600
    27  C    0.129140
    28  C    0.021642
    29  C    0.014025
    30  C    0.150650
    31  C    0.028258
    32  C    0.010093
    33  C    0.015770
    34  N   -0.320943
    35  C    0.084899
    36  C    0.055908
    37  C   -0.041829
    38  C    0.121409
    39  C    0.058376
    40  C    0.334803
    41  O   -0.522562
    42  C    0.117211
    43  C    0.488157
    44  O   -0.502566
    45  O   -0.277537
    46  C    0.201209
    47  C    0.208357
    48  C   -0.071610
    49  C   -0.010141
    50  C    0.034940
    51  C    0.023811
    52  C    0.020393
    53  C   -0.002096
    54  C   -0.002280
    55  C   -0.008919
    56  C   -0.003613
    57  C    0.008555
    58  C   -0.004228
    59  C    0.003700
    60  C    0.003621
    61  C    0.011973
    62  C   -0.005708
    63  C    0.000658
    64  C    0.015459
    65  C   -0.017553
    66  C    0.001616
 Charge=             -0.0000 electrons
 Dipole moment (field-independent basis, Debye):
    X=             -6.6396    Y=              2.8326    Z=              4.2373  Tot=              8.3703
 N-N= 4.302565616962D+03 E-N= 0.000000000000D+00  KE=-9.279283497881D+03
 Leave Link  601 at Wed May  4 12:30:57 2022, MaxMem=  6710886400 cpu:               0.8 elap:               0.0
 (Enter /sw/apps/gaussian-16.0/g16/l9999.exe)
 1\1\GINC-BP1-COMPUTE089\SP\RZINDO CIS\STO-3G\C55H74Mg1N4O6\OF15641\04-
 May-2022\0\\#p ZINDO=(nstates=5)\\step_1701_chromophore_21 ZINDO\\0,1\
 Mg,0,16.244,51.507,26.028\C,0,18.346,50.484,28.628\C,0,13.722,52.068,2
 8.453\C,0,14.183,52.383,23.479\C,0,18.63,50.616,23.677\N,0,16.034,51.3
 39,28.257\C,0,17.125,51.103,29.091\C,0,16.723,51.332,30.592\C,0,15.19,
 51.471,30.471\C,0,14.963,51.63,28.971\C,0,14.393,50.23,30.941\C,0,17.4
 7,52.543,31.159\C,0,17.344,52.82,32.72\C,0,16.376,51.904,33.544\O,0,16
 .708,50.784,33.857\O,0,15.073,52.452,33.795\N,0,14.229,52.028,25.941\C
 ,0,13.401,52.301,27.041\C,0,12.059,52.525,26.5\C,0,12.108,52.479,25.03
 3\C,0,13.547,52.235,24.738\C,0,10.794,52.733,27.264\C,0,11.011,52.56,2
 3.939\O,0,11.325,52.528,22.755\C,0,9.596,52.713,24.294\N,0,16.373,51.7
 04,23.977\C,0,15.447,52.194,23.116\C,0,16.005,52.266,21.697\C,0,17.449
 ,51.847,21.888\C,0,17.484,51.317,23.337\C,0,15.103,51.605,20.621\C,0,1
 8.584,52.899,21.569\C,0,19.003,53.009,20.105\N,0,18.108,50.703,26.103\
 C,0,18.951,50.278,25.021\C,0,20.118,49.566,25.618\C,0,19.941,49.573,27
 .006\C,0,18.68,50.282,27.237\C,0,21.236,49.023,24.81\C,0,20.44,49.283,
 28.335\O,0,21.47,48.632,28.662\C,0,19.407,49.817,29.464\C,0,19.027,48.
 622,30.306\O,0,18.713,47.499,29.921\O,0,19.262,48.965,31.635\C,0,18.96
 9,47.954,32.675\C,0,14.276,51.486,34.583\C,0,12.991,52.139,35.034\C,0,
 11.759,51.585,35.182\C,0,11.645,50.098,35.173\C,0,10.599,52.452,35.602
 \C,0,10.057,53.443,34.547\C,0,10.239,54.913,34.998\C,0,9.006,55.765,35
 .225\C,0,9.209,57.274,34.981\C,0,8.293,55.439,36.595\C,0,6.795,55.507,
 36.534\C,0,6.307,55.937,37.966\C,0,5.379,57.213,37.997\C,0,6.24,58.521
 ,37.73\C,0,4.632,57.333,39.306\C,0,3.15,57.779,39.018\C,0,2.156,56.822
 ,39.802\C,0,0.83,57.482,39.982\C,0,0.147,57.148,41.371\C,0,-0.042,56.9
 61,38.806\H,0,12.934,52.2,29.196\H,0,13.586,52.733,22.634\H,0,19.414,5
 0.449,22.936\H,0,17.172,50.478,31.099\H,0,14.811,52.305,31.061\H,0,14.
 ,49.681,30.085\H,0,13.481,50.489,31.479\H,0,14.921,49.578,31.637\H,0,1
 7.021,53.366,30.603\H,0,18.488,52.518,30.769\H,0,17.144,53.884,32.844\
 H,0,18.353,52.658,33.101\H,0,10.092,51.972,26.923\H,0,10.354,53.68,26.
 951\H,0,10.988,52.579,28.326\H,0,9.012,52.686,23.373\H,0,9.501,53.715,
 24.712\H,0,9.197,51.949,24.961\H,0,15.957,53.311,21.39\H,0,17.509,51.0
 29,21.17\H,0,14.398,50.88,21.028\H,0,15.762,51.148,19.882\H,0,14.56,52
 .457,20.212\H,0,19.377,52.779,22.307\H,0,18.091,53.861,21.71\H,0,18.31
 3,52.398,19.523\H,0,20.041,52.676,20.127\H,0,18.944,54.039,19.753\H,0,
 22.159,49.598,24.881\H,0,21.064,49.12,23.738\H,0,21.505,48.023,25.151\
 H,0,19.802,50.542,30.175\H,0,18.255,47.187,32.372\H,0,18.441,48.456,33
 .486\H,0,19.89,47.459,32.981\H,0,14.832,51.223,35.483\H,0,14.206,50.53
 6,34.054\H,0,12.998,53.217,35.191\H,0,11.299,49.695,34.221\H,0,10.83,4
 9.882,35.863\H,0,12.522,49.585,35.568\H,0,10.907,52.931,36.532\H,0,9.7
 75,51.772,35.815\H,0,9.002,53.186,34.447\H,0,10.603,53.294,33.616\H,0,
 10.763,55.348,34.147\H,0,10.87,55.021,35.88\H,0,8.311,55.492,34.432\H,
 0,8.807,57.86,35.807\H,0,8.514,57.654,34.233\H,0,10.191,57.598,34.637\
 H,0,8.802,56.049,37.341\H,0,8.537,54.426,36.915\H,0,6.337,54.527,36.4\
 H,0,6.626,56.075,35.619\H,0,7.158,56.085,38.631\H,0,5.806,55.045,38.34
 2\H,0,4.67,57.109,37.175\H,0,6.032,59.212,38.548\H,0,6.021,58.819,36.7
 05\H,0,7.303,58.284,37.765\H,0,5.076,58.101,39.939\H,0,4.614,56.343,39
 .763\H,0,2.914,57.707,37.956\H,0,3.007,58.836,39.243\H,0,2.62,56.481,4
 0.727\H,0,2.014,55.874,39.281\H,0,0.932,58.563,39.878\H,0,-0.745,56.52
 3,41.32\H,0,-0.193,58.049,41.882\H,0,0.805,56.721,42.128\H,0,0.037,55.
 874,38.788\H,0,0.328,57.461,37.911\H,0,-1.089,57.169,39.029\\Version=E
 S64L-G16RevA.03\State=1-A\HF=-474.0081358\RMSD=7.894e-09\PG=C01 [X(C55
 H74Mg1N4O6)]\\@


 Some scientists claim that hydrogen, because it is so
 plentiful, is the basic building block of the universe. 
 I dispute that. I say that stupidity is far more
 abundant than hydrogen, and THAT is the basic building 
 block of the universe.
                   --Frank Zappa
 Job cpu time:       0 days  0 hours  2 minutes 44.9 seconds.
 Elapsed time:       0 days  0 hours  0 minutes  7.2 seconds.
 File lengths (MBytes):  RWF=   1270 Int=      0 D2E=      0 Chk=     38 Scr=      1
 Normal termination of Gaussian 16 at Wed May  4 12:30:57 2022.
