 Entering Gaussian System, Link 0=g16
 Initial command:
 /sw/apps/gaussian-16.0/g16/l1.exe "/tmp/Gau-177539.inp" -scrdir="/tmp/"
 Entering Link 1 = /sw/apps/gaussian-16.0/g16/l1.exe PID=    177540.
  
 Copyright (c) 1988,1990,1992,1993,1995,1998,2003,2009,2016,
            Gaussian, Inc.  All Rights Reserved.
  
 This is part of the Gaussian(R) 16 program.  It is based on
 the Gaussian(R) 09 system (copyright 2009, Gaussian, Inc.),
 the Gaussian(R) 03 system (copyright 2003, Gaussian, Inc.),
 the Gaussian(R) 98 system (copyright 1998, Gaussian, Inc.),
 the Gaussian(R) 94 system (copyright 1995, Gaussian, Inc.),
 the Gaussian 92(TM) system (copyright 1992, Gaussian, Inc.),
 the Gaussian 90(TM) system (copyright 1990, Gaussian, Inc.),
 the Gaussian 88(TM) system (copyright 1988, Gaussian, Inc.),
 the Gaussian 86(TM) system (copyright 1986, Carnegie Mellon
 University), and the Gaussian 82(TM) system (copyright 1983,
 Carnegie Mellon University). Gaussian is a federally registered
 trademark of Gaussian, Inc.
  
 This software contains proprietary and confidential information,
 including trade secrets, belonging to Gaussian, Inc.
  
 This software is provided under written license and may be
 used, copied, transmitted, or stored only in accord with that
 written license.
  
 The following legend is applicable only to US Government
 contracts under FAR:
  
                    RESTRICTED RIGHTS LEGEND
  
 Use, reproduction and disclosure by the US Government is
 subject to restrictions as set forth in subparagraphs (a)
 and (c) of the Commercial Computer Software - Restricted
 Rights clause in FAR 52.227-19.
  
 Gaussian, Inc.
 340 Quinnipiac St., Bldg. 40, Wallingford CT 06492
  
  
 ---------------------------------------------------------------
 Warning -- This program may not be used in any manner that
 competes with the business of Gaussian, Inc. or will provide
 assistance to any competitor of Gaussian, Inc.  The licensee
 of this program is prohibited from giving any competitor of
 Gaussian, Inc. access to this program.  By using this program,
 the user acknowledges that Gaussian, Inc. is engaged in the
 business of creating and licensing software in the field of
 computational chemistry and represents and warrants to the
 licensee that it is not a competitor of Gaussian, Inc. and that
 it will not use this program in any manner prohibited above.
 ---------------------------------------------------------------
  

 Cite this work as:
 Gaussian 16, Revision A.03,
 M. J. Frisch, G. W. Trucks, H. B. Schlegel, G. E. Scuseria, 
 M. A. Robb, J. R. Cheeseman, G. Scalmani, V. Barone, 
 G. A. Petersson, H. Nakatsuji, X. Li, M. Caricato, A. V. Marenich, 
 J. Bloino, B. G. Janesko, R. Gomperts, B. Mennucci, H. P. Hratchian, 
 J. V. Ortiz, A. F. Izmaylov, J. L. Sonnenberg, D. Williams-Young, 
 F. Ding, F. Lipparini, F. Egidi, J. Goings, B. Peng, A. Petrone, 
 T. Henderson, D. Ranasinghe, V. G. Zakrzewski, J. Gao, N. Rega, 
 G. Zheng, W. Liang, M. Hada, M. Ehara, K. Toyota, R. Fukuda, 
 J. Hasegawa, M. Ishida, T. Nakajima, Y. Honda, O. Kitao, H. Nakai, 
 T. Vreven, K. Throssell, J. A. Montgomery, Jr., J. E. Peralta, 
 F. Ogliaro, M. J. Bearpark, J. J. Heyd, E. N. Brothers, K. N. Kudin, 
 V. N. Staroverov, T. A. Keith, R. Kobayashi, J. Normand, 
 K. Raghavachari, A. P. Rendell, J. C. Burant, S. S. Iyengar, 
 J. Tomasi, M. Cossi, J. M. Millam, M. Klene, C. Adamo, R. Cammi, 
 J. W. Ochterski, R. L. Martin, K. Morokuma, O. Farkas, 
 J. B. Foresman, and D. J. Fox, Gaussian, Inc., Wallingford CT, 2016.
 
 ******************************************
 Gaussian 16:  ES64L-G16RevA.03 25-Dec-2016
                28-Apr-2022 
 ******************************************
 %nproc=24
 Will use up to   24 processors via shared memory.
 %mem=75GB
 -----------------------------------
 #p cam-b3lyp/Def2SVP td=(nstates=5)
 -----------------------------------
 1/38=1,172=1/1;
 2/12=2,17=6,18=5,40=1/2;
 3/5=43,7=101,11=9,25=1,30=1,74=-40/1,2,3,8;
 4//1;
 5/5=2,38=5/2;
 8/6=1,10=1,108=5/1;
 9/41=5,42=1,70=2/14;
 6/7=2,8=2,9=2,10=2/1;
 99/5=1,9=1/99;
 Leave Link    1 at Thu Apr 28 19:33:44 2022, MaxMem= 10066329600 cpu:               1.3 elap:               0.1
 (Enter /sw/apps/gaussian-16.0/g16/l101.exe)
 -------------------------------------------------------
 step_1701_chromophore_7 TDDFT with cam-b3lyp functional
 -------------------------------------------------------
 Symbolic Z-matrix:
 Charge =  0 Multiplicity = 1
 Mg                    26.709    0.161     29.467 
 C                     28.722   -0.041     32.454 
 C                     23.941    0.657     31.254 
 C                     25.09     0.253     26.504 
 C                     29.787   -0.501     27.75 
 N                     26.435    0.299     31.513 
 C                     27.33     0.286     32.63 
 C                     26.575    0.579     33.906 
 C                     25.109    0.574     33.485 
 C                     25.147    0.492     31.984 
 C                     24.144   -0.465     34.069 
 C                     27.121    1.755     34.768 
 C                     26.418    1.802     36.23 
 C                     27.186    1.351     37.498 
 O                     28.063    0.475     37.477 
 O                     26.64     1.933     38.598 
 N                     24.86     0.234     28.949 
 C                     23.779    0.486     29.842 
 C                     22.521    0.628     29.108 
 C                     22.827    0.546     27.722 
 C                     24.301    0.323     27.696 
 C                     21.194    1.043     29.798 
 C                     21.853    0.402     26.521 
 O                     22.224    0.388     25.361 
 C                     20.366    0.282     26.769 
 N                     27.393   -0.118     27.467 
 C                     26.471    0.007     26.434 
 C                     27.22     0.095     25.02 
 C                     28.706   -0.104     25.47 
 C                     28.65    -0.257     27.004 
 C                     26.865   -0.944     23.921 
 C                     29.735    1.013     25.166 
 C                     31.075    0.601     24.511 
 N                     28.777   -0.286     29.965 
 C                     29.818   -0.617     29.082 
 C                     30.927   -1.07      29.802 
 C                     30.558   -0.762     31.142 
 C                     29.283   -0.294     31.209 
 C                     32.175   -1.705     29.214 
 C                     31.101   -0.683     32.474 
 O                     32.274   -0.893     32.793 
 C                     29.866   -0.225     33.433 
 C                     29.677   -1.216     34.478 
 O                     28.954   -2.178     34.324 
 O                     30.43    -0.937     35.607 
 C                     30.292   -1.936     36.684 
 C                     27.32     1.633     39.813 
 C                     26.691    0.631     40.756 
 C                     26.966    0.425     42.055 
 C                     28.187    0.909     42.789 
 C                     26.009   -0.534     42.791 
 C                     25.133    0.065     43.925 
 C                     23.62    -0.016     43.609 
 C                     22.915    0.102     44.977 
 C                     21.844   -1.018     45.278 
 C                     22.346    1.509     45.112 
 C                     23.153    2.373     46.118 
 C                     22.305    2.738     47.358 
 C                     23.26     3.379     48.385 
 C                     23.202    2.714     49.718 
 C                     22.964    4.856     48.549 
 C                     23.453    5.7       47.373 
 C                     22.232    6.375     46.632 
 C                     22.382    7.958     46.765 
 C                     21.406    8.612     47.769 
 C                     22.21     8.478     45.289 
 H                     23.077    1.016     31.817 
 H                     24.555    0.449     25.572 
 H                     30.745   -0.667     27.253 
 H                     26.643   -0.328     34.507 
 H                     24.75     1.508     33.919 
 H                     24.517   -1.023     34.927 
 H                     23.87    -1.173     33.286 
 H                     23.201   -0.009     34.37 
 H                     26.873    2.748     34.392 
 H                     28.21     1.701     34.764 
 H                     25.436    1.329     36.208 
 H                     26.304    2.873     36.399 
 H                     21.048    2.114     29.662 
 H                     21.174    0.862     30.872 
 H                     20.366    0.506     29.334 
 H                     20.124   -0.604     27.356 
 H                     19.799    0.187     25.843 
 H                     19.944    1.19      27.201 
 H                     26.877    1.029     24.575 
 H                     29.088   -1.024     25.027 
 H                     26.493   -1.863     24.375 
 H                     27.68    -1.267     23.274 
 H                     26.152   -0.496     23.229 
 H                     29.995    1.66      26.004 
 H                     29.366    1.77      24.474 
 H                     31.29     1.414     23.817 
 H                     31.103   -0.239     23.818 
 H                     31.883    0.471     25.231 
 H                     31.997   -2.126     28.225 
 H                     32.542   -2.391     29.977 
 H                     32.899   -0.908     29.047 
 H                     30.335    0.703     33.76 
 H                     30.514   -2.966     36.406 
 H                     29.39    -1.796     37.281 
 H                     31.179   -1.772     37.296 
 H                     27.436    2.545     40.399 
 H                     28.311    1.234     39.595 
 H                     25.766    0.161     40.423 
 H                     28.857    0.06      42.929 
 H                     27.965    1.315     43.775 
 H                     28.9      1.488     42.202 
 H                     26.687   -1.294     43.179 
 H                     25.395   -1.111     42.099 
 H                     25.368    1.121     44.057 
 H                     25.419   -0.354     44.89 
 H                     23.477   -0.971     43.103 
 H                     23.421    0.747     42.857 
 H                     23.577   -0.058     45.828 
 H                     22.313   -1.677     46.009 
 H                     21.691   -1.722     44.46 
 H                     20.897   -0.71      45.723 
 H                     21.325    1.34      45.455 
 H                     22.294    1.997     44.138 
 H                     23.257    3.326     45.599 
 H                     24.141    1.975     46.347 
 H                     21.815    1.843     47.741 
 H                     21.55     3.43      46.985 
 H                     24.278    3.324     47.998 
 H                     24.194    2.769     50.165 
 H                     22.992    1.655     49.565 
 H                     22.414    3.226     50.271 
 H                     23.507    5.286     49.391 
 H                     21.881    4.935     48.649 
 H                     24.01     5.112     46.643 
 H                     24.165    6.377     47.845 
 H                     21.306    6.001     47.068 
 H                     22.258    5.987     45.613 
 H                     23.376    8.299     47.053 
 H                     20.726    7.884     48.211 
 H                     20.859    9.435     47.308 
 H                     21.982    9.026     48.596 
 H                     21.142    8.494     45.072 
 H                     22.702    7.775     44.617 
 H                     22.751    9.413     45.14 
 
 ITRead=  0  0  0  0  0  0  0  0  0  0  0  0  0  0  0  0  0  0  0  0
 ITRead=  0  0  0  0  0  0  0  0  0  0  0  0  0  0  0  0  0  0  0  0
 ITRead=  0  0  0  0  0  0  0  0  0  0  0  0  0  0  0  0  0  0  0  0
 ITRead=  0  0  0  0  0  0  0  0  0  0  0  0  0  0  0  0  0  0  0  0
 ITRead=  0  0  0  0  0  0  0  0  0  0  0  0  0  0  0  0  0  0  0  0
 ITRead=  0  0  0  0  0  0  0  0  0  0  0  0  0  0  0  0  0  0  0  0
 ITRead=  0  0  0  0  0  0  0  0  0  0  0  0  0  0  0  0  0  0  0  0
 MicOpt= -1 -1 -1 -1 -1 -1 -1 -1 -1 -1 -1 -1 -1 -1 -1 -1 -1 -1 -1 -1
 MicOpt= -1 -1 -1 -1 -1 -1 -1 -1 -1 -1 -1 -1 -1 -1 -1 -1 -1 -1 -1 -1
 MicOpt= -1 -1 -1 -1 -1 -1 -1 -1 -1 -1 -1 -1 -1 -1 -1 -1 -1 -1 -1 -1
 MicOpt= -1 -1 -1 -1 -1 -1 -1 -1 -1 -1 -1 -1 -1 -1 -1 -1 -1 -1 -1 -1
 MicOpt= -1 -1 -1 -1 -1 -1 -1 -1 -1 -1 -1 -1 -1 -1 -1 -1 -1 -1 -1 -1
 MicOpt= -1 -1 -1 -1 -1 -1 -1 -1 -1 -1 -1 -1 -1 -1 -1 -1 -1 -1 -1 -1
 MicOpt= -1 -1 -1 -1 -1 -1 -1 -1 -1 -1 -1 -1 -1 -1 -1 -1 -1 -1 -1 -1
 NAtoms=    140 NQM=      140 NQMF=       0 NMMI=      0 NMMIF=      0
                NMic=       0 NMicF=      0.
                    Isotopes and Nuclear Properties:
 (Nuclear quadrupole moments (NQMom) in fm**2, nuclear magnetic moments (NMagM)
  in nuclear magnetons)

  Atom         1           2           3           4           5           6           7           8           9          10
 IAtWgt=          24          12          12          12          12          14          12          12          12          12
 AtmWgt=  23.9850450  12.0000000  12.0000000  12.0000000  12.0000000  14.0030740  12.0000000  12.0000000  12.0000000  12.0000000
 NucSpn=           0           0           0           0           0           2           0           0           0           0
 AtZEff=  -0.0000000  -0.0000000  -0.0000000  -0.0000000  -0.0000000  -0.0000000  -0.0000000  -0.0000000  -0.0000000  -0.0000000
 NQMom=    0.0000000   0.0000000   0.0000000   0.0000000   0.0000000   2.0440000   0.0000000   0.0000000   0.0000000   0.0000000
 NMagM=    0.0000000   0.0000000   0.0000000   0.0000000   0.0000000   0.4037610   0.0000000   0.0000000   0.0000000   0.0000000
 AtZNuc=  12.0000000   6.0000000   6.0000000   6.0000000   6.0000000   7.0000000   6.0000000   6.0000000   6.0000000   6.0000000

  Atom        11          12          13          14          15          16          17          18          19          20
 IAtWgt=          12          12          12          12          16          16          14          12          12          12
 AtmWgt=  12.0000000  12.0000000  12.0000000  12.0000000  15.9949146  15.9949146  14.0030740  12.0000000  12.0000000  12.0000000
 NucSpn=           0           0           0           0           0           0           2           0           0           0
 AtZEff=  -0.0000000  -0.0000000  -0.0000000  -0.0000000  -0.0000000  -0.0000000  -0.0000000  -0.0000000  -0.0000000  -0.0000000
 NQMom=    0.0000000   0.0000000   0.0000000   0.0000000   0.0000000   0.0000000   2.0440000   0.0000000   0.0000000   0.0000000
 NMagM=    0.0000000   0.0000000   0.0000000   0.0000000   0.0000000   0.0000000   0.4037610   0.0000000   0.0000000   0.0000000
 AtZNuc=   6.0000000   6.0000000   6.0000000   6.0000000   8.0000000   8.0000000   7.0000000   6.0000000   6.0000000   6.0000000

  Atom        21          22          23          24          25          26          27          28          29          30
 IAtWgt=          12          12          12          16          12          14          12          12          12          12
 AtmWgt=  12.0000000  12.0000000  12.0000000  15.9949146  12.0000000  14.0030740  12.0000000  12.0000000  12.0000000  12.0000000
 NucSpn=           0           0           0           0           0           2           0           0           0           0
 AtZEff=  -0.0000000  -0.0000000  -0.0000000  -0.0000000  -0.0000000  -0.0000000  -0.0000000  -0.0000000  -0.0000000  -0.0000000
 NQMom=    0.0000000   0.0000000   0.0000000   0.0000000   0.0000000   2.0440000   0.0000000   0.0000000   0.0000000   0.0000000
 NMagM=    0.0000000   0.0000000   0.0000000   0.0000000   0.0000000   0.4037610   0.0000000   0.0000000   0.0000000   0.0000000
 AtZNuc=   6.0000000   6.0000000   6.0000000   8.0000000   6.0000000   7.0000000   6.0000000   6.0000000   6.0000000   6.0000000

  Atom        31          32          33          34          35          36          37          38          39          40
 IAtWgt=          12          12          12          14          12          12          12          12          12          12
 AtmWgt=  12.0000000  12.0000000  12.0000000  14.0030740  12.0000000  12.0000000  12.0000000  12.0000000  12.0000000  12.0000000
 NucSpn=           0           0           0           2           0           0           0           0           0           0
 AtZEff=  -0.0000000  -0.0000000  -0.0000000  -0.0000000  -0.0000000  -0.0000000  -0.0000000  -0.0000000  -0.0000000  -0.0000000
 NQMom=    0.0000000   0.0000000   0.0000000   2.0440000   0.0000000   0.0000000   0.0000000   0.0000000   0.0000000   0.0000000
 NMagM=    0.0000000   0.0000000   0.0000000   0.4037610   0.0000000   0.0000000   0.0000000   0.0000000   0.0000000   0.0000000
 AtZNuc=   6.0000000   6.0000000   6.0000000   7.0000000   6.0000000   6.0000000   6.0000000   6.0000000   6.0000000   6.0000000

  Atom        41          42          43          44          45          46          47          48          49          50
 IAtWgt=          16          12          12          16          16          12          12          12          12          12
 AtmWgt=  15.9949146  12.0000000  12.0000000  15.9949146  15.9949146  12.0000000  12.0000000  12.0000000  12.0000000  12.0000000
 NucSpn=           0           0           0           0           0           0           0           0           0           0
 AtZEff=  -0.0000000  -0.0000000  -0.0000000  -0.0000000  -0.0000000  -0.0000000  -0.0000000  -0.0000000  -0.0000000  -0.0000000
 NQMom=    0.0000000   0.0000000   0.0000000   0.0000000   0.0000000   0.0000000   0.0000000   0.0000000   0.0000000   0.0000000
 NMagM=    0.0000000   0.0000000   0.0000000   0.0000000   0.0000000   0.0000000   0.0000000   0.0000000   0.0000000   0.0000000
 AtZNuc=   8.0000000   6.0000000   6.0000000   8.0000000   8.0000000   6.0000000   6.0000000   6.0000000   6.0000000   6.0000000

  Atom        51          52          53          54          55          56          57          58          59          60
 IAtWgt=          12          12          12          12          12          12          12          12          12          12
 AtmWgt=  12.0000000  12.0000000  12.0000000  12.0000000  12.0000000  12.0000000  12.0000000  12.0000000  12.0000000  12.0000000
 NucSpn=           0           0           0           0           0           0           0           0           0           0
 AtZEff=  -0.0000000  -0.0000000  -0.0000000  -0.0000000  -0.0000000  -0.0000000  -0.0000000  -0.0000000  -0.0000000  -0.0000000
 NQMom=    0.0000000   0.0000000   0.0000000   0.0000000   0.0000000   0.0000000   0.0000000   0.0000000   0.0000000   0.0000000
 NMagM=    0.0000000   0.0000000   0.0000000   0.0000000   0.0000000   0.0000000   0.0000000   0.0000000   0.0000000   0.0000000
 AtZNuc=   6.0000000   6.0000000   6.0000000   6.0000000   6.0000000   6.0000000   6.0000000   6.0000000   6.0000000   6.0000000

  Atom        61          62          63          64          65          66          67          68          69          70
 IAtWgt=          12          12          12          12          12          12           1           1           1           1
 AtmWgt=  12.0000000  12.0000000  12.0000000  12.0000000  12.0000000  12.0000000   1.0078250   1.0078250   1.0078250   1.0078250
 NucSpn=           0           0           0           0           0           0           1           1           1           1
 AtZEff=  -0.0000000  -0.0000000  -0.0000000  -0.0000000  -0.0000000  -0.0000000  -0.0000000  -0.0000000  -0.0000000  -0.0000000
 NQMom=    0.0000000   0.0000000   0.0000000   0.0000000   0.0000000   0.0000000   0.0000000   0.0000000   0.0000000   0.0000000
 NMagM=    0.0000000   0.0000000   0.0000000   0.0000000   0.0000000   0.0000000   2.7928460   2.7928460   2.7928460   2.7928460
 AtZNuc=   6.0000000   6.0000000   6.0000000   6.0000000   6.0000000   6.0000000   1.0000000   1.0000000   1.0000000   1.0000000

  Atom        71          72          73          74          75          76          77          78          79          80
 IAtWgt=           1           1           1           1           1           1           1           1           1           1
 AtmWgt=   1.0078250   1.0078250   1.0078250   1.0078250   1.0078250   1.0078250   1.0078250   1.0078250   1.0078250   1.0078250
 NucSpn=           1           1           1           1           1           1           1           1           1           1
 AtZEff=  -0.0000000  -0.0000000  -0.0000000  -0.0000000  -0.0000000  -0.0000000  -0.0000000  -0.0000000  -0.0000000  -0.0000000
 NQMom=    0.0000000   0.0000000   0.0000000   0.0000000   0.0000000   0.0000000   0.0000000   0.0000000   0.0000000   0.0000000
 NMagM=    2.7928460   2.7928460   2.7928460   2.7928460   2.7928460   2.7928460   2.7928460   2.7928460   2.7928460   2.7928460
 AtZNuc=   1.0000000   1.0000000   1.0000000   1.0000000   1.0000000   1.0000000   1.0000000   1.0000000   1.0000000   1.0000000

  Atom        81          82          83          84          85          86          87          88          89          90
 IAtWgt=           1           1           1           1           1           1           1           1           1           1
 AtmWgt=   1.0078250   1.0078250   1.0078250   1.0078250   1.0078250   1.0078250   1.0078250   1.0078250   1.0078250   1.0078250
 NucSpn=           1           1           1           1           1           1           1           1           1           1
 AtZEff=  -0.0000000  -0.0000000  -0.0000000  -0.0000000  -0.0000000  -0.0000000  -0.0000000  -0.0000000  -0.0000000  -0.0000000
 NQMom=    0.0000000   0.0000000   0.0000000   0.0000000   0.0000000   0.0000000   0.0000000   0.0000000   0.0000000   0.0000000
 NMagM=    2.7928460   2.7928460   2.7928460   2.7928460   2.7928460   2.7928460   2.7928460   2.7928460   2.7928460   2.7928460
 AtZNuc=   1.0000000   1.0000000   1.0000000   1.0000000   1.0000000   1.0000000   1.0000000   1.0000000   1.0000000   1.0000000

  Atom        91          92          93          94          95          96          97          98          99         100
 IAtWgt=           1           1           1           1           1           1           1           1           1           1
 AtmWgt=   1.0078250   1.0078250   1.0078250   1.0078250   1.0078250   1.0078250   1.0078250   1.0078250   1.0078250   1.0078250
 NucSpn=           1           1           1           1           1           1           1           1           1           1
 AtZEff=  -0.0000000  -0.0000000  -0.0000000  -0.0000000  -0.0000000  -0.0000000  -0.0000000  -0.0000000  -0.0000000  -0.0000000
 NQMom=    0.0000000   0.0000000   0.0000000   0.0000000   0.0000000   0.0000000   0.0000000   0.0000000   0.0000000   0.0000000
 NMagM=    2.7928460   2.7928460   2.7928460   2.7928460   2.7928460   2.7928460   2.7928460   2.7928460   2.7928460   2.7928460
 AtZNuc=   1.0000000   1.0000000   1.0000000   1.0000000   1.0000000   1.0000000   1.0000000   1.0000000   1.0000000   1.0000000

  Atom       101         102         103         104         105         106         107         108         109         110
 IAtWgt=           1           1           1           1           1           1           1           1           1           1
 AtmWgt=   1.0078250   1.0078250   1.0078250   1.0078250   1.0078250   1.0078250   1.0078250   1.0078250   1.0078250   1.0078250
 NucSpn=           1           1           1           1           1           1           1           1           1           1
 AtZEff=  -0.0000000  -0.0000000  -0.0000000  -0.0000000  -0.0000000  -0.0000000  -0.0000000  -0.0000000  -0.0000000  -0.0000000
 NQMom=    0.0000000   0.0000000   0.0000000   0.0000000   0.0000000   0.0000000   0.0000000   0.0000000   0.0000000   0.0000000
 NMagM=    2.7928460   2.7928460   2.7928460   2.7928460   2.7928460   2.7928460   2.7928460   2.7928460   2.7928460   2.7928460
 AtZNuc=   1.0000000   1.0000000   1.0000000   1.0000000   1.0000000   1.0000000   1.0000000   1.0000000   1.0000000   1.0000000

  Atom       111         112         113         114         115         116         117         118         119         120
 IAtWgt=           1           1           1           1           1           1           1           1           1           1
 AtmWgt=   1.0078250   1.0078250   1.0078250   1.0078250   1.0078250   1.0078250   1.0078250   1.0078250   1.0078250   1.0078250
 NucSpn=           1           1           1           1           1           1           1           1           1           1
 AtZEff=  -0.0000000  -0.0000000  -0.0000000  -0.0000000  -0.0000000  -0.0000000  -0.0000000  -0.0000000  -0.0000000  -0.0000000
 NQMom=    0.0000000   0.0000000   0.0000000   0.0000000   0.0000000   0.0000000   0.0000000   0.0000000   0.0000000   0.0000000
 NMagM=    2.7928460   2.7928460   2.7928460   2.7928460   2.7928460   2.7928460   2.7928460   2.7928460   2.7928460   2.7928460
 AtZNuc=   1.0000000   1.0000000   1.0000000   1.0000000   1.0000000   1.0000000   1.0000000   1.0000000   1.0000000   1.0000000

  Atom       121         122         123         124         125         126         127         128         129         130
 IAtWgt=           1           1           1           1           1           1           1           1           1           1
 AtmWgt=   1.0078250   1.0078250   1.0078250   1.0078250   1.0078250   1.0078250   1.0078250   1.0078250   1.0078250   1.0078250
 NucSpn=           1           1           1           1           1           1           1           1           1           1
 AtZEff=  -0.0000000  -0.0000000  -0.0000000  -0.0000000  -0.0000000  -0.0000000  -0.0000000  -0.0000000  -0.0000000  -0.0000000
 NQMom=    0.0000000   0.0000000   0.0000000   0.0000000   0.0000000   0.0000000   0.0000000   0.0000000   0.0000000   0.0000000
 NMagM=    2.7928460   2.7928460   2.7928460   2.7928460   2.7928460   2.7928460   2.7928460   2.7928460   2.7928460   2.7928460
 AtZNuc=   1.0000000   1.0000000   1.0000000   1.0000000   1.0000000   1.0000000   1.0000000   1.0000000   1.0000000   1.0000000

  Atom       131         132         133         134         135         136         137         138         139         140
 IAtWgt=           1           1           1           1           1           1           1           1           1           1
 AtmWgt=   1.0078250   1.0078250   1.0078250   1.0078250   1.0078250   1.0078250   1.0078250   1.0078250   1.0078250   1.0078250
 NucSpn=           1           1           1           1           1           1           1           1           1           1
 AtZEff=  -0.0000000  -0.0000000  -0.0000000  -0.0000000  -0.0000000  -0.0000000  -0.0000000  -0.0000000  -0.0000000  -0.0000000
 NQMom=    0.0000000   0.0000000   0.0000000   0.0000000   0.0000000   0.0000000   0.0000000   0.0000000   0.0000000   0.0000000
 NMagM=    2.7928460   2.7928460   2.7928460   2.7928460   2.7928460   2.7928460   2.7928460   2.7928460   2.7928460   2.7928460
 AtZNuc=   1.0000000   1.0000000   1.0000000   1.0000000   1.0000000   1.0000000   1.0000000   1.0000000   1.0000000   1.0000000
 Leave Link  101 at Thu Apr 28 19:33:44 2022, MaxMem= 10066329600 cpu:               3.7 elap:               0.2
 (Enter /sw/apps/gaussian-16.0/g16/l202.exe)
 Stoichiometry    C55H74MgN4O6
 Framework group  C1[X(C55H74MgN4O6)]
 Deg. of freedom   414
 Full point group                 C1      NOp   1
 Largest Abelian subgroup         C1      NOp   1
 Largest concise Abelian subgroup C1      NOp   1
                         Standard orientation:                         
 ---------------------------------------------------------------------
 Center     Atomic      Atomic             Coordinates (Angstroms)
 Number     Number       Type             X           Y           Z
 ---------------------------------------------------------------------
      1         12           0        5.938053    0.633262    0.128690
      2          6           0        3.500223   -2.018272    0.332402
      3          6           0        3.578717    2.873331   -0.590219
      4          6           0        8.451352    2.883599   -0.039550
      5          6           0        8.322570   -1.960756    0.796198
      6          7           0        3.889654    0.415488   -0.063333
      7          6           0        2.994325   -0.685922    0.121500
      8          6           0        1.562448   -0.221792   -0.014006
      9          6           0        1.678828    1.221143   -0.494441
     10          6           0        3.145763    1.535984   -0.393710
     11          6           0        1.122246    1.623085   -1.865740
     12          6           0        0.619384   -0.559135    1.178036
     13          6           0       -0.934787   -0.267994    0.812454
     14          6           0       -1.917908   -1.431713    0.529116
     15          8           0       -1.559365   -2.508563    0.030329
     16          8           0       -3.193662   -1.021715    0.755373
     17          7           0        6.057396    2.475358   -0.405062
     18          6           0        4.937304    3.320026   -0.652942
     19          6           0        5.368169    4.698495   -0.888866
     20          6           0        6.777409    4.739736   -0.705293
     21          6           0        7.135601    3.328284   -0.385004
     22          6           0        4.364051    5.870993   -1.050887
     23          6           0        7.767535    5.883978   -1.054823
     24          8           0        8.959383    5.831067   -0.809596
     25          6           0        7.257861    7.141684   -1.722267
     26          7           0        8.049760    0.419770    0.330709
     27          6           0        8.837838    1.560738    0.231088
     28          6           0       10.329473    1.258866    0.733122
     29          6           0       10.227596   -0.275041    1.028164
     30          6           0        8.769654   -0.657089    0.699308
     31          6           0       11.512437    1.525034   -0.238010
     32          6           0       10.512756   -0.780536    2.464167
     33          6           0       11.485207   -1.972709    2.629789
     34          7           0        5.951702   -1.523848    0.395389
     35          6           0        7.069164   -2.359824    0.554621
     36          6           0        6.680955   -3.698449    0.450382
     37          6           0        5.260926   -3.598125    0.459173
     38          6           0        4.856419   -2.300123    0.432638
     39          6           0        7.612812   -4.894899    0.368991
     40          6           0        4.071896   -4.402325    0.580766
     41          8           0        4.036291   -5.621047    0.768486
     42          6           0        2.819065   -3.367430    0.462122
     43          6           0        1.963226   -3.774364   -0.638684
     44          8           0        2.149892   -3.383977   -1.772105
     45          8           0        0.973266   -4.655398   -0.234643
     46          6           0        0.098225   -5.119497   -1.328211
     47          6           0       -4.171640   -2.043339    0.586651
     48          6           0       -5.014190   -2.026342   -0.669818
     49          6           0       -6.170691   -2.668899   -0.904528
     50          6           0       -6.726858   -3.812757   -0.100711
     51          6           0       -6.886997   -2.286663   -2.215263
     52          6           0       -8.263846   -1.578286   -2.094340
     53          6           0       -8.243435   -0.143092   -2.673466
     54          6           0       -9.720955    0.196190   -2.963630
     55          6           0      -10.010960    0.739839   -4.417034
     56          6           0      -10.228417    1.133490   -1.874783
     57          6           0      -11.199649    0.421591   -0.895146
     58          6           0      -12.628834    1.002784   -0.992994
     59          6           0      -13.549002    0.078900   -0.169973
     60          6           0      -14.717470   -0.415235   -0.952911
     61          6           0      -14.043633    0.782021    1.077826
     62          6           0      -12.974807    0.900567    2.163179
     63          6           0      -12.630363    2.417973    2.435914
     64          6           0      -13.027056    2.755462    3.944163
     65          6           0      -14.308963    3.605380    4.094703
     66          6           0      -11.739121    3.448983    4.526236
     67          1           0        2.798781    3.636738   -0.625665
     68          1           0        9.205325    3.668547    0.053436
     69          1           0        9.021202   -2.764642    1.037051
     70          1           0        1.168671   -0.725356   -0.897090
     71          1           0        1.014360    1.740014    0.197547
     72          1           0        0.475695    0.888520   -2.344325
     73          1           0        1.954825    1.842318   -2.535201
     74          1           0        0.560468    2.555377   -1.810750
     75          1           0        0.744946    0.080097    2.052419
     76          1           0        0.848512   -1.570204    1.515815
     77          1           0       -1.018435    0.482789    0.026410
     78          1           0       -1.321753    0.137387    1.747612
     79          1           0        4.264176    6.381977   -0.093927
     80          1           0        3.361021    5.562264   -1.342870
     81          1           0        4.748092    6.571253   -1.793448
     82          1           0        6.812362    6.931531   -2.694633
     83          1           0        8.054591    7.861010   -1.911427
     84          1           0        6.587774    7.710262   -1.076610
     85          1           0       10.513769    1.983227    1.526448
     86          1           0       10.902626   -0.808176    0.358333
     87          1           0       11.175427    1.456348   -1.272789
     88          1           0       12.356717    0.838969   -0.177443
     89          1           0       11.952870    2.493318   -0.000563
     90          1           0        9.635999   -1.020321    3.066041
     91          1           0       10.962895   -0.027355    3.110825
     92          1           0       12.042067   -1.734518    3.536432
     93          1           0       12.315737   -2.094219    1.935464
     94          1           0       10.976662   -2.932771    2.718265
     95          1           0        8.608431   -4.619707    0.022497
     96          1           0        7.080593   -5.641256   -0.220202
     97          1           0        7.766249   -5.258750    1.384541
     98          1           0        2.422210   -3.580028    1.454786
     99          1           0        0.603654   -5.583084   -2.175026
    100          1           0       -0.680646   -4.400146   -1.584153
    101          1           0       -0.346234   -6.030365   -0.926982
    102          1           0       -4.884364   -2.003476    1.410685
    103          1           0       -3.690972   -3.021976    0.592615
    104          1           0       -4.787961   -1.248787   -1.398956
    105          1           0       -6.569174   -4.732176   -0.665606
    106          1           0       -7.795772   -3.726629    0.089866
    107          1           0       -6.130460   -4.131322    0.754277
    108          1           0       -6.983086   -3.246939   -2.721686
    109          1           0       -6.233810   -1.737620   -2.894003
    110          1           0       -8.543456   -1.487246   -1.044904
    111          1           0       -9.056716   -2.215584   -2.486501
    112          1           0       -7.604900   -0.192118   -3.555724
    113          1           0       -7.703128    0.471752   -1.954224
    114          1           0      -10.378706   -0.672935   -2.969200
    115          1           0      -10.497337   -0.083016   -4.941392
    116          1           0       -9.121564    0.858592   -5.035922
    117          1           0      -10.684160    1.592250   -4.516510
    118          1           0      -10.728201    1.926021   -2.432244
    119          1           0       -9.393675    1.581429   -1.334339
    120          1           0      -10.859453    0.762265    0.082910
    121          1           0      -11.149779   -0.665914   -0.937959
    122          1           0      -12.925373    1.067363   -2.039755
    123          1           0      -12.549567    2.007826   -0.578718
    124          1           0      -12.965262   -0.771729    0.183290
    125          1           0      -14.961913   -1.415665   -0.597544
    126          1           0      -14.412155   -0.524815   -1.993951
    127          1           0      -15.501613    0.330335   -0.818212
    128          1           0      -14.827438    0.213117    1.578535
    129          1           0      -14.368640    1.771590    0.754941
    130          1           0      -12.051692    0.385946    1.895006
    131          1           0      -13.415845    0.349174    2.993546
    132          1           0      -13.162209    3.034676    1.711853
    133          1           0      -11.571809    2.524919    2.195899
    134          1           0      -13.172052    1.884765    4.583009
    135          1           0      -14.731267    3.882312    3.128930
    136          1           0      -14.128647    4.484484    4.714155
    137          1           0      -15.068804    3.004955    4.593935
    138          1           0      -11.744334    4.484018    4.184705
    139          1           0      -10.862965    2.942322    4.121882
    140          1           0      -11.665157    3.292055    5.602810
 ---------------------------------------------------------------------
 Rotational constants (GHZ):           0.0493397           0.0085325           0.0077913
 Leave Link  202 at Thu Apr 28 19:33:44 2022, MaxMem= 10066329600 cpu:               1.0 elap:               0.1
 (Enter /sw/apps/gaussian-16.0/g16/l301.exe)
 Standard basis: def2SVP (5D, 7F)
 Ernie: Thresh=  0.10000D-02 Tol=  0.10000D-05 Strict=F.
 There are  1364 symmetry adapted cartesian basis functions of A   symmetry.
 There are  1298 symmetry adapted basis functions of A   symmetry.
  1298 basis functions,  2180 primitive gaussians,  1364 cartesian basis functions
   246 alpha electrons      246 beta electrons
       nuclear repulsion energy      9376.1542731714 Hartrees.
 IExCor=20419 DFT=T Ex+Corr=CAM-B3LYP ExCW=0 ScaHFX=  1.000000
 ScaDFX=  1.000000  1.000000  1.000000  0.810000 ScalE2=  1.000000  1.000000
 IRadAn=      5 IRanWt=     -1 IRanGd=            0 ICorTp=0 IEmpDi=  4
 HFx  wShort=  0.000000 wLong=  0.330000 cFull=  0.190000 cShort=  0.000000 cLong=  0.460000
 DFx  wShort=  0.000000 wLong=  0.330000 cFull=  0.190000 cShort=  0.000000 cLong=  0.460000
 NAtoms=  140 NActive=  140 NUniq=  140 SFac= 1.00D+00 NAtFMM=   60 NAOKFM=T Big=T
 Integral buffers will be    131072 words long.
 Raffenetti 1 integral format.
 Two-electron integral symmetry is turned on.
 Leave Link  301 at Thu Apr 28 19:33:44 2022, MaxMem= 10066329600 cpu:               1.2 elap:               0.1
 (Enter /sw/apps/gaussian-16.0/g16/l302.exe)
 NPDir=0 NMtPBC=     1 NCelOv=     1 NCel=       1 NClECP=     1 NCelD=      1
         NCelK=      1 NCelE2=     1 NClLst=     1 CellRange=     0.0.
 One-electron integrals computed using PRISM.
 One-electron integral symmetry used in STVInt
   1 Symmetry operations used in ECPInt.
 ECPInt:  NShTT=  192510 NPrTT=  683786 LenC2=   90231 LenP2D=  199672.
 LDataN:  DoStor=T MaxTD1= 4 Len=   56
 NBasis=  1298 RedAO= T EigKep=  2.95D-04  NBF=  1298
 NBsUse=  1298 1.00D-06 EigRej= -1.00D+00 NBFU=  1298
 Precomputing XC quadrature grid using
 IXCGrd= 4 IRadAn=           5 IRanWt=          -1 IRanGd=           0 AccXCQ= 0.00D+00.
 Generated NRdTot=       0 NPtTot=           0 NUsed=           0 NTot=          32
 NSgBfM=   996   954   968   987   996 MxSgAt=   140 MxSgA2=   140.
 Leave Link  302 at Thu Apr 28 19:33:48 2022, MaxMem= 10066329600 cpu:              92.6 elap:               3.9
 (Enter /sw/apps/gaussian-16.0/g16/l303.exe)
 DipDrv:  MaxL=1.
 Leave Link  303 at Thu Apr 28 19:33:49 2022, MaxMem= 10066329600 cpu:               8.0 elap:               0.4
 (Enter /sw/apps/gaussian-16.0/g16/l308.exe)
 Leave Link  308 at Thu Apr 28 19:33:49 2022, MaxMem= 10066329600 cpu:              12.3 elap:               0.6
 (Enter /sw/apps/gaussian-16.0/g16/l401.exe)
 ExpMin= 3.36D-02 ExpMax= 4.95D+03 ExpMxC= 7.45D+02 IAcc=3 IRadAn=         5 AccDes= 0.00D+00
 Harris functional with IExCor=20419 and IRadAn=       5 diagonalized for initial guess.
 HarFok:  IExCor=20419 AccDes= 0.00D+00 IRadAn=         5 IDoV= 1 UseB2=F ITyADJ=14
 ICtDFT=  3500011 ScaDFX=  1.000000  1.000000  1.000000  1.000000
 FoFCou: FMM=F IPFlag=           0 FMFlag=      100000 FMFlg1=        2001
         NFxFlg=           0 DoJE=T BraDBF=F KetDBF=T FulRan=T
         wScrn=  0.000000 ICntrl=       500 IOpCl=  0 I1Cent=   200000004 NGrid=           0
         NMat0=    1 NMatS0=      1 NMatT0=    0 NMatD0=    1 NMtDS0=    0 NMtDT0=    0
 Petite list used in FoFCou.
 Harris En= -2890.86367095994    
 JPrj=0 DoOrth=F DoCkMO=F.
 Leave Link  401 at Thu Apr 28 19:33:56 2022, MaxMem= 10066329600 cpu:             156.8 elap:               6.6
 (Enter /sw/apps/gaussian-16.0/g16/l502.exe)
 Integral symmetry usage will be decided dynamically.
 Closed shell SCF:
 Using DIIS extrapolation, IDIIS=  1040.
 NGot= 10066329600 LenX= 10062561258 LenY= 10060699398
 Requested convergence on RMS density matrix=1.00D-08 within 128 cycles.
 Requested convergence on MAX density matrix=1.00D-06.
 Requested convergence on             energy=1.00D-06.
 No special actions if energy rises.
 Fock matrices will be formed incrementally for  20 cycles.

 Cycle   1  Pass 1  IDiag  1:
 FoFJK:  IHMeth= 1 ICntrl=       0 DoSepK=T KAlg= 0 I1Cent=           0 FoldK=F
 IRaf=         1 NMat=       1 IRICut=       1 DoRegI=T DoRafI=F ISym2E= 0 IDoP0=0 IntGTp=1.
 FoFCou: FMM=T IPFlag=           0 FMFlag=      100000 FMFlg1=        2001
         NFxFlg=           0 DoJE=T BraDBF=F KetDBF=F FulRan=T
         wScrn=  0.000000 ICntrl=       500 IOpCl=  0 I1Cent=           0 NGrid=           0
         NMat0=    1 NMatS0=      1 NMatT0=    0 NMatD0=    1 NMtDS0=    0 NMtDT0=    0
 Symmetry not used in FoFCou.
 FMM levels:  10  Number of levels for PrismC:   9
 E= -3006.46641097558    
 DIIS: error= 2.77D-02 at cycle   1 NSaved=   1.
 NSaved= 1 IEnMin= 1 EnMin= -3006.46641097558     IErMin= 1 ErrMin= 2.77D-02
 ErrMax= 2.77D-02  0.00D+00 EMaxC= 1.00D-01 BMatC= 1.28D+00 BMatP= 1.28D+00
 IDIUse=3 WtCom= 7.23D-01 WtEn= 2.77D-01
 Coeff-Com:  0.100D+01
 Coeff-En:   0.100D+01
 Coeff:      0.100D+01
 Gap=     0.107 Goal=   None    Shift=    0.000
 GapD=    0.107 DampG=1.000 DampE=0.500 DampFc=0.5000 IDamp=-1.
 Damping current iteration by 5.00D-01
 RMSDP=1.60D-03 MaxDP=1.47D-01              OVMax= 3.66D-01

 Cycle   2  Pass 1  IDiag  1:
 RMSU=  7.87D-04    CP:  9.84D-01
 E= -3006.77379598440     Delta-E=       -0.307385008813 Rises=F Damp=T
 DIIS: error= 1.37D-02 at cycle   2 NSaved=   2.
 NSaved= 2 IEnMin= 2 EnMin= -3006.77379598440     IErMin= 2 ErrMin= 1.37D-02
 ErrMax= 1.37D-02  0.00D+00 EMaxC= 1.00D-01 BMatC= 2.34D-01 BMatP= 1.28D+00
 IDIUse=3 WtCom= 8.63D-01 WtEn= 1.37D-01
 Coeff-Com: -0.202D+00 0.120D+01
 Coeff-En:   0.000D+00 0.100D+01
 Coeff:     -0.175D+00 0.117D+01
 Gap=     0.139 Goal=   None    Shift=    0.000
 RMSDP=7.86D-04 MaxDP=8.66D-02 DE=-3.07D-01 OVMax= 3.59D-01

 Cycle   3  Pass 1  IDiag  1:
 RMSU=  7.78D-04    CP:  9.74D-01  1.09D+00
 E= -3006.98688782942     Delta-E=       -0.213091845024 Rises=F Damp=F
 DIIS: error= 1.33D-02 at cycle   3 NSaved=   3.
 NSaved= 3 IEnMin= 3 EnMin= -3006.98688782942     IErMin= 3 ErrMin= 1.33D-02
 ErrMax= 1.33D-02  0.00D+00 EMaxC= 1.00D-01 BMatC= 1.65D-01 BMatP= 2.34D-01
 IDIUse=3 WtCom= 8.67D-01 WtEn= 1.33D-01
 Coeff-Com: -0.262D+00 0.658D+00 0.604D+00
 Coeff-En:   0.000D+00 0.000D+00 0.100D+01
 Coeff:     -0.227D+00 0.570D+00 0.657D+00
 Gap=     0.114 Goal=   None    Shift=    0.000
 RMSDP=6.34D-04 MaxDP=6.58D-02 DE=-2.13D-01 OVMax= 3.30D-01

 Cycle   4  Pass 1  IDiag  1:
 RMSU=  3.35D-04    CP:  9.70D-01  1.49D+00  4.41D-01
 E= -3007.10098184479     Delta-E=       -0.114094015371 Rises=F Damp=F
 DIIS: error= 4.24D-03 at cycle   4 NSaved=   4.
 NSaved= 4 IEnMin= 4 EnMin= -3007.10098184479     IErMin= 4 ErrMin= 4.24D-03
 ErrMax= 4.24D-03  0.00D+00 EMaxC= 1.00D-01 BMatC= 4.67D-02 BMatP= 1.65D-01
 IDIUse=3 WtCom= 9.58D-01 WtEn= 4.24D-02
 Coeff-Com: -0.115D+00 0.239D+00 0.412D+00 0.463D+00
 Coeff-En:   0.000D+00 0.000D+00 0.267D+00 0.733D+00
 Coeff:     -0.110D+00 0.229D+00 0.406D+00 0.474D+00
 Gap=     0.116 Goal=   None    Shift=    0.000
 RMSDP=2.77D-04 MaxDP=2.73D-02 DE=-1.14D-01 OVMax= 1.58D-01

 Cycle   5  Pass 1  IDiag  1:
 RMSU=  1.04D-04    CP:  9.70D-01  1.39D+00  6.70D-01  4.98D-01
 E= -3007.15145099810     Delta-E=       -0.050469153304 Rises=F Damp=F
 DIIS: error= 7.73D-04 at cycle   5 NSaved=   5.
 NSaved= 5 IEnMin= 5 EnMin= -3007.15145099810     IErMin= 5 ErrMin= 7.73D-04
 ErrMax= 7.73D-04  0.00D+00 EMaxC= 1.00D-01 BMatC= 1.78D-03 BMatP= 4.67D-02
 IDIUse=3 WtCom= 9.92D-01 WtEn= 7.73D-03
 Coeff-Com: -0.459D-01 0.902D-01 0.192D+00 0.263D+00 0.500D+00
 Coeff-En:   0.000D+00 0.000D+00 0.000D+00 0.000D+00 0.100D+01
 Coeff:     -0.455D-01 0.895D-01 0.191D+00 0.261D+00 0.504D+00
 Gap=     0.118 Goal=   None    Shift=    0.000
 RMSDP=6.67D-05 MaxDP=8.54D-03 DE=-5.05D-02 OVMax= 4.09D-02

 Cycle   6  Pass 1  IDiag  1:
 RMSU=  4.32D-05    CP:  9.70D-01  1.41D+00  6.52D-01  5.93D-01  6.60D-01
 E= -3007.15335267837     Delta-E=       -0.001901680269 Rises=F Damp=F
 DIIS: error= 3.19D-04 at cycle   6 NSaved=   6.
 NSaved= 6 IEnMin= 6 EnMin= -3007.15335267837     IErMin= 6 ErrMin= 3.19D-04
 ErrMax= 3.19D-04  0.00D+00 EMaxC= 1.00D-01 BMatC= 2.41D-04 BMatP= 1.78D-03
 IDIUse=3 WtCom= 9.97D-01 WtEn= 3.19D-03
 Coeff-Com:  0.450D-02-0.112D-01-0.546D-03 0.172D-01 0.275D+00 0.715D+00
 Coeff-En:   0.000D+00 0.000D+00 0.000D+00 0.000D+00 0.104D+00 0.896D+00
 Coeff:      0.449D-02-0.112D-01-0.545D-03 0.171D-01 0.275D+00 0.715D+00
 Gap=     0.120 Goal=   None    Shift=    0.000
 RMSDP=2.17D-05 MaxDP=1.85D-03 DE=-1.90D-03 OVMax= 1.09D-02

 Cycle   7  Pass 1  IDiag  1:
 RMSU=  1.41D-05    CP:  9.70D-01  1.41D+00  6.60D-01  5.88D-01  7.88D-01
                    CP:  8.38D-01
 E= -3007.15365376442     Delta-E=       -0.000301086055 Rises=F Damp=F
 DIIS: error= 1.52D-04 at cycle   7 NSaved=   7.
 NSaved= 7 IEnMin= 7 EnMin= -3007.15365376442     IErMin= 7 ErrMin= 1.52D-04
 ErrMax= 1.52D-04  0.00D+00 EMaxC= 1.00D-01 BMatC= 2.42D-05 BMatP= 2.41D-04
 IDIUse=3 WtCom= 9.98D-01 WtEn= 1.52D-03
 Coeff-Com:  0.561D-02-0.120D-01-0.143D-01-0.137D-01 0.961D-01 0.347D+00
 Coeff-Com:  0.592D+00
 Coeff-En:   0.000D+00 0.000D+00 0.000D+00 0.000D+00 0.000D+00 0.000D+00
 Coeff-En:   0.100D+01
 Coeff:      0.560D-02-0.119D-01-0.143D-01-0.137D-01 0.960D-01 0.346D+00
 Coeff:      0.592D+00
 Gap=     0.121 Goal=   None    Shift=    0.000
 RMSDP=6.75D-06 MaxDP=9.57D-04 DE=-3.01D-04 OVMax= 3.15D-03

 Cycle   8  Pass 1  IDiag  1:
 RMSU=  5.36D-06    CP:  9.70D-01  1.41D+00  6.61D-01  5.92D-01  7.92D-01
                    CP:  9.21D-01  9.42D-01
 E= -3007.15368331065     Delta-E=       -0.000029546227 Rises=F Damp=F
 DIIS: error= 4.11D-05 at cycle   8 NSaved=   8.
 NSaved= 8 IEnMin= 8 EnMin= -3007.15368331065     IErMin= 8 ErrMin= 4.11D-05
 ErrMax= 4.11D-05  0.00D+00 EMaxC= 1.00D-01 BMatC= 3.51D-06 BMatP= 2.42D-05
 IDIUse=1 WtCom= 1.00D+00 WtEn= 0.00D+00
 Coeff-Com:  0.181D-02-0.345D-02-0.626D-02-0.108D-01-0.777D-02 0.653D-02
 Coeff-Com:  0.257D+00 0.763D+00
 Coeff:      0.181D-02-0.345D-02-0.626D-02-0.108D-01-0.777D-02 0.653D-02
 Coeff:      0.257D+00 0.763D+00
 Gap=     0.121 Goal=   None    Shift=    0.000
 RMSDP=3.99D-06 MaxDP=6.74D-04 DE=-2.95D-05 OVMax= 1.69D-03

 Cycle   9  Pass 1  IDiag  1:
 RMSU=  2.28D-06    CP:  9.70D-01  1.41D+00  6.61D-01  5.94D-01  8.04D-01
                    CP:  9.56D-01  1.11D+00  1.15D+00
 E= -3007.15369051909     Delta-E=       -0.000007208446 Rises=F Damp=F
 DIIS: error= 1.68D-05 at cycle   9 NSaved=   9.
 NSaved= 9 IEnMin= 9 EnMin= -3007.15369051909     IErMin= 9 ErrMin= 1.68D-05
 ErrMax= 1.68D-05  0.00D+00 EMaxC= 1.00D-01 BMatC= 6.91D-07 BMatP= 3.51D-06
 IDIUse=1 WtCom= 1.00D+00 WtEn= 0.00D+00
 Coeff-Com: -0.256D-04 0.236D-03-0.434D-03-0.324D-02-0.169D-01-0.583D-01
 Coeff-Com:  0.360D-01 0.322D+00 0.721D+00
 Coeff:     -0.256D-04 0.236D-03-0.434D-03-0.324D-02-0.169D-01-0.583D-01
 Coeff:      0.360D-01 0.322D+00 0.721D+00
 Gap=     0.121 Goal=   None    Shift=    0.000
 RMSDP=1.97D-06 MaxDP=1.46D-04 DE=-7.21D-06 OVMax= 1.12D-03

 Cycle  10  Pass 1  IDiag  1:
 RMSU=  1.13D-06    CP:  9.70D-01  1.41D+00  6.62D-01  5.95D-01  8.06D-01
                    CP:  9.69D-01  1.18D+00  1.35D+00  1.20D+00
 E= -3007.15369237177     Delta-E=       -0.000001852673 Rises=F Damp=F
 DIIS: error= 1.50D-05 at cycle  10 NSaved=  10.
 NSaved=10 IEnMin=10 EnMin= -3007.15369237177     IErMin=10 ErrMin= 1.50D-05
 ErrMax= 1.50D-05  0.00D+00 EMaxC= 1.00D-01 BMatC= 2.45D-07 BMatP= 6.91D-07
 IDIUse=1 WtCom= 1.00D+00 WtEn= 0.00D+00
 Coeff-Com: -0.585D-03 0.119D-02 0.194D-02 0.148D-02-0.412D-02-0.371D-01
 Coeff-Com: -0.538D-01-0.799D-01 0.351D+00 0.820D+00
 Coeff:     -0.585D-03 0.119D-02 0.194D-02 0.148D-02-0.412D-02-0.371D-01
 Coeff:     -0.538D-01-0.799D-01 0.351D+00 0.820D+00
 Gap=     0.121 Goal=   None    Shift=    0.000
 RMSDP=1.61D-06 MaxDP=2.64D-04 DE=-1.85D-06 OVMax= 8.86D-04

 Cycle  11  Pass 1  IDiag  1:
 RMSU=  6.29D-07    CP:  9.70D-01  1.41D+00  6.62D-01  5.95D-01  8.07D-01
                    CP:  9.79D-01  1.23D+00  1.48D+00  1.57D+00  1.38D+00
 E= -3007.15369325146     Delta-E=       -0.000000879691 Rises=F Damp=F
 DIIS: error= 6.09D-06 at cycle  11 NSaved=  11.
 NSaved=11 IEnMin=11 EnMin= -3007.15369325146     IErMin=11 ErrMin= 6.09D-06
 ErrMax= 6.09D-06  0.00D+00 EMaxC= 1.00D-01 BMatC= 7.63D-08 BMatP= 2.45D-07
 IDIUse=1 WtCom= 1.00D+00 WtEn= 0.00D+00
 Coeff-Com: -0.230D-03 0.436D-03 0.993D-03 0.112D-02 0.400D-02-0.484D-02
 Coeff-Com: -0.231D-01-0.101D+00-0.906D-02 0.344D+00 0.788D+00
 Coeff:     -0.230D-03 0.436D-03 0.993D-03 0.112D-02 0.400D-02-0.484D-02
 Coeff:     -0.231D-01-0.101D+00-0.906D-02 0.344D+00 0.788D+00
 Gap=     0.121 Goal=   None    Shift=    0.000
 RMSDP=8.23D-07 MaxDP=5.89D-05 DE=-8.80D-07 OVMax= 5.09D-04

 Cycle  12  Pass 1  IDiag  1:
 RMSU=  3.00D-07    CP:  9.70D-01  1.41D+00  6.62D-01  5.95D-01  8.07D-01
                    CP:  9.80D-01  1.24D+00  1.55D+00  1.75D+00  1.77D+00
                    CP:  1.33D+00
 E= -3007.15369354324     Delta-E=       -0.000000291784 Rises=F Damp=F
 DIIS: error= 3.79D-06 at cycle  12 NSaved=  12.
 NSaved=12 IEnMin=12 EnMin= -3007.15369354324     IErMin=12 ErrMin= 3.79D-06
 ErrMax= 3.79D-06  0.00D+00 EMaxC= 1.00D-01 BMatC= 2.91D-08 BMatP= 7.63D-08
 IDIUse=1 WtCom= 1.00D+00 WtEn= 0.00D+00
 Coeff-Com:  0.111D-03-0.240D-03-0.229D-03-0.214D-03 0.431D-02 0.966D-02
 Coeff-Com:  0.141D-01-0.951D-02-0.138D+00-0.228D+00 0.213D+00 0.114D+01
 Coeff:      0.111D-03-0.240D-03-0.229D-03-0.214D-03 0.431D-02 0.966D-02
 Coeff:      0.141D-01-0.951D-02-0.138D+00-0.228D+00 0.213D+00 0.114D+01
 Gap=     0.121 Goal=   None    Shift=    0.000
 RMSDP=8.63D-07 MaxDP=6.39D-05 DE=-2.92D-07 OVMax= 5.38D-04

 Cycle  13  Pass 1  IDiag  1:
 RMSU=  1.72D-07    CP:  9.70D-01  1.41D+00  6.62D-01  5.96D-01  8.07D-01
                    CP:  9.82D-01  1.26D+00  1.61D+00  1.95D+00  2.17D+00
                    CP:  1.92D+00  1.65D+00
 E= -3007.15369370962     Delta-E=       -0.000000166381 Rises=F Damp=F
 DIIS: error= 2.46D-06 at cycle  13 NSaved=  13.
 NSaved=13 IEnMin=13 EnMin= -3007.15369370962     IErMin=13 ErrMin= 2.46D-06
 ErrMax= 2.46D-06  0.00D+00 EMaxC= 1.00D-01 BMatC= 7.01D-09 BMatP= 2.91D-08
 IDIUse=1 WtCom= 1.00D+00 WtEn= 0.00D+00
 Coeff-Com:  0.136D-03-0.274D-03-0.429D-03-0.574D-03 0.124D-02 0.504D-02
 Coeff-Com:  0.158D-01 0.301D-01-0.526D-01-0.216D+00-0.158D+00 0.561D+00
 Coeff-Com:  0.814D+00
 Coeff:      0.136D-03-0.274D-03-0.429D-03-0.574D-03 0.124D-02 0.504D-02
 Coeff:      0.158D-01 0.301D-01-0.526D-01-0.216D+00-0.158D+00 0.561D+00
 Coeff:      0.814D+00
 Gap=     0.121 Goal=   None    Shift=    0.000
 RMSDP=3.69D-07 MaxDP=2.75D-05 DE=-1.66D-07 OVMax= 2.34D-04

 Cycle  14  Pass 1  IDiag  1:
 RMSU=  1.03D-07    CP:  9.70D-01  1.41D+00  6.62D-01  5.96D-01  8.07D-01
                    CP:  9.82D-01  1.26D+00  1.63D+00  2.02D+00  2.34D+00
                    CP:  2.19D+00  2.13D+00  1.18D+00
 E= -3007.15369374002     Delta-E=       -0.000000030401 Rises=F Damp=F
 DIIS: error= 8.88D-07 at cycle  14 NSaved=  14.
 NSaved=14 IEnMin=14 EnMin= -3007.15369374002     IErMin=14 ErrMin= 8.88D-07
 ErrMax= 8.88D-07  0.00D+00 EMaxC= 1.00D-01 BMatC= 1.47D-09 BMatP= 7.01D-09
 IDIUse=1 WtCom= 1.00D+00 WtEn= 0.00D+00
 Coeff-Com:  0.477D-04-0.927D-04-0.169D-03-0.273D-03-0.197D-03 0.246D-03
 Coeff-Com:  0.507D-02 0.166D-01 0.355D-02-0.670D-01-0.132D+00 0.469D-01
 Coeff-Com:  0.419D+00 0.708D+00
 Coeff:      0.477D-04-0.927D-04-0.169D-03-0.273D-03-0.197D-03 0.246D-03
 Coeff:      0.507D-02 0.166D-01 0.355D-02-0.670D-01-0.132D+00 0.469D-01
 Coeff:      0.419D+00 0.708D+00
 Gap=     0.121 Goal=   None    Shift=    0.000
 RMSDP=1.50D-07 MaxDP=1.04D-05 DE=-3.04D-08 OVMax= 8.85D-05

 Cycle  15  Pass 1  IDiag  1:
 RMSU=  4.65D-08    CP:  9.70D-01  1.41D+00  6.62D-01  5.96D-01  8.07D-01
                    CP:  9.82D-01  1.26D+00  1.63D+00  2.04D+00  2.40D+00
                    CP:  2.29D+00  2.30D+00  1.41D+00  9.94D-01
 E= -3007.15369374487     Delta-E=       -0.000000004842 Rises=F Damp=F
 DIIS: error= 4.19D-07 at cycle  15 NSaved=  15.
 NSaved=15 IEnMin=15 EnMin= -3007.15369374487     IErMin=15 ErrMin= 4.19D-07
 ErrMax= 4.19D-07  0.00D+00 EMaxC= 1.00D-01 BMatC= 2.83D-10 BMatP= 1.47D-09
 IDIUse=1 WtCom= 1.00D+00 WtEn= 0.00D+00
 Coeff-Com: -0.951D-05 0.209D-04 0.238D-04-0.700D-05-0.372D-03-0.128D-02
 Coeff-Com: -0.151D-02-0.134D-03 0.153D-01 0.183D-01-0.222D-01-0.103D+00
 Coeff-Com:  0.120D-02 0.352D+00 0.742D+00
 Coeff:     -0.951D-05 0.209D-04 0.238D-04-0.700D-05-0.372D-03-0.128D-02
 Coeff:     -0.151D-02-0.134D-03 0.153D-01 0.183D-01-0.222D-01-0.103D+00
 Coeff:      0.120D-02 0.352D+00 0.742D+00
 Gap=     0.121 Goal=   None    Shift=    0.000
 RMSDP=5.16D-08 MaxDP=3.70D-06 DE=-4.84D-09 OVMax= 3.25D-05

 Cycle  16  Pass 1  IDiag  1:
 RMSU=  2.36D-08    CP:  9.70D-01  1.41D+00  6.62D-01  5.96D-01  8.07D-01
                    CP:  9.82D-01  1.26D+00  1.64D+00  2.05D+00  2.42D+00
                    CP:  2.31D+00  2.37D+00  1.48D+00  1.22D+00  1.10D+00
 E= -3007.15369374576     Delta-E=       -0.000000000899 Rises=F Damp=F
 DIIS: error= 2.02D-07 at cycle  16 NSaved=  16.
 NSaved=16 IEnMin=16 EnMin= -3007.15369374576     IErMin=16 ErrMin= 2.02D-07
 ErrMax= 2.02D-07  0.00D+00 EMaxC= 1.00D-01 BMatC= 5.02D-11 BMatP= 2.83D-10
 IDIUse=1 WtCom= 1.00D+00 WtEn= 0.00D+00
 Coeff-Com: -0.124D-04 0.250D-04 0.404D-04 0.404D-04-0.116D-03-0.604D-03
 Coeff-Com: -0.148D-02-0.304D-02 0.690D-02 0.189D-01 0.128D-01-0.542D-01
 Coeff-Com: -0.779D-01 0.327D-01 0.324D+00 0.742D+00
 Coeff:     -0.124D-04 0.250D-04 0.404D-04 0.404D-04-0.116D-03-0.604D-03
 Coeff:     -0.148D-02-0.304D-02 0.690D-02 0.189D-01 0.128D-01-0.542D-01
 Coeff:     -0.779D-01 0.327D-01 0.324D+00 0.742D+00
 Gap=     0.121 Goal=   None    Shift=    0.000
 RMSDP=2.37D-08 MaxDP=1.94D-06 DE=-8.99D-10 OVMax= 1.48D-05

 Cycle  17  Pass 1  IDiag  1:
 RMSU=  1.13D-08    CP:  9.70D-01  1.41D+00  6.62D-01  5.96D-01  8.07D-01
                    CP:  9.82D-01  1.26D+00  1.64D+00  2.05D+00  2.42D+00
                    CP:  2.32D+00  2.39D+00  1.52D+00  1.29D+00  1.36D+00
                    CP:  1.26D+00
 E= -3007.15369374598     Delta-E=       -0.000000000213 Rises=F Damp=F
 DIIS: error= 8.46D-08 at cycle  17 NSaved=  17.
 NSaved=17 IEnMin=17 EnMin= -3007.15369374598     IErMin=17 ErrMin= 8.46D-08
 ErrMax= 8.46D-08  0.00D+00 EMaxC= 1.00D-01 BMatC= 1.70D-11 BMatP= 5.02D-11
 IDIUse=1 WtCom= 1.00D+00 WtEn= 0.00D+00
 Coeff-Com: -0.405D-05 0.765D-05 0.159D-04 0.224D-04 0.640D-04 0.528D-04
 Coeff-Com: -0.293D-03-0.161D-02-0.465D-03 0.433D-02 0.128D-01 0.311D-02
 Coeff-Com: -0.387D-01-0.797D-01-0.505D-01 0.371D+00 0.780D+00
 Coeff:     -0.405D-05 0.765D-05 0.159D-04 0.224D-04 0.640D-04 0.528D-04
 Coeff:     -0.293D-03-0.161D-02-0.465D-03 0.433D-02 0.128D-01 0.311D-02
 Coeff:     -0.387D-01-0.797D-01-0.505D-01 0.371D+00 0.780D+00
 Gap=     0.121 Goal=   None    Shift=    0.000
 RMSDP=1.47D-08 MaxDP=9.54D-07 DE=-2.13D-10 OVMax= 9.09D-06

 Cycle  18  Pass 1  IDiag  1:
 RMSU=  5.57D-09    CP:  9.70D-01  1.41D+00  6.62D-01  5.96D-01  8.07D-01
                    CP:  9.82D-01  1.26D+00  1.64D+00  2.05D+00  2.42D+00
                    CP:  2.32D+00  2.40D+00  1.54D+00  1.34D+00  1.50D+00
                    CP:  1.66D+00  1.25D+00
 E= -3007.15369374612     Delta-E=       -0.000000000140 Rises=F Damp=F
 DIIS: error= 7.23D-08 at cycle  18 NSaved=  18.
 NSaved=18 IEnMin=18 EnMin= -3007.15369374612     IErMin=18 ErrMin= 7.23D-08
 ErrMax= 7.23D-08  0.00D+00 EMaxC= 1.00D-01 BMatC= 4.93D-12 BMatP= 1.70D-11
 IDIUse=1 WtCom= 1.00D+00 WtEn= 0.00D+00
 Coeff-Com:  0.266D-05-0.564D-05-0.737D-05-0.398D-05 0.873D-04 0.283D-03
 Coeff-Com:  0.441D-03 0.315D-03-0.306D-02-0.580D-02 0.768D-03 0.233D-01
 Coeff-Com:  0.968D-02-0.577D-01-0.157D+00-0.680D-01 0.383D+00 0.874D+00
 Coeff:      0.266D-05-0.564D-05-0.737D-05-0.398D-05 0.873D-04 0.283D-03
 Coeff:      0.441D-03 0.315D-03-0.306D-02-0.580D-02 0.768D-03 0.233D-01
 Coeff:      0.968D-02-0.577D-01-0.157D+00-0.680D-01 0.383D+00 0.874D+00
 Gap=     0.121 Goal=   None    Shift=    0.000
 RMSDP=1.25D-08 MaxDP=9.98D-07 DE=-1.40D-10 OVMax= 8.06D-06

 Cycle  19  Pass 1  IDiag  1:
 RMSU=  3.48D-09    CP:  9.70D-01  1.41D+00  6.62D-01  5.96D-01  8.07D-01
                    CP:  9.82D-01  1.26D+00  1.64D+00  2.05D+00  2.42D+00
                    CP:  2.32D+00  2.41D+00  1.55D+00  1.37D+00  1.63D+00
                    CP:  1.94D+00  1.71D+00  1.29D+00
 E= -3007.15369374593     Delta-E=        0.000000000186 Rises=F Damp=F
 DIIS: error= 4.02D-08 at cycle  19 NSaved=  19.
 NSaved=19 IEnMin=18 EnMin= -3007.15369374612     IErMin=19 ErrMin= 4.02D-08
 ErrMax= 4.02D-08  0.00D+00 EMaxC= 1.00D-01 BMatC= 1.45D-12 BMatP= 4.93D-12
 IDIUse=1 WtCom= 1.00D+00 WtEn= 0.00D+00
 Coeff-Com:  0.202D-05-0.402D-05-0.679D-05-0.710D-05 0.196D-04 0.896D-04
 Coeff-Com:  0.247D-03 0.548D-03-0.990D-03-0.323D-02-0.328D-02 0.862D-02
 Coeff-Com:  0.146D-01-0.252D-02-0.510D-01-0.127D+00-0.104D+00 0.411D+00
 Coeff-Com:  0.857D+00
 Coeff:      0.202D-05-0.402D-05-0.679D-05-0.710D-05 0.196D-04 0.896D-04
 Coeff:      0.247D-03 0.548D-03-0.990D-03-0.323D-02-0.328D-02 0.862D-02
 Coeff:      0.146D-01-0.252D-02-0.510D-01-0.127D+00-0.104D+00 0.411D+00
 Coeff:      0.857D+00
 Gap=     0.121 Goal=   None    Shift=    0.000
 RMSDP=6.17D-09 MaxDP=5.02D-07 DE= 1.86D-10 OVMax= 3.91D-06

 SCF Done:  E(RCAM-B3LYP) =  -3007.15369375     A.U. after   19 cycles
            NFock= 19  Conv=0.62D-08     -V/T= 2.0106
 KE= 2.975489336950D+03 PE=-2.574519605568D+04 EE= 1.038639875181D+04
 Leave Link  502 at Thu Apr 28 19:40:38 2022, MaxMem= 10066329600 cpu:            9216.5 elap:             401.7
 (Enter /sw/apps/gaussian-16.0/g16/l801.exe)
 DoSCS=F DFT=T ScalE2(SS,OS)=  1.000000  1.000000
 ExpMin= 3.36D-02 ExpMax= 4.95D+03 ExpMxC= 7.45D+02 IAcc=3 IRadAn=         5 AccDes= 0.00D+00
 HarFok:  IExCor=  205 AccDes= 0.00D+00 IRadAn=         5 IDoV=-2 UseB2=F ITyADJ=14
 ICtDFT= 12500011 ScaDFX=  1.000000  1.000000  1.000000  1.000000
 GSVD:  LWork=       -5460 too small for GESVD, short by       25550 words or       25550 for optimal perf.
 Largest valence mixing into a core orbital is  2.64D-04
 Largest core mixing into a valence orbital is  5.31D-05
 Range of M.O.s used for correlation:    71  1298
 NBasis=  1298 NAE=   246 NBE=   246 NFC=    70 NFV=     0
 NROrb=   1228 NOA=   176 NOB=   176 NVA=  1052 NVB=  1052
 Leave Link  801 at Thu Apr 28 19:40:38 2022, MaxMem= 10066329600 cpu:               7.9 elap:               0.4
 (Enter /sw/apps/gaussian-16.0/g16/l914.exe)
 RHF ground state
 Two-electron integrals replicated using symmetry.
 MDV= 10066329600 DFT=T DoStab=F Mixed=T DoRPA=T DoScal=F NonHer=T
 Making orbital integer symmetry assigments:
 Orbital symmetries:
       Occupied  (A) (A) (A) (A) (A) (A) (A) (A) (A) (A) (A) (A)
                 (A) (A) (A) (A) (A) (A) (A) (A) (A) (A) (A) (A)
                 (A) (A) (A) (A) (A) (A) (A) (A) (A) (A) (A) (A)
                 (A) (A) (A) (A) (A) (A) (A) (A) (A) (A) (A) (A)
                 (A) (A) (A) (A) (A) (A) (A) (A) (A) (A) (A) (A)
                 (A) (A) (A) (A) (A) (A) (A) (A) (A) (A) (A) (A)
                 (A) (A) (A) (A) (A) (A) (A) (A) (A) (A) (A) (A)
                 (A) (A) (A) (A) (A) (A) (A) (A) (A) (A) (A) (A)
                 (A) (A) (A) (A) (A) (A) (A) (A) (A) (A) (A) (A)
                 (A) (A) (A) (A) (A) (A) (A) (A) (A) (A) (A) (A)
                 (A) (A) (A) (A) (A) (A) (A) (A) (A) (A) (A) (A)
                 (A) (A) (A) (A) (A) (A) (A) (A) (A) (A) (A) (A)
                 (A) (A) (A) (A) (A) (A) (A) (A) (A) (A) (A) (A)
                 (A) (A) (A) (A) (A) (A) (A) (A) (A) (A) (A) (A)
                 (A) (A) (A) (A) (A) (A) (A) (A) (A) (A) (A) (A)
                 (A) (A) (A) (A) (A) (A) (A) (A) (A) (A) (A) (A)
                 (A) (A) (A) (A) (A) (A) (A) (A) (A) (A) (A) (A)
                 (A) (A) (A) (A) (A) (A) (A) (A) (A) (A) (A) (A)
                 (A) (A) (A) (A) (A) (A) (A) (A) (A) (A) (A) (A)
                 (A) (A) (A) (A) (A) (A) (A) (A) (A) (A) (A) (A)
                 (A) (A) (A) (A) (A) (A)
       Virtual   (A) (A) (A) (A) (A) (A) (A) (A) (A) (A) (A) (A)
                 (A) (A) (A) (A) (A) (A) (A) (A) (A) (A) (A) (A)
                 (A) (A) (A) (A) (A) (A) (A) (A) (A) (A) (A) (A)
                 (A) (A) (A) (A) (A) (A) (A) (A) (A) (A) (A) (A)
                 (A) (A) (A) (A) (A) (A) (A) (A) (A) (A) (A) (A)
                 (A) (A) (A) (A) (A) (A) (A) (A) (A) (A) (A) (A)
                 (A) (A) (A) (A) (A) (A) (A) (A) (A) (A) (A) (A)
                 (A) (A) (A) (A) (A) (A) (A) (A) (A) (A) (A) (A)
                 (A) (A) (A) (A) (A) (A) (A) (A) (A) (A) (A) (A)
                 (A) (A) (A) (A) (A) (A) (A) (A) (A) (A) (A) (A)
                 (A) (A) (A) (A) (A) (A) (A) (A) (A) (A) (A) (A)
                 (A) (A) (A) (A) (A) (A) (A) (A) (A) (A) (A) (A)
                 (A) (A) (A) (A) (A) (A) (A) (A) (A) (A) (A) (A)
                 (A) (A) (A) (A) (A) (A) (A) (A) (A) (A) (A) (A)
                 (A) (A) (A) (A) (A) (A) (A) (A) (A) (A) (A) (A)
                 (A) (A) (A) (A) (A) (A) (A) (A) (A) (A) (A) (A)
                 (A) (A) (A) (A) (A) (A) (A) (A) (A) (A) (A) (A)
                 (A) (A) (A) (A) (A) (A) (A) (A) (A) (A) (A) (A)
                 (A) (A) (A) (A) (A) (A) (A) (A) (A) (A) (A) (A)
                 (A) (A) (A) (A) (A) (A) (A) (A) (A) (A) (A) (A)
                 (A) (A) (A) (A) (A) (A) (A) (A) (A) (A) (A) (A)
                 (A) (A) (A) (A) (A) (A) (A) (A) (A) (A) (A) (A)
                 (A) (A) (A) (A) (A) (A) (A) (A) (A) (A) (A) (A)
                 (A) (A) (A) (A) (A) (A) (A) (A) (A) (A) (A) (A)
                 (A) (A) (A) (A) (A) (A) (A) (A) (A) (A) (A) (A)
                 (A) (A) (A) (A) (A) (A) (A) (A) (A) (A) (A) (A)
                 (A) (A) (A) (A) (A) (A) (A) (A) (A) (A) (A) (A)
                 (A) (A) (A) (A) (A) (A) (A) (A) (A) (A) (A) (A)
                 (A) (A) (A) (A) (A) (A) (A) (A) (A) (A) (A) (A)
                 (A) (A) (A) (A) (A) (A) (A) (A) (A) (A) (A) (A)
                 (A) (A) (A) (A) (A) (A) (A) (A) (A) (A) (A) (A)
                 (A) (A) (A) (A) (A) (A) (A) (A) (A) (A) (A) (A)
                 (A) (A) (A) (A) (A) (A) (A) (A) (A) (A) (A) (A)
                 (A) (A) (A) (A) (A) (A) (A) (A) (A) (A) (A) (A)
                 (A) (A) (A) (A) (A) (A) (A) (A) (A) (A) (A) (A)
                 (A) (A) (A) (A) (A) (A) (A) (A) (A) (A) (A) (A)
                 (A) (A) (A) (A) (A) (A) (A) (A) (A) (A) (A) (A)
                 (A) (A) (A) (A) (A) (A) (A) (A) (A) (A) (A) (A)
                 (A) (A) (A) (A) (A) (A) (A) (A) (A) (A) (A) (A)
                 (A) (A) (A) (A) (A) (A) (A) (A) (A) (A) (A) (A)
                 (A) (A) (A) (A) (A) (A) (A) (A) (A) (A) (A) (A)
                 (A) (A) (A) (A) (A) (A) (A) (A) (A) (A) (A) (A)
                 (A) (A) (A) (A) (A) (A) (A) (A) (A) (A) (A) (A)
                 (A) (A) (A) (A) (A) (A) (A) (A) (A) (A) (A) (A)
                 (A) (A) (A) (A) (A) (A) (A) (A) (A) (A) (A) (A)
                 (A) (A) (A) (A) (A) (A) (A) (A) (A) (A) (A) (A)
                 (A) (A) (A) (A) (A) (A) (A) (A) (A) (A) (A) (A)
                 (A) (A) (A) (A) (A) (A) (A) (A) (A) (A) (A) (A)
                 (A) (A) (A) (A) (A) (A) (A) (A) (A) (A) (A) (A)
                 (A) (A) (A) (A) (A) (A) (A) (A) (A) (A) (A) (A)
                 (A) (A) (A) (A) (A) (A) (A) (A) (A) (A) (A) (A)
                 (A) (A) (A) (A) (A) (A) (A) (A) (A) (A) (A) (A)
                 (A) (A) (A) (A) (A) (A) (A) (A) (A) (A) (A) (A)
                 (A) (A) (A) (A) (A) (A) (A) (A) (A) (A) (A) (A)
                 (A) (A) (A) (A) (A) (A) (A) (A) (A) (A) (A) (A)
                 (A) (A) (A) (A) (A) (A) (A) (A) (A) (A) (A) (A)
                 (A) (A) (A) (A) (A) (A) (A) (A) (A) (A) (A) (A)
                 (A) (A) (A) (A) (A) (A) (A) (A) (A) (A) (A) (A)
                 (A) (A) (A) (A) (A) (A) (A) (A) (A) (A) (A) (A)
                 (A) (A) (A) (A) (A) (A) (A) (A) (A) (A) (A) (A)
                 (A) (A) (A) (A) (A) (A) (A) (A) (A) (A) (A) (A)
                 (A) (A) (A) (A) (A) (A) (A) (A) (A) (A) (A) (A)
                 (A) (A) (A) (A) (A) (A) (A) (A) (A) (A) (A) (A)
                 (A) (A) (A) (A) (A) (A) (A) (A) (A) (A) (A) (A)
                 (A) (A) (A) (A) (A) (A) (A) (A) (A) (A) (A) (A)
                 (A) (A) (A) (A) (A) (A) (A) (A) (A) (A) (A) (A)
                 (A) (A) (A) (A) (A) (A) (A) (A) (A) (A) (A) (A)
                 (A) (A) (A) (A) (A) (A) (A) (A) (A) (A) (A) (A)
                 (A) (A) (A) (A) (A) (A) (A) (A) (A) (A) (A) (A)
                 (A) (A) (A) (A) (A) (A) (A) (A) (A) (A) (A) (A)
                 (A) (A) (A) (A) (A) (A) (A) (A) (A) (A) (A) (A)
                 (A) (A) (A) (A) (A) (A) (A) (A) (A) (A) (A) (A)
                 (A) (A) (A) (A) (A) (A) (A) (A) (A) (A) (A) (A)
                 (A) (A) (A) (A) (A) (A) (A) (A) (A) (A) (A) (A)
                 (A) (A) (A) (A) (A) (A) (A) (A) (A) (A) (A) (A)
                 (A) (A) (A) (A) (A) (A) (A) (A) (A) (A) (A) (A)
                 (A) (A) (A) (A) (A) (A) (A) (A) (A) (A) (A) (A)
                 (A) (A) (A) (A) (A) (A) (A) (A) (A) (A) (A) (A)
                 (A) (A) (A) (A) (A) (A) (A) (A) (A) (A) (A) (A)
                 (A) (A) (A) (A) (A) (A) (A) (A) (A) (A) (A) (A)
                 (A) (A) (A) (A) (A) (A) (A) (A) (A) (A) (A) (A)
                 (A) (A) (A) (A) (A) (A) (A) (A) (A) (A) (A) (A)
                 (A) (A) (A) (A) (A) (A) (A) (A) (A) (A) (A) (A)
                 (A) (A) (A) (A) (A) (A) (A) (A) (A) (A) (A) (A)
                 (A) (A) (A) (A) (A) (A) (A) (A) (A) (A) (A) (A)
                 (A) (A) (A) (A) (A) (A) (A) (A) (A) (A) (A) (A)
                 (A) (A) (A) (A) (A) (A) (A) (A) (A) (A) (A) (A)
                 (A) (A) (A) (A) (A) (A) (A) (A)
    20 initial guesses have been made.
 Convergence on wavefunction:    0.001000000000000
 Davidson Disk Diagonalization:  ConvIn= 1.00D-03 SkipCon=T Conv= 1.00D-03.
 Max sub-space:  2000 roots to seek:    20 dimension of matrix:       370304
 Iteration     1 Dimension    20 NMult     0 NNew     20
 CISAX will form    20 AO SS matrices at one time.
 NMat=    20 NSing=    20 JSym2X= 0.
 FoFJK:  IHMeth= 1 ICntrl=       0 DoSepK=T KAlg= 0 I1Cent=           0 FoldK=F
 IRaf=         1 NMat=      40 IRICut=       1 DoRegI=T DoRafI=F ISym2E= 0 IDoP0=3 IntGTp=3.
 FoFCou: FMM=T IPFlag=           0 FMFlag=      100000 FMFlg1=        2001
         NFxFlg=           0 DoJE=F BraDBF=F KetDBF=F FulRan=T
         wScrn=  0.000000 ICntrl=       500 IOpCl=  0 I1Cent=           0 NGrid=           0
         NMat0=   20 NMatS0=     20 NMatT0=    0 NMatD0=   20 NMtDS0=    0 NMtDT0=    0
 Symmetry not used in FoFCou.
 FMM levels:  10  Number of levels for PrismC:   9
 New state      3 was old state      4
 New state      4 was old state      5
 New state      5 was old state      8
 Excitation Energies [eV] at current iteration:
 Root      1 :     2.164764731857608
 Root      2 :     2.607387369881522
 Root      3 :     3.361261769113132
 Root      4 :     3.736136243794183
 Root      5 :     4.051368206175695
 Root      6 :     4.170414575299383
 Root      7 :     4.353003012718723
 Root      8 :     4.363782979822780
 Root      9 :     4.415363838007366
 Root     10 :     4.462474041616346
 Root     11 :     4.551746212691172
 Root     12 :     4.751962603962824
 Root     13 :     4.947813451773759
 Root     14 :     4.963392660034132
 Root     15 :     5.026011460245324
 Root     16 :     5.094262938864636
 Root     17 :     5.283244360346172
 Root     18 :     5.578416342456588
 Root     19 :     6.181520186938984
 Root     20 :     6.422637857154251
 Iteration     2 Dimension    30 NMult    20 NNew     10
 CISAX will form    10 AO SS matrices at one time.
 NMat=    10 NSing=    10 JSym2X= 0.
 Root      1 not converged, maximum delta is    0.078453375879090
 Root      2 not converged, maximum delta is    0.061269521915442
 Root      3 not converged, maximum delta is    0.054053483017978
 Root      4 not converged, maximum delta is    0.174663230455918
 Root      5 not converged, maximum delta is    0.117487586480204
 Excitation Energies [eV] at current iteration:
 Root      1 :     1.677844934813848   Change is   -0.486919797043760
 Root      2 :     2.256435398842185   Change is   -0.350951971039338
 Root      3 :     3.037905196844184   Change is   -0.323356572268948
 Root      4 :     3.412857602061931   Change is   -0.323278641732251
 Root      5 :     3.635710216997791   Change is   -0.415657989177904
 Iteration     3 Dimension    40 NMult    30 NNew     10
 CISAX will form    10 AO SS matrices at one time.
 NMat=    10 NSing=    10 JSym2X= 0.
 Root      1 not converged, maximum delta is    0.017394896400981
 Root      2 not converged, maximum delta is    0.013252836353394
 Root      3 not converged, maximum delta is    0.006073588375966
 Root      4 not converged, maximum delta is    0.086435746014100
 Root      5 not converged, maximum delta is    0.247680480066187
 Excitation Energies [eV] at current iteration:
 Root      1 :     1.638596064592706   Change is   -0.039248870221142
 Root      2 :     2.238111087599993   Change is   -0.018324311242191
 Root      3 :     3.024156325781190   Change is   -0.013748871062994
 Root      4 :     3.322436553825282   Change is   -0.090421048236649
 Root      5 :     3.504886924382939   Change is   -0.130823292614853
 Iteration     4 Dimension    50 NMult    40 NNew     10
 CISAX will form    10 AO SS matrices at one time.
 NMat=    10 NSing=    10 JSym2X= 0.
 Root      1 not converged, maximum delta is    0.003009135039510
 Root      2 not converged, maximum delta is    0.002821339062103
 Root      3 not converged, maximum delta is    0.005361021428510
 Root      4 not converged, maximum delta is    0.011868643406459
 Root      5 not converged, maximum delta is    0.073396185090389
 Excitation Energies [eV] at current iteration:
 Root      1 :     1.634107207012387   Change is   -0.004488857580319
 Root      2 :     2.235477509194771   Change is   -0.002633578405222
 Root      3 :     3.021112580896151   Change is   -0.003043744885039
 Root      4 :     3.311421558620670   Change is   -0.011014995204611
 Root      5 :     3.471181874399694   Change is   -0.033705049983245
 Iteration     5 Dimension    60 NMult    50 NNew     10
 CISAX will form    10 AO SS matrices at one time.
 NMat=    10 NSing=    10 JSym2X= 0.
 Root      1 not converged, maximum delta is    0.001343133890558
 Root      2 has converged.
 Root      3 not converged, maximum delta is    0.001508026375659
 Root      4 not converged, maximum delta is    0.005617808222238
 Root      5 not converged, maximum delta is    0.021695176921470
 Excitation Energies [eV] at current iteration:
 Root      1 :     1.633698056028283   Change is   -0.000409150984105
 Root      2 :     2.235268114497467   Change is   -0.000209394697304
 Root      3 :     3.020818165174891   Change is   -0.000294415721260
 Root      4 :     3.309981770259472   Change is   -0.001439788361199
 Root      5 :     3.464825983118702   Change is   -0.006355891280991
 Iteration     6 Dimension    68 NMult    60 NNew      8
 CISAX will form     8 AO SS matrices at one time.
 NMat=     8 NSing=     8 JSym2X= 0.
 Root      1 has converged.
 Root      2 has converged.
 Root      3 has converged.
 Root      4 not converged, maximum delta is    0.002542865324604
 Root      5 not converged, maximum delta is    0.005312639962396
 Excitation Energies [eV] at current iteration:
 Root      1 :     1.633661084352170   Change is   -0.000036971676113
 Root      2 :     2.235266582923148   Change is   -0.000001531574320
 Root      3 :     3.020793213931572   Change is   -0.000024951243319
 Root      4 :     3.309754979681388   Change is   -0.000226790578084
 Root      5 :     3.464140717440681   Change is   -0.000685265678022
 Iteration     7 Dimension    72 NMult    68 NNew      4
 CISAX will form     4 AO SS matrices at one time.
 NMat=     4 NSing=     4 JSym2X= 0.
 Root      1 has converged.
 Root      2 has converged.
 Root      3 has converged.
 Root      4 has converged.
 Root      5 not converged, maximum delta is    0.001905309094738
 Excitation Energies [eV] at current iteration:
 Root      1 :     1.633660955767077   Change is   -0.000000128585093
 Root      2 :     2.235266318871718   Change is   -0.000000264051430
 Root      3 :     3.020792821392253   Change is   -0.000000392539319
 Root      4 :     3.309734844557036   Change is   -0.000020135124351
 Root      5 :     3.463997630736537   Change is   -0.000143086704144
 Iteration     8 Dimension    74 NMult    72 NNew      2
 CISAX will form     2 AO SS matrices at one time.
 NMat=     2 NSing=     2 JSym2X= 0.
 Root      1 has converged.
 Root      2 has converged.
 Root      3 has converged.
 Root      4 has converged.
 Root      5 not converged, maximum delta is    0.002088702946261
 Excitation Energies [eV] at current iteration:
 Root      1 :     1.633660804382315   Change is   -0.000000151384762
 Root      2 :     2.235265782480623   Change is   -0.000000536391096
 Root      3 :     3.020792673191705   Change is   -0.000000148200548
 Root      4 :     3.309734758131039   Change is   -0.000000086425998
 Root      5 :     3.463947317372555   Change is   -0.000050313363981
 Iteration     9 Dimension    76 NMult    74 NNew      2
 CISAX will form     2 AO SS matrices at one time.
 NMat=     2 NSing=     2 JSym2X= 0.
 Root      1 has converged.
 Root      2 has converged.
 Root      3 has converged.
 Root      4 has converged.
 Root      5 not converged, maximum delta is    0.001916987801218
 Excitation Energies [eV] at current iteration:
 Root      1 :     1.633660763428785   Change is   -0.000000040953530
 Root      2 :     2.235265537524169   Change is   -0.000000244956454
 Root      3 :     3.020792543755399   Change is   -0.000000129436306
 Root      4 :     3.309734665752861   Change is   -0.000000092378178
 Root      5 :     3.463919200961811   Change is   -0.000028116410745
 Iteration    10 Dimension    78 NMult    76 NNew      2
 CISAX will form     2 AO SS matrices at one time.
 NMat=     2 NSing=     2 JSym2X= 0.
 Root      1 has converged.
 Root      2 has converged.
 Root      3 has converged.
 Root      4 has converged.
 Root      5 has converged.
 Excitation Energies [eV] at current iteration:
 Root      1 :     1.633660759845021   Change is   -0.000000003583764
 Root      2 :     2.235265504055342   Change is   -0.000000033468827
 Root      3 :     3.020792495842842   Change is   -0.000000047912557
 Root      4 :     3.309734617879487   Change is   -0.000000047873374
 Root      5 :     3.463909503129820   Change is   -0.000009697831991
 Convergence achieved on expansion vectors.
 ***********************************************************************
 Excited states from <AA,BB:AA,BB> singles matrix:
 ***********************************************************************
 
 1PDM for each excited state written to RWF  633
 Ground to excited state transition densities written to RWF  633
 Ground to excited state transition electric dipole moments (Au):
       state          X           Y           Z        Dip. S.      Osc.
         1         0.1591     -3.0081      0.5686      9.3974      0.3761
         2         1.2176      0.2619      0.0862      1.5584      0.0853
         3        -0.1458      0.0279      0.0103      0.0221      0.0016
         4         0.5155      0.1897      0.0524      0.3045      0.0247
         5         2.9650      0.6670      0.2378      9.2926      0.7886
 Ground to excited state transition velocity dipole moments (Au):
       state          X           Y           Z        Dip. S.      Osc.
         1        -0.0086      0.1749     -0.0338      0.0318      0.3531
         2        -0.0940     -0.0213     -0.0058      0.0093      0.0757
         3         0.0191     -0.0045     -0.0003      0.0004      0.0023
         4        -0.0615     -0.0217     -0.0020      0.0043      0.0233
         5        -0.3659     -0.0825     -0.0295      0.1415      0.7412
 Ground to excited state transition magnetic dipole moments (Au):
       state          X           Y           Z
         1        -0.1078      0.4282      2.1549
         2         0.0118      0.0754     -0.0106
         3        -0.0283      0.0759      0.7290
         4        -0.0904     -0.5912     -0.0708
         5         0.1004      0.4529     -0.9439
 Ground to excited state transition velocity quadrupole moments (Au):
       state          XX          YY          ZZ          XY          XZ          YZ
         1        -0.3258      0.3965     -0.0038      1.9968     -0.4290     -0.1111
         2        -1.9444     -0.0332     -0.0070     -0.2332     -0.0892      0.0281
         3         0.4239     -0.0763     -0.0082     -0.3555     -0.0272      0.0219
         4        -1.1682     -0.0073      0.0027     -0.1157     -0.0337      0.0107
         5        -7.5003      0.3317     -0.0222     -0.9147     -0.5173     -0.0232
 <0|del|b> * <b|rxdel|0> + <0|del|b> * <b|delr+rdel|0>
 Rotatory Strengths (R) in cgs (10**-40 erg-esu-cm/Gauss)
       state          XX          YY          ZZ    R(velocity)    E-M Angle
         1        57.5151    -20.3465     -0.9662     12.0675       89.55
         2        -9.0000    -21.7270      7.8413     -7.6286      110.91
         3        -1.7829     -1.2855     -3.7433     -2.2706       94.27
         4        36.3019     13.9774     57.5424     35.9406       61.83
         5       -70.2993    -76.0900   -110.7938    -85.7277       96.72
 1/2[<0|r|b>*<b|rxdel|0> + (<0|rxdel|b>*<b|r|0>)*]
 Rotatory Strengths (R) in cgs (10**-40 erg-esu-cm/Gauss)
       state          XX          YY          ZZ     R(length)
         1        12.1322    910.9509   -866.4856     18.8658
         2       -10.1839    -13.9710      0.6436     -7.8371
         3        -2.9180     -1.4952     -5.3270     -3.2467
         4        32.9464     79.2862      2.6222     38.2849
[...]
 Alpha virt. eigenvalues --    1.23135   1.23221   1.23725   1.24219   1.24456
 Alpha virt. eigenvalues --    1.25914   1.26481   1.26558   1.26949   1.27486
 Alpha virt. eigenvalues --    1.27792   1.28028   1.28550   1.28722   1.29199
 Alpha virt. eigenvalues --    1.29787   1.30000   1.30621   1.30800   1.31143
 Alpha virt. eigenvalues --    1.32262   1.32635   1.32907   1.33232   1.33944
 Alpha virt. eigenvalues --    1.34059   1.34540   1.35093   1.35905   1.36164
 Alpha virt. eigenvalues --    1.36362   1.36813   1.37078   1.37872   1.38390
 Alpha virt. eigenvalues --    1.38754   1.38840   1.39262   1.39386   1.39781
 Alpha virt. eigenvalues --    1.40197   1.41015   1.41258   1.41536   1.42274
 Alpha virt. eigenvalues --    1.42917   1.43273   1.43823   1.43907   1.44581
 Alpha virt. eigenvalues --    1.44727   1.45695   1.46143   1.46197   1.46766
 Alpha virt. eigenvalues --    1.46969   1.47623   1.47811   1.48105   1.48966
 Alpha virt. eigenvalues --    1.49132   1.49326   1.49361   1.49970   1.50294
 Alpha virt. eigenvalues --    1.51025   1.51476   1.51566   1.52055   1.52394
 Alpha virt. eigenvalues --    1.53480   1.53824   1.53934   1.54305   1.54897
 Alpha virt. eigenvalues --    1.55348   1.55515   1.56481   1.56652   1.56985
 Alpha virt. eigenvalues --    1.57316   1.57761   1.58113   1.58150   1.58638
 Alpha virt. eigenvalues --    1.59040   1.59563   1.59604   1.59910   1.60200
 Alpha virt. eigenvalues --    1.60353   1.60670   1.61033   1.61093   1.61161
 Alpha virt. eigenvalues --    1.61353   1.61403   1.62049   1.62166   1.62412
 Alpha virt. eigenvalues --    1.62441   1.62582   1.62684   1.63159   1.63419
 Alpha virt. eigenvalues --    1.63489   1.64029   1.64361   1.64653   1.64954
 Alpha virt. eigenvalues --    1.65379   1.65544   1.65745   1.66169   1.66438
 Alpha virt. eigenvalues --    1.66965   1.67225   1.68280   1.68795   1.69358
 Alpha virt. eigenvalues --    1.69914   1.70164   1.70724   1.71107   1.71124
 Alpha virt. eigenvalues --    1.71273   1.72343   1.72922   1.73138   1.73405
 Alpha virt. eigenvalues --    1.73760   1.74289   1.74690   1.74804   1.75474
 Alpha virt. eigenvalues --    1.76367   1.76480   1.76716   1.77021   1.77214
 Alpha virt. eigenvalues --    1.77456   1.77568   1.77772   1.78132   1.78149
 Alpha virt. eigenvalues --    1.78758   1.79004   1.79225   1.79709   1.79976
 Alpha virt. eigenvalues --    1.80529   1.80815   1.80880   1.80889   1.81493
 Alpha virt. eigenvalues --    1.81735   1.81830   1.82009   1.82303   1.82536
 Alpha virt. eigenvalues --    1.82632   1.82794   1.83285   1.83548   1.83931
 Alpha virt. eigenvalues --    1.83936   1.84361   1.84380   1.84457   1.84866
 Alpha virt. eigenvalues --    1.85026   1.85174   1.85500   1.85944   1.86071
 Alpha virt. eigenvalues --    1.86210   1.86272   1.86596   1.86827   1.86986
 Alpha virt. eigenvalues --    1.87064   1.87357   1.87514   1.87576   1.87653
 Alpha virt. eigenvalues --    1.87945   1.88111   1.88297   1.88571   1.88783
 Alpha virt. eigenvalues --    1.88925   1.89198   1.89423   1.89594   1.89674
 Alpha virt. eigenvalues --    1.90007   1.90113   1.90467   1.90660   1.91077
 Alpha virt. eigenvalues --    1.91227   1.91384   1.91633   1.91822   1.92125
 Alpha virt. eigenvalues --    1.92232   1.92328   1.92480   1.92606   1.92693
 Alpha virt. eigenvalues --    1.93033   1.93255   1.93443   1.93777   1.93825
 Alpha virt. eigenvalues --    1.93941   1.94112   1.94262   1.94664   1.95271
 Alpha virt. eigenvalues --    1.95422   1.95609   1.96074   1.96167   1.96350
 Alpha virt. eigenvalues --    1.96674   1.96803   1.97179   1.97593   1.97805
 Alpha virt. eigenvalues --    1.98082   1.98662   1.98969   1.99132   1.99435
 Alpha virt. eigenvalues --    1.99588   1.99795   2.00156   2.00408   2.00592
 Alpha virt. eigenvalues --    2.01024   2.01232   2.01714   2.01790   2.02087
 Alpha virt. eigenvalues --    2.02239   2.02461   2.02548   2.02662   2.03084
 Alpha virt. eigenvalues --    2.03417   2.03521   2.03807   2.04027   2.04218
 Alpha virt. eigenvalues --    2.04699   2.04904   2.05240   2.05625   2.05753
 Alpha virt. eigenvalues --    2.06039   2.06368   2.06530   2.06803   2.07152
 Alpha virt. eigenvalues --    2.07428   2.07904   2.08212   2.08515   2.08698
 Alpha virt. eigenvalues --    2.08971   2.09185   2.09768   2.10158   2.11149
 Alpha virt. eigenvalues --    2.11277   2.11384   2.11590   2.11838   2.11876
 Alpha virt. eigenvalues --    2.12259   2.12504   2.13334   2.13477   2.13511
 Alpha virt. eigenvalues --    2.13674   2.14057   2.14271   2.14486   2.14608
 Alpha virt. eigenvalues --    2.14914   2.15165   2.15542   2.15737   2.15887
 Alpha virt. eigenvalues --    2.16167   2.16898   2.16987   2.17148   2.17448
 Alpha virt. eigenvalues --    2.17957   2.18267   2.18580   2.18627   2.18866
 Alpha virt. eigenvalues --    2.19355   2.19647   2.20221   2.20648   2.21063
 Alpha virt. eigenvalues --    2.21263   2.21779   2.22245   2.22407   2.22523
 Alpha virt. eigenvalues --    2.23150   2.23188   2.23411   2.23684   2.24456
 Alpha virt. eigenvalues --    2.24875   2.25922   2.26077   2.26547   2.27448
 Alpha virt. eigenvalues --    2.28034   2.28513   2.28897   2.29031   2.29428
 Alpha virt. eigenvalues --    2.30069   2.30147   2.30566   2.30701   2.31401
 Alpha virt. eigenvalues --    2.32081   2.32291   2.32727   2.32864   2.33762
 Alpha virt. eigenvalues --    2.34037   2.34309   2.34950   2.35263   2.35576
 Alpha virt. eigenvalues --    2.35910   2.36475   2.36758   2.37041   2.37283
 Alpha virt. eigenvalues --    2.37831   2.38087   2.38437   2.38774   2.39504
 Alpha virt. eigenvalues --    2.39996   2.40515   2.40906   2.40970   2.41357
 Alpha virt. eigenvalues --    2.41528   2.41826   2.42239   2.42460   2.42696
 Alpha virt. eigenvalues --    2.43102   2.43278   2.43485   2.43694   2.43808
 Alpha virt. eigenvalues --    2.44249   2.45007   2.45176   2.45200   2.46208
 Alpha virt. eigenvalues --    2.46720   2.46903   2.47194   2.47474   2.47826
 Alpha virt. eigenvalues --    2.47922   2.48037   2.48745   2.49288   2.49468
 Alpha virt. eigenvalues --    2.49801   2.50066   2.50422   2.50915   2.51387
 Alpha virt. eigenvalues --    2.51667   2.51920   2.52127   2.52198   2.53369
 Alpha virt. eigenvalues --    2.53395   2.53927   2.54563   2.54758   2.55643
 Alpha virt. eigenvalues --    2.55938   2.55960   2.56544   2.56622   2.56848
 Alpha virt. eigenvalues --    2.57613   2.58217   2.58531   2.59596   2.59672
 Alpha virt. eigenvalues --    2.60205   2.60386   2.60788   2.60996   2.61700
 Alpha virt. eigenvalues --    2.62017   2.62405   2.62522   2.63063   2.64157
 Alpha virt. eigenvalues --    2.64505   2.64743   2.65021   2.65055   2.65603
 Alpha virt. eigenvalues --    2.66071   2.66460   2.67270   2.67554   2.68289
 Alpha virt. eigenvalues --    2.68645   2.69222   2.69517   2.69811   2.69978
 Alpha virt. eigenvalues --    2.70258   2.70850   2.70997   2.71030   2.71368
 Alpha virt. eigenvalues --    2.71672   2.72728   2.72994   2.73181   2.73570
 Alpha virt. eigenvalues --    2.73915   2.74481   2.75195   2.75391   2.75508
 Alpha virt. eigenvalues --    2.76002   2.76408   2.76674   2.77232   2.77328
 Alpha virt. eigenvalues --    2.77950   2.78153   2.78514   2.78858   2.79535
 Alpha virt. eigenvalues --    2.79721   2.79867   2.80720   2.81123   2.81635
 Alpha virt. eigenvalues --    2.82316   2.82607   2.82822   2.83542   2.84241
 Alpha virt. eigenvalues --    2.84367   2.84454   2.84888   2.85505   2.86531
 Alpha virt. eigenvalues --    2.86985   2.87211   2.87749   2.88068   2.89167
 Alpha virt. eigenvalues --    2.89293   2.89645   2.90115   2.90948   2.91653
 Alpha virt. eigenvalues --    2.92209   2.92505   2.93293   2.93488   2.93961
 Alpha virt. eigenvalues --    2.94236   2.94643   2.95127   2.95452   2.96427
 Alpha virt. eigenvalues --    2.97022   2.97308   2.97478   2.97712   2.98340
 Alpha virt. eigenvalues --    2.98483   2.98875   2.99085   2.99173   3.00006
 Alpha virt. eigenvalues --    3.00153   3.00237   3.00355   3.00716   3.01091
 Alpha virt. eigenvalues --    3.01713   3.01827   3.01864   3.02140   3.02486
 Alpha virt. eigenvalues --    3.02686   3.02771   3.03185   3.03412   3.04046
 Alpha virt. eigenvalues --    3.04213   3.04562   3.04804   3.05015   3.05070
 Alpha virt. eigenvalues --    3.05505   3.05949   3.06029   3.06285   3.06813
 Alpha virt. eigenvalues --    3.07113   3.07262   3.07864   3.07983   3.08388
 Alpha virt. eigenvalues --    3.08809   3.09048   3.09148   3.09366   3.09591
 Alpha virt. eigenvalues --    3.10137   3.10890   3.11027   3.11453   3.12156
 Alpha virt. eigenvalues --    3.12803   3.13244   3.13958   3.14468   3.14722
 Alpha virt. eigenvalues --    3.15060   3.15476   3.15616   3.16025   3.17612
 Alpha virt. eigenvalues --    3.18669   3.19635   3.19866   3.20274   3.20456
 Alpha virt. eigenvalues --    3.21421   3.21846   3.22057   3.22569   3.22871
 Alpha virt. eigenvalues --    3.23859   3.26730   3.27556   3.29088   3.30291
 Alpha virt. eigenvalues --    3.31769   3.33322   3.42605   3.43669   3.45173
 Alpha virt. eigenvalues --    3.46662   3.48840   3.51441   3.54532   3.56748
 Alpha virt. eigenvalues --    3.65324   3.66550   3.69737   3.71643   3.72252
 Alpha virt. eigenvalues --    3.72949   3.74885
          Condensed to atoms (all electrons):
 Mulliken charges:
               1
     1  Mg   0.856626
     2  C    0.019810
     3  C   -0.100051
     4  C   -0.065038
     5  C   -0.132646
     6  N   -0.352995
     7  C   -0.031409
     8  C    0.026840
     9  C   -0.095963
    10  C    0.108109
    11  C    0.059869
    12  C    0.096868
    13  C    0.003240
    14  C    0.176907
    15  O   -0.236369
    16  O   -0.296264
    17  N   -0.464528
    18  C    0.172442
    19  C   -0.149519
    20  C   -0.049983
    21  C    0.112958
    22  C    0.101147
    23  C    0.028512
    24  O   -0.190328
    25  C    0.032461
    26  N   -0.286473
    27  C    0.091512
    28  C   -0.056842
    29  C    0.038627
    30  C    0.045324
    31  C    0.041407
    32  C    0.018310
    33  C   -0.019275
    34  N   -0.323696
    35  C    0.184323
    36  C   -0.190597
    37  C    0.036629
    38  C    0.083915
    39  C    0.151025
    40  C   -0.019117
    41  O   -0.177678
    42  C   -0.032764
    43  C    0.230862
    44  O   -0.220270
    45  O   -0.336512
    46  C    0.187579
    47  C    0.263480
    48  C   -0.117422
    49  C   -0.178208
    50  C    0.089297
    51  C    0.083399
    52  C   -0.017618
    53  C    0.066978
    54  C   -0.139353
    55  C    0.041007
    56  C    0.094763
    57  C   -0.038281
    58  C    0.059337
    59  C   -0.142338
    60  C    0.092134
    61  C    0.031715
    62  C    0.003571
    63  C    0.033942
    64  C   -0.147864
    65  C    0.058990
    66  C    0.028267
    67  H   -0.020057
    68  H   -0.000277
    69  H   -0.035346
    70  H    0.020236
    71  H    0.002076
    72  H    0.023427
    73  H    0.025549
    74  H    0.007568
    75  H    0.002454
    76  H    0.024629
    77  H    0.046167
    78  H    0.028348
    79  H    0.038101
    80  H    0.016847
    81  H    0.017762
    82  H    0.048042
    83  H    0.019568
    84  H    0.038320
    85  H    0.019371
    86  H    0.010028
    87  H    0.020726
    88  H    0.012596
    89  H    0.017223
    90  H    0.013832
    91  H   -0.002960
    92  H    0.005009
    93  H    0.009636
    94  H    0.024789
    95  H    0.016543
    96  H    0.046785
    97  H    0.025695
    98  H    0.047803
    99  H    0.028694
   100  H    0.052655
   101  H    0.014254
   102  H    0.031574
   103  H    0.038415
   104  H   -0.008936
   105  H    0.016866
   106  H    0.025965
   107  H    0.003794
   108  H   -0.007519
   109  H   -0.003310
   110  H   -0.001011
   111  H   -0.000808
   112  H   -0.007058
   113  H    0.009384
   114  H    0.004030
   115  H   -0.007080
   116  H    0.001390
   117  H    0.012652
   118  H   -0.017668
   119  H   -0.012710
   120  H   -0.004486
   121  H    0.012765
   122  H   -0.007148
   123  H   -0.005206
   124  H   -0.013019
   125  H    0.003445
   126  H   -0.006193
   127  H    0.009843
   128  H   -0.012795
   129  H   -0.003060
   130  H   -0.002044
   131  H   -0.003069
   132  H    0.002369
   133  H   -0.002518
   134  H    0.004915
   135  H    0.006635
   136  H    0.008853
   137  H    0.004368
   138  H    0.013295
   139  H    0.001961
   140  H    0.004246
 Sum of Mulliken charges =  -0.00000
 Mulliken charges with hydrogens summed into heavy atoms:
               1
     1  Mg   0.856626
     2  C    0.019810
     3  C   -0.120108
     4  C   -0.065315
     5  C   -0.167993
     6  N   -0.352995
     7  C   -0.031409
     8  C    0.047076
     9  C   -0.093887
    10  C    0.108109
    11  C    0.116412
    12  C    0.123951
    13  C    0.077754
    14  C    0.176907
    15  O   -0.236369
    16  O   -0.296264
    17  N   -0.464528
    18  C    0.172442
    19  C   -0.149519
    20  C   -0.049983
    21  C    0.112958
    22  C    0.173856
    23  C    0.028512
    24  O   -0.190328
    25  C    0.138392
    26  N   -0.286473
    27  C    0.091512
    28  C   -0.037471
    29  C    0.048655
    30  C    0.045324
    31  C    0.091952
    32  C    0.029181
    33  C    0.020160
    34  N   -0.323696
    35  C    0.184323
    36  C   -0.190597
    37  C    0.036629
    38  C    0.083915
    39  C    0.240047
    40  C   -0.019117
    41  O   -0.177678
    42  C    0.015039
    43  C    0.230862
    44  O   -0.220270
    45  O   -0.336512
    46  C    0.283182
    47  C    0.333470
    48  C   -0.126358
    49  C   -0.178208
    50  C    0.135922
    51  C    0.072570
    52  C   -0.019436
    53  C    0.069304
    54  C   -0.135323
    55  C    0.047969
    56  C    0.064385
    57  C   -0.030002
    58  C    0.046983
    59  C   -0.155357
    60  C    0.099230
    61  C    0.015859
    62  C   -0.001542
    63  C    0.033793
    64  C   -0.142950
    65  C    0.078846
    66  C    0.047768
 Electronic spatial extent (au):  <R**2>=         134892.0673
 Charge=             -0.0000 electrons
 Dipole moment (field-independent basis, Debye):
    X=             -3.7955    Y=              4.0904    Z=              1.6791  Tot=              5.8272
 Quadrupole moment (field-independent basis, Debye-Ang):
   XX=           -379.5738   YY=           -415.5004   ZZ=           -403.2668
   XY=              9.5147   XZ=             11.9216   YZ=             -3.5418
 Traceless Quadrupole moment (field-independent basis, Debye-Ang):
   XX=             19.8731   YY=            -16.0534   ZZ=             -3.8198
   XY=              9.5147   XZ=             11.9216   YZ=             -3.5418
 Octapole moment (field-independent basis, Debye-Ang**2):
  XXX=            244.3177  YYY=            151.9972  ZZZ=             10.5176  XYY=           -130.0502
  XXY=           -353.2266  XXZ=            157.7209  XZZ=             19.5426  YZZ=            -11.2075
  YYZ=            -81.8057  XYZ=             -0.5278
 Hexadecapole moment (field-independent basis, Debye-Ang**3):
 XXXX=        -156935.3987 YYYY=         -21208.2207 ZZZZ=          -7156.3353 XXXY=          -2330.0730
 XXXZ=            824.5077 YYYX=           1009.2570 YYYZ=              5.8480 ZZZX=            -42.8483
 ZZZY=            -79.6985 XXYY=         -31103.1936 XXZZ=         -27550.3502 YYZZ=          -4736.4838
 XXYZ=           -151.1152 YYXZ=           -129.3791 ZZXY=            285.4642
 N-N= 9.376154273171D+03 E-N=-2.574519605640D+04  KE= 2.975489336950D+03
 Leave Link  601 at Thu Apr 28 20:02:50 2022, MaxMem= 10066329600 cpu:              15.3 elap:               0.7
 (Enter /sw/apps/gaussian-16.0/g16/l9999.exe)
 1\1\GINC-BP1-COMPUTE150\SP\RCAM-B3LYP TD-FC\def2SVP\C55H74Mg1N4O6\OF15
 641\28-Apr-2022\0\\#p cam-b3lyp/Def2SVP td=(nstates=5)\\step_1701_chro
 mophore_7 TDDFT with cam-b3lyp functional\\0,1\Mg,0,26.709,0.161,29.46
 7\C,0,28.722,-0.041,32.454\C,0,23.941,0.657,31.254\C,0,25.09,0.253,26.
 504\C,0,29.787,-0.501,27.75\N,0,26.435,0.299,31.513\C,0,27.33,0.286,32
 .63\C,0,26.575,0.579,33.906\C,0,25.109,0.574,33.485\C,0,25.147,0.492,3
 1.984\C,0,24.144,-0.465,34.069\C,0,27.121,1.755,34.768\C,0,26.418,1.80
 2,36.23\C,0,27.186,1.351,37.498\O,0,28.063,0.475,37.477\O,0,26.64,1.93
 3,38.598\N,0,24.86,0.234,28.949\C,0,23.779,0.486,29.842\C,0,22.521,0.6
 28,29.108\C,0,22.827,0.546,27.722\C,0,24.301,0.323,27.696\C,0,21.194,1
 .043,29.798\C,0,21.853,0.402,26.521\O,0,22.224,0.388,25.361\C,0,20.366
 ,0.282,26.769\N,0,27.393,-0.118,27.467\C,0,26.471,0.007,26.434\C,0,27.
 22,0.095,25.02\C,0,28.706,-0.104,25.47\C,0,28.65,-0.257,27.004\C,0,26.
 865,-0.944,23.921\C,0,29.735,1.013,25.166\C,0,31.075,0.601,24.511\N,0,
 28.777,-0.286,29.965\C,0,29.818,-0.617,29.082\C,0,30.927,-1.07,29.802\
 C,0,30.558,-0.762,31.142\C,0,29.283,-0.294,31.209\C,0,32.175,-1.705,29
 .214\C,0,31.101,-0.683,32.474\O,0,32.274,-0.893,32.793\C,0,29.866,-0.2
 25,33.433\C,0,29.677,-1.216,34.478\O,0,28.954,-2.178,34.324\O,0,30.43,
 -0.937,35.607\C,0,30.292,-1.936,36.684\C,0,27.32,1.633,39.813\C,0,26.6
 91,0.631,40.756\C,0,26.966,0.425,42.055\C,0,28.187,0.909,42.789\C,0,26
 .009,-0.534,42.791\C,0,25.133,0.065,43.925\C,0,23.62,-0.016,43.609\C,0
 ,22.915,0.102,44.977\C,0,21.844,-1.018,45.278\C,0,22.346,1.509,45.112\
 C,0,23.153,2.373,46.118\C,0,22.305,2.738,47.358\C,0,23.26,3.379,48.385
 \C,0,23.202,2.714,49.718\C,0,22.964,4.856,48.549\C,0,23.453,5.7,47.373
 \C,0,22.232,6.375,46.632\C,0,22.382,7.958,46.765\C,0,21.406,8.612,47.7
 69\C,0,22.21,8.478,45.289\H,0,23.077,1.016,31.817\H,0,24.555,0.449,25.
 572\H,0,30.745,-0.667,27.253\H,0,26.643,-0.328,34.507\H,0,24.75,1.508,
 33.919\H,0,24.517,-1.023,34.927\H,0,23.87,-1.173,33.286\H,0,23.201,-0.
 009,34.37\H,0,26.873,2.748,34.392\H,0,28.21,1.701,34.764\H,0,25.436,1.
 329,36.208\H,0,26.304,2.873,36.399\H,0,21.048,2.114,29.662\H,0,21.174,
 0.862,30.872\H,0,20.366,0.506,29.334\H,0,20.124,-0.604,27.356\H,0,19.7
 99,0.187,25.843\H,0,19.944,1.19,27.201\H,0,26.877,1.029,24.575\H,0,29.
 088,-1.024,25.027\H,0,26.493,-1.863,24.375\H,0,27.68,-1.267,23.274\H,0
 ,26.152,-0.496,23.229\H,0,29.995,1.66,26.004\H,0,29.366,1.77,24.474\H,
 0,31.29,1.414,23.817\H,0,31.103,-0.239,23.818\H,0,31.883,0.471,25.231\
 H,0,31.997,-2.126,28.225\H,0,32.542,-2.391,29.977\H,0,32.899,-0.908,29
 .047\H,0,30.335,0.703,33.76\H,0,30.514,-2.966,36.406\H,0,29.39,-1.796,
 37.281\H,0,31.179,-1.772,37.296\H,0,27.436,2.545,40.399\H,0,28.311,1.2
 34,39.595\H,0,25.766,0.161,40.423\H,0,28.857,0.06,42.929\H,0,27.965,1.
 315,43.775\H,0,28.9,1.488,42.202\H,0,26.687,-1.294,43.179\H,0,25.395,-
 1.111,42.099\H,0,25.368,1.121,44.057\H,0,25.419,-0.354,44.89\H,0,23.47
 7,-0.971,43.103\H,0,23.421,0.747,42.857\H,0,23.577,-0.058,45.828\H,0,2
 2.313,-1.677,46.009\H,0,21.691,-1.722,44.46\H,0,20.897,-0.71,45.723\H,
 0,21.325,1.34,45.455\H,0,22.294,1.997,44.138\H,0,23.257,3.326,45.599\H
 ,0,24.141,1.975,46.347\H,0,21.815,1.843,47.741\H,0,21.55,3.43,46.985\H
 ,0,24.278,3.324,47.998\H,0,24.194,2.769,50.165\H,0,22.992,1.655,49.565
 \H,0,22.414,3.226,50.271\H,0,23.507,5.286,49.391\H,0,21.881,4.935,48.6
 49\H,0,24.01,5.112,46.643\H,0,24.165,6.377,47.845\H,0,21.306,6.001,47.
 068\H,0,22.258,5.987,45.613\H,0,23.376,8.299,47.053\H,0,20.726,7.884,4
 8.211\H,0,20.859,9.435,47.308\H,0,21.982,9.026,48.596\H,0,21.142,8.494
 ,45.072\H,0,22.702,7.775,44.617\H,0,22.751,9.413,45.14\\Version=ES64L-
 G16RevA.03\State=1-A\HF=-3007.1536937\RMSD=6.171e-09\PG=C01 [X(C55H74M
 g1N4O6)]\\@


 MARY HAD A LITTLE LAMB
      HIS FEET WERE BLACK AS SOOT,
           AND EVERYWHERE THAT MARY WENT
                HIS SOOTY FOOT HE PUT.

                    -- NONAME
 Job cpu time:       0 days 11 hours 26 minutes 28.9 seconds.
 Elapsed time:       0 days  0 hours 29 minutes  5.7 seconds.
 File lengths (MBytes):  RWF=   8929 Int=      0 D2E=      0 Chk=    390 Scr=      1
 Normal termination of Gaussian 16 at Thu Apr 28 20:02:50 2022.
