 Entering Gaussian System, Link 0=g16
 Initial command:
 /sw/apps/gaussian-16.0/g16/l1.exe "/tmp/Gau-131933.inp" -scrdir="/tmp/"
 Entering Link 1 = /sw/apps/gaussian-16.0/g16/l1.exe PID=    131934.
  
 Copyright (c) 1988,1990,1992,1993,1995,1998,2003,2009,2016,
            Gaussian, Inc.  All Rights Reserved.
  
 This is part of the Gaussian(R) 16 program.  It is based on
 the Gaussian(R) 09 system (copyright 2009, Gaussian, Inc.),
 the Gaussian(R) 03 system (copyright 2003, Gaussian, Inc.),
 the Gaussian(R) 98 system (copyright 1998, Gaussian, Inc.),
 the Gaussian(R) 94 system (copyright 1995, Gaussian, Inc.),
 the Gaussian 92(TM) system (copyright 1992, Gaussian, Inc.),
 the Gaussian 90(TM) system (copyright 1990, Gaussian, Inc.),
 the Gaussian 88(TM) system (copyright 1988, Gaussian, Inc.),
 the Gaussian 86(TM) system (copyright 1986, Carnegie Mellon
 University), and the Gaussian 82(TM) system (copyright 1983,
 Carnegie Mellon University). Gaussian is a federally registered
 trademark of Gaussian, Inc.
  
 This software contains proprietary and confidential information,
 including trade secrets, belonging to Gaussian, Inc.
  
 This software is provided under written license and may be
 used, copied, transmitted, or stored only in accord with that
 written license.
  
 The following legend is applicable only to US Government
 contracts under FAR:
  
                    RESTRICTED RIGHTS LEGEND
  
 Use, reproduction and disclosure by the US Government is
 subject to restrictions as set forth in subparagraphs (a)
 and (c) of the Commercial Computer Software - Restricted
 Rights clause in FAR 52.227-19.
  
 Gaussian, Inc.
 340 Quinnipiac St., Bldg. 40, Wallingford CT 06492
  
  
 ---------------------------------------------------------------
 Warning -- This program may not be used in any manner that
 competes with the business of Gaussian, Inc. or will provide
 assistance to any competitor of Gaussian, Inc.  The licensee
 of this program is prohibited from giving any competitor of
 Gaussian, Inc. access to this program.  By using this program,
 the user acknowledges that Gaussian, Inc. is engaged in the
 business of creating and licensing software in the field of
 computational chemistry and represents and warrants to the
 licensee that it is not a competitor of Gaussian, Inc. and that
 it will not use this program in any manner prohibited above.
 ---------------------------------------------------------------
  

 Cite this work as:
 Gaussian 16, Revision A.03,
 M. J. Frisch, G. W. Trucks, H. B. Schlegel, G. E. Scuseria, 
 M. A. Robb, J. R. Cheeseman, G. Scalmani, V. Barone, 
 G. A. Petersson, H. Nakatsuji, X. Li, M. Caricato, A. V. Marenich, 
 J. Bloino, B. G. Janesko, R. Gomperts, B. Mennucci, H. P. Hratchian, 
 J. V. Ortiz, A. F. Izmaylov, J. L. Sonnenberg, D. Williams-Young, 
 F. Ding, F. Lipparini, F. Egidi, J. Goings, B. Peng, A. Petrone, 
 T. Henderson, D. Ranasinghe, V. G. Zakrzewski, J. Gao, N. Rega, 
 G. Zheng, W. Liang, M. Hada, M. Ehara, K. Toyota, R. Fukuda, 
 J. Hasegawa, M. Ishida, T. Nakajima, Y. Honda, O. Kitao, H. Nakai, 
 T. Vreven, K. Throssell, J. A. Montgomery, Jr., J. E. Peralta, 
 F. Ogliaro, M. J. Bearpark, J. J. Heyd, E. N. Brothers, K. N. Kudin, 
 V. N. Staroverov, T. A. Keith, R. Kobayashi, J. Normand, 
 K. Raghavachari, A. P. Rendell, J. C. Burant, S. S. Iyengar, 
 J. Tomasi, M. Cossi, J. M. Millam, M. Klene, C. Adamo, R. Cammi, 
 J. W. Ochterski, R. L. Martin, K. Morokuma, O. Farkas, 
 J. B. Foresman, and D. J. Fox, Gaussian, Inc., Wallingford CT, 2016.
 
 ******************************************
 Gaussian 16:  ES64L-G16RevA.03 25-Dec-2016
                26-Apr-2022 
 ******************************************
 %nproc=24
 Will use up to   24 processors via shared memory.
 %mem=75GB
 --------------------------------
 #p wB97XD/Def2SVP td=(nstates=5)
 --------------------------------
 1/38=1,172=1/1;
 2/12=2,17=6,18=5,40=1/2;
 3/5=43,7=101,11=9,25=1,30=1,74=-58/1,2,3,8;
 4//1;
 5/5=2,38=5/2;
 8/6=1,10=1,108=5/1;
 9/41=5,42=1,70=2/14;
 6/7=2,8=2,9=2,10=2/1;
 99/5=1,9=1/99;
 Leave Link    1 at Tue Apr 26 22:55:47 2022, MaxMem= 10066329600 cpu:               1.8 elap:               0.1
 (Enter /sw/apps/gaussian-16.0/g16/l101.exe)
 ----------------------------------------------------
 step_1001_chromophore_3 TDDFT with wB97XD functional
 ----------------------------------------------------
 Symbolic Z-matrix:
 Charge =  0 Multiplicity = 1
 Mg                    1.861     8.22      25.957 
 C                     2.504     10.18     28.922 
 C                     2.403     5.513     27.96 
 C                     1.361     6.543     23.387 
 C                     2.049     11.28     24.239 
 N                     2.484     7.936     28.252 
 C                     2.545     8.837     29.282 
 C                     2.395     8.142     30.652 
 C                     2.662     6.668     30.264 
 C                     2.477     6.681     28.726 
 C                     4.028     6.083     30.545 
 C                     0.979     8.394     31.191 
 C                     0.913     8.716     32.644 
 C                     2.139     8.353     33.512 
 O                     3.056     9.121     33.833 
 O                     2.005     7.094     34.026 
 N                     2.017     6.252     25.671 
 C                     2.221     5.288     26.56 
 C                     2.144     4.012     25.961 
 C                     1.757     4.266     24.693 
 C                     1.719     5.771     24.518 
 C                     2.418     2.741     26.642 
 C                     1.399     3.332     23.576 
 O                     1.025     3.806     22.555 
 C                     1.399     1.863     23.599 
 N                     1.877     8.83      24.03 
 C                     1.554     7.885     23.116 
 C                     1.276     8.504     21.745 
 C                     1.267     9.99      22.072 
 C                     1.805     10.101    23.51 
 C                     2.433     8.164     20.737 
 C                    -0.168     10.619    21.953 
 C                    -0.39      11.661    20.819 
 N                     2.042     10.368    26.469 
 C                     2.135     11.442    25.654 
 C                     2.242     12.694    26.428 
 C                     2.334     12.226    27.737 
 C                     2.319     10.802    27.674 
 C                     2.331     14.141    25.947 
 C                     2.558     12.683    29.132 
 O                     2.786     13.79     29.537 
 C                     2.482     11.314    30.003 
 C                     3.715     11.305    30.874 
 O                     4.741     10.666    30.755 
 O                     3.341     12.159    31.976 
 C                     4.193     12.       33.124 
 C                     2.86      6.615     35.059 
 C                     2.044     5.863     36.094 
 C                     2.442     5.468     37.34 
 C                     3.869     5.776     37.913 
 C                     1.554     4.523     38.187 
 C                     1.496     3.077     37.633 
 C                     1.261     1.942     38.679 
 C                     2.499     1.089     38.816 
 C                     3.715     1.767     39.46 
 C                     2.144    -0.279     39.512 
 C                     2.576    -1.6       38.732 
 C                     3.013    -2.828     39.66 
 C                     4.544    -2.887     39.96 
 C                     4.953    -4.41      40.247 
 C                     5.257    -1.808     40.916 
 C                     6.863    -1.918     40.891 
 C                     7.472    -0.552     41.176 
 C                     9.025    -0.394     40.817 
 C                     9.882     0.093     42.018 
 C                     9.23      0.475     39.48 
 H                     2.427     4.636     28.61 
 H                     0.922     6.126     22.478 
 H                     1.633     12.182    23.786 
 H                     3.163     8.565     31.299 
 H                     1.864     6.015     30.617 
 H                     4.282     5.267     29.868 
 H                     4.172     5.722     31.563 
 H                     4.834     6.815     30.506 
 H                     0.335     7.568     30.889 
 H                     0.483     9.259     30.75 
 H                     0.019     8.267     33.079 
 H                     0.885     9.8       32.757 
 H                     2.848     2.894     27.632 
 H                     3.08      2.015     26.168 
 H                     1.447     2.267     26.783 
 H                     1.601     1.434     22.617 
 H                     0.45      1.584     24.056 
 H                     2.175     1.426     24.228 
 H                     0.274     8.26      21.392 
 H                     1.994     10.47     21.416 
 H                     3.371     7.766     21.124 
 H                     2.677     9.02      20.108 
 H                     2.152     7.379     20.036 
 H                    -0.392     11.183    22.859 
 H                    -0.948     9.869     21.82 
 H                     0.427     11.444    20.131 
 H                    -0.504     12.633    21.298 
 H                    -1.284     11.447    20.232 
 H                     3.205     14.199    25.299 
 H                     2.374     14.629    26.921 
 H                     1.411     14.474    25.465 
 H                     1.689     11.337    30.75 
 H                     4.771     11.08     33.215 
 H                     3.59      12.129    34.022 
 H                     4.761     12.93     33.106 
 H                     3.4       7.443     35.517 
 H                     3.691     6.034     34.659 
 H                     0.973     5.739     35.932 
 H                     4.534     6.208     37.165 
 H                     4.237     4.827     38.302 
 H                     3.802     6.49      38.734 
 H                     0.513     4.832     38.283 
 H                     1.993     4.458     39.182 
 H                     2.283     2.954     36.889 
 H                     0.577     2.939     37.063 
 H                     0.343     1.435     38.385 
 H                     1.001     2.479     39.591 
 H                     2.801     0.747     37.826 
 H                     4.705     1.394     39.198 
 H                     3.676     1.634     40.541 
 H                     3.57      2.827     39.251 
 H                     1.081    -0.345     39.742 
 H                     2.654    -0.291     40.475 
 H                     3.401    -1.273     38.099 
 H                     1.801    -1.977     38.065 
 H                     2.724    -3.68      39.045 
 H                     2.508    -2.752     40.623 
 H                     4.956    -2.788     38.955 
 H                     4.093    -4.987     40.585 
 H                     5.662    -4.34      41.072 
 H                     5.434    -4.966     39.442 
 H                     4.799    -1.944     41.896 
 H                     5.014    -0.791     40.608 
 H                     7.315    -2.391     40.02 
 H                     7.083    -2.511     41.779 
 H                     7.42     -0.442     42.259 
 H                     6.882     0.29      40.814 
 H                     9.368    -1.382     40.509 
 H                     10.285    1.087     41.82 
 H                     10.812   -0.458     42.156 
 H                     9.331     0.046     42.957 
 H                     9.743    -0.193     38.787 
 H                     9.795     1.384     39.685 
 H                     8.266     0.728     39.038 
 
 ITRead=  0  0  0  0  0  0  0  0  0  0  0  0  0  0  0  0  0  0  0  0
 ITRead=  0  0  0  0  0  0  0  0  0  0  0  0  0  0  0  0  0  0  0  0
 ITRead=  0  0  0  0  0  0  0  0  0  0  0  0  0  0  0  0  0  0  0  0
 ITRead=  0  0  0  0  0  0  0  0  0  0  0  0  0  0  0  0  0  0  0  0
 ITRead=  0  0  0  0  0  0  0  0  0  0  0  0  0  0  0  0  0  0  0  0
 ITRead=  0  0  0  0  0  0  0  0  0  0  0  0  0  0  0  0  0  0  0  0
 ITRead=  0  0  0  0  0  0  0  0  0  0  0  0  0  0  0  0  0  0  0  0
 MicOpt= -1 -1 -1 -1 -1 -1 -1 -1 -1 -1 -1 -1 -1 -1 -1 -1 -1 -1 -1 -1
 MicOpt= -1 -1 -1 -1 -1 -1 -1 -1 -1 -1 -1 -1 -1 -1 -1 -1 -1 -1 -1 -1
 MicOpt= -1 -1 -1 -1 -1 -1 -1 -1 -1 -1 -1 -1 -1 -1 -1 -1 -1 -1 -1 -1
 MicOpt= -1 -1 -1 -1 -1 -1 -1 -1 -1 -1 -1 -1 -1 -1 -1 -1 -1 -1 -1 -1
 MicOpt= -1 -1 -1 -1 -1 -1 -1 -1 -1 -1 -1 -1 -1 -1 -1 -1 -1 -1 -1 -1
 MicOpt= -1 -1 -1 -1 -1 -1 -1 -1 -1 -1 -1 -1 -1 -1 -1 -1 -1 -1 -1 -1
 MicOpt= -1 -1 -1 -1 -1 -1 -1 -1 -1 -1 -1 -1 -1 -1 -1 -1 -1 -1 -1 -1
 NAtoms=    140 NQM=      140 NQMF=       0 NMMI=      0 NMMIF=      0
                NMic=       0 NMicF=      0.
                    Isotopes and Nuclear Properties:
 (Nuclear quadrupole moments (NQMom) in fm**2, nuclear magnetic moments (NMagM)
  in nuclear magnetons)

  Atom         1           2           3           4           5           6           7           8           9          10
 IAtWgt=          24          12          12          12          12          14          12          12          12          12
 AtmWgt=  23.9850450  12.0000000  12.0000000  12.0000000  12.0000000  14.0030740  12.0000000  12.0000000  12.0000000  12.0000000
 NucSpn=           0           0           0           0           0           2           0           0           0           0
 AtZEff=  -0.0000000  -0.0000000  -0.0000000  -0.0000000  -0.0000000  -0.0000000  -0.0000000  -0.0000000  -0.0000000  -0.0000000
 NQMom=    0.0000000   0.0000000   0.0000000   0.0000000   0.0000000   2.0440000   0.0000000   0.0000000   0.0000000   0.0000000
 NMagM=    0.0000000   0.0000000   0.0000000   0.0000000   0.0000000   0.4037610   0.0000000   0.0000000   0.0000000   0.0000000
 AtZNuc=  12.0000000   6.0000000   6.0000000   6.0000000   6.0000000   7.0000000   6.0000000   6.0000000   6.0000000   6.0000000

  Atom        11          12          13          14          15          16          17          18          19          20
 IAtWgt=          12          12          12          12          16          16          14          12          12          12
 AtmWgt=  12.0000000  12.0000000  12.0000000  12.0000000  15.9949146  15.9949146  14.0030740  12.0000000  12.0000000  12.0000000
 NucSpn=           0           0           0           0           0           0           2           0           0           0
 AtZEff=  -0.0000000  -0.0000000  -0.0000000  -0.0000000  -0.0000000  -0.0000000  -0.0000000  -0.0000000  -0.0000000  -0.0000000
 NQMom=    0.0000000   0.0000000   0.0000000   0.0000000   0.0000000   0.0000000   2.0440000   0.0000000   0.0000000   0.0000000
 NMagM=    0.0000000   0.0000000   0.0000000   0.0000000   0.0000000   0.0000000   0.4037610   0.0000000   0.0000000   0.0000000
 AtZNuc=   6.0000000   6.0000000   6.0000000   6.0000000   8.0000000   8.0000000   7.0000000   6.0000000   6.0000000   6.0000000

  Atom        21          22          23          24          25          26          27          28          29          30
 IAtWgt=          12          12          12          16          12          14          12          12          12          12
 AtmWgt=  12.0000000  12.0000000  12.0000000  15.9949146  12.0000000  14.0030740  12.0000000  12.0000000  12.0000000  12.0000000
 NucSpn=           0           0           0           0           0           2           0           0           0           0
 AtZEff=  -0.0000000  -0.0000000  -0.0000000  -0.0000000  -0.0000000  -0.0000000  -0.0000000  -0.0000000  -0.0000000  -0.0000000
 NQMom=    0.0000000   0.0000000   0.0000000   0.0000000   0.0000000   2.0440000   0.0000000   0.0000000   0.0000000   0.0000000
 NMagM=    0.0000000   0.0000000   0.0000000   0.0000000   0.0000000   0.4037610   0.0000000   0.0000000   0.0000000   0.0000000
 AtZNuc=   6.0000000   6.0000000   6.0000000   8.0000000   6.0000000   7.0000000   6.0000000   6.0000000   6.0000000   6.0000000

  Atom        31          32          33          34          35          36          37          38          39          40
 IAtWgt=          12          12          12          14          12          12          12          12          12          12
 AtmWgt=  12.0000000  12.0000000  12.0000000  14.0030740  12.0000000  12.0000000  12.0000000  12.0000000  12.0000000  12.0000000
 NucSpn=           0           0           0           2           0           0           0           0           0           0
 AtZEff=  -0.0000000  -0.0000000  -0.0000000  -0.0000000  -0.0000000  -0.0000000  -0.0000000  -0.0000000  -0.0000000  -0.0000000
 NQMom=    0.0000000   0.0000000   0.0000000   2.0440000   0.0000000   0.0000000   0.0000000   0.0000000   0.0000000   0.0000000
 NMagM=    0.0000000   0.0000000   0.0000000   0.4037610   0.0000000   0.0000000   0.0000000   0.0000000   0.0000000   0.0000000
 AtZNuc=   6.0000000   6.0000000   6.0000000   7.0000000   6.0000000   6.0000000   6.0000000   6.0000000   6.0000000   6.0000000

  Atom        41          42          43          44          45          46          47          48          49          50
 IAtWgt=          16          12          12          16          16          12          12          12          12          12
 AtmWgt=  15.9949146  12.0000000  12.0000000  15.9949146  15.9949146  12.0000000  12.0000000  12.0000000  12.0000000  12.0000000
 NucSpn=           0           0           0           0           0           0           0           0           0           0
 AtZEff=  -0.0000000  -0.0000000  -0.0000000  -0.0000000  -0.0000000  -0.0000000  -0.0000000  -0.0000000  -0.0000000  -0.0000000
 NQMom=    0.0000000   0.0000000   0.0000000   0.0000000   0.0000000   0.0000000   0.0000000   0.0000000   0.0000000   0.0000000
 NMagM=    0.0000000   0.0000000   0.0000000   0.0000000   0.0000000   0.0000000   0.0000000   0.0000000   0.0000000   0.0000000
 AtZNuc=   8.0000000   6.0000000   6.0000000   8.0000000   8.0000000   6.0000000   6.0000000   6.0000000   6.0000000   6.0000000

  Atom        51          52          53          54          55          56          57          58          59          60
 IAtWgt=          12          12          12          12          12          12          12          12          12          12
 AtmWgt=  12.0000000  12.0000000  12.0000000  12.0000000  12.0000000  12.0000000  12.0000000  12.0000000  12.0000000  12.0000000
 NucSpn=           0           0           0           0           0           0           0           0           0           0
 AtZEff=  -0.0000000  -0.0000000  -0.0000000  -0.0000000  -0.0000000  -0.0000000  -0.0000000  -0.0000000  -0.0000000  -0.0000000
 NQMom=    0.0000000   0.0000000   0.0000000   0.0000000   0.0000000   0.0000000   0.0000000   0.0000000   0.0000000   0.0000000
 NMagM=    0.0000000   0.0000000   0.0000000   0.0000000   0.0000000   0.0000000   0.0000000   0.0000000   0.0000000   0.0000000
 AtZNuc=   6.0000000   6.0000000   6.0000000   6.0000000   6.0000000   6.0000000   6.0000000   6.0000000   6.0000000   6.0000000

  Atom        61          62          63          64          65          66          67          68          69          70
 IAtWgt=          12          12          12          12          12          12           1           1           1           1
 AtmWgt=  12.0000000  12.0000000  12.0000000  12.0000000  12.0000000  12.0000000   1.0078250   1.0078250   1.0078250   1.0078250
 NucSpn=           0           0           0           0           0           0           1           1           1           1
 AtZEff=  -0.0000000  -0.0000000  -0.0000000  -0.0000000  -0.0000000  -0.0000000  -0.0000000  -0.0000000  -0.0000000  -0.0000000
 NQMom=    0.0000000   0.0000000   0.0000000   0.0000000   0.0000000   0.0000000   0.0000000   0.0000000   0.0000000   0.0000000
 NMagM=    0.0000000   0.0000000   0.0000000   0.0000000   0.0000000   0.0000000   2.7928460   2.7928460   2.7928460   2.7928460
 AtZNuc=   6.0000000   6.0000000   6.0000000   6.0000000   6.0000000   6.0000000   1.0000000   1.0000000   1.0000000   1.0000000

  Atom        71          72          73          74          75          76          77          78          79          80
 IAtWgt=           1           1           1           1           1           1           1           1           1           1
 AtmWgt=   1.0078250   1.0078250   1.0078250   1.0078250   1.0078250   1.0078250   1.0078250   1.0078250   1.0078250   1.0078250
 NucSpn=           1           1           1           1           1           1           1           1           1           1
 AtZEff=  -0.0000000  -0.0000000  -0.0000000  -0.0000000  -0.0000000  -0.0000000  -0.0000000  -0.0000000  -0.0000000  -0.0000000
 NQMom=    0.0000000   0.0000000   0.0000000   0.0000000   0.0000000   0.0000000   0.0000000   0.0000000   0.0000000   0.0000000
 NMagM=    2.7928460   2.7928460   2.7928460   2.7928460   2.7928460   2.7928460   2.7928460   2.7928460   2.7928460   2.7928460
 AtZNuc=   1.0000000   1.0000000   1.0000000   1.0000000   1.0000000   1.0000000   1.0000000   1.0000000   1.0000000   1.0000000

  Atom        81          82          83          84          85          86          87          88          89          90
 IAtWgt=           1           1           1           1           1           1           1           1           1           1
 AtmWgt=   1.0078250   1.0078250   1.0078250   1.0078250   1.0078250   1.0078250   1.0078250   1.0078250   1.0078250   1.0078250
 NucSpn=           1           1           1           1           1           1           1           1           1           1
 AtZEff=  -0.0000000  -0.0000000  -0.0000000  -0.0000000  -0.0000000  -0.0000000  -0.0000000  -0.0000000  -0.0000000  -0.0000000
 NQMom=    0.0000000   0.0000000   0.0000000   0.0000000   0.0000000   0.0000000   0.0000000   0.0000000   0.0000000   0.0000000
 NMagM=    2.7928460   2.7928460   2.7928460   2.7928460   2.7928460   2.7928460   2.7928460   2.7928460   2.7928460   2.7928460
 AtZNuc=   1.0000000   1.0000000   1.0000000   1.0000000   1.0000000   1.0000000   1.0000000   1.0000000   1.0000000   1.0000000

  Atom        91          92          93          94          95          96          97          98          99         100
 IAtWgt=           1           1           1           1           1           1           1           1           1           1
 AtmWgt=   1.0078250   1.0078250   1.0078250   1.0078250   1.0078250   1.0078250   1.0078250   1.0078250   1.0078250   1.0078250
 NucSpn=           1           1           1           1           1           1           1           1           1           1
 AtZEff=  -0.0000000  -0.0000000  -0.0000000  -0.0000000  -0.0000000  -0.0000000  -0.0000000  -0.0000000  -0.0000000  -0.0000000
 NQMom=    0.0000000   0.0000000   0.0000000   0.0000000   0.0000000   0.0000000   0.0000000   0.0000000   0.0000000   0.0000000
 NMagM=    2.7928460   2.7928460   2.7928460   2.7928460   2.7928460   2.7928460   2.7928460   2.7928460   2.7928460   2.7928460
 AtZNuc=   1.0000000   1.0000000   1.0000000   1.0000000   1.0000000   1.0000000   1.0000000   1.0000000   1.0000000   1.0000000

  Atom       101         102         103         104         105         106         107         108         109         110
 IAtWgt=           1           1           1           1           1           1           1           1           1           1
 AtmWgt=   1.0078250   1.0078250   1.0078250   1.0078250   1.0078250   1.0078250   1.0078250   1.0078250   1.0078250   1.0078250
 NucSpn=           1           1           1           1           1           1           1           1           1           1
 AtZEff=  -0.0000000  -0.0000000  -0.0000000  -0.0000000  -0.0000000  -0.0000000  -0.0000000  -0.0000000  -0.0000000  -0.0000000
 NQMom=    0.0000000   0.0000000   0.0000000   0.0000000   0.0000000   0.0000000   0.0000000   0.0000000   0.0000000   0.0000000
 NMagM=    2.7928460   2.7928460   2.7928460   2.7928460   2.7928460   2.7928460   2.7928460   2.7928460   2.7928460   2.7928460
 AtZNuc=   1.0000000   1.0000000   1.0000000   1.0000000   1.0000000   1.0000000   1.0000000   1.0000000   1.0000000   1.0000000

  Atom       111         112         113         114         115         116         117         118         119         120
 IAtWgt=           1           1           1           1           1           1           1           1           1           1
 AtmWgt=   1.0078250   1.0078250   1.0078250   1.0078250   1.0078250   1.0078250   1.0078250   1.0078250   1.0078250   1.0078250
 NucSpn=           1           1           1           1           1           1           1           1           1           1
 AtZEff=  -0.0000000  -0.0000000  -0.0000000  -0.0000000  -0.0000000  -0.0000000  -0.0000000  -0.0000000  -0.0000000  -0.0000000
 NQMom=    0.0000000   0.0000000   0.0000000   0.0000000   0.0000000   0.0000000   0.0000000   0.0000000   0.0000000   0.0000000
 NMagM=    2.7928460   2.7928460   2.7928460   2.7928460   2.7928460   2.7928460   2.7928460   2.7928460   2.7928460   2.7928460
 AtZNuc=   1.0000000   1.0000000   1.0000000   1.0000000   1.0000000   1.0000000   1.0000000   1.0000000   1.0000000   1.0000000

  Atom       121         122         123         124         125         126         127         128         129         130
 IAtWgt=           1           1           1           1           1           1           1           1           1           1
 AtmWgt=   1.0078250   1.0078250   1.0078250   1.0078250   1.0078250   1.0078250   1.0078250   1.0078250   1.0078250   1.0078250
 NucSpn=           1           1           1           1           1           1           1           1           1           1
 AtZEff=  -0.0000000  -0.0000000  -0.0000000  -0.0000000  -0.0000000  -0.0000000  -0.0000000  -0.0000000  -0.0000000  -0.0000000
 NQMom=    0.0000000   0.0000000   0.0000000   0.0000000   0.0000000   0.0000000   0.0000000   0.0000000   0.0000000   0.0000000
 NMagM=    2.7928460   2.7928460   2.7928460   2.7928460   2.7928460   2.7928460   2.7928460   2.7928460   2.7928460   2.7928460
 AtZNuc=   1.0000000   1.0000000   1.0000000   1.0000000   1.0000000   1.0000000   1.0000000   1.0000000   1.0000000   1.0000000

  Atom       131         132         133         134         135         136         137         138         139         140
 IAtWgt=           1           1           1           1           1           1           1           1           1           1
 AtmWgt=   1.0078250   1.0078250   1.0078250   1.0078250   1.0078250   1.0078250   1.0078250   1.0078250   1.0078250   1.0078250
 NucSpn=           1           1           1           1           1           1           1           1           1           1
 AtZEff=  -0.0000000  -0.0000000  -0.0000000  -0.0000000  -0.0000000  -0.0000000  -0.0000000  -0.0000000  -0.0000000  -0.0000000
 NQMom=    0.0000000   0.0000000   0.0000000   0.0000000   0.0000000   0.0000000   0.0000000   0.0000000   0.0000000   0.0000000
 NMagM=    2.7928460   2.7928460   2.7928460   2.7928460   2.7928460   2.7928460   2.7928460   2.7928460   2.7928460   2.7928460
 AtZNuc=   1.0000000   1.0000000   1.0000000   1.0000000   1.0000000   1.0000000   1.0000000   1.0000000   1.0000000   1.0000000
 Leave Link  101 at Tue Apr 26 22:55:47 2022, MaxMem= 10066329600 cpu:               3.6 elap:               0.2
 (Enter /sw/apps/gaussian-16.0/g16/l202.exe)
 Stoichiometry    C55H74MgN4O6
 Framework group  C1[X(C55H74MgN4O6)]
 Deg. of freedom   414
 Full point group                 C1      NOp   1
 Largest Abelian subgroup         C1      NOp   1
 Largest concise Abelian subgroup C1      NOp   1
                         Standard orientation:                         
 ---------------------------------------------------------------------
 Center     Atomic      Atomic             Coordinates (Angstroms)
 Number     Number       Type             X           Y           Z
 ---------------------------------------------------------------------
      1         12           0       -5.540174    0.913158    0.072671
      2          6           0       -3.960795   -2.334095    0.157435
      3          6           0       -2.364973    2.156964    0.141017
      4          6           0       -6.910027    3.704295    0.055885
      5          6           0       -8.526964   -0.839454    0.670923
      6          7           0       -3.361627   -0.070899    0.218874
      7          6           0       -2.956642   -1.373557    0.094407
      8          6           0       -1.479097   -1.468031   -0.341896
      9          6           0       -0.990892   -0.031542   -0.037487
     10          6           0       -2.316564    0.760068    0.088159
     11          6           0       -0.203807    0.210424    1.231013
     12          6           0       -1.417554   -1.840824   -1.830627
     13          6           0       -0.382268   -2.854331   -2.177380
     14          6           0        0.754767   -3.090909   -1.157846
     15          8           0        0.792345   -3.988615   -0.305516
     16          8           0        1.812161   -2.266364   -1.421044
     17          7           0       -4.731026    2.729091    0.236445
     18          6           0       -3.451466    3.081172    0.236523
     19          6           0       -3.304916    4.485177    0.250626
     20          6           0       -4.566685    4.949448    0.130202
     21          6           0       -5.499637    3.755458    0.163084
     22          6           0       -2.027332    5.200344    0.353556
     23          6           0       -5.081445    6.349717   -0.019717
     24          8           0       -6.248432    6.498375   -0.171492
     25          6           0       -4.301092    7.593912   -0.058684
     26          7           0       -7.463563    1.376628    0.486741
     27          6           0       -7.796608    2.679465    0.330387
     28          6           0       -9.313681    2.875263    0.345820
     29          6           0       -9.812016    1.438137    0.306601
     30          6           0       -8.569765    0.562141    0.549608
     31          6           0       -9.768781    3.585040    1.672248
     32          6           0      -10.499114    1.081408   -1.060757
     33          6           0      -12.027099    0.789550   -1.027806
     34          7           0       -6.192263   -1.200567    0.198204
     35          6           0       -7.412805   -1.709439    0.476906
     36          6           0       -7.395214   -3.185011    0.456747
     37          6           0       -6.042115   -3.462603    0.274993
     38          6           0       -5.359677   -2.211607    0.239527
     39          6           0       -8.530650   -4.183417    0.673684
     40          6           0       -5.072345   -4.586124    0.227059
     41          8           0       -5.265899   -5.758980    0.395599
     42          6           0       -3.649059   -3.855120   -0.053057
     43          6           0       -2.691658   -4.396483    0.981023
     44          8           0       -2.272862   -3.875139    1.994911
     45          8           0       -2.281504   -5.659391    0.414954
     46          6           0       -1.084413   -6.182393    1.017060
     47          6           0        3.079504   -2.457159   -0.800566
     48          6           0        4.185165   -2.275667   -1.823874
     49          6           0        5.503613   -2.609045   -1.691588
     50          6           0        6.083137   -3.285147   -0.400635
     51          6           0        6.539043   -2.160285   -2.752474
     52          6           0        6.814744   -0.635557   -2.732706
     53          6           0        8.234020   -0.180881   -3.197993
     54          6           0        9.016286    0.374644   -2.032458
     55          6           0        9.424943   -0.636477   -0.953704
     56          6           0       10.241929    1.217728   -2.550989
     57          6           0       10.353392    2.710238   -2.003217
     58          6           0       11.844828    3.248564   -1.788833
     59          6           0       12.405351    3.017270   -0.350168
     60          6           0       13.508893    4.138261   -0.042345
     61          6           0       12.775202    1.545716    0.183015
     62          6           0       13.104252    1.518100    1.758744
     63          6           0       12.745725    0.153329    2.330514
     64          6           0       12.647150    0.071976    3.927172
     65          6           0       13.554728   -1.030891    4.538731
     66          6           0       11.117058   -0.003813    4.414850
     67          1           0       -1.363039    2.572066    0.014435
     68          1           0       -7.533626    4.562855   -0.202747
     69          1           0       -9.448737   -1.343947    0.374798
     70          1           0       -1.017529   -2.225159    0.291407
     71          1           0       -0.503139    0.412886   -0.904898
     72          1           0       -0.300398    1.233350    1.595695
     73          1           0        0.860171   -0.014054    1.160711
     74          1           0       -0.468647   -0.462941    2.045519
     75          1           0       -1.359407   -0.926111   -2.420656
     76          1           0       -2.324721   -2.313127   -2.208382
     77          1           0        0.050796   -2.618253   -3.150409
     78          1           0       -0.854604   -3.836626   -2.201964
     79          1           0       -1.200903    4.526792    0.581046
     80          1           0       -1.926501    6.008255    1.079578
     81          1           0       -1.841033    5.614728   -0.636886
     82          1           0       -4.862550    8.446430    0.324912
     83          1           0       -3.947758    7.677987   -1.086000
     84          1           0       -3.407513    7.580611    0.565916
     85          1           0       -9.665005    3.348455   -0.571137
     86          1           0      -10.476278    1.302658    1.160806
     87          1           0       -9.068080    3.648702    2.504704
     88          1           0      -10.693401    3.154706    2.056700
     89          1           0       -9.999077    4.638539    1.518327
     90          1           0      -10.075123    0.154210   -1.447596
     91          1           0      -10.363932    1.856025   -1.815928
     92          1           0      -12.340547    1.258837   -0.095367
     93          1           0      -12.151252   -0.277127   -1.212218
     94          1           0      -12.569803    1.347825   -1.791614
     95          1           0       -8.942762   -3.974497    1.660426
     96          1           0       -7.961756   -5.102797    0.533079
     97          1           0       -9.273773   -4.144385   -0.123723
     98          1           0       -3.181413   -4.190749   -0.978285
     99          1           0       -0.426260   -5.490782    1.543627
    100          1           0       -0.510853   -6.701848    0.250347
    101          1           0       -1.477709   -7.015867    1.598857
    102          1           0        3.131708   -3.444725   -0.343469
    103          1           0        3.197869   -1.825247    0.079660
    104          1           0        3.918684   -1.997061   -2.843691
    105          1           0        5.355559   -3.327306    0.410047
    106          1           0        6.967027   -2.703692   -0.139876
    107          1           0        6.387018   -4.310229   -0.613214
    108          1           0        6.269274   -2.386456   -3.784195
    109          1           0        7.484244   -2.650763   -2.522266
    110          1           0        6.400324   -0.215463   -1.816294
    111          1           0        6.242308   -0.148870   -3.522615
    112          1           0        8.083588    0.479938   -4.050576
    113          1           0        8.670447   -1.085051   -3.621927
    114          1           0        8.421306    1.148501   -1.547266
    115          1           0        9.579856   -0.266348    0.059647
    116          1           0       10.390051   -1.072817   -1.210504
    117          1           0        8.674630   -1.423639   -1.029283
    118          1           0       10.274420    1.245427   -3.639751
    119          1           0       11.145880    0.692370   -2.243607
    120          1           0        9.805500    2.685592   -1.061172
    121          1           0        9.850000    3.438860   -2.638315
    122          1           0       11.719651    4.315996   -1.969303
    123          1           0       12.518041    2.732948   -2.473738
    124          1           0       11.589406    3.412549    0.256097
    125          1           0       13.933425    4.530579   -0.965726
    126          1           0       14.291341    3.596770    0.489415
    127          1           0       13.212034    4.985404    0.576318
    128          1           0       13.581037    1.198719   -0.464197
    129          1           0       11.946566    0.854197    0.030157
    130          1           0       12.703947    2.330491    2.364097
    131          1           0       14.193668    1.552156    1.783379
    132          1           0       13.584226   -0.490706    2.066267
    133          1           0       11.899342   -0.331876    1.844385
    134          1           0       12.964256    1.045633    4.301463
    135          1           0       12.947763   -1.813135    4.996264
    136          1           0       14.125173   -0.708295    5.409403
    137          1           0       14.263225   -1.425209    3.810668
    138          1           0       10.977656    0.879081    5.039916
    139          1           0       10.920440   -0.933225    4.948765
    140          1           0       10.440784    0.086827    3.564493
 ---------------------------------------------------------------------
 Rotational constants (GHZ):           0.0442664           0.0097667           0.0085701
 Leave Link  202 at Tue Apr 26 22:55:47 2022, MaxMem= 10066329600 cpu:               0.2 elap:               0.0
 (Enter /sw/apps/gaussian-16.0/g16/l301.exe)
 Standard basis: def2SVP (5D, 7F)
 Ernie: Thresh=  0.10000D-02 Tol=  0.10000D-05 Strict=F.
 There are  1364 symmetry adapted cartesian basis functions of A   symmetry.
 There are  1298 symmetry adapted basis functions of A   symmetry.
  1298 basis functions,  2180 primitive gaussians,  1364 cartesian basis functions
   246 alpha electrons      246 beta electrons
       nuclear repulsion energy      9534.3553490485 Hartrees.
 IExCor= 4639 DFT=T Ex+Corr=wB97XD ExCW=0 ScaHFX=  1.000000
 ScaDFX=  1.000000  1.000000  1.000000  1.000000 ScalE2=  1.000000  1.000000
 IRadAn=      5 IRanWt=     -1 IRanGd=            0 ICorTp=0 IEmpDi=121
 HFx  wShort=  0.000000 wLong=  0.200000 cFull=  0.222036 cShort=  0.000000 cLong=  0.777964
 DFx  wShort=  0.000000 wLong=  0.200000 cFull=  0.000000 cShort=  0.000000 cLong=  1.000000
 NAtoms=  140 NActive=  140 NUniq=  140 SFac= 1.00D+00 NAtFMM=   60 NAOKFM=T Big=T
 Integral buffers will be    131072 words long.
 Raffenetti 1 integral format.
 Two-electron integral symmetry is turned on.
 R6Disp:  Grimme-D2 Dispersion energy=       -0.1352220341 Hartrees.
 Nuclear repulsion after empirical dispersion term =     9534.2201270144 Hartrees.
 Leave Link  301 at Tue Apr 26 22:55:48 2022, MaxMem= 10066329600 cpu:               1.3 elap:               0.1
 (Enter /sw/apps/gaussian-16.0/g16/l302.exe)
 NPDir=0 NMtPBC=     1 NCelOv=     1 NCel=       1 NClECP=     1 NCelD=      1
         NCelK=      1 NCelE2=     1 NClLst=     1 CellRange=     0.0.
 One-electron integrals computed using PRISM.
 One-electron integral symmetry used in STVInt
   1 Symmetry operations used in ECPInt.
 ECPInt:  NShTT=  192510 NPrTT=  683786 LenC2=   92904 LenP2D=  204781.
 LDataN:  DoStor=T MaxTD1= 4 Len=   56
 NBasis=  1298 RedAO= T EigKep=  2.84D-04  NBF=  1298
 NBsUse=  1298 1.00D-06 EigRej= -1.00D+00 NBFU=  1298
 Precomputing XC quadrature grid using
 IXCGrd= 4 IRadAn=           5 IRanWt=          -1 IRanGd=           0 AccXCQ= 0.00D+00.
 Generated NRdTot=       0 NPtTot=           0 NUsed=           0 NTot=          32
 NSgBfM=  1024  1018  1020  1020  1024 MxSgAt=   140 MxSgA2=   140.
 Leave Link  302 at Tue Apr 26 22:55:51 2022, MaxMem= 10066329600 cpu:              81.9 elap:               3.4
 (Enter /sw/apps/gaussian-16.0/g16/l303.exe)
 DipDrv:  MaxL=1.
 Leave Link  303 at Tue Apr 26 22:55:51 2022, MaxMem= 10066329600 cpu:               7.4 elap:               0.3
 (Enter /sw/apps/gaussian-16.0/g16/l308.exe)
 Leave Link  308 at Tue Apr 26 22:55:52 2022, MaxMem= 10066329600 cpu:               8.6 elap:               0.4
 (Enter /sw/apps/gaussian-16.0/g16/l401.exe)
 ExpMin= 3.36D-02 ExpMax= 4.95D+03 ExpMxC= 7.45D+02 IAcc=3 IRadAn=         5 AccDes= 0.00D+00
 Harris functional with IExCor= 4639 and IRadAn=       5 diagonalized for initial guess.
 HarFok:  IExCor= 4639 AccDes= 0.00D+00 IRadAn=         5 IDoV= 1 UseB2=F ITyADJ=14
 ICtDFT=  3500011 ScaDFX=  1.000000  1.000000  1.000000  1.000000
 FoFCou: FMM=F IPFlag=           0 FMFlag=      100000 FMFlg1=        2001
         NFxFlg=           0 DoJE=T BraDBF=F KetDBF=T FulRan=T
         wScrn=  0.000000 ICntrl=       500 IOpCl=  0 I1Cent=   200000004 NGrid=           0
         NMat0=    1 NMatS0=      1 NMatT0=    0 NMatD0=    1 NMtDS0=    0 NMtDT0=    0
 Petite list used in FoFCou.
 Harris En= -2877.97091241023    
 JPrj=0 DoOrth=F DoCkMO=F.
 Leave Link  401 at Tue Apr 26 22:55:58 2022, MaxMem= 10066329600 cpu:             144.9 elap:               6.1
 (Enter /sw/apps/gaussian-16.0/g16/l502.exe)
 Integral symmetry usage will be decided dynamically.
 Closed shell SCF:
 Using DIIS extrapolation, IDIIS=  1040.
 NGot= 10066329600 LenX= 10062561258 LenY= 10060699398
 Requested convergence on RMS density matrix=1.00D-08 within 128 cycles.
 Requested convergence on MAX density matrix=1.00D-06.
 Requested convergence on             energy=1.00D-06.
 No special actions if energy rises.
 Fock matrices will be formed incrementally for  20 cycles.

 Cycle   1  Pass 1  IDiag  1:
 FoFJK:  IHMeth= 1 ICntrl=       0 DoSepK=T KAlg= 0 I1Cent=           0 FoldK=F
 IRaf=         1 NMat=       1 IRICut=       1 DoRegI=T DoRafI=F ISym2E= 0 IDoP0=0 IntGTp=1.
 FoFCou: FMM=T IPFlag=           0 FMFlag=      100000 FMFlg1=        2001
         NFxFlg=           0 DoJE=T BraDBF=F KetDBF=F FulRan=T
         wScrn=  0.000000 ICntrl=       500 IOpCl=  0 I1Cent=           0 NGrid=           0
         NMat0=    1 NMatS0=      1 NMatT0=    0 NMatD0=    1 NMtDS0=    0 NMtDT0=    0
 Symmetry not used in FoFCou.
 FMM levels:  10  Number of levels for PrismC:   9
 E= -3007.21466354361    
 DIIS: error= 2.64D-02 at cycle   1 NSaved=   1.
 NSaved= 1 IEnMin= 1 EnMin= -3007.21466354361     IErMin= 1 ErrMin= 2.64D-02
 ErrMax= 2.64D-02  0.00D+00 EMaxC= 1.00D-01 BMatC= 1.45D+00 BMatP= 1.45D+00
 IDIUse=3 WtCom= 7.36D-01 WtEn= 2.64D-01
 Coeff-Com:  0.100D+01
 Coeff-En:   0.100D+01
 Coeff:      0.100D+01
 Gap=     0.160 Goal=   None    Shift=    0.000
 GapD=    0.160 DampG=1.000 DampE=0.500 DampFc=0.5000 IDamp=-1.
 Damping current iteration by 5.00D-01
 RMSDP=1.50D-03 MaxDP=1.69D-01              OVMax= 1.39D-01

 Cycle   2  Pass 1  IDiag  1:
 RMSU=  7.42D-04    CP:  9.87D-01
 E= -3007.52488715594     Delta-E=       -0.310223612329 Rises=F Damp=T
 DIIS: error= 1.24D-02 at cycle   2 NSaved=   2.
 NSaved= 2 IEnMin= 2 EnMin= -3007.52488715594     IErMin= 2 ErrMin= 1.24D-02
 ErrMax= 1.24D-02  0.00D+00 EMaxC= 1.00D-01 BMatC= 2.85D-01 BMatP= 1.45D+00
 IDIUse=3 WtCom= 8.76D-01 WtEn= 1.24D-01
 Coeff-Com: -0.402D+00 0.140D+01
 Coeff-En:   0.000D+00 0.100D+01
 Coeff:     -0.352D+00 0.135D+01
 Gap=     0.176 Goal=   None    Shift=    0.000
 RMSDP=6.98D-04 MaxDP=8.41D-02 DE=-3.10D-01 OVMax= 1.30D-01

 Cycle   3  Pass 1  IDiag  1:
 RMSU=  6.29D-04    CP:  9.78D-01  1.39D+00
 E= -3007.75199752513     Delta-E=       -0.227110369193 Rises=F Damp=F
 DIIS: error= 1.19D-02 at cycle   3 NSaved=   3.
 NSaved= 3 IEnMin= 3 EnMin= -3007.75199752513     IErMin= 3 ErrMin= 1.19D-02
 ErrMax= 1.19D-02  0.00D+00 EMaxC= 1.00D-01 BMatC= 1.20D-01 BMatP= 2.85D-01
 IDIUse=3 WtCom= 8.81D-01 WtEn= 1.19D-01
 Coeff-Com: -0.319D+00 0.698D+00 0.622D+00
 Coeff-En:   0.000D+00 0.000D+00 0.100D+01
 Coeff:     -0.281D+00 0.615D+00 0.667D+00
 Gap=     0.163 Goal=   None    Shift=    0.000
 RMSDP=3.85D-04 MaxDP=4.44D-02 DE=-2.27D-01 OVMax= 7.09D-02

 Cycle   4  Pass 1  IDiag  1:
 RMSU=  2.06D-04    CP:  9.75D-01  1.65D+00  5.84D-01
 E= -3007.84062869876     Delta-E=       -0.088631173632 Rises=F Damp=F
 DIIS: error= 3.68D-03 at cycle   4 NSaved=   4.
 NSaved= 4 IEnMin= 4 EnMin= -3007.84062869876     IErMin= 4 ErrMin= 3.68D-03
 ErrMax= 3.68D-03  0.00D+00 EMaxC= 1.00D-01 BMatC= 1.63D-02 BMatP= 1.20D-01
 IDIUse=3 WtCom= 9.63D-01 WtEn= 3.68D-02
 Coeff-Com: -0.121D+00 0.243D+00 0.363D+00 0.515D+00
 Coeff-En:   0.000D+00 0.000D+00 0.736D-01 0.926D+00
 Coeff:     -0.117D+00 0.234D+00 0.353D+00 0.530D+00
 Gap=     0.162 Goal=   None    Shift=    0.000
 RMSDP=1.15D-04 MaxDP=1.28D-02 DE=-8.86D-02 OVMax= 1.81D-02

 Cycle   5  Pass 1  IDiag  1:
 RMSU=  5.68D-05    CP:  9.75D-01  1.63D+00  6.99D-01  6.75D-01
 E= -3007.85403353823     Delta-E=       -0.013404839470 Rises=F Damp=F
 DIIS: error= 5.00D-04 at cycle   5 NSaved=   5.
 NSaved= 5 IEnMin= 5 EnMin= -3007.85403353823     IErMin= 5 ErrMin= 5.00D-04
 ErrMax= 5.00D-04  0.00D+00 EMaxC= 1.00D-01 BMatC= 3.27D-04 BMatP= 1.63D-02
 IDIUse=3 WtCom= 9.95D-01 WtEn= 5.00D-03
 Coeff-Com: -0.296D-01 0.566D-01 0.112D+00 0.217D+00 0.644D+00
 Coeff-En:   0.000D+00 0.000D+00 0.000D+00 0.000D+00 0.100D+01
 Coeff:     -0.295D-01 0.563D-01 0.111D+00 0.216D+00 0.646D+00
 Gap=     0.162 Goal=   None    Shift=    0.000
 RMSDP=2.14D-05 MaxDP=2.87D-03 DE=-1.34D-02 OVMax= 4.41D-03

 Cycle   6  Pass 1  IDiag  1:
 RMSU=  1.88D-05    CP:  9.75D-01  1.63D+00  7.03D-01  7.16D-01  9.34D-01
 E= -3007.85428901414     Delta-E=       -0.000255475905 Rises=F Damp=F
 DIIS: error= 2.69D-04 at cycle   6 NSaved=   6.
 NSaved= 6 IEnMin= 6 EnMin= -3007.85428901414     IErMin= 6 ErrMin= 2.69D-04
 ErrMax= 2.69D-04  0.00D+00 EMaxC= 1.00D-01 BMatC= 6.13D-05 BMatP= 3.27D-04
 IDIUse=3 WtCom= 9.97D-01 WtEn= 2.69D-03
 Coeff-Com:  0.964D-02-0.207D-01-0.149D-01 0.142D-02 0.312D+00 0.713D+00
 Coeff-En:   0.000D+00 0.000D+00 0.000D+00 0.000D+00 0.498D-02 0.995D+00
 Coeff:      0.962D-02-0.206D-01-0.149D-01 0.142D-02 0.311D+00 0.714D+00
 Gap=     0.163 Goal=   None    Shift=    0.000
 RMSDP=1.08D-05 MaxDP=1.22D-03 DE=-2.55D-04 OVMax= 3.32D-03

 Cycle   7  Pass 1  IDiag  1:
 RMSU=  7.37D-06    CP:  9.75D-01  1.63D+00  7.07D-01  7.33D-01  1.03D+00
                    CP:  9.09D-01
 E= -3007.85435457478     Delta-E=       -0.000065560640 Rises=F Damp=F
 DIIS: error= 6.92D-05 at cycle   7 NSaved=   7.
 NSaved= 7 IEnMin= 7 EnMin= -3007.85435457478     IErMin= 7 ErrMin= 6.92D-05
 ErrMax= 6.92D-05  0.00D+00 EMaxC= 1.00D-01 BMatC= 5.10D-06 BMatP= 6.13D-05
 IDIUse=1 WtCom= 1.00D+00 WtEn= 0.00D+00
 Coeff-Com:  0.644D-02-0.130D-01-0.157D-01-0.216D-01 0.481D-01 0.268D+00
 Coeff-Com:  0.728D+00
 Coeff:      0.644D-02-0.130D-01-0.157D-01-0.216D-01 0.481D-01 0.268D+00
 Coeff:      0.728D+00
 Gap=     0.163 Goal=   None    Shift=    0.000
 RMSDP=4.18D-06 MaxDP=7.02D-04 DE=-6.56D-05 OVMax= 1.11D-03

 Cycle   8  Pass 1  IDiag  1:
 RMSU=  2.80D-06    CP:  9.75D-01  1.63D+00  7.09D-01  7.36D-01  1.06D+00
                    CP:  1.03D+00  9.90D-01
 E= -3007.85436168589     Delta-E=       -0.000007111114 Rises=F Damp=F
 DIIS: error= 3.20D-05 at cycle   8 NSaved=   8.
 NSaved= 8 IEnMin= 8 EnMin= -3007.85436168589     IErMin= 8 ErrMin= 3.20D-05
 ErrMax= 3.20D-05  0.00D+00 EMaxC= 1.00D-01 BMatC= 1.22D-06 BMatP= 5.10D-06
 IDIUse=1 WtCom= 1.00D+00 WtEn= 0.00D+00
 Coeff-Com:  0.164D-02-0.310D-02-0.532D-02-0.117D-01-0.303D-01 0.126D-01
 Coeff-Com:  0.363D+00 0.673D+00
 Coeff:      0.164D-02-0.310D-02-0.532D-02-0.117D-01-0.303D-01 0.126D-01
 Coeff:      0.363D+00 0.673D+00
 Gap=     0.163 Goal=   None    Shift=    0.000
 RMSDP=1.78D-06 MaxDP=1.25D-04 DE=-7.11D-06 OVMax= 8.08D-04

 Cycle   9  Pass 1  IDiag  1:
 RMSU=  1.17D-06    CP:  9.75D-01  1.63D+00  7.09D-01  7.37D-01  1.07D+00
                    CP:  1.05D+00  1.12D+00  9.64D-01
 E= -3007.85436352873     Delta-E=       -0.000001842835 Rises=F Damp=F
 DIIS: error= 7.31D-06 at cycle   9 NSaved=   9.
 NSaved= 9 IEnMin= 9 EnMin= -3007.85436352873     IErMin= 9 ErrMin= 7.31D-06
 ErrMax= 7.31D-06  0.00D+00 EMaxC= 1.00D-01 BMatC= 1.28D-07 BMatP= 1.22D-06
 IDIUse=1 WtCom= 1.00D+00 WtEn= 0.00D+00
 Coeff-Com: -0.379D-03 0.832D-03 0.465D-03-0.119D-02-0.180D-01-0.348D-01
 Coeff-Com:  0.267D-01 0.241D+00 0.786D+00
 Coeff:     -0.379D-03 0.832D-03 0.465D-03-0.119D-02-0.180D-01-0.348D-01
 Coeff:      0.267D-01 0.241D+00 0.786D+00
 Gap=     0.163 Goal=   None    Shift=    0.000
 RMSDP=8.65D-07 MaxDP=1.73D-04 DE=-1.84D-06 OVMax= 3.23D-04

 Cycle  10  Pass 1  IDiag  1:
 RMSU=  5.14D-07    CP:  9.75D-01  1.63D+00  7.10D-01  7.37D-01  1.08D+00
                    CP:  1.07D+00  1.16D+00  1.14D+00  1.07D+00
 E= -3007.85436382258     Delta-E=       -0.000000293852 Rises=F Damp=F
 DIIS: error= 3.13D-06 at cycle  10 NSaved=  10.
 NSaved=10 IEnMin=10 EnMin= -3007.85436382258     IErMin=10 ErrMin= 3.13D-06
 ErrMax= 3.13D-06  0.00D+00 EMaxC= 1.00D-01 BMatC= 2.49D-08 BMatP= 1.28D-07
 IDIUse=1 WtCom= 1.00D+00 WtEn= 0.00D+00
 Coeff-Com: -0.505D-03 0.100D-02 0.134D-02 0.194D-02-0.651D-03-0.170D-01
 Coeff-Com: -0.679D-01-0.496D-01 0.309D+00 0.822D+00
 Coeff:     -0.505D-03 0.100D-02 0.134D-02 0.194D-02-0.651D-03-0.170D-01
 Coeff:     -0.679D-01-0.496D-01 0.309D+00 0.822D+00
 Gap=     0.163 Goal=   None    Shift=    0.000
 RMSDP=4.20D-07 MaxDP=3.27D-05 DE=-2.94D-07 OVMax= 2.03D-04

 Cycle  11  Pass 1  IDiag  1:
 RMSU=  1.98D-07    CP:  9.75D-01  1.63D+00  7.10D-01  7.37D-01  1.08D+00
                    CP:  1.07D+00  1.18D+00  1.20D+00  1.28D+00  1.03D+00
 E= -3007.85436388632     Delta-E=       -0.000000063737 Rises=F Damp=F
 DIIS: error= 1.90D-06 at cycle  11 NSaved=  11.
 NSaved=11 IEnMin=11 EnMin= -3007.85436388632     IErMin=11 ErrMin= 1.90D-06
 ErrMax= 1.90D-06  0.00D+00 EMaxC= 1.00D-01 BMatC= 6.66D-09 BMatP= 2.49D-08
 IDIUse=1 WtCom= 1.00D+00 WtEn= 0.00D+00
 Coeff-Com: -0.208D-03 0.404D-03 0.619D-03 0.112D-02 0.202D-02-0.383D-02
 Coeff-Com: -0.383D-01-0.568D-01 0.402D-01 0.428D+00 0.627D+00
 Coeff:     -0.208D-03 0.404D-03 0.619D-03 0.112D-02 0.202D-02-0.383D-02
 Coeff:     -0.383D-01-0.568D-01 0.402D-01 0.428D+00 0.627D+00
 Gap=     0.163 Goal=   None    Shift=    0.000
 RMSDP=1.52D-07 MaxDP=2.72D-05 DE=-6.37D-08 OVMax= 5.60D-05

 Cycle  12  Pass 1  IDiag  1:
 RMSU=  7.71D-08    CP:  9.75D-01  1.63D+00  7.10D-01  7.37D-01  1.08D+00
                    CP:  1.08D+00  1.19D+00  1.23D+00  1.32D+00  1.18D+00
                    CP:  8.72D-01
 E= -3007.85436389615     Delta-E=       -0.000000009835 Rises=F Damp=F
 DIIS: error= 6.32D-07 at cycle  12 NSaved=  12.
 NSaved=12 IEnMin=12 EnMin= -3007.85436389615     IErMin=12 ErrMin= 6.32D-07
 ErrMax= 6.32D-07  0.00D+00 EMaxC= 1.00D-01 BMatC= 5.46D-10 BMatP= 6.66D-09
 IDIUse=1 WtCom= 1.00D+00 WtEn= 0.00D+00
 Coeff-Com: -0.416D-05 0.537D-05 0.367D-04 0.138D-03 0.832D-03 0.124D-02
 Coeff-Com: -0.446D-02-0.121D-01-0.337D-01 0.499D-01 0.218D+00 0.780D+00
 Coeff:     -0.416D-05 0.537D-05 0.367D-04 0.138D-03 0.832D-03 0.124D-02
 Coeff:     -0.446D-02-0.121D-01-0.337D-01 0.499D-01 0.218D+00 0.780D+00
 Gap=     0.163 Goal=   None    Shift=    0.000
 RMSDP=4.91D-08 MaxDP=4.69D-06 DE=-9.84D-09 OVMax= 1.73D-05

 Cycle  13  Pass 1  IDiag  1:
 RMSU=  3.11D-08    CP:  9.75D-01  1.63D+00  7.10D-01  7.37D-01  1.08D+00
                    CP:  1.08D+00  1.19D+00  1.23D+00  1.34D+00  1.21D+00
                    CP:  9.85D-01  1.08D+00
 E= -3007.85436389737     Delta-E=       -0.000000001221 Rises=F Damp=F
 DIIS: error= 3.18D-07 at cycle  13 NSaved=  13.
 NSaved=13 IEnMin=13 EnMin= -3007.85436389737     IErMin=13 ErrMin= 3.18D-07
 ErrMax= 3.18D-07  0.00D+00 EMaxC= 1.00D-01 BMatC= 1.54D-10 BMatP= 5.46D-10
 IDIUse=1 WtCom= 1.00D+00 WtEn= 0.00D+00
 Coeff-Com:  0.387D-04-0.769D-04-0.106D-03-0.156D-03-0.386D-04 0.136D-02
 Coeff-Com:  0.541D-02 0.657D-02-0.260D-01-0.596D-01-0.353D-01 0.353D+00
 Coeff-Com:  0.755D+00
 Coeff:      0.387D-04-0.769D-04-0.106D-03-0.156D-03-0.386D-04 0.136D-02
 Coeff:      0.541D-02 0.657D-02-0.260D-01-0.596D-01-0.353D-01 0.353D+00
 Coeff:      0.755D+00
 Gap=     0.163 Goal=   None    Shift=    0.000
 RMSDP=2.68D-08 MaxDP=4.27D-06 DE=-1.22D-09 OVMax= 1.02D-05

 Cycle  14  Pass 1  IDiag  1:
 RMSU=  1.49D-08    CP:  9.75D-01  1.63D+00  7.10D-01  7.37D-01  1.08D+00
                    CP:  1.08D+00  1.19D+00  1.24D+00  1.34D+00  1.23D+00
                    CP:  1.03D+00  1.27D+00  1.05D+00
 E= -3007.85436389760     Delta-E=       -0.000000000229 Rises=F Damp=F
 DIIS: error= 1.20D-07 at cycle  14 NSaved=  14.
 NSaved=14 IEnMin=14 EnMin= -3007.85436389760     IErMin=14 ErrMin= 1.20D-07
 ErrMax= 1.20D-07  0.00D+00 EMaxC= 1.00D-01 BMatC= 2.97D-11 BMatP= 1.54D-10
 IDIUse=1 WtCom= 1.00D+00 WtEn= 0.00D+00
 Coeff-Com:  0.177D-04-0.348D-04-0.524D-04-0.871D-04-0.147D-03 0.409D-03
 Coeff-Com:  0.294D-02 0.526D-02-0.665D-02-0.310D-01-0.536D-01 0.316D-01
 Coeff-Com:  0.340D+00 0.711D+00
 Coeff:      0.177D-04-0.348D-04-0.524D-04-0.871D-04-0.147D-03 0.409D-03
 Coeff:      0.294D-02 0.526D-02-0.665D-02-0.310D-01-0.536D-01 0.316D-01
 Coeff:      0.340D+00 0.711D+00
 Gap=     0.163 Goal=   None    Shift=    0.000
 RMSDP=1.14D-08 MaxDP=7.58D-07 DE=-2.29D-10 OVMax= 5.45D-06

 Cycle  15  Pass 1  IDiag  1:
 RMSU=  7.08D-09    CP:  9.75D-01  1.63D+00  7.10D-01  7.37D-01  1.08D+00
                    CP:  1.08D+00  1.19D+00  1.24D+00  1.34D+00  1.24D+00
                    CP:  1.04D+00  1.32D+00  1.24D+00  1.19D+00
 E= -3007.85436389774     Delta-E=       -0.000000000135 Rises=F Damp=F
 DIIS: error= 6.02D-08 at cycle  15 NSaved=  15.
 NSaved=15 IEnMin=15 EnMin= -3007.85436389774     IErMin=15 ErrMin= 6.02D-08
 ErrMax= 6.02D-08  0.00D+00 EMaxC= 1.00D-01 BMatC= 5.65D-12 BMatP= 2.97D-11
 IDIUse=1 WtCom= 1.00D+00 WtEn= 0.00D+00
 Coeff-Com: -0.398D-05 0.811D-05 0.991D-05 0.132D-04-0.435D-04-0.192D-03
 Coeff-Com: -0.480D-03 0.236D-03 0.294D-02 0.573D-02-0.973D-02-0.706D-01
 Coeff-Com: -0.684D-01 0.207D+00 0.933D+00
 Coeff:     -0.398D-05 0.811D-05 0.991D-05 0.132D-04-0.435D-04-0.192D-03
 Coeff:     -0.480D-03 0.236D-03 0.294D-02 0.573D-02-0.973D-02-0.706D-01
 Coeff:     -0.684D-01 0.207D+00 0.933D+00
 Gap=     0.163 Goal=   None    Shift=    0.000
 RMSDP=8.83D-09 MaxDP=5.93D-07 DE=-1.35D-10 OVMax= 5.25D-06

 SCF Done:  E(RwB97XD) =  -3007.85436390     A.U. after   15 cycles
            NFock= 15  Conv=0.88D-08     -V/T= 2.0107
 KE= 2.976078501822D+03 PE=-2.606171234892D+04 EE= 1.054355935618D+04
 Leave Link  502 at Tue Apr 26 23:01:38 2022, MaxMem= 10066329600 cpu:            7818.7 elap:             339.7
 (Enter /sw/apps/gaussian-16.0/g16/l801.exe)
 DoSCS=F DFT=T ScalE2(SS,OS)=  1.000000  1.000000
 ExpMin= 3.36D-02 ExpMax= 4.95D+03 ExpMxC= 7.45D+02 IAcc=3 IRadAn=         5 AccDes= 0.00D+00
 HarFok:  IExCor=  205 AccDes= 0.00D+00 IRadAn=         5 IDoV=-2 UseB2=F ITyADJ=14
 ICtDFT= 12500011 ScaDFX=  1.000000  1.000000  1.000000  1.000000
 GSVD:  LWork=       -5460 too small for GESVD, short by       25550 words or       25550 for optimal perf.
 Largest valence mixing into a core orbital is  1.73D-04
 Largest core mixing into a valence orbital is  5.44D-05
 Range of M.O.s used for correlation:    71  1298
 NBasis=  1298 NAE=   246 NBE=   246 NFC=    70 NFV=     0
 NROrb=   1228 NOA=   176 NOB=   176 NVA=  1052 NVB=  1052
 Leave Link  801 at Tue Apr 26 23:01:38 2022, MaxMem= 10066329600 cpu:               6.1 elap:               0.3
 (Enter /sw/apps/gaussian-16.0/g16/l914.exe)
 RHF ground state
 Two-electron integrals replicated using symmetry.
 MDV= 10066329600 DFT=T DoStab=F Mixed=T DoRPA=T DoScal=F NonHer=T
 Making orbital integer symmetry assigments:
 Orbital symmetries:
       Occupied  (A) (A) (A) (A) (A) (A) (A) (A) (A) (A) (A) (A)
                 (A) (A) (A) (A) (A) (A) (A) (A) (A) (A) (A) (A)
                 (A) (A) (A) (A) (A) (A) (A) (A) (A) (A) (A) (A)
                 (A) (A) (A) (A) (A) (A) (A) (A) (A) (A) (A) (A)
                 (A) (A) (A) (A) (A) (A) (A) (A) (A) (A) (A) (A)
                 (A) (A) (A) (A) (A) (A) (A) (A) (A) (A) (A) (A)
                 (A) (A) (A) (A) (A) (A) (A) (A) (A) (A) (A) (A)
                 (A) (A) (A) (A) (A) (A) (A) (A) (A) (A) (A) (A)
                 (A) (A) (A) (A) (A) (A) (A) (A) (A) (A) (A) (A)
                 (A) (A) (A) (A) (A) (A) (A) (A) (A) (A) (A) (A)
                 (A) (A) (A) (A) (A) (A) (A) (A) (A) (A) (A) (A)
                 (A) (A) (A) (A) (A) (A) (A) (A) (A) (A) (A) (A)
                 (A) (A) (A) (A) (A) (A) (A) (A) (A) (A) (A) (A)
                 (A) (A) (A) (A) (A) (A) (A) (A) (A) (A) (A) (A)
                 (A) (A) (A) (A) (A) (A) (A) (A) (A) (A) (A) (A)
                 (A) (A) (A) (A) (A) (A) (A) (A) (A) (A) (A) (A)
                 (A) (A) (A) (A) (A) (A) (A) (A) (A) (A) (A) (A)
                 (A) (A) (A) (A) (A) (A) (A) (A) (A) (A) (A) (A)
                 (A) (A) (A) (A) (A) (A) (A) (A) (A) (A) (A) (A)
                 (A) (A) (A) (A) (A) (A) (A) (A) (A) (A) (A) (A)
                 (A) (A) (A) (A) (A) (A)
       Virtual   (A) (A) (A) (A) (A) (A) (A) (A) (A) (A) (A) (A)
                 (A) (A) (A) (A) (A) (A) (A) (A) (A) (A) (A) (A)
                 (A) (A) (A) (A) (A) (A) (A) (A) (A) (A) (A) (A)
                 (A) (A) (A) (A) (A) (A) (A) (A) (A) (A) (A) (A)
                 (A) (A) (A) (A) (A) (A) (A) (A) (A) (A) (A) (A)
                 (A) (A) (A) (A) (A) (A) (A) (A) (A) (A) (A) (A)
                 (A) (A) (A) (A) (A) (A) (A) (A) (A) (A) (A) (A)
                 (A) (A) (A) (A) (A) (A) (A) (A) (A) (A) (A) (A)
                 (A) (A) (A) (A) (A) (A) (A) (A) (A) (A) (A) (A)
                 (A) (A) (A) (A) (A) (A) (A) (A) (A) (A) (A) (A)
                 (A) (A) (A) (A) (A) (A) (A) (A) (A) (A) (A) (A)
                 (A) (A) (A) (A) (A) (A) (A) (A) (A) (A) (A) (A)
                 (A) (A) (A) (A) (A) (A) (A) (A) (A) (A) (A) (A)
                 (A) (A) (A) (A) (A) (A) (A) (A) (A) (A) (A) (A)
                 (A) (A) (A) (A) (A) (A) (A) (A) (A) (A) (A) (A)
                 (A) (A) (A) (A) (A) (A) (A) (A) (A) (A) (A) (A)
                 (A) (A) (A) (A) (A) (A) (A) (A) (A) (A) (A) (A)
                 (A) (A) (A) (A) (A) (A) (A) (A) (A) (A) (A) (A)
                 (A) (A) (A) (A) (A) (A) (A) (A) (A) (A) (A) (A)
                 (A) (A) (A) (A) (A) (A) (A) (A) (A) (A) (A) (A)
                 (A) (A) (A) (A) (A) (A) (A) (A) (A) (A) (A) (A)
                 (A) (A) (A) (A) (A) (A) (A) (A) (A) (A) (A) (A)
                 (A) (A) (A) (A) (A) (A) (A) (A) (A) (A) (A) (A)
                 (A) (A) (A) (A) (A) (A) (A) (A) (A) (A) (A) (A)
                 (A) (A) (A) (A) (A) (A) (A) (A) (A) (A) (A) (A)
                 (A) (A) (A) (A) (A) (A) (A) (A) (A) (A) (A) (A)
                 (A) (A) (A) (A) (A) (A) (A) (A) (A) (A) (A) (A)
                 (A) (A) (A) (A) (A) (A) (A) (A) (A) (A) (A) (A)
                 (A) (A) (A) (A) (A) (A) (A) (A) (A) (A) (A) (A)
                 (A) (A) (A) (A) (A) (A) (A) (A) (A) (A) (A) (A)
                 (A) (A) (A) (A) (A) (A) (A) (A) (A) (A) (A) (A)
                 (A) (A) (A) (A) (A) (A) (A) (A) (A) (A) (A) (A)
                 (A) (A) (A) (A) (A) (A) (A) (A) (A) (A) (A) (A)
                 (A) (A) (A) (A) (A) (A) (A) (A) (A) (A) (A) (A)
                 (A) (A) (A) (A) (A) (A) (A) (A) (A) (A) (A) (A)
                 (A) (A) (A) (A) (A) (A) (A) (A) (A) (A) (A) (A)
                 (A) (A) (A) (A) (A) (A) (A) (A) (A) (A) (A) (A)
                 (A) (A) (A) (A) (A) (A) (A) (A) (A) (A) (A) (A)
                 (A) (A) (A) (A) (A) (A) (A) (A) (A) (A) (A) (A)
                 (A) (A) (A) (A) (A) (A) (A) (A) (A) (A) (A) (A)
                 (A) (A) (A) (A) (A) (A) (A) (A) (A) (A) (A) (A)
                 (A) (A) (A) (A) (A) (A) (A) (A) (A) (A) (A) (A)
                 (A) (A) (A) (A) (A) (A) (A) (A) (A) (A) (A) (A)
                 (A) (A) (A) (A) (A) (A) (A) (A) (A) (A) (A) (A)
                 (A) (A) (A) (A) (A) (A) (A) (A) (A) (A) (A) (A)
                 (A) (A) (A) (A) (A) (A) (A) (A) (A) (A) (A) (A)
                 (A) (A) (A) (A) (A) (A) (A) (A) (A) (A) (A) (A)
                 (A) (A) (A) (A) (A) (A) (A) (A) (A) (A) (A) (A)
                 (A) (A) (A) (A) (A) (A) (A) (A) (A) (A) (A) (A)
                 (A) (A) (A) (A) (A) (A) (A) (A) (A) (A) (A) (A)
                 (A) (A) (A) (A) (A) (A) (A) (A) (A) (A) (A) (A)
                 (A) (A) (A) (A) (A) (A) (A) (A) (A) (A) (A) (A)
                 (A) (A) (A) (A) (A) (A) (A) (A) (A) (A) (A) (A)
                 (A) (A) (A) (A) (A) (A) (A) (A) (A) (A) (A) (A)
                 (A) (A) (A) (A) (A) (A) (A) (A) (A) (A) (A) (A)
                 (A) (A) (A) (A) (A) (A) (A) (A) (A) (A) (A) (A)
                 (A) (A) (A) (A) (A) (A) (A) (A) (A) (A) (A) (A)
                 (A) (A) (A) (A) (A) (A) (A) (A) (A) (A) (A) (A)
                 (A) (A) (A) (A) (A) (A) (A) (A) (A) (A) (A) (A)
                 (A) (A) (A) (A) (A) (A) (A) (A) (A) (A) (A) (A)
                 (A) (A) (A) (A) (A) (A) (A) (A) (A) (A) (A) (A)
                 (A) (A) (A) (A) (A) (A) (A) (A) (A) (A) (A) (A)
                 (A) (A) (A) (A) (A) (A) (A) (A) (A) (A) (A) (A)
                 (A) (A) (A) (A) (A) (A) (A) (A) (A) (A) (A) (A)
                 (A) (A) (A) (A) (A) (A) (A) (A) (A) (A) (A) (A)
                 (A) (A) (A) (A) (A) (A) (A) (A) (A) (A) (A) (A)
                 (A) (A) (A) (A) (A) (A) (A) (A) (A) (A) (A) (A)
                 (A) (A) (A) (A) (A) (A) (A) (A) (A) (A) (A) (A)
                 (A) (A) (A) (A) (A) (A) (A) (A) (A) (A) (A) (A)
                 (A) (A) (A) (A) (A) (A) (A) (A) (A) (A) (A) (A)
                 (A) (A) (A) (A) (A) (A) (A) (A) (A) (A) (A) (A)
                 (A) (A) (A) (A) (A) (A) (A) (A) (A) (A) (A) (A)
                 (A) (A) (A) (A) (A) (A) (A) (A) (A) (A) (A) (A)
                 (A) (A) (A) (A) (A) (A) (A) (A) (A) (A) (A) (A)
                 (A) (A) (A) (A) (A) (A) (A) (A) (A) (A) (A) (A)
                 (A) (A) (A) (A) (A) (A) (A) (A) (A) (A) (A) (A)
                 (A) (A) (A) (A) (A) (A) (A) (A) (A) (A) (A) (A)
                 (A) (A) (A) (A) (A) (A) (A) (A) (A) (A) (A) (A)
                 (A) (A) (A) (A) (A) (A) (A) (A) (A) (A) (A) (A)
                 (A) (A) (A) (A) (A) (A) (A) (A) (A) (A) (A) (A)
                 (A) (A) (A) (A) (A) (A) (A) (A) (A) (A) (A) (A)
                 (A) (A) (A) (A) (A) (A) (A) (A) (A) (A) (A) (A)
                 (A) (A) (A) (A) (A) (A) (A) (A) (A) (A) (A) (A)
                 (A) (A) (A) (A) (A) (A) (A) (A) (A) (A) (A) (A)
                 (A) (A) (A) (A) (A) (A) (A) (A) (A) (A) (A) (A)
                 (A) (A) (A) (A) (A) (A) (A) (A) (A) (A) (A) (A)
                 (A) (A) (A) (A) (A) (A) (A) (A) (A) (A) (A) (A)
                 (A) (A) (A) (A) (A) (A) (A) (A)
    20 initial guesses have been made.
 Convergence on wavefunction:    0.001000000000000
 Davidson Disk Diagonalization:  ConvIn= 1.00D-03 SkipCon=T Conv= 1.00D-03.
 Max sub-space:  2000 roots to seek:    20 dimension of matrix:       370304
 Iteration     1 Dimension    20 NMult     0 NNew     20
 CISAX will form    20 AO SS matrices at one time.
 NMat=    20 NSing=    20 JSym2X= 0.
 FoFJK:  IHMeth= 1 ICntrl=       0 DoSepK=T KAlg= 0 I1Cent=           0 FoldK=F
 IRaf=         1 NMat=      40 IRICut=       1 DoRegI=T DoRafI=F ISym2E= 0 IDoP0=3 IntGTp=3.
 FoFCou: FMM=T IPFlag=           0 FMFlag=      100000 FMFlg1=        2001
         NFxFlg=           0 DoJE=F BraDBF=F KetDBF=F FulRan=T
         wScrn=  0.000000 ICntrl=       500 IOpCl=  0 I1Cent=           0 NGrid=           0
         NMat0=   20 NMatS0=     20 NMatT0=    0 NMatD0=   20 NMtDS0=    0 NMtDT0=    0
 Symmetry not used in FoFCou.
 FMM levels:  10  Number of levels for PrismC:   9
 New state      3 was old state      6
 New state      4 was old state     11
 New state      5 was old state      7
 Excitation Energies [eV] at current iteration:
 Root      1 :     2.257672949007616
 Root      2 :     2.700203922441451
 Root      3 :     4.052565449692405
 Root      4 :     4.149774958752170
 Root      5 :     4.273320968220395
 Root      6 :     4.397342107778777
 Root      7 :     4.427210041570749
 Root      8 :     4.566141514121018
 Root      9 :     4.596390787269998
 Root     10 :     4.703956199965301
 Root     11 :     5.051032621730839
 Root     12 :     5.218766564645551
 Root     13 :     5.237206028010638
 Root     14 :     5.321616839852033
 Root     15 :     5.580106438525426
 Root     16 :     5.630705101586488
 Root     17 :     5.646723183652766
 Root     18 :     5.883553112275789
 Root     19 :     6.669902039696349
 Root     20 :     7.156428879567715
 Iteration     2 Dimension    30 NMult    20 NNew     10
 CISAX will form    10 AO SS matrices at one time.
 NMat=    10 NSing=    10 JSym2X= 0.
 Root      1 not converged, maximum delta is    0.074956536360627
 Root      2 not converged, maximum delta is    0.057364576320869
 Root      3 not converged, maximum delta is    0.198778339625713
 New state      4 was old state      5
 Root      4 not converged, maximum delta is    0.266082061666958
 New state      5 was old state      4
 Root      5 not converged, maximum delta is    0.157559872466894
 Excitation Energies [eV] at current iteration:
 Root      1 :     1.752651387260371   Change is   -0.505021561747246
 Root      2 :     2.294366554978488   Change is   -0.405837367462963
 Root      3 :     3.647329185536468   Change is   -0.405236264155937
 Root      4 :     3.767470455454039   Change is   -0.505850512766356
 Root      5 :     4.060573930519618   Change is   -0.089201028232552
 Iteration     3 Dimension    40 NMult    30 NNew     10
 CISAX will form    10 AO SS matrices at one time.
 NMat=    10 NSing=    10 JSym2X= 0.
 Root      1 not converged, maximum delta is    0.016813573196619
 Root      2 not converged, maximum delta is    0.010439676955467
 Root      3 not converged, maximum delta is    0.141580780681009
 Root      4 not converged, maximum delta is    0.122210367404043
 Root      5 not converged, maximum delta is    0.257440656742335
 Excitation Energies [eV] at current iteration:
 Root      1 :     1.714904337350271   Change is   -0.037747049910100
 Root      2 :     2.274417333528110   Change is   -0.019949221450378
 Root      3 :     3.597612639241330   Change is   -0.049716546295138
 Root      4 :     3.709511709747443   Change is   -0.057958745706596
 Root      5 :     4.037626594481321   Change is   -0.022947336038298
 Iteration     4 Dimension    50 NMult    40 NNew     10
 CISAX will form    10 AO SS matrices at one time.
 NMat=    10 NSing=    10 JSym2X= 0.
 Root      1 not converged, maximum delta is    0.003374629931453
 Root      2 not converged, maximum delta is    0.003845493401168
 Root      3 not converged, maximum delta is    0.022205200060017
 Root      4 not converged, maximum delta is    0.062167159041055
 Root      5 not converged, maximum delta is    0.403024910367510
 Excitation Energies [eV] at current iteration:
 Root      1 :     1.710951147311779   Change is   -0.003953190038492
 Root      2 :     2.271511951080893   Change is   -0.002905382447217
 Root      3 :     3.586087099665317   Change is   -0.011525539576013
 Root      4 :     3.694414348255024   Change is   -0.015097361492419
 Root      5 :     3.808411568405883   Change is   -0.229215026075437
 Iteration     5 Dimension    60 NMult    50 NNew     10
 CISAX will form    10 AO SS matrices at one time.
 NMat=    10 NSing=    10 JSym2X= 0.
 Root      1 not converged, maximum delta is    0.001179141531466
 Root      2 not converged, maximum delta is    0.001137045722149
 Root      3 not converged, maximum delta is    0.015152728704186
 Root      4 not converged, maximum delta is    0.051560486584072
 Root      5 not converged, maximum delta is    0.050115257823776
 Excitation Energies [eV] at current iteration:
 Root      1 :     1.710583399350359   Change is   -0.000367747961419
 Root      2 :     2.271274436264182   Change is   -0.000237514816711
 Root      3 :     3.584108041685074   Change is   -0.001979057980244
 Root      4 :     3.686843289656363   Change is   -0.007571058598661
 Root      5 :     3.761543976721653   Change is   -0.046867591684230
 Iteration     6 Dimension    70 NMult    60 NNew     10
 CISAX will form    10 AO SS matrices at one time.
 NMat=    10 NSing=    10 JSym2X= 0.
 Root      1 has converged.
 Root      2 has converged.
 Root      3 not converged, maximum delta is    0.017198721632392
 Root      4 not converged, maximum delta is    0.072093117512317
 Root      5 not converged, maximum delta is    0.137296559381518
 Excitation Energies [eV] at current iteration:
 Root      1 :     1.710548376178280   Change is   -0.000035023172079
 Root      2 :     2.271250045837946   Change is   -0.000024390426236
 Root      3 :     3.583384856897898   Change is   -0.000723184787176
 Root      4 :     3.682266350896692   Change is   -0.004576938759670
 Root      5 :     3.747051459537091   Change is   -0.014492517184563
 Iteration     7 Dimension    76 NMult    70 NNew      6
 CISAX will form     6 AO SS matrices at one time.
 NMat=     6 NSing=     6 JSym2X= 0.
 Root      1 has converged.
 Root      2 has converged.
 Root      3 not converged, maximum delta is    0.009038215704654
 Root      4 not converged, maximum delta is    0.056493213873688
 Root      5 not converged, maximum delta is    0.113130834413657
 Excitation Energies [eV] at current iteration:
 Root      1 :     1.710548234237760   Change is   -0.000000141940520
 Root      2 :     2.271249793156048   Change is   -0.000000252681897
 Root      3 :     3.583089059811825   Change is   -0.000295797086073
 Root      4 :     3.679293393100164   Change is   -0.002972957796529
 Root      5 :     3.737127110808506   Change is   -0.009924348728585
 Iteration     8 Dimension    82 NMult    76 NNew      6
 CISAX will form     6 AO SS matrices at one time.
 NMat=     6 NSing=     6 JSym2X= 0.
 Root      1 has converged.
 Root      2 has converged.
 Root      3 not converged, maximum delta is    0.002355100167797
 Root      4 not converged, maximum delta is    0.017989196601982
 Root      5 not converged, maximum delta is    0.037983742679411
 Excitation Energies [eV] at current iteration:
 Root      1 :     1.710548099999286   Change is   -0.000000134238474
 Root      2 :     2.271249633095163   Change is   -0.000000160060886
 Root      3 :     3.583020163788778   Change is   -0.000068896023047
 Root      4 :     3.678346449094143   Change is   -0.000946944006021
 Root      5 :     3.733758600133853   Change is   -0.003368510674652
 Iteration     9 Dimension    88 NMult    82 NNew      6
 CISAX will form     6 AO SS matrices at one time.
 NMat=     6 NSing=     6 JSym2X= 0.
 Root      1 has converged.
 Root      2 has converged.
 Root      3 has converged.
 Root      4 not converged, maximum delta is    0.003241633119872
 Root      5 not converged, maximum delta is    0.007125267697925
 Excitation Energies [eV] at current iteration:
 Root      1 :     1.710548042255571   Change is   -0.000000057743714
 Root      2 :     2.271249496174605   Change is   -0.000000136920557
 Root      3 :     3.583009669275167   Change is   -0.000010494513611
 Root      4 :     3.678178264693206   Change is   -0.000168184400937
 Root      5 :     3.733151272970411   Change is   -0.000607327163441
 Iteration    10 Dimension    92 NMult    88 NNew      4
 CISAX will form     4 AO SS matrices at one time.
 NMat=     4 NSing=     4 JSym2X= 0.
 Root      1 has converged.
 Root      2 has converged.
 Root      3 has converged.
 Root      4 has converged.
 Root      5 not converged, maximum delta is    0.001361836443229
 Excitation Energies [eV] at current iteration:
 Root      1 :     1.710547976360347   Change is   -0.000000065895224
 Root      2 :     2.271249485427054   Change is   -0.000000010747551
 Root      3 :     3.583008752321884   Change is   -0.000000916953283
 Root      4 :     3.678155994225835   Change is   -0.000022270467371
 Root      5 :     3.733070644791856   Change is   -0.000080628178556
 Iteration    11 Dimension    94 NMult    92 NNew      2
 CISAX will form     2 AO SS matrices at one time.
 NMat=     2 NSing=     2 JSym2X= 0.
 Root      1 has converged.
 Root      2 has converged.
 Root      3 has converged.
 Root      4 has converged.
 Root      5 has converged.
 Excitation Energies [eV] at current iteration:
 Root      1 :     1.710547970660338   Change is   -0.000000005700010
 Root      2 :     2.271249469039695   Change is   -0.000000016387360
 Root      3 :     3.583008677845658   Change is   -0.000000074476226
 Root      4 :     3.678153074127887   Change is   -0.000002920097948
 Root      5 :     3.733057837885477   Change is   -0.000012806906379
 Convergence achieved on expansion vectors.
 ***********************************************************************
 Excited states from <AA,BB:AA,BB> singles matrix:
 ***********************************************************************
 
 1PDM for each excited state written to RWF  633
 Ground to excited state transition densities written to RWF  633
 Ground to excited state transition electric dipole moments (Au):
       state          X           Y           Z        Dip. S.      Osc.
         1        -0.9807     -2.8737      0.0353      9.2210      0.3864
         2        -1.2154      0.6750      0.0637      1.9370      0.1078
         3         2.0356     -0.9120     -0.1407      4.9951      0.4385
         4         1.3223     -0.5804     -0.1046      2.0964      0.1889
         5         0.6160     -0.2207     -0.0624      0.4320      0.0395
 Ground to excited state transition velocity dipole moments (Au):
       state          X           Y           Z        Dip. S.      Osc.
         1         0.0594      0.1758     -0.0010      0.0345      0.3654
         2         0.0958     -0.0535     -0.0050      0.0121      0.0964
         3        -0.2557      0.1174      0.0183      0.0795      0.4026
         4        -0.1774      0.0756      0.0113      0.0373      0.1840
         5        -0.0816      0.0303      0.0080      0.0076      0.0371
 Ground to excited state transition magnetic dipole moments (Au):
       state          X           Y           Z
         1        -0.1184      0.0253     -1.5227
         2         0.0326     -0.0616      0.1974
         3         0.0106      0.2743     -0.6606
         4         0.1994     -0.3978     -1.2248
         5        -0.4222     -0.4251      0.0820
 Ground to excited state transition velocity quadrupole moments (Au):
       state          XX          YY          ZZ          XY          XZ          YZ
         1        -1.2792      0.4968     -0.0162     -1.6776      0.0581      0.0964
         2        -1.8053     -0.1383     -0.0009      0.5681      0.0931      0.0031
         3         4.8040     -0.1374     -0.0199     -1.6125     -0.1535      0.0925
         4         3.4885     -0.3126     -0.0071     -0.9054     -0.1396      0.0624
         5         1.4783      0.1689     -0.0011     -0.3894     -0.0391     -0.0246
 <0|del|b> * <b|rxdel|0> + <0|del|b> * <b|delr+rdel|0>
 Rotatory Strengths (R) in cgs (10**-40 erg-esu-cm/Gauss)
       state          XX          YY          ZZ    R(velocity)    E-M Angle
         1       -14.3165     -8.2440     10.7511     -3.9364       90.21
         2        18.7797     22.3502      4.8492     15.3264       76.35
         3        23.4671    -24.1711     94.2928     31.1963       85.04
         4      -113.9467   -130.9623   -169.8007   -138.2366      108.36
         5       -36.5282    103.7314     47.3470     38.1834       65.14
 1/2[<0|r|b>*<b|rxdel|0> + (<0|rxdel|b>*<b|r|0>)*]
 Rotatory Strengths (R) in cgs (10**-40 erg-esu-cm/Gauss)
       state          XX          YY          ZZ     R(length)
         1       -82.1128     51.4324     37.9757      2.4317
         2        28.0061     29.4132     -8.8976     16.1739
         3       -15.3057    176.8772    -65.7186     31.9510
         4      -186.5065   -163.2754    -90.6168   -146.7996
         5       183.9227    -66.3357      3.6175     40.4015
  1/2[<0|del|b>*<b|r|0> + (<0|r|b>*<b|del|0>)*] (Au)
       state          X           Y           Z        Dip. S.   Osc.(frdel)
         1        -0.0583     -0.5053     -0.0000      0.5636      0.3757
         2        -0.1165     -0.0361     -0.0003      0.1529      0.1019
         3        -0.5206     -0.1071     -0.0026      0.6302      0.4202
         4        -0.2346     -0.0439     -0.0012      0.2796      0.1864
         5        -0.0503     -0.0067     -0.0005      0.0575      0.0383

 Excitation energies and oscillator strengths:
 
 Excited State   1:      Singlet-A      1.7105 eV  724.82 nm  f=0.3864  <S**2>=0.000
     245 -> 248       -0.19159
     246 -> 247        0.68224
     245 <- 248       -0.11599
 This state for optimization and/or second-order correction.
 Total Energy, E(TD-HF/TD-DFT) =  -3007.79150242    
 Copying the excited state density for this state as the 1-particle RhoCI density.
 
 Excited State   2:      Singlet-A      2.2712 eV  545.89 nm  f=0.1078  <S**2>=0.000
     245 -> 247        0.63367
     246 -> 248        0.30482
 
 Excited State   3:      Singlet-A      3.5830 eV  346.03 nm  f=0.4385  <S**2>=0.000
     242 -> 247       -0.16663
     243 -> 247       -0.34661
     245 -> 247       -0.22510
     246 -> 248        0.52298
 
 Excited State   4:      Singlet-A      3.6782 eV  337.08 nm  f=0.1889  <S**2>=0.000
     241 -> 247        0.18334
     241 -> 249       -0.15162
     242 -> 247       -0.18360
     242 -> 249       -0.14664
     242 -> 251       -0.12253
     243 -> 247        0.49513
     245 -> 247       -0.14787
     246 -> 248        0.25781
 
 Excited State   5:      Singlet-A      3.7331 eV  332.13 nm  f=0.0395  <S**2>=0.000
     241 -> 247        0.42470
     241 -> 249       -0.28885
     242 -> 247        0.31542
     242 -> 249        0.12262
     242 -> 251        0.14587
     243 -> 247       -0.12751
     246 -> 248        0.12186
 SavETr:  write IOETrn=   770 NScale= 10 NData=  16 NLR=1 NState=    5 LETran=     100.
 Leave Link  914 at Tue Apr 26 23:24:21 2022, MaxMem= 10066329600 cpu:           32410.8 elap:            1362.8
 (Enter /sw/apps/gaussian-16.0/g16/l601.exe)
 Copying SCF densities to generalized density rwf, IOpCl= 0 IROHF=0.
 Hyperfine terms turned off by default for NAtoms > 100.

 **********************************************************************

            Population analysis using the SCF density.

 **********************************************************************

 Orbital symmetries:
       Occupied  (A) (A) (A) (A) (A) (A) (A) (A) (A) (A) (A) (A)
                 (A) (A) (A) (A) (A) (A) (A) (A) (A) (A) (A) (A)
                 (A) (A) (A) (A) (A) (A) (A) (A) (A) (A) (A) (A)
                 (A) (A) (A) (A) (A) (A) (A) (A) (A) (A) (A) (A)
                 (A) (A) (A) (A) (A) (A) (A) (A) (A) (A) (A) (A)
                 (A) (A) (A) (A) (A) (A) (A) (A) (A) (A) (A) (A)
                 (A) (A) (A) (A) (A) (A) (A) (A) (A) (A) (A) (A)
                 (A) (A) (A) (A) (A) (A) (A) (A) (A) (A) (A) (A)
                 (A) (A) (A) (A) (A) (A) (A) (A) (A) (A) (A) (A)
                 (A) (A) (A) (A) (A) (A) (A) (A) (A) (A) (A) (A)
                 (A) (A) (A) (A) (A) (A) (A) (A) (A) (A) (A) (A)
                 (A) (A) (A) (A) (A) (A) (A) (A) (A) (A) (A) (A)
                 (A) (A) (A) (A) (A) (A) (A) (A) (A) (A) (A) (A)
                 (A) (A) (A) (A) (A) (A) (A) (A) (A) (A) (A) (A)
[...]
 Alpha virt. eigenvalues --    1.20390   1.20717   1.21002   1.22262   1.22771
 Alpha virt. eigenvalues --    1.23069   1.23314   1.23641   1.23830   1.24460
 Alpha virt. eigenvalues --    1.24899   1.25407   1.25710   1.25946   1.26227
 Alpha virt. eigenvalues --    1.26296   1.27112   1.27796   1.28131   1.28437
 Alpha virt. eigenvalues --    1.30036   1.30160   1.30423   1.30729   1.31185
 Alpha virt. eigenvalues --    1.32157   1.32789   1.33570   1.33800   1.34496
 Alpha virt. eigenvalues --    1.34671   1.34911   1.35270   1.35307   1.35579
 Alpha virt. eigenvalues --    1.36071   1.36943   1.37536   1.37646   1.38271
 Alpha virt. eigenvalues --    1.38942   1.39487   1.40092   1.40267   1.40618
 Alpha virt. eigenvalues --    1.40663   1.41192   1.41631   1.41895   1.42116
 Alpha virt. eigenvalues --    1.42297   1.42771   1.43001   1.43360   1.43788
 Alpha virt. eigenvalues --    1.43977   1.44390   1.44596   1.45296   1.45454
 Alpha virt. eigenvalues --    1.45704   1.46676   1.47053   1.47155   1.47462
 Alpha virt. eigenvalues --    1.47838   1.48126   1.48323   1.48655   1.49394
 Alpha virt. eigenvalues --    1.49470   1.49620   1.50551   1.51154   1.51465
 Alpha virt. eigenvalues --    1.52648   1.52871   1.52999   1.53364   1.53542
 Alpha virt. eigenvalues --    1.54122   1.54504   1.55236   1.55577   1.56346
 Alpha virt. eigenvalues --    1.57550   1.57643   1.57691   1.58530   1.59063
 Alpha virt. eigenvalues --    1.59364   1.59531   1.59695   1.60080   1.60279
 Alpha virt. eigenvalues --    1.60499   1.60855   1.60909   1.60990   1.61263
 Alpha virt. eigenvalues --    1.61610   1.61738   1.62091   1.62288   1.62546
 Alpha virt. eigenvalues --    1.62990   1.63452   1.63561   1.63612   1.63742
 Alpha virt. eigenvalues --    1.64032   1.64334   1.64421   1.64487   1.64692
 Alpha virt. eigenvalues --    1.64861   1.65324   1.65706   1.65748   1.66045
 Alpha virt. eigenvalues --    1.67370   1.67469   1.67709   1.68007   1.68914
 Alpha virt. eigenvalues --    1.69487   1.69551   1.70314   1.70583   1.70737
 Alpha virt. eigenvalues --    1.70957   1.71827   1.72448   1.72719   1.73229
 Alpha virt. eigenvalues --    1.73686   1.74133   1.74654   1.74906   1.75207
 Alpha virt. eigenvalues --    1.75593   1.76749   1.76771   1.77747   1.77783
 Alpha virt. eigenvalues --    1.78124   1.78469   1.78758   1.78976   1.79163
 Alpha virt. eigenvalues --    1.79540   1.79982   1.80114   1.80187   1.80446
 Alpha virt. eigenvalues --    1.80784   1.81013   1.81241   1.81378   1.82069
 Alpha virt. eigenvalues --    1.82389   1.82407   1.82640   1.82944   1.82995
 Alpha virt. eigenvalues --    1.83059   1.83536   1.83564   1.83733   1.83924
 Alpha virt. eigenvalues --    1.84081   1.84113   1.84602   1.84842   1.84946
 Alpha virt. eigenvalues --    1.85194   1.85638   1.85930   1.86023   1.86155
 Alpha virt. eigenvalues --    1.86492   1.86821   1.86973   1.87413   1.87436
 Alpha virt. eigenvalues --    1.87558   1.87710   1.87846   1.88063   1.88111
 Alpha virt. eigenvalues --    1.88288   1.88667   1.88756   1.88885   1.89127
 Alpha virt. eigenvalues --    1.89430   1.89642   1.89952   1.90053   1.90163
 Alpha virt. eigenvalues --    1.90375   1.90594   1.90735   1.91157   1.91358
 Alpha virt. eigenvalues --    1.91564   1.91668   1.91925   1.92155   1.92258
 Alpha virt. eigenvalues --    1.92358   1.92844   1.92946   1.93291   1.93438
 Alpha virt. eigenvalues --    1.93467   1.93695   1.94030   1.94306   1.94562
 Alpha virt. eigenvalues --    1.94654   1.94683   1.94939   1.94993   1.95081
 Alpha virt. eigenvalues --    1.95348   1.95701   1.95937   1.96476   1.96526
 Alpha virt. eigenvalues --    1.96760   1.96938   1.97406   1.97566   1.97807
 Alpha virt. eigenvalues --    1.98054   1.98242   1.98317   1.98759   1.98887
 Alpha virt. eigenvalues --    1.99212   1.99489   1.99602   1.99867   2.00026
 Alpha virt. eigenvalues --    2.00266   2.00687   2.00955   2.01292   2.01689
 Alpha virt. eigenvalues --    2.01788   2.02048   2.02484   2.02524   2.02717
 Alpha virt. eigenvalues --    2.02926   2.03479   2.03496   2.03816   2.04023
 Alpha virt. eigenvalues --    2.04712   2.04782   2.05027   2.05145   2.05617
 Alpha virt. eigenvalues --    2.05964   2.06521   2.06726   2.06835   2.07014
 Alpha virt. eigenvalues --    2.07133   2.07711   2.08331   2.08503   2.08745
 Alpha virt. eigenvalues --    2.09048   2.09346   2.09630   2.09720   2.10238
 Alpha virt. eigenvalues --    2.10252   2.10499   2.11025   2.11262   2.11337
 Alpha virt. eigenvalues --    2.11619   2.12033   2.12252   2.12315   2.12645
 Alpha virt. eigenvalues --    2.13003   2.13291   2.13547   2.14271   2.14561
 Alpha virt. eigenvalues --    2.14695   2.15016   2.15539   2.15929   2.16509
 Alpha virt. eigenvalues --    2.16668   2.16904   2.17506   2.18071   2.18342
 Alpha virt. eigenvalues --    2.18680   2.18821   2.19330   2.19450   2.19753
 Alpha virt. eigenvalues --    2.20152   2.20258   2.20520   2.20807   2.20909
 Alpha virt. eigenvalues --    2.21189   2.21335   2.21955   2.22131   2.22276
 Alpha virt. eigenvalues --    2.22449   2.23377   2.23925   2.24208   2.24466
 Alpha virt. eigenvalues --    2.24601   2.25160   2.25580   2.26698   2.27210
 Alpha virt. eigenvalues --    2.27299   2.28176   2.28246   2.28342   2.28758
 Alpha virt. eigenvalues --    2.29131   2.29394   2.29556   2.30546   2.31023
 Alpha virt. eigenvalues --    2.31302   2.31889   2.31963   2.32462   2.33019
 Alpha virt. eigenvalues --    2.33278   2.33622   2.34386   2.34671   2.34876
 Alpha virt. eigenvalues --    2.35157   2.36075   2.36263   2.36498   2.36803
 Alpha virt. eigenvalues --    2.36963   2.37451   2.37759   2.38132   2.38664
 Alpha virt. eigenvalues --    2.38724   2.39150   2.39574   2.40120   2.40453
 Alpha virt. eigenvalues --    2.40961   2.41285   2.41568   2.41833   2.41843
 Alpha virt. eigenvalues --    2.42153   2.42321   2.43217   2.43620   2.43951
 Alpha virt. eigenvalues --    2.44304   2.44936   2.45391   2.45931   2.46243
 Alpha virt. eigenvalues --    2.46494   2.46795   2.46956   2.47229   2.47771
 Alpha virt. eigenvalues --    2.47815   2.48225   2.48788   2.48901   2.49354
 Alpha virt. eigenvalues --    2.49475   2.49655   2.50248   2.50369   2.51012
 Alpha virt. eigenvalues --    2.51376   2.51583   2.51732   2.52302   2.52544
 Alpha virt. eigenvalues --    2.52599   2.53084   2.53442   2.54275   2.54612
 Alpha virt. eigenvalues --    2.54737   2.55081   2.56044   2.56521   2.56817
 Alpha virt. eigenvalues --    2.56977   2.57418   2.57646   2.58211   2.59194
 Alpha virt. eigenvalues --    2.59596   2.60808   2.60945   2.62210   2.62275
 Alpha virt. eigenvalues --    2.62552   2.62619   2.62938   2.63057   2.63381
 Alpha virt. eigenvalues --    2.63968   2.64352   2.64482   2.64958   2.65259
 Alpha virt. eigenvalues --    2.65826   2.66205   2.66596   2.66714   2.67451
 Alpha virt. eigenvalues --    2.67566   2.68075   2.68193   2.68753   2.69350
 Alpha virt. eigenvalues --    2.70232   2.70399   2.71174   2.71226   2.71669
 Alpha virt. eigenvalues --    2.71870   2.72439   2.72567   2.73368   2.73927
 Alpha virt. eigenvalues --    2.74135   2.74939   2.74941   2.75088   2.75712
 Alpha virt. eigenvalues --    2.76033   2.76668   2.76989   2.77183   2.77759
 Alpha virt. eigenvalues --    2.78268   2.78500   2.78933   2.79139   2.80412
 Alpha virt. eigenvalues --    2.80596   2.80857   2.81188   2.81507   2.81954
 Alpha virt. eigenvalues --    2.82055   2.82386   2.83058   2.83196   2.83495
 Alpha virt. eigenvalues --    2.84400   2.84903   2.85207   2.85442   2.85784
 Alpha virt. eigenvalues --    2.86513   2.86546   2.87031   2.87981   2.88274
 Alpha virt. eigenvalues --    2.89005   2.89092   2.89794   2.90249   2.91192
 Alpha virt. eigenvalues --    2.91576   2.92412   2.92439   2.92528   2.93459
 Alpha virt. eigenvalues --    2.93643   2.93906   2.94429   2.94680   2.94787
 Alpha virt. eigenvalues --    2.96013   2.96604   2.96998   2.97197   2.97824
 Alpha virt. eigenvalues --    2.98244   2.98812   2.99040   2.99226   2.99381
 Alpha virt. eigenvalues --    3.00532   3.00752   3.01031   3.01389   3.01774
 Alpha virt. eigenvalues --    3.02105   3.02293   3.02659   3.02910   3.03156
 Alpha virt. eigenvalues --    3.03543   3.03718   3.03887   3.04129   3.04323
 Alpha virt. eigenvalues --    3.04332   3.04754   3.04849   3.05258   3.05798
 Alpha virt. eigenvalues --    3.05889   3.06027   3.06315   3.06661   3.06956
 Alpha virt. eigenvalues --    3.07315   3.07952   3.08019   3.08575   3.08856
 Alpha virt. eigenvalues --    3.08955   3.09069   3.09673   3.10269   3.10403
 Alpha virt. eigenvalues --    3.10541   3.11124   3.11225   3.11447   3.11929
 Alpha virt. eigenvalues --    3.12551   3.12654   3.12807   3.13105   3.13901
 Alpha virt. eigenvalues --    3.14412   3.14627   3.15431   3.16013   3.16140
 Alpha virt. eigenvalues --    3.16339   3.16546   3.16665   3.17969   3.18928
 Alpha virt. eigenvalues --    3.19885   3.20623   3.20774   3.20945   3.22529
 Alpha virt. eigenvalues --    3.23330   3.24849   3.26153   3.26674   3.28329
 Alpha virt. eigenvalues --    3.28922   3.29324   3.29713   3.31824   3.32561
 Alpha virt. eigenvalues --    3.32778   3.38303   3.46209   3.50622   3.51121
 Alpha virt. eigenvalues --    3.51540   3.53667   3.57377   3.60117   3.62603
 Alpha virt. eigenvalues --    3.65741   3.66765   3.70814   3.73094   3.74659
 Alpha virt. eigenvalues --    3.75982   3.78709
          Condensed to atoms (all electrons):
 Mulliken charges:
               1
     1  Mg   0.971304
     2  C   -0.000714
     3  C   -0.093792
     4  C   -0.079009
     5  C   -0.057985
     6  N   -0.288021
     7  C   -0.029065
     8  C   -0.083126
     9  C   -0.053296
    10  C   -0.022479
    11  C    0.034390
    12  C    0.053569
    13  C    0.038277
    14  C    0.190359
    15  O   -0.271935
    16  O   -0.348946
    17  N   -0.414951
    18  C    0.147372
    19  C   -0.143522
    20  C   -0.062774
    21  C    0.169535
    22  C    0.062711
    23  C    0.005070
    24  O   -0.217617
    25  C    0.014558
    26  N   -0.430496
    27  C    0.049431
    28  C   -0.079489
    29  C   -0.057496
    30  C    0.054789
    31  C    0.015059
    32  C   -0.037436
    33  C   -0.046980
    34  N   -0.330587
    35  C    0.052451
    36  C   -0.208559
    37  C   -0.081152
    38  C    0.154041
    39  C    0.082194
    40  C    0.170862
    41  O   -0.166137
    42  C   -0.190357
    43  C    0.293603
    44  O   -0.225892
    45  O   -0.404025
    46  C    0.145362
    47  C    0.251538
    48  C   -0.127686
    49  C   -0.218367
    50  C    0.019506
    51  C    0.030262
    52  C   -0.056697
    53  C    0.005303
    54  C   -0.176718
    55  C    0.029531
    56  C    0.010161
    57  C   -0.047586
    58  C    0.005016
    59  C   -0.184351
    60  C   -0.022693
    61  C    0.007817
    62  C   -0.036018
    63  C   -0.016647
    64  C   -0.211464
    65  C   -0.002165
    66  C   -0.011958
    67  H   -0.011097
    68  H    0.022982
    69  H    0.008224
    70  H    0.059368
    71  H    0.027976
    72  H    0.032537
    73  H    0.029741
    74  H    0.046063
    75  H    0.028425
    76  H    0.039846
    77  H    0.056065
    78  H    0.058755
    79  H    0.033520
    80  H    0.059906
    81  H    0.049007
    82  H    0.061222
    83  H    0.061881
    84  H    0.015513
    85  H    0.041184
    86  H    0.031924
    87  H    0.049767
    88  H    0.030421
    89  H    0.036714
    90  H    0.034190
    91  H    0.032230
    92  H    0.031895
    93  H    0.050167
    94  H    0.031187
    95  H    0.063379
    96  H    0.059956
    97  H    0.044881
    98  H    0.079646
    99  H    0.072556
   100  H    0.032977
   101  H    0.034641
   102  H    0.051993
   103  H    0.049320
   104  H    0.027871
   105  H    0.034483
   106  H    0.044154
   107  H    0.055990
   108  H    0.038027
   109  H    0.018208
   110  H    0.028540
   111  H    0.015156
   112  H    0.025233
   113  H    0.014812
   114  H    0.020121
   115  H    0.047455
   116  H    0.022447
   117  H    0.005055
   118  H    0.016054
   119  H    0.002844
   120  H    0.012542
   121  H    0.023954
   122  H    0.025046
   123  H    0.025972
   124  H    0.011617
   125  H    0.027546
   126  H    0.017146
   127  H    0.037729
   128  H    0.027605
   129  H    0.010095
   130  H    0.036683
   131  H    0.033624
   132  H    0.004603
   133  H    0.018578
   134  H    0.026677
   135  H    0.021883
   136  H    0.026816
   137  H    0.034079
   138  H    0.034351
   139  H    0.033995
   140  H    0.028162
 Sum of Mulliken charges =  -0.00000
 Mulliken charges with hydrogens summed into heavy atoms:
               1
     1  Mg   0.971304
     2  C   -0.000714
     3  C   -0.104888
     4  C   -0.056027
     5  C   -0.049762
     6  N   -0.288021
     7  C   -0.029065
     8  C   -0.023758
     9  C   -0.025321
    10  C   -0.022479
    11  C    0.142731
    12  C    0.121839
    13  C    0.153097
    14  C    0.190359
    15  O   -0.271935
    16  O   -0.348946
    17  N   -0.414951
    18  C    0.147372
    19  C   -0.143522
    20  C   -0.062774
    21  C    0.169535
    22  C    0.205144
    23  C    0.005070
    24  O   -0.217617
    25  C    0.153173
    26  N   -0.430496
    27  C    0.049431
    28  C   -0.038305
    29  C   -0.025572
    30  C    0.054789
    31  C    0.131961
    32  C    0.028984
    33  C    0.066269
    34  N   -0.330587
    35  C    0.052451
    36  C   -0.208559
    37  C   -0.081152
    38  C    0.154041
    39  C    0.250410
    40  C    0.170862
    41  O   -0.166137
    42  C   -0.110711
    43  C    0.293603
    44  O   -0.225892
    45  O   -0.404025
    46  C    0.285536
    47  C    0.352852
    48  C   -0.099814
    49  C   -0.218367
    50  C    0.154133
    51  C    0.086497
    52  C   -0.013001
    53  C    0.045349
    54  C   -0.156597
    55  C    0.104488
    56  C    0.029059
    57  C   -0.011090
    58  C    0.056035
    59  C   -0.172733
    60  C    0.059729
    61  C    0.045516
    62  C    0.034288
    63  C    0.006534
    64  C   -0.184788
    65  C    0.080612
    66  C    0.084551
 Electronic spatial extent (au):  <R**2>=         122669.5398
 Charge=             -0.0000 electrons
 Dipole moment (field-independent basis, Debye):
    X=              4.0709    Y=              4.8019    Z=             -3.8450  Tot=              7.3766
 Quadrupole moment (field-independent basis, Debye-Ang):
   XX=           -374.2173   YY=           -428.9036   ZZ=           -397.7479
   XY=            -17.1067   XZ=             14.3744   YZ=             11.8105
 Traceless Quadrupole moment (field-independent basis, Debye-Ang):
   XX=             26.0723   YY=            -28.6140   ZZ=              2.5417
   XY=            -17.1067   XZ=             14.3744   YZ=             11.8105
 Octapole moment (field-independent basis, Debye-Ang**2):
  XXX=           -253.8567  YYY=            140.0707  ZZZ=            -30.0101  XYY=            232.0739
  XXY=            -55.3838  XXZ=            -17.4330  XZZ=             15.5597  YZZ=             -7.2171
  YYZ=             -4.7807  XYZ=            -32.1625
 Hexadecapole moment (field-independent basis, Debye-Ang**3):
 XXXX=        -133015.8180 YYYY=         -25208.6435 ZZZZ=          -6296.2227 XXXY=           -924.1726
 XXXZ=            911.6223 YYYX=           -403.9428 YYYZ=            138.5165 ZZZX=             67.8210
 ZZZY=             42.3158 XXYY=         -28716.6176 XXZZ=         -23770.7938 YYZZ=          -5105.0276
 XXYZ=            322.7714 YYXZ=             17.8439 ZZXY=            -70.4036
 N-N= 9.534220127014D+03 E-N=-2.606171232358D+04  KE= 2.976078501822D+03
 Leave Link  601 at Tue Apr 26 23:24:21 2022, MaxMem= 10066329600 cpu:               9.9 elap:               0.5
 (Enter /sw/apps/gaussian-16.0/g16/l9999.exe)
 1\1\GINC-BP1-COMPUTE154\SP\RwB97XD TD-FC\def2SVP\C55H74Mg1N4O6\OF15641
 \26-Apr-2022\0\\#p wB97XD/Def2SVP td=(nstates=5)\\step_1001_chromophor
 e_3 TDDFT with wB97XD functional\\0,1\Mg,0,1.861,8.22,25.957\C,0,2.504
 ,10.18,28.922\C,0,2.403,5.513,27.96\C,0,1.361,6.543,23.387\C,0,2.049,1
 1.28,24.239\N,0,2.484,7.936,28.252\C,0,2.545,8.837,29.282\C,0,2.395,8.
 142,30.652\C,0,2.662,6.668,30.264\C,0,2.477,6.681,28.726\C,0,4.028,6.0
 83,30.545\C,0,0.979,8.394,31.191\C,0,0.913,8.716,32.644\C,0,2.139,8.35
 3,33.512\O,0,3.056,9.121,33.833\O,0,2.005,7.094,34.026\N,0,2.017,6.252
 ,25.671\C,0,2.221,5.288,26.56\C,0,2.144,4.012,25.961\C,0,1.757,4.266,2
 4.693\C,0,1.719,5.771,24.518\C,0,2.418,2.741,26.642\C,0,1.399,3.332,23
 .576\O,0,1.025,3.806,22.555\C,0,1.399,1.863,23.599\N,0,1.877,8.83,24.0
 3\C,0,1.554,7.885,23.116\C,0,1.276,8.504,21.745\C,0,1.267,9.99,22.072\
 C,0,1.805,10.101,23.51\C,0,2.433,8.164,20.737\C,0,-0.168,10.619,21.953
 \C,0,-0.39,11.661,20.819\N,0,2.042,10.368,26.469\C,0,2.135,11.442,25.6
 54\C,0,2.242,12.694,26.428\C,0,2.334,12.226,27.737\C,0,2.319,10.802,27
 .674\C,0,2.331,14.141,25.947\C,0,2.558,12.683,29.132\O,0,2.786,13.79,2
 9.537\C,0,2.482,11.314,30.003\C,0,3.715,11.305,30.874\O,0,4.741,10.666
 ,30.755\O,0,3.341,12.159,31.976\C,0,4.193,12.,33.124\C,0,2.86,6.615,35
 .059\C,0,2.044,5.863,36.094\C,0,2.442,5.468,37.34\C,0,3.869,5.776,37.9
 13\C,0,1.554,4.523,38.187\C,0,1.496,3.077,37.633\C,0,1.261,1.942,38.67
 9\C,0,2.499,1.089,38.816\C,0,3.715,1.767,39.46\C,0,2.144,-0.279,39.512
 \C,0,2.576,-1.6,38.732\C,0,3.013,-2.828,39.66\C,0,4.544,-2.887,39.96\C
 ,0,4.953,-4.41,40.247\C,0,5.257,-1.808,40.916\C,0,6.863,-1.918,40.891\
 C,0,7.472,-0.552,41.176\C,0,9.025,-0.394,40.817\C,0,9.882,0.093,42.018
 \C,0,9.23,0.475,39.48\H,0,2.427,4.636,28.61\H,0,0.922,6.126,22.478\H,0
 ,1.633,12.182,23.786\H,0,3.163,8.565,31.299\H,0,1.864,6.015,30.617\H,0
 ,4.282,5.267,29.868\H,0,4.172,5.722,31.563\H,0,4.834,6.815,30.506\H,0,
 0.335,7.568,30.889\H,0,0.483,9.259,30.75\H,0,0.019,8.267,33.079\H,0,0.
 885,9.8,32.757\H,0,2.848,2.894,27.632\H,0,3.08,2.015,26.168\H,0,1.447,
 2.267,26.783\H,0,1.601,1.434,22.617\H,0,0.45,1.584,24.056\H,0,2.175,1.
 426,24.228\H,0,0.274,8.26,21.392\H,0,1.994,10.47,21.416\H,0,3.371,7.76
 6,21.124\H,0,2.677,9.02,20.108\H,0,2.152,7.379,20.036\H,0,-0.392,11.18
 3,22.859\H,0,-0.948,9.869,21.82\H,0,0.427,11.444,20.131\H,0,-0.504,12.
 633,21.298\H,0,-1.284,11.447,20.232\H,0,3.205,14.199,25.299\H,0,2.374,
 14.629,26.921\H,0,1.411,14.474,25.465\H,0,1.689,11.337,30.75\H,0,4.771
 ,11.08,33.215\H,0,3.59,12.129,34.022\H,0,4.761,12.93,33.106\H,0,3.4,7.
 443,35.517\H,0,3.691,6.034,34.659\H,0,0.973,5.739,35.932\H,0,4.534,6.2
 08,37.165\H,0,4.237,4.827,38.302\H,0,3.802,6.49,38.734\H,0,0.513,4.832
 ,38.283\H,0,1.993,4.458,39.182\H,0,2.283,2.954,36.889\H,0,0.577,2.939,
 37.063\H,0,0.343,1.435,38.385\H,0,1.001,2.479,39.591\H,0,2.801,0.747,3
 7.826\H,0,4.705,1.394,39.198\H,0,3.676,1.634,40.541\H,0,3.57,2.827,39.
 251\H,0,1.081,-0.345,39.742\H,0,2.654,-0.291,40.475\H,0,3.401,-1.273,3
 8.099\H,0,1.801,-1.977,38.065\H,0,2.724,-3.68,39.045\H,0,2.508,-2.752,
 40.623\H,0,4.956,-2.788,38.955\H,0,4.093,-4.987,40.585\H,0,5.662,-4.34
 ,41.072\H,0,5.434,-4.966,39.442\H,0,4.799,-1.944,41.896\H,0,5.014,-0.7
 91,40.608\H,0,7.315,-2.391,40.02\H,0,7.083,-2.511,41.779\H,0,7.42,-0.4
 42,42.259\H,0,6.882,0.29,40.814\H,0,9.368,-1.382,40.509\H,0,10.285,1.0
 87,41.82\H,0,10.812,-0.458,42.156\H,0,9.331,0.046,42.957\H,0,9.743,-0.
 193,38.787\H,0,9.795,1.384,39.685\H,0,8.266,0.728,39.038\\Version=ES64
 L-G16RevA.03\State=1-A\HF=-3007.8543639\RMSD=8.827e-09\PG=C01 [X(C55H7
 4Mg1N4O6)]\\@


 EVERYBODY NEEDS BEAUTY AS WELL AS BREAD, PLACES TO PLAY IN AND PRAY IN,
 WHERE NATURE MAY HEAL AND CHEER AND GIVE STRENGTH TO BODY AND SOUL ALIKE.

                                    -- JOHN MUIR
 Job cpu time:       0 days 11 hours 15 minutes  2.4 seconds.
 Elapsed time:       0 days  0 hours 28 minutes 34.2 seconds.
 File lengths (MBytes):  RWF=   8929 Int=      0 D2E=      0 Chk=    390 Scr=      1
 Normal termination of Gaussian 16 at Tue Apr 26 23:24:22 2022.
