 Entering Gaussian System, Link 0=g16
 Initial command:
 /sw/apps/gaussian-16.0/g16/l1.exe "/tmp/Gau-164100.inp" -scrdir="/tmp/"
 Entering Link 1 = /sw/apps/gaussian-16.0/g16/l1.exe PID=    164101.
  
 Copyright (c) 1988,1990,1992,1993,1995,1998,2003,2009,2016,
            Gaussian, Inc.  All Rights Reserved.
  
 This is part of the Gaussian(R) 16 program.  It is based on
 the Gaussian(R) 09 system (copyright 2009, Gaussian, Inc.),
 the Gaussian(R) 03 system (copyright 2003, Gaussian, Inc.),
 the Gaussian(R) 98 system (copyright 1998, Gaussian, Inc.),
 the Gaussian(R) 94 system (copyright 1995, Gaussian, Inc.),
 the Gaussian 92(TM) system (copyright 1992, Gaussian, Inc.),
 the Gaussian 90(TM) system (copyright 1990, Gaussian, Inc.),
 the Gaussian 88(TM) system (copyright 1988, Gaussian, Inc.),
 the Gaussian 86(TM) system (copyright 1986, Carnegie Mellon
 University), and the Gaussian 82(TM) system (copyright 1983,
 Carnegie Mellon University). Gaussian is a federally registered
 trademark of Gaussian, Inc.
  
 This software contains proprietary and confidential information,
 including trade secrets, belonging to Gaussian, Inc.
  
 This software is provided under written license and may be
 used, copied, transmitted, or stored only in accord with that
 written license.
  
 The following legend is applicable only to US Government
 contracts under FAR:
  
                    RESTRICTED RIGHTS LEGEND
  
 Use, reproduction and disclosure by the US Government is
 subject to restrictions as set forth in subparagraphs (a)
 and (c) of the Commercial Computer Software - Restricted
 Rights clause in FAR 52.227-19.
  
 Gaussian, Inc.
 340 Quinnipiac St., Bldg. 40, Wallingford CT 06492
  
  
 ---------------------------------------------------------------
 Warning -- This program may not be used in any manner that
 competes with the business of Gaussian, Inc. or will provide
 assistance to any competitor of Gaussian, Inc.  The licensee
 of this program is prohibited from giving any competitor of
 Gaussian, Inc. access to this program.  By using this program,
 the user acknowledges that Gaussian, Inc. is engaged in the
 business of creating and licensing software in the field of
 computational chemistry and represents and warrants to the
 licensee that it is not a competitor of Gaussian, Inc. and that
 it will not use this program in any manner prohibited above.
 ---------------------------------------------------------------
  

 Cite this work as:
 Gaussian 16, Revision A.03,
 M. J. Frisch, G. W. Trucks, H. B. Schlegel, G. E. Scuseria, 
 M. A. Robb, J. R. Cheeseman, G. Scalmani, V. Barone, 
 G. A. Petersson, H. Nakatsuji, X. Li, M. Caricato, A. V. Marenich, 
 J. Bloino, B. G. Janesko, R. Gomperts, B. Mennucci, H. P. Hratchian, 
 J. V. Ortiz, A. F. Izmaylov, J. L. Sonnenberg, D. Williams-Young, 
 F. Ding, F. Lipparini, F. Egidi, J. Goings, B. Peng, A. Petrone, 
 T. Henderson, D. Ranasinghe, V. G. Zakrzewski, J. Gao, N. Rega, 
 G. Zheng, W. Liang, M. Hada, M. Ehara, K. Toyota, R. Fukuda, 
 J. Hasegawa, M. Ishida, T. Nakajima, Y. Honda, O. Kitao, H. Nakai, 
 T. Vreven, K. Throssell, J. A. Montgomery, Jr., J. E. Peralta, 
 F. Ogliaro, M. J. Bearpark, J. J. Heyd, E. N. Brothers, K. N. Kudin, 
 V. N. Staroverov, T. A. Keith, R. Kobayashi, J. Normand, 
 K. Raghavachari, A. P. Rendell, J. C. Burant, S. S. Iyengar, 
 J. Tomasi, M. Cossi, J. M. Millam, M. Klene, C. Adamo, R. Cammi, 
 J. W. Ochterski, R. L. Martin, K. Morokuma, O. Farkas, 
 J. B. Foresman, and D. J. Fox, Gaussian, Inc., Wallingford CT, 2016.
 
 ******************************************
 Gaussian 16:  ES64L-G16RevA.03 25-Dec-2016
                 4-May-2022 
 ******************************************
 %nproc=24
 Will use up to   24 processors via shared memory.
 %mem=75GB
 ---------------------------------
 #p PBE1PBE/Def2SVP td=(nstates=5)
 ---------------------------------
 1/38=1,172=1/1;
 2/12=2,17=6,18=5,40=1/2;
 3/5=43,7=101,11=9,25=1,30=1,74=-13/1,2,3,8;
 4//1;
 5/5=2,38=5/2;
 8/6=1,10=1,108=5/1;
 9/41=5,42=1,70=2/14;
 6/7=2,8=2,9=2,10=2/1;
 99/5=1,9=1/99;
 Leave Link    1 at Wed May  4 12:36:09 2022, MaxMem= 10066329600 cpu:               1.0 elap:               0.0
 (Enter /sw/apps/gaussian-16.0/g16/l101.exe)
 ------------------------------------------------------
 step_1751_chromophore_13 TDDFT with PBE1PBE functional
 ------------------------------------------------------
 Symbolic Z-matrix:
 Charge =  0 Multiplicity = 1
 Mg                    46.953    25.288    28.789 
 C                     47.941    27.399    31.493 
 C                     46.222    22.832    31.181 
 C                     47.054    23.134    26.292 
 C                     48.403    27.703    26.646 
 N                     47.016    25.17     31.111 
 C                     47.432    26.14     31.943 
 C                     47.09     25.784    33.37 
 C                     46.8      24.179    33.259 
 C                     46.647    24.06     31.753 
 C                     47.846    23.275    34.032 
 C                     45.818    26.52     33.859 
 C                     45.855    27.09     35.288 
 C                     44.843    26.643    36.489 
 O                     43.792    26.124    36.339 
 O                     45.354    27.174    37.666 
 N                     46.383    23.297    28.678 
 C                     46.208    22.438    29.768 
 C                     45.86     21.155    29.18 
 C                     46.06     21.256    27.794 
 C                     46.493    22.591    27.494 
 C                     45.331    19.997    30.126 
 C                     45.949    20.212    26.717 
 O                     46.035    20.44     25.513 
 C                     45.766    18.869    27.113 
 N                     47.65     25.385    26.802 
 C                     47.629    24.341    25.958 
 C                     48.251    24.639    24.576 
 C                     48.406    26.206    24.61 
 C                     48.153    26.441    26.112 
 C                     49.581    23.836    24.334 
 C                     47.433    26.922    23.582 
 C                     46.023    27.207    24.058 
 N                     47.886    27.217    28.9 
 C                     48.364    28.1      27.941 
 C                     48.8      29.307    28.625 
 C                     48.666    29.091    29.944 
 C                     48.201    27.777    30.131 
 C                     49.24     30.716    27.945 
 C                     48.83     29.675    31.292 
 O                     49.238    30.766    31.564 
 C                     48.391    28.555    32.346 
 C                     49.554    28.286    33.165 
 O                     50.66     27.992    32.798 
 O                     49.127    28.307    34.548 
 C                     50.016    27.887    35.688 
 C                     44.471    26.952    38.846 
 C                     44.638    25.561    39.403 
 C                     44.256    25.11     40.591 
 C                     43.742    25.984    41.726 
 C                     44.38     23.587    40.864 
 C                     43.044    22.845    40.651 
 C                     42.387    22.262    41.906 
 C                     40.805    22.234    42.072 
 C                     40.151    21.924    40.734 
 C                     40.204    23.543    42.739 
 C                     39.483    23.145    44.072 
 C                     39.361    24.361    45.107 
 C                     40.       24.225    46.505 
 C                     39.037    24.509    47.688 
 C                     41.299    25.038    46.568 
 C                     42.395    24.328    47.374 
 C                     42.975    23.082    46.608 
 C                     44.508    23.147    46.32 
 C                     44.766    24.095    45.084 
 C                     45.094    21.758    45.994 
 H                     46.033    22.077    31.946 
 H                     47.185    22.449    25.452 
 H                     48.875    28.483    26.045 
 H                     47.918    26.036    34.034 
 H                     45.807    23.901    33.61 
 H                     48.57     22.865    33.328 
 H                     47.299    22.527    34.605 
 H                     48.355    23.964    34.705 
 H                     44.962    25.857    33.989 
 H                     45.481    27.242    33.116 
 H                     45.843    28.179    35.257 
 H                     46.9      27.014    35.589 
 H                     46.057    19.303    30.55 
 H                     44.481    19.444    29.725 
 H                     44.758    20.45     30.934 
 H                     44.747    18.893    27.498 
 H                     46.649    18.704    27.73 
 H                     45.775    18.28     26.196 
 H                     47.539    24.328    23.811 
 H                     49.418    26.509    24.341 
 H                     49.718    22.981    24.996 
 H                     50.384    24.543    24.541 
 H                     49.79     23.513    23.315 
 H                     47.237    26.219    22.773 
 H                     47.799    27.841    23.123 
 H                     45.272    26.637    23.51 
 H                     45.784    28.246    23.836 
 H                     45.852    27.198    25.135 
 H                     49.505    30.469    26.917 
 H                     50.174    31.054    28.394 
 H                     48.472    31.483    28.044 
 H                     47.594    28.98     32.956 
 H                     50.083    28.609    36.502 
 H                     51.053    27.71     35.404 
 H                     49.596    26.996    36.155 
 H                     43.435    27.2      38.618 
 H                     44.705    27.692    39.611 
 H                     44.992    24.854    38.652 
 H                     43.345    26.923    41.339 
 H                     44.5      26.078    42.502 
 H                     42.876    25.502    42.18 
 H                     44.721    23.404    41.883 
 H                     45.171    23.096    40.297 
 H                     43.154    22.028    39.938 
 H                     42.391    23.616    40.241 
 H                     42.775    22.672    42.839 
 H                     42.706    21.222    41.976 
 H                     40.607    21.374    42.711 
 H                     40.742    22.203    39.862 
 H                     39.153    22.363    40.715 
 H                     40.166    20.835    40.701 
 H                     39.373    24.029    42.228 
 H                     40.933    24.349    42.83 
 H                     39.87     22.23     44.522 
 H                     38.443    22.917    43.842 
 H                     38.295    24.583    45.082 
 H                     39.78     25.231    44.602 
 H                     40.344    23.195    46.595 
 H                     38.14     24.926    47.23 
 H                     39.363    25.226    48.441 
 H                     38.855    23.603    48.266 
 H                     41.032    25.962    47.081 
 H                     41.739    25.222    45.588 
 H                     41.987    24.042    48.344 
 H                     43.154    25.094    47.534 
 H                     42.459    23.093    45.648 
 H                     42.751    22.187    47.188 
 H                     45.015    23.634    47.153 
 H                     44.959    25.083    45.502 
 H                     43.912    23.999    44.413 
 H                     45.737    23.868    44.644 
 H                     44.305    21.007    45.944 
 H                     45.723    21.574    46.865 
 H                     45.538    21.634    45.006 
 
 ITRead=  0  0  0  0  0  0  0  0  0  0  0  0  0  0  0  0  0  0  0  0
 ITRead=  0  0  0  0  0  0  0  0  0  0  0  0  0  0  0  0  0  0  0  0
 ITRead=  0  0  0  0  0  0  0  0  0  0  0  0  0  0  0  0  0  0  0  0
 ITRead=  0  0  0  0  0  0  0  0  0  0  0  0  0  0  0  0  0  0  0  0
 ITRead=  0  0  0  0  0  0  0  0  0  0  0  0  0  0  0  0  0  0  0  0
 ITRead=  0  0  0  0  0  0  0  0  0  0  0  0  0  0  0  0  0  0  0  0
 ITRead=  0  0  0  0  0  0  0  0  0  0  0  0  0  0  0  0  0  0  0  0
 MicOpt= -1 -1 -1 -1 -1 -1 -1 -1 -1 -1 -1 -1 -1 -1 -1 -1 -1 -1 -1 -1
 MicOpt= -1 -1 -1 -1 -1 -1 -1 -1 -1 -1 -1 -1 -1 -1 -1 -1 -1 -1 -1 -1
 MicOpt= -1 -1 -1 -1 -1 -1 -1 -1 -1 -1 -1 -1 -1 -1 -1 -1 -1 -1 -1 -1
 MicOpt= -1 -1 -1 -1 -1 -1 -1 -1 -1 -1 -1 -1 -1 -1 -1 -1 -1 -1 -1 -1
 MicOpt= -1 -1 -1 -1 -1 -1 -1 -1 -1 -1 -1 -1 -1 -1 -1 -1 -1 -1 -1 -1
 MicOpt= -1 -1 -1 -1 -1 -1 -1 -1 -1 -1 -1 -1 -1 -1 -1 -1 -1 -1 -1 -1
 MicOpt= -1 -1 -1 -1 -1 -1 -1 -1 -1 -1 -1 -1 -1 -1 -1 -1 -1 -1 -1 -1
 NAtoms=    140 NQM=      140 NQMF=       0 NMMI=      0 NMMIF=      0
                NMic=       0 NMicF=      0.
                    Isotopes and Nuclear Properties:
 (Nuclear quadrupole moments (NQMom) in fm**2, nuclear magnetic moments (NMagM)
  in nuclear magnetons)

  Atom         1           2           3           4           5           6           7           8           9          10
 IAtWgt=          24          12          12          12          12          14          12          12          12          12
 AtmWgt=  23.9850450  12.0000000  12.0000000  12.0000000  12.0000000  14.0030740  12.0000000  12.0000000  12.0000000  12.0000000
 NucSpn=           0           0           0           0           0           2           0           0           0           0
 AtZEff=  -0.0000000  -0.0000000  -0.0000000  -0.0000000  -0.0000000  -0.0000000  -0.0000000  -0.0000000  -0.0000000  -0.0000000
 NQMom=    0.0000000   0.0000000   0.0000000   0.0000000   0.0000000   2.0440000   0.0000000   0.0000000   0.0000000   0.0000000
 NMagM=    0.0000000   0.0000000   0.0000000   0.0000000   0.0000000   0.4037610   0.0000000   0.0000000   0.0000000   0.0000000
 AtZNuc=  12.0000000   6.0000000   6.0000000   6.0000000   6.0000000   7.0000000   6.0000000   6.0000000   6.0000000   6.0000000

  Atom        11          12          13          14          15          16          17          18          19          20
 IAtWgt=          12          12          12          12          16          16          14          12          12          12
 AtmWgt=  12.0000000  12.0000000  12.0000000  12.0000000  15.9949146  15.9949146  14.0030740  12.0000000  12.0000000  12.0000000
 NucSpn=           0           0           0           0           0           0           2           0           0           0
 AtZEff=  -0.0000000  -0.0000000  -0.0000000  -0.0000000  -0.0000000  -0.0000000  -0.0000000  -0.0000000  -0.0000000  -0.0000000
 NQMom=    0.0000000   0.0000000   0.0000000   0.0000000   0.0000000   0.0000000   2.0440000   0.0000000   0.0000000   0.0000000
 NMagM=    0.0000000   0.0000000   0.0000000   0.0000000   0.0000000   0.0000000   0.4037610   0.0000000   0.0000000   0.0000000
 AtZNuc=   6.0000000   6.0000000   6.0000000   6.0000000   8.0000000   8.0000000   7.0000000   6.0000000   6.0000000   6.0000000

  Atom        21          22          23          24          25          26          27          28          29          30
 IAtWgt=          12          12          12          16          12          14          12          12          12          12
 AtmWgt=  12.0000000  12.0000000  12.0000000  15.9949146  12.0000000  14.0030740  12.0000000  12.0000000  12.0000000  12.0000000
 NucSpn=           0           0           0           0           0           2           0           0           0           0
 AtZEff=  -0.0000000  -0.0000000  -0.0000000  -0.0000000  -0.0000000  -0.0000000  -0.0000000  -0.0000000  -0.0000000  -0.0000000
 NQMom=    0.0000000   0.0000000   0.0000000   0.0000000   0.0000000   2.0440000   0.0000000   0.0000000   0.0000000   0.0000000
 NMagM=    0.0000000   0.0000000   0.0000000   0.0000000   0.0000000   0.4037610   0.0000000   0.0000000   0.0000000   0.0000000
 AtZNuc=   6.0000000   6.0000000   6.0000000   8.0000000   6.0000000   7.0000000   6.0000000   6.0000000   6.0000000   6.0000000

  Atom        31          32          33          34          35          36          37          38          39          40
 IAtWgt=          12          12          12          14          12          12          12          12          12          12
 AtmWgt=  12.0000000  12.0000000  12.0000000  14.0030740  12.0000000  12.0000000  12.0000000  12.0000000  12.0000000  12.0000000
 NucSpn=           0           0           0           2           0           0           0           0           0           0
 AtZEff=  -0.0000000  -0.0000000  -0.0000000  -0.0000000  -0.0000000  -0.0000000  -0.0000000  -0.0000000  -0.0000000  -0.0000000
 NQMom=    0.0000000   0.0000000   0.0000000   2.0440000   0.0000000   0.0000000   0.0000000   0.0000000   0.0000000   0.0000000
 NMagM=    0.0000000   0.0000000   0.0000000   0.4037610   0.0000000   0.0000000   0.0000000   0.0000000   0.0000000   0.0000000
 AtZNuc=   6.0000000   6.0000000   6.0000000   7.0000000   6.0000000   6.0000000   6.0000000   6.0000000   6.0000000   6.0000000

  Atom        41          42          43          44          45          46          47          48          49          50
 IAtWgt=          16          12          12          16          16          12          12          12          12          12
 AtmWgt=  15.9949146  12.0000000  12.0000000  15.9949146  15.9949146  12.0000000  12.0000000  12.0000000  12.0000000  12.0000000
 NucSpn=           0           0           0           0           0           0           0           0           0           0
 AtZEff=  -0.0000000  -0.0000000  -0.0000000  -0.0000000  -0.0000000  -0.0000000  -0.0000000  -0.0000000  -0.0000000  -0.0000000
 NQMom=    0.0000000   0.0000000   0.0000000   0.0000000   0.0000000   0.0000000   0.0000000   0.0000000   0.0000000   0.0000000
 NMagM=    0.0000000   0.0000000   0.0000000   0.0000000   0.0000000   0.0000000   0.0000000   0.0000000   0.0000000   0.0000000
 AtZNuc=   8.0000000   6.0000000   6.0000000   8.0000000   8.0000000   6.0000000   6.0000000   6.0000000   6.0000000   6.0000000

  Atom        51          52          53          54          55          56          57          58          59          60
 IAtWgt=          12          12          12          12          12          12          12          12          12          12
 AtmWgt=  12.0000000  12.0000000  12.0000000  12.0000000  12.0000000  12.0000000  12.0000000  12.0000000  12.0000000  12.0000000
 NucSpn=           0           0           0           0           0           0           0           0           0           0
 AtZEff=  -0.0000000  -0.0000000  -0.0000000  -0.0000000  -0.0000000  -0.0000000  -0.0000000  -0.0000000  -0.0000000  -0.0000000
 NQMom=    0.0000000   0.0000000   0.0000000   0.0000000   0.0000000   0.0000000   0.0000000   0.0000000   0.0000000   0.0000000
 NMagM=    0.0000000   0.0000000   0.0000000   0.0000000   0.0000000   0.0000000   0.0000000   0.0000000   0.0000000   0.0000000
 AtZNuc=   6.0000000   6.0000000   6.0000000   6.0000000   6.0000000   6.0000000   6.0000000   6.0000000   6.0000000   6.0000000

  Atom        61          62          63          64          65          66          67          68          69          70
 IAtWgt=          12          12          12          12          12          12           1           1           1           1
 AtmWgt=  12.0000000  12.0000000  12.0000000  12.0000000  12.0000000  12.0000000   1.0078250   1.0078250   1.0078250   1.0078250
 NucSpn=           0           0           0           0           0           0           1           1           1           1
 AtZEff=  -0.0000000  -0.0000000  -0.0000000  -0.0000000  -0.0000000  -0.0000000  -0.0000000  -0.0000000  -0.0000000  -0.0000000
 NQMom=    0.0000000   0.0000000   0.0000000   0.0000000   0.0000000   0.0000000   0.0000000   0.0000000   0.0000000   0.0000000
 NMagM=    0.0000000   0.0000000   0.0000000   0.0000000   0.0000000   0.0000000   2.7928460   2.7928460   2.7928460   2.7928460
 AtZNuc=   6.0000000   6.0000000   6.0000000   6.0000000   6.0000000   6.0000000   1.0000000   1.0000000   1.0000000   1.0000000

  Atom        71          72          73          74          75          76          77          78          79          80
 IAtWgt=           1           1           1           1           1           1           1           1           1           1
 AtmWgt=   1.0078250   1.0078250   1.0078250   1.0078250   1.0078250   1.0078250   1.0078250   1.0078250   1.0078250   1.0078250
 NucSpn=           1           1           1           1           1           1           1           1           1           1
 AtZEff=  -0.0000000  -0.0000000  -0.0000000  -0.0000000  -0.0000000  -0.0000000  -0.0000000  -0.0000000  -0.0000000  -0.0000000
 NQMom=    0.0000000   0.0000000   0.0000000   0.0000000   0.0000000   0.0000000   0.0000000   0.0000000   0.0000000   0.0000000
 NMagM=    2.7928460   2.7928460   2.7928460   2.7928460   2.7928460   2.7928460   2.7928460   2.7928460   2.7928460   2.7928460
 AtZNuc=   1.0000000   1.0000000   1.0000000   1.0000000   1.0000000   1.0000000   1.0000000   1.0000000   1.0000000   1.0000000

  Atom        81          82          83          84          85          86          87          88          89          90
 IAtWgt=           1           1           1           1           1           1           1           1           1           1
 AtmWgt=   1.0078250   1.0078250   1.0078250   1.0078250   1.0078250   1.0078250   1.0078250   1.0078250   1.0078250   1.0078250
 NucSpn=           1           1           1           1           1           1           1           1           1           1
 AtZEff=  -0.0000000  -0.0000000  -0.0000000  -0.0000000  -0.0000000  -0.0000000  -0.0000000  -0.0000000  -0.0000000  -0.0000000
 NQMom=    0.0000000   0.0000000   0.0000000   0.0000000   0.0000000   0.0000000   0.0000000   0.0000000   0.0000000   0.0000000
 NMagM=    2.7928460   2.7928460   2.7928460   2.7928460   2.7928460   2.7928460   2.7928460   2.7928460   2.7928460   2.7928460
 AtZNuc=   1.0000000   1.0000000   1.0000000   1.0000000   1.0000000   1.0000000   1.0000000   1.0000000   1.0000000   1.0000000

  Atom        91          92          93          94          95          96          97          98          99         100
 IAtWgt=           1           1           1           1           1           1           1           1           1           1
 AtmWgt=   1.0078250   1.0078250   1.0078250   1.0078250   1.0078250   1.0078250   1.0078250   1.0078250   1.0078250   1.0078250
 NucSpn=           1           1           1           1           1           1           1           1           1           1
 AtZEff=  -0.0000000  -0.0000000  -0.0000000  -0.0000000  -0.0000000  -0.0000000  -0.0000000  -0.0000000  -0.0000000  -0.0000000
 NQMom=    0.0000000   0.0000000   0.0000000   0.0000000   0.0000000   0.0000000   0.0000000   0.0000000   0.0000000   0.0000000
 NMagM=    2.7928460   2.7928460   2.7928460   2.7928460   2.7928460   2.7928460   2.7928460   2.7928460   2.7928460   2.7928460
 AtZNuc=   1.0000000   1.0000000   1.0000000   1.0000000   1.0000000   1.0000000   1.0000000   1.0000000   1.0000000   1.0000000

  Atom       101         102         103         104         105         106         107         108         109         110
 IAtWgt=           1           1           1           1           1           1           1           1           1           1
 AtmWgt=   1.0078250   1.0078250   1.0078250   1.0078250   1.0078250   1.0078250   1.0078250   1.0078250   1.0078250   1.0078250
 NucSpn=           1           1           1           1           1           1           1           1           1           1
 AtZEff=  -0.0000000  -0.0000000  -0.0000000  -0.0000000  -0.0000000  -0.0000000  -0.0000000  -0.0000000  -0.0000000  -0.0000000
 NQMom=    0.0000000   0.0000000   0.0000000   0.0000000   0.0000000   0.0000000   0.0000000   0.0000000   0.0000000   0.0000000
 NMagM=    2.7928460   2.7928460   2.7928460   2.7928460   2.7928460   2.7928460   2.7928460   2.7928460   2.7928460   2.7928460
 AtZNuc=   1.0000000   1.0000000   1.0000000   1.0000000   1.0000000   1.0000000   1.0000000   1.0000000   1.0000000   1.0000000

  Atom       111         112         113         114         115         116         117         118         119         120
 IAtWgt=           1           1           1           1           1           1           1           1           1           1
 AtmWgt=   1.0078250   1.0078250   1.0078250   1.0078250   1.0078250   1.0078250   1.0078250   1.0078250   1.0078250   1.0078250
 NucSpn=           1           1           1           1           1           1           1           1           1           1
 AtZEff=  -0.0000000  -0.0000000  -0.0000000  -0.0000000  -0.0000000  -0.0000000  -0.0000000  -0.0000000  -0.0000000  -0.0000000
 NQMom=    0.0000000   0.0000000   0.0000000   0.0000000   0.0000000   0.0000000   0.0000000   0.0000000   0.0000000   0.0000000
 NMagM=    2.7928460   2.7928460   2.7928460   2.7928460   2.7928460   2.7928460   2.7928460   2.7928460   2.7928460   2.7928460
 AtZNuc=   1.0000000   1.0000000   1.0000000   1.0000000   1.0000000   1.0000000   1.0000000   1.0000000   1.0000000   1.0000000

  Atom       121         122         123         124         125         126         127         128         129         130
 IAtWgt=           1           1           1           1           1           1           1           1           1           1
 AtmWgt=   1.0078250   1.0078250   1.0078250   1.0078250   1.0078250   1.0078250   1.0078250   1.0078250   1.0078250   1.0078250
 NucSpn=           1           1           1           1           1           1           1           1           1           1
 AtZEff=  -0.0000000  -0.0000000  -0.0000000  -0.0000000  -0.0000000  -0.0000000  -0.0000000  -0.0000000  -0.0000000  -0.0000000
 NQMom=    0.0000000   0.0000000   0.0000000   0.0000000   0.0000000   0.0000000   0.0000000   0.0000000   0.0000000   0.0000000
 NMagM=    2.7928460   2.7928460   2.7928460   2.7928460   2.7928460   2.7928460   2.7928460   2.7928460   2.7928460   2.7928460
 AtZNuc=   1.0000000   1.0000000   1.0000000   1.0000000   1.0000000   1.0000000   1.0000000   1.0000000   1.0000000   1.0000000

  Atom       131         132         133         134         135         136         137         138         139         140
 IAtWgt=           1           1           1           1           1           1           1           1           1           1
 AtmWgt=   1.0078250   1.0078250   1.0078250   1.0078250   1.0078250   1.0078250   1.0078250   1.0078250   1.0078250   1.0078250
 NucSpn=           1           1           1           1           1           1           1           1           1           1
 AtZEff=  -0.0000000  -0.0000000  -0.0000000  -0.0000000  -0.0000000  -0.0000000  -0.0000000  -0.0000000  -0.0000000  -0.0000000
 NQMom=    0.0000000   0.0000000   0.0000000   0.0000000   0.0000000   0.0000000   0.0000000   0.0000000   0.0000000   0.0000000
 NMagM=    2.7928460   2.7928460   2.7928460   2.7928460   2.7928460   2.7928460   2.7928460   2.7928460   2.7928460   2.7928460
 AtZNuc=   1.0000000   1.0000000   1.0000000   1.0000000   1.0000000   1.0000000   1.0000000   1.0000000   1.0000000   1.0000000
 Leave Link  101 at Wed May  4 12:36:09 2022, MaxMem= 10066329600 cpu:               2.8 elap:               0.1
 (Enter /sw/apps/gaussian-16.0/g16/l202.exe)
 Stoichiometry    C55H74MgN4O6
 Framework group  C1[X(C55H74MgN4O6)]
 Deg. of freedom   414
 Full point group                 C1      NOp   1
 Largest Abelian subgroup         C1      NOp   1
 Largest concise Abelian subgroup C1      NOp   1
                         Standard orientation:                         
 ---------------------------------------------------------------------
 Center     Atomic      Atomic             Coordinates (Angstroms)
 Number     Number       Type             X           Y           Z
 ---------------------------------------------------------------------
      1         12           0       -5.678038    0.463240   -0.423008
      2          6           0       -3.602190   -2.397556    0.077773
      3          6           0       -2.981021    2.415942    0.672899
      4          6           0       -7.893344    2.857286    0.072862
      5          6           0       -8.359741   -1.810849   -0.828177
      6          7           0       -3.489706    0.037802    0.240155
      7          6           0       -2.912612   -1.171821    0.339916
      8          6           0       -1.425568   -1.022995    0.555743
      9          6           0       -1.306332    0.536304    1.031996
     10          6           0       -2.674399    1.031700    0.597739
     11          6           0       -0.824705    0.723079    2.529331
     12          6           0       -0.628158   -1.239688   -0.754212
     13          6           0        0.665466   -2.066437   -0.647748
     14          6           0        2.154738   -1.505697   -1.013797
     15          8           0        2.383259   -0.572622   -1.701992
     16          8           0        3.065511   -2.443686   -0.545737
     17          7           0       -5.439403    2.480539   -0.004848
     18          6           0       -4.281356    3.074591    0.507633
     19          6           0       -4.622501    4.478201    0.670218
     20          6           0       -6.005232    4.604920    0.462390
     21          6           0       -6.535503    3.311898    0.135860
     22          6           0       -3.465600    5.516090    0.986586
     23          6           0       -6.903019    5.803951    0.598363
     24          8           0       -8.088581    5.827605    0.277615
     25          6           0       -6.359027    6.977679    1.164394
     26          7           0       -7.784079    0.513757   -0.349334
     27          6           0       -8.489316    1.624345   -0.081105
     28          6           0      -10.016080    1.398613   -0.020713
     29          6           0      -10.163009   -0.053567   -0.612538
     30          6           0       -8.682029   -0.478791   -0.579073
     31          6           0      -10.592132    1.596320    1.428890
     32          6           0      -10.893053   -0.050467   -2.020798
     33          6           0      -10.027325    0.190920   -3.240695
     34          7           0       -6.024496   -1.652745   -0.503162
     35          6           0       -7.154861   -2.424214   -0.737608
     36          6           0       -6.743887   -3.818863   -0.766854
     37          6           0       -5.435521   -3.857711   -0.465119
     38          6           0       -5.004013   -2.545200   -0.202622
     39          6           0       -7.642238   -5.097710   -1.212718
     40          6           0       -4.259280   -4.732869   -0.276410
     41          8           0       -4.219916   -5.924387   -0.373684
     42          6           0       -3.031333   -3.789811    0.124619
     43          6           0       -2.595612   -4.221361    1.435955
     44          8           0       -3.262770   -4.350072    2.427265
     45          8           0       -1.155244   -4.358981    1.392823
     46          6           0       -0.317748   -4.611422    2.618055
     47          6           0        4.475957   -2.130925   -0.912065
     48          6           0        5.067411   -1.097574    0.012807
     49          6           0        6.348594   -0.796490    0.181886
     50          6           0        7.510044   -1.594553   -0.392944
     51          6           0        6.695614    0.432696    1.063993
     52          6           0        6.971839    1.696039    0.222273
     53          6           0        8.413077    2.214920    0.234876
     54          6           0        9.065030    2.871564   -1.059280
     55          6           0        8.027908    3.710247   -1.790751
     56          6           0        9.774209    1.828640   -2.023098
     57          6           0       11.293757    2.194806   -2.132768
     58          6           0       12.209954    0.951836   -2.557476
     59          6           0       13.345789    0.499096   -1.616134
     60          6           0       14.741722    0.399570   -2.286195
     61          6           0       12.933157   -0.778650   -0.874892
     62          6           0       13.414257   -0.790901    0.582278
     63          6           0       12.612637    0.226867    1.475154
     64          6           0       11.857359   -0.415246    2.681182
     65          6           0       10.527833   -1.091076    2.162936
     66          6           0       11.482333    0.630606    3.751014
     67          1           0       -2.134958    2.994719    1.047286
     68          1           0       -8.672093    3.586817    0.303775
     69          1           0       -9.140741   -2.566623   -0.934145
     70          1           0       -1.075801   -1.738166    1.301516
     71          1           0       -0.641728    1.124280    0.400238
     72          1           0       -1.682276    0.930723    3.169134
     73          1           0       -0.049536    1.488413    2.549815
     74          1           0       -0.403609   -0.244032    2.801554
     75          1           0       -0.183256   -0.322805   -1.142276
     76          1           0       -1.286896   -1.572096   -1.555754
     77          1           0        0.548911   -3.013268   -1.174010
     78          1           0        0.631444   -2.505912    0.349300
     79          1           0       -3.232271    5.728675    2.030067
     80          1           0       -3.534416    6.448571    0.425468
     81          1           0       -2.560175    5.184325    0.480088
     82          1           0       -5.679364    7.303432    0.377561
     83          1           0       -6.036049    6.616532    2.140540
     84          1           0       -7.180705    7.690885    1.228215
     85          1           0      -10.492641    2.138610   -0.664285
     86          1           0      -10.757991   -0.689325    0.043298
     87          1           0       -9.936704    2.147782    2.102939
     88          1           0      -10.705193    0.590123    1.831744
     89          1           0      -11.594840    2.013016    1.514390
     90          1           0      -11.539158    0.826261   -2.052474
     91          1           0      -11.518241   -0.914586   -2.248030
     92          1           0      -10.264696    1.128392   -3.744686
     93          1           0      -10.249847   -0.574705   -3.982469
     94          1           0       -8.953815    0.037871   -3.124926
     95          1           0       -8.677247   -4.769610   -1.117188
     96          1           0       -7.536178   -5.886791   -0.468203
     97          1           0       -7.373499   -5.470050   -2.201179
     98          1           0       -2.241273   -3.959487   -0.606784
     99          1           0        0.371662   -5.451492    2.532224
    100          1           0       -0.894626   -4.831961    3.515790
    101          1           0        0.329485   -3.750882    2.788146
    102          1           0        4.561917   -1.862460   -1.964358
    103          1           0        5.065491   -3.046740   -0.875823
    104          1           0        4.305331   -0.462098    0.465101
    105          1           0        7.188863   -2.169720   -1.261923
    106          1           0        8.000820   -2.165335    0.393772
    107          1           0        8.249653   -0.902922   -0.796702
    108          1           0        7.569366    0.229199    1.683086
    109          1           0        5.953639    0.653693    1.831381
    110          1           0        6.330874    2.523137    0.527284
    111          1           0        6.722608    1.381822   -0.791680
    112          1           0        9.141265    1.488201    0.596475
    113          1           0        8.466890    2.980556    1.008934
    114          1           0        9.803387    3.573847   -0.673597
    115          1           0        6.995165    3.403913   -1.626108
    116          1           0        8.283935    3.749289   -2.850002
    117          1           0        8.082944    4.669667   -1.277216
    118          1           0        9.508579    1.862318   -3.079595
    119          1           0        9.566106    0.791654   -1.757183
    120          1           0       11.675685    2.739429   -1.268470
    121          1           0       11.418821    2.884399   -2.966617
    122          1           0       12.499591    1.211905   -3.574697
    123          1           0       11.528813    0.118431   -2.727682
    124          1           0       13.409917    1.241044   -0.820687
    125          1           0       14.552572    0.510378   -3.353999
    126          1           0       15.293178   -0.532244   -2.163750
    127          1           0       15.421195    1.148797   -1.879969
    128          1           0       13.424732   -1.590349   -1.411298
    129          1           0       11.853116   -0.914222   -0.820220
    130          1           0       14.483388   -0.576887    0.600104
    131          1           0       13.265474   -1.820281    0.908893
    132          1           0       11.863577    0.642882    0.801494
    133          1           0       13.306160    0.983710    1.840962
    134          1           0       12.447408   -1.238339    3.084253
    135          1           0       10.780936   -2.132761    1.965585
    136          1           0       10.166505   -0.500733    1.320493
    137          1           0        9.828000   -1.205962    2.990587
    138          1           0       11.743332    1.635634    3.418117
    139          1           0       12.126413    0.338435    4.580433
    140          1           0       10.419196    0.766199    3.951041
 ---------------------------------------------------------------------
 Rotational constants (GHZ):           0.0544446           0.0094590           0.0085320
 Leave Link  202 at Wed May  4 12:36:09 2022, MaxMem= 10066329600 cpu:               0.2 elap:               0.0
 (Enter /sw/apps/gaussian-16.0/g16/l301.exe)
 Standard basis: def2SVP (5D, 7F)
 Ernie: Thresh=  0.10000D-02 Tol=  0.10000D-05 Strict=F.
 There are  1364 symmetry adapted cartesian basis functions of A   symmetry.
 There are  1298 symmetry adapted basis functions of A   symmetry.
  1298 basis functions,  2180 primitive gaussians,  1364 cartesian basis functions
   246 alpha electrons      246 beta electrons
       nuclear repulsion energy      9568.8318497903 Hartrees.
 IExCor= 1009 DFT=T Ex+Corr=PBE1PBE ExCW=0 ScaHFX=  0.250000
 ScaDFX=  0.750000  0.750000  1.000000  1.000000 ScalE2=  1.000000  1.000000
 IRadAn=      5 IRanWt=     -1 IRanGd=            0 ICorTp=0 IEmpDi=  4
 NAtoms=  140 NActive=  140 NUniq=  140 SFac= 1.00D+00 NAtFMM=   60 NAOKFM=T Big=T
 Integral buffers will be    131072 words long.
 Regular integral format.
 Two-electron integral symmetry is turned on.
 Leave Link  301 at Wed May  4 12:36:09 2022, MaxMem= 10066329600 cpu:               1.3 elap:               0.1
 (Enter /sw/apps/gaussian-16.0/g16/l302.exe)
 NPDir=0 NMtPBC=     1 NCelOv=     1 NCel=       1 NClECP=     1 NCelD=      1
         NCelK=      1 NCelE2=     1 NClLst=     1 CellRange=     0.0.
 One-electron integrals computed using PRISM.
 One-electron integral symmetry used in STVInt
   1 Symmetry operations used in ECPInt.
 ECPInt:  NShTT=  192510 NPrTT=  683786 LenC2=   94959 LenP2D=  209489.
 LDataN:  DoStor=T MaxTD1= 4 Len=   56
 NBasis=  1298 RedAO= T EigKep=  3.23D-04  NBF=  1298
 NBsUse=  1298 1.00D-06 EigRej= -1.00D+00 NBFU=  1298
 Precomputing XC quadrature grid using
 IXCGrd= 4 IRadAn=           5 IRanWt=          -1 IRanGd=           0 AccXCQ= 0.00D+00.
 Generated NRdTot=       0 NPtTot=           0 NUsed=           0 NTot=          32
 NSgBfM=   995   988   988   994   995 MxSgAt=   140 MxSgA2=   140.
 Leave Link  302 at Wed May  4 12:36:12 2022, MaxMem= 10066329600 cpu:              76.0 elap:               3.2
 (Enter /sw/apps/gaussian-16.0/g16/l303.exe)
 DipDrv:  MaxL=1.
 Leave Link  303 at Wed May  4 12:36:13 2022, MaxMem= 10066329600 cpu:               6.0 elap:               0.3
 (Enter /sw/apps/gaussian-16.0/g16/l308.exe)
 Leave Link  308 at Wed May  4 12:36:13 2022, MaxMem= 10066329600 cpu:               9.7 elap:               0.5
 (Enter /sw/apps/gaussian-16.0/g16/l401.exe)
 ExpMin= 3.36D-02 ExpMax= 4.95D+03 ExpMxC= 7.45D+02 IAcc=3 IRadAn=         5 AccDes= 0.00D+00
 Harris functional with IExCor= 1009 and IRadAn=       5 diagonalized for initial guess.
 HarFok:  IExCor= 1009 AccDes= 0.00D+00 IRadAn=         5 IDoV= 1 UseB2=F ITyADJ=14
 ICtDFT=  3500011 ScaDFX=  1.000000  1.000000  1.000000  1.000000
 FoFCou: FMM=F IPFlag=           0 FMFlag=      100000 FMFlg1=        2001
         NFxFlg=           0 DoJE=T BraDBF=F KetDBF=T FulRan=T
         wScrn=  0.000000 ICntrl=       500 IOpCl=  0 I1Cent=   200000004 NGrid=           0
         NMat0=    1 NMatS0=      1 NMatT0=    0 NMatD0=    1 NMtDS0=    0 NMtDT0=    0
 Petite list used in FoFCou.
 Harris En= -3006.12367411327    
 JPrj=0 DoOrth=F DoCkMO=F.
 Leave Link  401 at Wed May  4 12:36:19 2022, MaxMem= 10066329600 cpu:             135.0 elap:               5.7
 (Enter /sw/apps/gaussian-16.0/g16/l502.exe)
 Integral symmetry usage will be decided dynamically.
 Closed shell SCF:
 Using DIIS extrapolation, IDIIS=  1040.
 NGot= 10066329600 LenX= 10062561258 LenY= 10060699398
 Requested convergence on RMS density matrix=1.00D-08 within 128 cycles.
 Requested convergence on MAX density matrix=1.00D-06.
 Requested convergence on             energy=1.00D-06.
 No special actions if energy rises.
 Fock matrices will be formed incrementally for  20 cycles.

 Cycle   1  Pass 1  IDiag  1:
 FoFJK:  IHMeth= 1 ICntrl=       0 DoSepK=F KAlg= 0 I1Cent=           0 FoldK=F
 IRaf= 530000000 NMat=       1 IRICut=       1 DoRegI=T DoRafI=F ISym2E= 0 IDoP0=0 IntGTp=1.
 FoFCou: FMM=T IPFlag=           0 FMFlag=      100000 FMFlg1=        2001
         NFxFlg=           0 DoJE=F BraDBF=F KetDBF=F FulRan=T
         wScrn=  0.000000 ICntrl=         0 IOpCl=  0 I1Cent=           0 NGrid=           0
         NMat0=    1 NMatS0=      1 NMatT0=    0 NMatD0=    1 NMtDS0=    0 NMtDT0=    0
 Symmetry not used in FoFCou.
 FMM levels:  10  Number of levels for PrismC:   9
 E= -3003.81724689109    
 DIIS: error= 2.34D-02 at cycle   1 NSaved=   1.
 NSaved= 1 IEnMin= 1 EnMin= -3003.81724689109     IErMin= 1 ErrMin= 2.34D-02
 ErrMax= 2.34D-02  0.00D+00 EMaxC= 1.00D-01 BMatC= 1.43D+00 BMatP= 1.43D+00
 IDIUse=3 WtCom= 7.66D-01 WtEn= 2.34D-01
 Coeff-Com:  0.100D+01
 Coeff-En:   0.100D+01
 Coeff:      0.100D+01
 Gap=     0.088 Goal=   None    Shift=    0.000
 GapD=    0.088 DampG=0.500 DampE=0.500 DampFc=0.2500 IDamp=-1.
 Damping current iteration by 2.50D-01
 RMSDP=2.66D-03 MaxDP=5.78D-01              OVMax= 2.30D-01

 Cycle   2  Pass 1  IDiag  1:
 RMSU=  6.59D-04    CP:  9.90D-01
 E= -3004.35610275976     Delta-E=       -0.538855868670 Rises=F Damp=T
 DIIS: error= 8.97D-03 at cycle   2 NSaved=   2.
 NSaved= 2 IEnMin= 2 EnMin= -3004.35610275976     IErMin= 2 ErrMin= 8.97D-03
 ErrMax= 8.97D-03  0.00D+00 EMaxC= 1.00D-01 BMatC= 3.64D-01 BMatP= 1.43D+00
 IDIUse=3 WtCom= 9.10D-01 WtEn= 8.97D-02
 Coeff-Com: -0.798D+00 0.180D+01
 Coeff-En:   0.000D+00 0.100D+01
 Coeff:     -0.726D+00 0.173D+01
 Gap=     0.174 Goal=   None    Shift=    0.000
 RMSDP=9.60D-04 MaxDP=5.87D-02 DE=-5.39D-01 OVMax= 2.92D-01

 Cycle   3  Pass 1  IDiag  1:
 RMSU=  8.09D-04    CP:  9.66D-01  1.71D+00
 E= -3005.17037306526     Delta-E=       -0.814270305502 Rises=F Damp=F
 DIIS: error= 1.14D-02 at cycle   3 NSaved=   3.
 NSaved= 3 IEnMin= 3 EnMin= -3005.17037306526     IErMin= 2 ErrMin= 8.97D-03
 ErrMax= 1.14D-02  0.00D+00 EMaxC= 1.00D-01 BMatC= 1.63D-01 BMatP= 3.64D-01
 IDIUse=3 WtCom= 8.86D-01 WtEn= 1.14D-01
 Coeff-Com: -0.511D+00 0.107D+01 0.440D+00
 Coeff-En:   0.000D+00 0.000D+00 0.100D+01
 Coeff:     -0.453D+00 0.949D+00 0.504D+00
 Gap=     0.078 Goal=   None    Shift=    0.000
 RMSDP=5.99D-04 MaxDP=1.06D-01 DE=-8.14D-01 OVMax= 2.23D-01

 Cycle   4  Pass 1  IDiag  1:
 RMSU=  4.03D-04    CP:  9.72D-01  1.96D+00  4.96D-01
 E= -3005.27533930689     Delta-E=       -0.104966241626 Rises=F Damp=F
 DIIS: error= 4.79D-03 at cycle   4 NSaved=   4.
 NSaved= 4 IEnMin= 4 EnMin= -3005.27533930689     IErMin= 4 ErrMin= 4.79D-03
 ErrMax= 4.79D-03  0.00D+00 EMaxC= 1.00D-01 BMatC= 4.72D-02 BMatP= 1.63D-01
 IDIUse=3 WtCom= 9.52D-01 WtEn= 4.79D-02
 Coeff-Com: -0.126D+00 0.267D+00 0.344D+00 0.515D+00
 Coeff-En:   0.000D+00 0.000D+00 0.289D+00 0.711D+00
 Coeff:     -0.120D+00 0.254D+00 0.342D+00 0.524D+00
 Gap=     0.079 Goal=   None    Shift=    0.000
 RMSDP=3.14D-04 MaxDP=4.94D-02 DE=-1.05D-01 OVMax= 1.67D-01

 Cycle   5  Pass 1  IDiag  1:
 RMSU=  1.46D-04    CP:  9.70D-01  1.84D+00  6.91D-01  4.69D-01
 E= -3005.31615453185     Delta-E=       -0.040815224958 Rises=F Damp=F
 DIIS: error= 2.32D-03 at cycle   5 NSaved=   5.
 NSaved= 5 IEnMin= 5 EnMin= -3005.31615453185     IErMin= 5 ErrMin= 2.32D-03
 ErrMax= 2.32D-03  0.00D+00 EMaxC= 1.00D-01 BMatC= 6.90D-03 BMatP= 4.72D-02
 IDIUse=3 WtCom= 9.77D-01 WtEn= 2.32D-02
 Coeff-Com: -0.301D-01 0.657D-01 0.193D+00 0.374D+00 0.398D+00
 Coeff-En:   0.000D+00 0.000D+00 0.000D+00 0.166D+00 0.834D+00
 Coeff:     -0.294D-01 0.641D-01 0.188D+00 0.369D+00 0.408D+00
 Gap=     0.079 Goal=   None    Shift=    0.000
 RMSDP=1.26D-04 MaxDP=1.16D-02 DE=-4.08D-02 OVMax= 7.83D-02

 Cycle   6  Pass 1  IDiag  1:
 RMSU=  4.99D-05    CP:  9.70D-01  1.85D+00  6.57D-01  6.19D-01  3.47D-01
 E= -3005.32438771308     Delta-E=       -0.008233181239 Rises=F Damp=F
 DIIS: error= 5.93D-04 at cycle   6 NSaved=   6.
 NSaved= 6 IEnMin= 6 EnMin= -3005.32438771308     IErMin= 6 ErrMin= 5.93D-04
 ErrMax= 5.93D-04  0.00D+00 EMaxC= 1.00D-01 BMatC= 6.20D-04 BMatP= 6.90D-03
 IDIUse=3 WtCom= 9.94D-01 WtEn= 5.93D-03
 Coeff-Com:  0.982D-03-0.661D-03 0.603D-01 0.138D+00 0.263D+00 0.538D+00
 Coeff-En:   0.000D+00 0.000D+00 0.000D+00 0.000D+00 0.962D-01 0.904D+00
 Coeff:      0.976D-03-0.657D-03 0.599D-01 0.137D+00 0.262D+00 0.540D+00
 Gap=     0.079 Goal=   None    Shift=    0.000
 RMSDP=3.43D-05 MaxDP=2.54D-03 DE=-8.23D-03 OVMax= 1.85D-02

 Cycle   7  Pass 1  IDiag  1:
 RMSU=  1.66D-05    CP:  9.70D-01  1.85D+00  6.69D-01  5.93D-01  4.72D-01
                    CP:  6.15D-01
 E= -3005.32509818591     Delta-E=       -0.000710472821 Rises=F Damp=F
 DIIS: error= 2.65D-04 at cycle   7 NSaved=   7.
 NSaved= 7 IEnMin= 7 EnMin= -3005.32509818591     IErMin= 7 ErrMin= 2.65D-04
 ErrMax= 2.65D-04  0.00D+00 EMaxC= 1.00D-01 BMatC= 5.92D-05 BMatP= 6.20D-04
 IDIUse=3 WtCom= 9.97D-01 WtEn= 2.65D-03
 Coeff-Com:  0.305D-02-0.601D-02 0.149D-01 0.385D-01 0.111D+00 0.321D+00
 Coeff-Com:  0.517D+00
 Coeff-En:   0.000D+00 0.000D+00 0.000D+00 0.000D+00 0.000D+00 0.171D-01
 Coeff-En:   0.983D+00
 Coeff:      0.304D-02-0.599D-02 0.148D-01 0.384D-01 0.111D+00 0.320D+00
 Coeff:      0.519D+00
 Gap=     0.079 Goal=   None    Shift=    0.000
 RMSDP=9.65D-06 MaxDP=1.19D-03 DE=-7.10D-04 OVMax= 3.76D-03

 Cycle   8  Pass 1  IDiag  1:
 RMSU=  6.47D-06    CP:  9.70D-01  1.85D+00  6.68D-01  5.97D-01  4.67D-01
                    CP:  6.59D-01  6.08D-01
 E= -3005.32514717756     Delta-E=       -0.000048991658 Rises=F Damp=F
 DIIS: error= 8.04D-05 at cycle   8 NSaved=   8.
 NSaved= 8 IEnMin= 8 EnMin= -3005.32514717756     IErMin= 8 ErrMin= 8.04D-05
 ErrMax= 8.04D-05  0.00D+00 EMaxC= 1.00D-01 BMatC= 8.19D-06 BMatP= 5.92D-05
 IDIUse=1 WtCom= 1.00D+00 WtEn= 0.00D+00
 Coeff-Com:  0.151D-02-0.310D-02 0.257D-02 0.766D-02 0.397D-01 0.139D+00
 Coeff-Com:  0.323D+00 0.490D+00
 Coeff:      0.151D-02-0.310D-02 0.257D-02 0.766D-02 0.397D-01 0.139D+00
 Coeff:      0.323D+00 0.490D+00
 Gap=     0.079 Goal=   None    Shift=    0.000
 RMSDP=4.06D-06 MaxDP=3.10D-04 DE=-4.90D-05 OVMax= 1.74D-03

 Cycle   9  Pass 1  IDiag  1:
 RMSU=  2.49D-06    CP:  9.70D-01  1.85D+00  6.69D-01  5.97D-01  4.70D-01
                    CP:  6.67D-01  6.55D-01  5.42D-01
 E= -3005.32515444600     Delta-E=       -0.000007268432 Rises=F Damp=F
 DIIS: error= 2.33D-05 at cycle   9 NSaved=   9.
 NSaved= 9 IEnMin= 9 EnMin= -3005.32515444600     IErMin= 9 ErrMin= 2.33D-05
 ErrMax= 2.33D-05  0.00D+00 EMaxC= 1.00D-01 BMatC= 1.17D-06 BMatP= 8.19D-06
 IDIUse=1 WtCom= 1.00D+00 WtEn= 0.00D+00
 Coeff-Com:  0.496D-03-0.104D-02-0.132D-03-0.227D-03 0.115D-01 0.477D-01
 Coeff-Com:  0.140D+00 0.312D+00 0.490D+00
 Coeff:      0.496D-03-0.104D-02-0.132D-03-0.227D-03 0.115D-01 0.477D-01
 Coeff:      0.140D+00 0.312D+00 0.490D+00
 Gap=     0.079 Goal=   None    Shift=    0.000
 RMSDP=1.87D-06 MaxDP=2.34D-04 DE=-7.27D-06 OVMax= 1.22D-03

 Cycle  10  Pass 1  IDiag  1:
 RMSU=  1.25D-06    CP:  9.70D-01  1.85D+00  6.69D-01  5.96D-01  4.71D-01
                    CP:  6.73D-01  6.53D-01  6.76D-01  5.87D-01
 E= -3005.32515539284     Delta-E=       -0.000000946846 Rises=F Damp=F
 DIIS: error= 1.42D-05 at cycle  10 NSaved=  10.
 NSaved=10 IEnMin=10 EnMin= -3005.32515539284     IErMin=10 ErrMin= 1.42D-05
 ErrMax= 1.42D-05  0.00D+00 EMaxC= 1.00D-01 BMatC= 3.38D-07 BMatP= 1.17D-06
 IDIUse=1 WtCom= 1.00D+00 WtEn= 0.00D+00
 Coeff-Com:  0.757D-04-0.173D-03-0.550D-03-0.174D-02 0.135D-02 0.923D-02
 Coeff-Com:  0.444D-01 0.143D+00 0.368D+00 0.437D+00
 Coeff:      0.757D-04-0.173D-03-0.550D-03-0.174D-02 0.135D-02 0.923D-02
 Coeff:      0.444D-01 0.143D+00 0.368D+00 0.437D+00
 Gap=     0.079 Goal=   None    Shift=    0.000
 RMSDP=9.52D-07 MaxDP=7.59D-05 DE=-9.47D-07 OVMax= 6.91D-04

 Cycle  11  Pass 1  IDiag  1:
 RMSU=  5.06D-07    CP:  9.70D-01  1.85D+00  6.69D-01  5.96D-01  4.71D-01
                    CP:  6.72D-01  6.60D-01  6.57D-01  7.72D-01  4.91D-01
 E= -3005.32515577772     Delta-E=       -0.000000384876 Rises=F Damp=F
 DIIS: error= 7.34D-06 at cycle  11 NSaved=  11.
 NSaved=11 IEnMin=11 EnMin= -3005.32515577772     IErMin=11 ErrMin= 7.34D-06
 ErrMax= 7.34D-06  0.00D+00 EMaxC= 1.00D-01 BMatC= 5.83D-08 BMatP= 3.38D-07
 IDIUse=1 WtCom= 1.00D+00 WtEn= 0.00D+00
 Coeff-Com: -0.221D-04 0.397D-04-0.384D-03-0.131D-02-0.909D-03-0.177D-02
 Coeff-Com:  0.826D-02 0.498D-01 0.189D+00 0.320D+00 0.438D+00
 Coeff:     -0.221D-04 0.397D-04-0.384D-03-0.131D-02-0.909D-03-0.177D-02
 Coeff:      0.826D-02 0.498D-01 0.189D+00 0.320D+00 0.438D+00
 Gap=     0.079 Goal=   None    Shift=    0.000
 RMSDP=3.85D-07 MaxDP=4.43D-05 DE=-3.85D-07 OVMax= 2.73D-04

 Cycle  12  Pass 1  IDiag  1:
 RMSU=  1.93D-07    CP:  9.70D-01  1.85D+00  6.69D-01  5.96D-01  4.71D-01
                    CP:  6.73D-01  6.63D-01  6.72D-01  7.52D-01  6.73D-01
                    CP:  6.33D-01
 E= -3005.32515585223     Delta-E=       -0.000000074511 Rises=F Damp=F
 DIIS: error= 1.27D-06 at cycle  12 NSaved=  12.
 NSaved=12 IEnMin=12 EnMin= -3005.32515585223     IErMin=12 ErrMin= 1.27D-06
 ErrMax= 1.27D-06  0.00D+00 EMaxC= 1.00D-01 BMatC= 5.38D-09 BMatP= 5.83D-08
 IDIUse=1 WtCom= 1.00D+00 WtEn= 0.00D+00
 Coeff-Com: -0.208D-04 0.461D-04-0.114D-03-0.457D-03-0.700D-03-0.305D-02
 Coeff-Com: -0.383D-02 0.182D-03 0.384D-01 0.880D-01 0.249D+00 0.632D+00
 Coeff:     -0.208D-04 0.461D-04-0.114D-03-0.457D-03-0.700D-03-0.305D-02
 Coeff:     -0.383D-02 0.182D-03 0.384D-01 0.880D-01 0.249D+00 0.632D+00
 Gap=     0.079 Goal=   None    Shift=    0.000
 RMSDP=1.35D-07 MaxDP=2.22D-05 DE=-7.45D-08 OVMax= 6.42D-05

 Cycle  13  Pass 1  IDiag  1:
 RMSU=  8.53D-08    CP:  9.70D-01  1.85D+00  6.69D-01  5.96D-01  4.71D-01
                    CP:  6.73D-01  6.63D-01  6.77D-01  7.75D-01  6.77D-01
                    CP:  7.65D-01  8.62D-01
 E= -3005.32515585943     Delta-E=       -0.000000007205 Rises=F Damp=F
 DIIS: error= 7.40D-07 at cycle  13 NSaved=  13.
 NSaved=13 IEnMin=13 EnMin= -3005.32515585943     IErMin=13 ErrMin= 7.40D-07
 ErrMax= 7.40D-07  0.00D+00 EMaxC= 1.00D-01 BMatC= 1.31D-09 BMatP= 5.38D-09
 IDIUse=1 WtCom= 1.00D+00 WtEn= 0.00D+00
 Coeff-Com: -0.585D-05 0.165D-04 0.135D-04-0.121D-04-0.204D-03-0.166D-02
 Coeff-Com: -0.419D-02-0.113D-01-0.161D-01-0.179D-01 0.644D-01 0.399D+00
 Coeff-Com:  0.588D+00
 Coeff:     -0.585D-05 0.165D-04 0.135D-04-0.121D-04-0.204D-03-0.166D-02
 Coeff:     -0.419D-02-0.113D-01-0.161D-01-0.179D-01 0.644D-01 0.399D+00
 Coeff:      0.588D+00
 Gap=     0.079 Goal=   None    Shift=    0.000
 RMSDP=6.57D-08 MaxDP=4.77D-06 DE=-7.21D-09 OVMax= 3.54D-05

 Cycle  14  Pass 1  IDiag  1:
 RMSU=  3.59D-08    CP:  9.70D-01  1.85D+00  6.69D-01  5.96D-01  4.71D-01
                    CP:  6.73D-01  6.64D-01  6.79D-01  7.84D-01  6.96D-01
                    CP:  7.84D-01  1.04D+00  7.84D-01
 E= -3005.32515586111     Delta-E=       -0.000000001672 Rises=F Damp=F
 DIIS: error= 3.29D-07 at cycle  14 NSaved=  14.
 NSaved=14 IEnMin=14 EnMin= -3005.32515586111     IErMin=14 ErrMin= 3.29D-07
 ErrMax= 3.29D-07  0.00D+00 EMaxC= 1.00D-01 BMatC= 2.37D-10 BMatP= 1.31D-09
 IDIUse=1 WtCom= 1.00D+00 WtEn= 0.00D+00
 Coeff-Com:  0.129D-05-0.359D-08 0.292D-04 0.737D-04 0.660D-05-0.537D-03
 Coeff-Com: -0.195D-02-0.749D-02-0.169D-01-0.292D-01-0.373D-02 0.129D+00
 Coeff-Com:  0.363D+00 0.568D+00
 Coeff:      0.129D-05-0.359D-08 0.292D-04 0.737D-04 0.660D-05-0.537D-03
 Coeff:     -0.195D-02-0.749D-02-0.169D-01-0.292D-01-0.373D-02 0.129D+00
 Coeff:      0.363D+00 0.568D+00
 Gap=     0.079 Goal=   None    Shift=    0.000
 RMSDP=2.75D-08 MaxDP=3.94D-06 DE=-1.67D-09 OVMax= 1.15D-05

 Cycle  15  Pass 1  IDiag  1:
 RMSU=  1.44D-08    CP:  9.70D-01  1.85D+00  6.69D-01  5.96D-01  4.71D-01
                    CP:  6.73D-01  6.64D-01  6.80D-01  7.86D-01  7.00D-01
                    CP:  8.09D-01  1.06D+00  9.13D-01  7.69D-01
 E= -3005.32515586130     Delta-E=       -0.000000000191 Rises=F Damp=F
 DIIS: error= 1.47D-07 at cycle  15 NSaved=  15.
 NSaved=15 IEnMin=15 EnMin= -3005.32515586130     IErMin=15 ErrMin= 1.47D-07
 ErrMax= 1.47D-07  0.00D+00 EMaxC= 1.00D-01 BMatC= 3.10D-11 BMatP= 2.37D-10
 IDIUse=1 WtCom= 1.00D+00 WtEn= 0.00D+00
 Coeff-Com:  0.183D-05-0.284D-05 0.139D-04 0.407D-04 0.452D-04-0.176D-04
 Coeff-Com: -0.286D-03-0.208D-02-0.590D-02-0.126D-01-0.106D-01 0.359D-02
 Coeff-Com:  0.947D-01 0.325D+00 0.608D+00
 Coeff:      0.183D-05-0.284D-05 0.139D-04 0.407D-04 0.452D-04-0.176D-04
 Coeff:     -0.286D-03-0.208D-02-0.590D-02-0.126D-01-0.106D-01 0.359D-02
 Coeff:      0.947D-01 0.325D+00 0.608D+00
 Gap=     0.079 Goal=   None    Shift=    0.000
 RMSDP=8.68D-09 MaxDP=6.99D-07 DE=-1.91D-10 OVMax= 4.32D-06

 SCF Done:  E(RPBE1PBE) =  -3005.32515586     A.U. after   15 cycles
            NFock= 15  Conv=0.87D-08     -V/T= 2.0103
 KE= 2.974675890483D+03 PE=-2.612839502772D+04 EE= 1.057956213158D+04
 Leave Link  502 at Wed May  4 12:40:55 2022, MaxMem= 10066329600 cpu:            6595.2 elap:             276.5
 (Enter /sw/apps/gaussian-16.0/g16/l801.exe)
 DoSCS=F DFT=T ScalE2(SS,OS)=  1.000000  1.000000
 ExpMin= 3.36D-02 ExpMax= 4.95D+03 ExpMxC= 7.45D+02 IAcc=3 IRadAn=         5 AccDes= 0.00D+00
 HarFok:  IExCor=  205 AccDes= 0.00D+00 IRadAn=         5 IDoV=-2 UseB2=F ITyADJ=14
 ICtDFT= 12500011 ScaDFX=  1.000000  1.000000  1.000000  1.000000
 GSVD:  LWork=       -5460 too small for GESVD, short by       25550 words or       25550 for optimal perf.
 Largest valence mixing into a core orbital is  1.24D-04
 Largest core mixing into a valence orbital is  5.49D-05
 Range of M.O.s used for correlation:    71  1298
 NBasis=  1298 NAE=   246 NBE=   246 NFC=    70 NFV=     0
 NROrb=   1228 NOA=   176 NOB=   176 NVA=  1052 NVB=  1052

 **** Warning!!: The smallest alpha delta epsilon is  0.78962967D-01

 Leave Link  801 at Wed May  4 12:40:56 2022, MaxMem= 10066329600 cpu:               6.5 elap:               0.3
 (Enter /sw/apps/gaussian-16.0/g16/l914.exe)
 RHF ground state
 Two-electron integrals replicated using symmetry.
 MDV= 10066329600 DFT=T DoStab=F Mixed=T DoRPA=T DoScal=F NonHer=T
 Making orbital integer symmetry assigments:
 Orbital symmetries:
       Occupied  (A) (A) (A) (A) (A) (A) (A) (A) (A) (A) (A) (A)
                 (A) (A) (A) (A) (A) (A) (A) (A) (A) (A) (A) (A)
                 (A) (A) (A) (A) (A) (A) (A) (A) (A) (A) (A) (A)
                 (A) (A) (A) (A) (A) (A) (A) (A) (A) (A) (A) (A)
                 (A) (A) (A) (A) (A) (A) (A) (A) (A) (A) (A) (A)
                 (A) (A) (A) (A) (A) (A) (A) (A) (A) (A) (A) (A)
                 (A) (A) (A) (A) (A) (A) (A) (A) (A) (A) (A) (A)
                 (A) (A) (A) (A) (A) (A) (A) (A) (A) (A) (A) (A)
                 (A) (A) (A) (A) (A) (A) (A) (A) (A) (A) (A) (A)
                 (A) (A) (A) (A) (A) (A) (A) (A) (A) (A) (A) (A)
                 (A) (A) (A) (A) (A) (A) (A) (A) (A) (A) (A) (A)
                 (A) (A) (A) (A) (A) (A) (A) (A) (A) (A) (A) (A)
                 (A) (A) (A) (A) (A) (A) (A) (A) (A) (A) (A) (A)
                 (A) (A) (A) (A) (A) (A) (A) (A) (A) (A) (A) (A)
                 (A) (A) (A) (A) (A) (A) (A) (A) (A) (A) (A) (A)
                 (A) (A) (A) (A) (A) (A) (A) (A) (A) (A) (A) (A)
                 (A) (A) (A) (A) (A) (A) (A) (A) (A) (A) (A) (A)
                 (A) (A) (A) (A) (A) (A) (A) (A) (A) (A) (A) (A)
                 (A) (A) (A) (A) (A) (A) (A) (A) (A) (A) (A) (A)
                 (A) (A) (A) (A) (A) (A) (A) (A) (A) (A) (A) (A)
                 (A) (A) (A) (A) (A) (A)
       Virtual   (A) (A) (A) (A) (A) (A) (A) (A) (A) (A) (A) (A)
                 (A) (A) (A) (A) (A) (A) (A) (A) (A) (A) (A) (A)
                 (A) (A) (A) (A) (A) (A) (A) (A) (A) (A) (A) (A)
                 (A) (A) (A) (A) (A) (A) (A) (A) (A) (A) (A) (A)
                 (A) (A) (A) (A) (A) (A) (A) (A) (A) (A) (A) (A)
                 (A) (A) (A) (A) (A) (A) (A) (A) (A) (A) (A) (A)
                 (A) (A) (A) (A) (A) (A) (A) (A) (A) (A) (A) (A)
                 (A) (A) (A) (A) (A) (A) (A) (A) (A) (A) (A) (A)
                 (A) (A) (A) (A) (A) (A) (A) (A) (A) (A) (A) (A)
                 (A) (A) (A) (A) (A) (A) (A) (A) (A) (A) (A) (A)
                 (A) (A) (A) (A) (A) (A) (A) (A) (A) (A) (A) (A)
                 (A) (A) (A) (A) (A) (A) (A) (A) (A) (A) (A) (A)
                 (A) (A) (A) (A) (A) (A) (A) (A) (A) (A) (A) (A)
                 (A) (A) (A) (A) (A) (A) (A) (A) (A) (A) (A) (A)
                 (A) (A) (A) (A) (A) (A) (A) (A) (A) (A) (A) (A)
                 (A) (A) (A) (A) (A) (A) (A) (A) (A) (A) (A) (A)
                 (A) (A) (A) (A) (A) (A) (A) (A) (A) (A) (A) (A)
                 (A) (A) (A) (A) (A) (A) (A) (A) (A) (A) (A) (A)
                 (A) (A) (A) (A) (A) (A) (A) (A) (A) (A) (A) (A)
                 (A) (A) (A) (A) (A) (A) (A) (A) (A) (A) (A) (A)
                 (A) (A) (A) (A) (A) (A) (A) (A) (A) (A) (A) (A)
                 (A) (A) (A) (A) (A) (A) (A) (A) (A) (A) (A) (A)
                 (A) (A) (A) (A) (A) (A) (A) (A) (A) (A) (A) (A)
                 (A) (A) (A) (A) (A) (A) (A) (A) (A) (A) (A) (A)
                 (A) (A) (A) (A) (A) (A) (A) (A) (A) (A) (A) (A)
                 (A) (A) (A) (A) (A) (A) (A) (A) (A) (A) (A) (A)
                 (A) (A) (A) (A) (A) (A) (A) (A) (A) (A) (A) (A)
                 (A) (A) (A) (A) (A) (A) (A) (A) (A) (A) (A) (A)
                 (A) (A) (A) (A) (A) (A) (A) (A) (A) (A) (A) (A)
                 (A) (A) (A) (A) (A) (A) (A) (A) (A) (A) (A) (A)
                 (A) (A) (A) (A) (A) (A) (A) (A) (A) (A) (A) (A)
                 (A) (A) (A) (A) (A) (A) (A) (A) (A) (A) (A) (A)
                 (A) (A) (A) (A) (A) (A) (A) (A) (A) (A) (A) (A)
                 (A) (A) (A) (A) (A) (A) (A) (A) (A) (A) (A) (A)
                 (A) (A) (A) (A) (A) (A) (A) (A) (A) (A) (A) (A)
                 (A) (A) (A) (A) (A) (A) (A) (A) (A) (A) (A) (A)
                 (A) (A) (A) (A) (A) (A) (A) (A) (A) (A) (A) (A)
                 (A) (A) (A) (A) (A) (A) (A) (A) (A) (A) (A) (A)
                 (A) (A) (A) (A) (A) (A) (A) (A) (A) (A) (A) (A)
                 (A) (A) (A) (A) (A) (A) (A) (A) (A) (A) (A) (A)
                 (A) (A) (A) (A) (A) (A) (A) (A) (A) (A) (A) (A)
                 (A) (A) (A) (A) (A) (A) (A) (A) (A) (A) (A) (A)
                 (A) (A) (A) (A) (A) (A) (A) (A) (A) (A) (A) (A)
                 (A) (A) (A) (A) (A) (A) (A) (A) (A) (A) (A) (A)
                 (A) (A) (A) (A) (A) (A) (A) (A) (A) (A) (A) (A)
                 (A) (A) (A) (A) (A) (A) (A) (A) (A) (A) (A) (A)
                 (A) (A) (A) (A) (A) (A) (A) (A) (A) (A) (A) (A)
                 (A) (A) (A) (A) (A) (A) (A) (A) (A) (A) (A) (A)
                 (A) (A) (A) (A) (A) (A) (A) (A) (A) (A) (A) (A)
                 (A) (A) (A) (A) (A) (A) (A) (A) (A) (A) (A) (A)
                 (A) (A) (A) (A) (A) (A) (A) (A) (A) (A) (A) (A)
                 (A) (A) (A) (A) (A) (A) (A) (A) (A) (A) (A) (A)
                 (A) (A) (A) (A) (A) (A) (A) (A) (A) (A) (A) (A)
                 (A) (A) (A) (A) (A) (A) (A) (A) (A) (A) (A) (A)
                 (A) (A) (A) (A) (A) (A) (A) (A) (A) (A) (A) (A)
                 (A) (A) (A) (A) (A) (A) (A) (A) (A) (A) (A) (A)
                 (A) (A) (A) (A) (A) (A) (A) (A) (A) (A) (A) (A)
                 (A) (A) (A) (A) (A) (A) (A) (A) (A) (A) (A) (A)
                 (A) (A) (A) (A) (A) (A) (A) (A) (A) (A) (A) (A)
                 (A) (A) (A) (A) (A) (A) (A) (A) (A) (A) (A) (A)
                 (A) (A) (A) (A) (A) (A) (A) (A) (A) (A) (A) (A)
                 (A) (A) (A) (A) (A) (A) (A) (A) (A) (A) (A) (A)
                 (A) (A) (A) (A) (A) (A) (A) (A) (A) (A) (A) (A)
                 (A) (A) (A) (A) (A) (A) (A) (A) (A) (A) (A) (A)
                 (A) (A) (A) (A) (A) (A) (A) (A) (A) (A) (A) (A)
                 (A) (A) (A) (A) (A) (A) (A) (A) (A) (A) (A) (A)
                 (A) (A) (A) (A) (A) (A) (A) (A) (A) (A) (A) (A)
                 (A) (A) (A) (A) (A) (A) (A) (A) (A) (A) (A) (A)
                 (A) (A) (A) (A) (A) (A) (A) (A) (A) (A) (A) (A)
                 (A) (A) (A) (A) (A) (A) (A) (A) (A) (A) (A) (A)
                 (A) (A) (A) (A) (A) (A) (A) (A) (A) (A) (A) (A)
                 (A) (A) (A) (A) (A) (A) (A) (A) (A) (A) (A) (A)
                 (A) (A) (A) (A) (A) (A) (A) (A) (A) (A) (A) (A)
                 (A) (A) (A) (A) (A) (A) (A) (A) (A) (A) (A) (A)
                 (A) (A) (A) (A) (A) (A) (A) (A) (A) (A) (A) (A)
                 (A) (A) (A) (A) (A) (A) (A) (A) (A) (A) (A) (A)
                 (A) (A) (A) (A) (A) (A) (A) (A) (A) (A) (A) (A)
                 (A) (A) (A) (A) (A) (A) (A) (A) (A) (A) (A) (A)
                 (A) (A) (A) (A) (A) (A) (A) (A) (A) (A) (A) (A)
                 (A) (A) (A) (A) (A) (A) (A) (A) (A) (A) (A) (A)
                 (A) (A) (A) (A) (A) (A) (A) (A) (A) (A) (A) (A)
                 (A) (A) (A) (A) (A) (A) (A) (A) (A) (A) (A) (A)
                 (A) (A) (A) (A) (A) (A) (A) (A) (A) (A) (A) (A)
                 (A) (A) (A) (A) (A) (A) (A) (A) (A) (A) (A) (A)
                 (A) (A) (A) (A) (A) (A) (A) (A) (A) (A) (A) (A)
                 (A) (A) (A) (A) (A) (A) (A) (A) (A) (A) (A) (A)
                 (A) (A) (A) (A) (A) (A) (A) (A) (A) (A) (A) (A)
                 (A) (A) (A) (A) (A) (A) (A) (A)
    20 initial guesses have been made.
 Convergence on wavefunction:    0.001000000000000
 Davidson Disk Diagonalization:  ConvIn= 1.00D-03 SkipCon=T Conv= 1.00D-03.
 Max sub-space:  2000 roots to seek:    20 dimension of matrix:       370304
 Iteration     1 Dimension    20 NMult     0 NNew     20
 CISAX will form    20 AO SS matrices at one time.
 NMat=    20 NSing=    20 JSym2X= 0.
 FoFJK:  IHMeth= 1 ICntrl=       0 DoSepK=F KAlg= 0 I1Cent=           0 FoldK=F
 IRaf= 530000000 NMat=      40 IRICut=       1 DoRegI=T DoRafI=F ISym2E= 0 IDoP0=3 IntGTp=3.
 FoFCou: FMM=T IPFlag=           0 FMFlag=      100000 FMFlg1=        2001
         NFxFlg=           0 DoJE=F BraDBF=F KetDBF=F FulRan=T
         wScrn=  0.000000 ICntrl=         0 IOpCl=  0 I1Cent=           0 NGrid=           0
         NMat0=   40 NMatS0=     20 NMatT0=    0 NMatD0=   40 NMtDS0=    0 NMtDT0=    0
 Symmetry not used in FoFCou.
 FMM levels:  10  Number of levels for PrismC:   9
 New state      3 was old state      4
 New state      4 was old state      5
 New state      5 was old state      9
 Excitation Energies [eV] at current iteration:
 Root      1 :     2.284031795011834
 Root      2 :     2.539911954602822
 Root      3 :     3.042808204979441
 Root      4 :     3.323976296612266
 Root      5 :     3.363307118405246
 Root      6 :     3.554131736821845
 Root      7 :     3.743561069788125
 Root      8 :     3.924990781146436
 Root      9 :     3.976341230708931
 Root     10 :     4.091704618780493
 Root     11 :     4.163324867749884
 Root     12 :     4.222439826115177
 Root     13 :     4.309126817576892
 Root     14 :     4.449446623890061
 Root     15 :     4.492046309101447
 Root     16 :     4.659247996937796
 Root     17 :     4.699182717532292
 Root     18 :     4.792722549223505
 Root     19 :     4.857115435120151
 Root     20 :     4.934664559423467
 Iteration     2 Dimension    30 NMult    20 NNew     10
 CISAX will form    10 AO SS matrices at one time.
 NMat=    10 NSing=    10 JSym2X= 0.
 Root      1 not converged, maximum delta is    0.055593511852172
 Root      2 not converged, maximum delta is    0.051758970416906
 Root      3 not converged, maximum delta is    0.111301800841590
 Root      4 not converged, maximum delta is    0.265006747638917
 Root      5 not converged, maximum delta is    0.304192245006770
 Excitation Energies [eV] at current iteration:
 Root      1 :     1.949318202084370   Change is   -0.334713592927464
 Root      2 :     2.273940517262305   Change is   -0.265971437340517
 Root      3 :     2.955092904691432   Change is   -0.087715300288009
 Root      4 :     3.101386499756259   Change is   -0.222589796856008
 Root      5 :     3.210996875970552   Change is   -0.152310242434694
 Iteration     3 Dimension    40 NMult    30 NNew     10
 CISAX will form    10 AO SS matrices at one time.
 NMat=    10 NSing=    10 JSym2X= 0.
 Root      1 not converged, maximum delta is    0.025467937121495
 Root      2 not converged, maximum delta is    0.025131636890527
 Root      3 not converged, maximum delta is    0.027128303618260
 Root      4 not converged, maximum delta is    0.007047479711246
 Root      5 not converged, maximum delta is    0.026588295081816
 Excitation Energies [eV] at current iteration:
 Root      1 :     1.918486811308827   Change is   -0.030831390775543
 Root      2 :     2.256221777850947   Change is   -0.017718739411358
 Root      3 :     2.944046286086432   Change is   -0.011046618605000
 Root      4 :     3.091861879630307   Change is   -0.009524620125951
 Root      5 :     3.197938725771760   Change is   -0.013058150198793
 Iteration     4 Dimension    50 NMult    40 NNew     10
 CISAX will form    10 AO SS matrices at one time.
 NMat=    10 NSing=    10 JSym2X= 0.
 Root      1 not converged, maximum delta is    0.004744244086147
 Root      2 not converged, maximum delta is    0.007025880769026
 Root      3 not converged, maximum delta is    0.004626967825777
 Root      4 not converged, maximum delta is    0.003158447125049
 Root      5 not converged, maximum delta is    0.017020863876121
 Excitation Energies [eV] at current iteration:
 Root      1 :     1.914846184078748   Change is   -0.003640627230079
 Root      2 :     2.253488282272328   Change is   -0.002733495578619
 Root      3 :     2.943166816116893   Change is   -0.000879469969538
 Root      4 :     3.090141440829471   Change is   -0.001720438800837
 Root      5 :     3.194853348882705   Change is   -0.003085376889055
 Iteration     5 Dimension    60 NMult    50 NNew     10
 CISAX will form    10 AO SS matrices at one time.
 NMat=    10 NSing=    10 JSym2X= 0.
 Root      1 not converged, maximum delta is    0.001052587443190
 Root      2 has converged.
 Root      3 has converged.
 Root      4 not converged, maximum delta is    0.001376391706932
 Root      5 not converged, maximum delta is    0.003917313229864
 Excitation Energies [eV] at current iteration:
 Root      1 :     1.914442223571941   Change is   -0.000403960506807
 Root      2 :     2.253264476020135   Change is   -0.000223806252193
 Root      3 :     2.943054598556905   Change is   -0.000112217559989
 Root      4 :     3.089920510519739   Change is   -0.000220930309732
 Root      5 :     3.194474455819378   Change is   -0.000378893063327
 Iteration     6 Dimension    66 NMult    60 NNew      6
 CISAX will form     6 AO SS matrices at one time.
 NMat=     6 NSing=     6 JSym2X= 0.
 Root      1 has converged.
 Root      2 has converged.
 Root      3 has converged.
 Root      4 has converged.
 Root      5 not converged, maximum delta is    0.001849638330125
 Excitation Energies [eV] at current iteration:
 Root      1 :     1.914405524553863   Change is   -0.000036699018078
 Root      2 :     2.253264004011988   Change is   -0.000000472008147
 Root      3 :     2.943053972706318   Change is   -0.000000625850587
 Root      4 :     3.089900943612030   Change is   -0.000019566907709
 Root      5 :     3.194415479587194   Change is   -0.000058976232183
 Iteration     7 Dimension    68 NMult    66 NNew      2
 CISAX will form     2 AO SS matrices at one time.
 NMat=     2 NSing=     2 JSym2X= 0.
 Root      1 has converged.
 Root      2 has converged.
 Root      3 has converged.
 Root      4 has converged.
 Root      5 not converged, maximum delta is    0.001439708491569
 Excitation Energies [eV] at current iteration:
 Root      1 :     1.914405516378782   Change is   -0.000000008175081
 Root      2 :     2.253263700788753   Change is   -0.000000303223235
 Root      3 :     2.943053675894513   Change is   -0.000000296811805
 Root      4 :     3.089900912388960   Change is   -0.000000031223070
 Root      5 :     3.194402090195829   Change is   -0.000013389391366
 Iteration     8 Dimension    70 NMult    68 NNew      2
 CISAX will form     2 AO SS matrices at one time.
 NMat=     2 NSing=     2 JSym2X= 0.
 Root      1 has converged.
 Root      2 has converged.
 Root      3 has converged.
 Root      4 has converged.
 Root      5 has converged.
 Excitation Energies [eV] at current iteration:
 Root      1 :     1.914405514820133   Change is   -0.000000001558649
 Root      2 :     2.253262418562628   Change is   -0.000001282226125
 Root      3 :     2.943053449851282   Change is   -0.000000226043231
 Root      4 :     3.089900875885125   Change is   -0.000000036503835
 Root      5 :     3.194399747948062   Change is   -0.000002342247766
 Convergence achieved on expansion vectors.
 ***********************************************************************
 Excited states from <AA,BB:AA,BB> singles matrix:
 ***********************************************************************
 
 1PDM for each excited state written to RWF  633
 Ground to excited state transition densities written to RWF  633
 Ground to excited state transition electric dipole moments (Au):
       state          X           Y           Z        Dip. S.      Osc.
         1         0.2461      2.7151      0.4450      7.6302      0.3579
         2         1.2556     -0.3055      0.1849      1.7041      0.0941
         3        -0.0132      0.0261      0.0015      0.0009      0.0001
         4         0.0305      0.0673     -0.0067      0.0055      0.0004
         5         0.1493      0.0073      0.0328      0.0234      0.0018
 Ground to excited state transition velocity dipole moments (Au):
       state          X           Y           Z        Dip. S.      Osc.
         1        -0.0160     -0.1858     -0.0315      0.0358      0.3388
         2        -0.0988      0.0243     -0.0140      0.0106      0.0850
         3         0.0032     -0.0004     -0.0012      0.0000      0.0001
         4        -0.0040     -0.0061      0.0002      0.0001      0.0003
         5        -0.0171      0.0005     -0.0004      0.0003      0.0017
 Ground to excited state transition magnetic dipole moments (Au):
       state          X           Y           Z
         1        -0.0583     -0.3719      2.1234
         2         0.0565     -0.1168     -0.3359
         3         0.3147     -0.0645      0.2189
         4         0.2483      0.0715     -0.7949
         5        -0.0449      0.4760     -0.1124
 Ground to excited state transition velocity quadrupole moments (Au):
       state          XX          YY          ZZ          XY          XZ          YZ
         1         0.4669     -0.2999      0.0225      1.9913      0.4020     -0.0669
         2         1.9148     -0.0066     -0.0014     -0.2689      0.1461      0.0506
         3        -0.0705      0.0206      0.0070      0.0051      0.0208      0.0028
         4         0.0680     -0.1054      0.0119      0.2657     -0.0243      0.0344
         5         0.3289     -0.0954     -0.0143      0.0514      0.0051     -0.0248
 <0|del|b> * <b|rxdel|0> + <0|del|b> * <b|delr+rdel|0>
 Rotatory Strengths (R) in cgs (10**-40 erg-esu-cm/Gauss)
       state          XX          YY          ZZ    R(velocity)    E-M Angle
         1        71.1439    -10.8388    -28.8468     10.4861       89.56
         2         8.9039    -41.1432      0.5596    -10.5599       95.76
         3        -0.7459      2.5101      3.3276      1.6973       54.37
         4        -2.1172     -4.0833     -3.5247     -3.2418      104.93
         5         0.7935      3.8107      1.7717      2.1253       82.79
 1/2[<0|r|b>*<b|rxdel|0> + (<0|rxdel|b>*<b|r|0>)*]
 Rotatory Strengths (R) in cgs (10**-40 erg-esu-cm/Gauss)
       state          XX          YY          ZZ     R(length)
         1        10.1425    713.9542   -668.2757     18.6070
         2       -50.1263    -25.2299     43.9180    -10.4794
         3         2.9461      1.1920     -0.2373      1.3003
         4        -5.3503     -3.4073     -3.7856     -4.1811
         5         4.7456     -2.4462      2.6045      1.6346
  1/2[<0|del|b>*<b|r|0> + (<0|r|b>*<b|del|0>)*] (Au)
       state          X           Y           Z        Dip. S.   Osc.(frdel)
         1        -0.0039     -0.5044     -0.0140      0.5223      0.3482
         2        -0.1241     -0.0074     -0.0026      0.1341      0.0894
         3        -0.0000     -0.0000     -0.0000      0.0001      0.0000
         4        -0.0001     -0.0004     -0.0000      0.0005      0.0004
         5        -0.0026      0.0000     -0.0000      0.0026      0.0017

 Excitation energies and oscillator strengths:
 
 Excited State   1:      Singlet-A      1.9144 eV  647.64 nm  f=0.3579  <S**2>=0.000
     245 -> 248        0.19212
     246 -> 247        0.68775
 This state for optimization and/or second-order correction.
 Total Energy, E(TD-HF/TD-DFT) =  -3005.25480275    
 Copying the excited state density for this state as the 1-particle RhoCI density.
 
 Excited State   2:      Singlet-A      2.2533 eV  550.24 nm  f=0.0941  <S**2>=0.000
     245 -> 247        0.64494
     246 -> 248       -0.28082
 
 Excited State   3:      Singlet-A      2.9431 eV  421.28 nm  f=0.0001  <S**2>=0.000
     244 -> 247        0.68300
     244 -> 249       -0.12346
     244 -> 250       -0.10456
 
 Excited State   4:      Singlet-A      3.0899 eV  401.26 nm  f=0.0004  <S**2>=0.000
     243 -> 247        0.69314
 
 Excited State   5:      Singlet-A      3.1944 eV  388.13 nm  f=0.0018  <S**2>=0.000
     240 -> 247        0.30566
     240 -> 249        0.11835
     241 -> 247        0.59265
     246 -> 248        0.14567
 SavETr:  write IOETrn=   770 NScale= 10 NData=  16 NLR=1 NState=    5 LETran=     100.
 Leave Link  914 at Wed May  4 12:56:18 2022, MaxMem= 10066329600 cpu:           22093.0 elap:             922.3
 (Enter /sw/apps/gaussian-16.0/g16/l601.exe)
 Copying SCF densities to generalized density rwf, IOpCl= 0 IROHF=0.
 Hyperfine terms turned off by default for NAtoms > 100.

 **********************************************************************

            Population analysis using the SCF density.

 **********************************************************************

 Orbital symmetries:
       Occupied  (A) (A) (A) (A) (A) (A) (A) (A) (A) (A) (A) (A)
                 (A) (A) (A) (A) (A) (A) (A) (A) (A) (A) (A) (A)
                 (A) (A) (A) (A) (A) (A) (A) (A) (A) (A) (A) (A)
                 (A) (A) (A) (A) (A) (A) (A) (A) (A) (A) (A) (A)
                 (A) (A) (A) (A) (A) (A) (A) (A) (A) (A) (A) (A)
                 (A) (A) (A) (A) (A) (A) (A) (A) (A) (A) (A) (A)
                 (A) (A) (A) (A) (A) (A) (A) (A) (A) (A) (A) (A)
                 (A) (A) (A) (A) (A) (A) (A) (A) (A) (A) (A) (A)
                 (A) (A) (A) (A) (A) (A) (A) (A) (A) (A) (A) (A)
                 (A) (A) (A) (A) (A) (A) (A) (A) (A) (A) (A) (A)
                 (A) (A) (A) (A) (A) (A) (A) (A) (A) (A) (A) (A)
                 (A) (A) (A) (A) (A) (A) (A) (A) (A) (A) (A) (A)
                 (A) (A) (A) (A) (A) (A) (A) (A) (A) (A) (A) (A)
                 (A) (A) (A) (A) (A) (A) (A) (A) (A) (A) (A) (A)
                 (A) (A) (A) (A) (A) (A) (A) (A) (A) (A) (A) (A)
                 (A) (A) (A) (A) (A) (A) (A) (A) (A) (A) (A) (A)
                 (A) (A) (A) (A) (A) (A) (A) (A) (A) (A) (A) (A)
                 (A) (A) (A) (A) (A) (A) (A) (A) (A) (A) (A) (A)
                 (A) (A) (A) (A) (A) (A) (A) (A) (A) (A) (A) (A)
                 (A) (A) (A) (A) (A) (A) (A) (A) (A) (A) (A) (A)
                 (A) (A) (A) (A) (A) (A)
       Virtual   (A) (A) (A) (A) (A) (A) (A) (A) (A) (A) (A) (A)
                 (A) (A) (A) (A) (A) (A) (A) (A) (A) (A) (A) (A)
                 (A) (A) (A) (A) (A) (A) (A) (A) (A) (A) (A) (A)
                 (A) (A) (A) (A) (A) (A) (A) (A) (A) (A) (A) (A)
                 (A) (A) (A) (A) (A) (A) (A) (A) (A) (A) (A) (A)
                 (A) (A) (A) (A) (A) (A) (A) (A) (A) (A) (A) (A)
                 (A) (A) (A) (A) (A) (A) (A) (A) (A) (A) (A) (A)
                 (A) (A) (A) (A) (A) (A) (A) (A) (A) (A) (A) (A)
                 (A) (A) (A) (A) (A) (A) (A) (A) (A) (A) (A) (A)
                 (A) (A) (A) (A) (A) (A) (A) (A) (A) (A) (A) (A)
                 (A) (A) (A) (A) (A) (A) (A) (A) (A) (A) (A) (A)
                 (A) (A) (A) (A) (A) (A) (A) (A) (A) (A) (A) (A)
                 (A) (A) (A) (A) (A) (A) (A) (A) (A) (A) (A) (A)
                 (A) (A) (A) (A) (A) (A) (A) (A) (A) (A) (A) (A)
                 (A) (A) (A) (A) (A) (A) (A) (A) (A) (A) (A) (A)
                 (A) (A) (A) (A) (A) (A) (A) (A) (A) (A) (A) (A)
                 (A) (A) (A) (A) (A) (A) (A) (A) (A) (A) (A) (A)
                 (A) (A) (A) (A) (A) (A) (A) (A) (A) (A) (A) (A)
                 (A) (A) (A) (A) (A) (A) (A) (A) (A) (A) (A) (A)
                 (A) (A) (A) (A) (A) (A) (A) (A) (A) (A) (A) (A)
                 (A) (A) (A) (A) (A) (A) (A) (A) (A) (A) (A) (A)
                 (A) (A) (A) (A) (A) (A) (A) (A) (A) (A) (A) (A)
                 (A) (A) (A) (A) (A) (A) (A) (A) (A) (A) (A) (A)
                 (A) (A) (A) (A) (A) (A) (A) (A) (A) (A) (A) (A)
                 (A) (A) (A) (A) (A) (A) (A) (A) (A) (A) (A) (A)
                 (A) (A) (A) (A) (A) (A) (A) (A) (A) (A) (A) (A)
                 (A) (A) (A) (A) (A) (A) (A) (A) (A) (A) (A) (A)
                 (A) (A) (A) (A) (A) (A) (A) (A) (A) (A) (A) (A)
                 (A) (A) (A) (A) (A) (A) (A) (A) (A) (A) (A) (A)
                 (A) (A) (A) (A) (A) (A) (A) (A) (A) (A) (A) (A)
                 (A) (A) (A) (A) (A) (A) (A) (A) (A) (A) (A) (A)
                 (A) (A) (A) (A) (A) (A) (A) (A) (A) (A) (A) (A)
                 (A) (A) (A) (A) (A) (A) (A) (A) (A) (A) (A) (A)
                 (A) (A) (A) (A) (A) (A) (A) (A) (A) (A) (A) (A)
                 (A) (A) (A) (A) (A) (A) (A) (A) (A) (A) (A) (A)
                 (A) (A) (A) (A) (A) (A) (A) (A) (A) (A) (A) (A)
                 (A) (A) (A) (A) (A) (A) (A) (A) (A) (A) (A) (A)
                 (A) (A) (A) (A) (A) (A) (A) (A) (A) (A) (A) (A)
                 (A) (A) (A) (A) (A) (A) (A) (A) (A) (A) (A) (A)
                 (A) (A) (A) (A) (A) (A) (A) (A) (A) (A) (A) (A)
                 (A) (A) (A) (A) (A) (A) (A) (A) (A) (A) (A) (A)
                 (A) (A) (A) (A) (A) (A) (A) (A) (A) (A) (A) (A)
[...]
 Alpha virt. eigenvalues --    1.16334   1.16650   1.17401   1.18258   1.18618
 Alpha virt. eigenvalues --    1.18731   1.19118   1.19684   1.19957   1.21056
 Alpha virt. eigenvalues --    1.21221   1.21891   1.21977   1.22221   1.23173
 Alpha virt. eigenvalues --    1.23389   1.23997   1.24371   1.25003   1.25287
 Alpha virt. eigenvalues --    1.26248   1.26515   1.26735   1.27576   1.27779
 Alpha virt. eigenvalues --    1.28235   1.29283   1.29488   1.30035   1.30380
 Alpha virt. eigenvalues --    1.31037   1.31532   1.32290   1.32638   1.32758
 Alpha virt. eigenvalues --    1.33055   1.33443   1.33804   1.34074   1.34595
 Alpha virt. eigenvalues --    1.34634   1.34854   1.35400   1.36035   1.36093
 Alpha virt. eigenvalues --    1.36551   1.36824   1.36950   1.37393   1.38244
 Alpha virt. eigenvalues --    1.38892   1.39091   1.39139   1.39756   1.39890
 Alpha virt. eigenvalues --    1.40359   1.40432   1.40780   1.41125   1.41346
 Alpha virt. eigenvalues --    1.42078   1.42575   1.43008   1.43405   1.43761
 Alpha virt. eigenvalues --    1.44209   1.44403   1.44785   1.45120   1.45588
 Alpha virt. eigenvalues --    1.46770   1.47038   1.47375   1.47957   1.48069
 Alpha virt. eigenvalues --    1.48672   1.48760   1.49107   1.49711   1.50678
 Alpha virt. eigenvalues --    1.51009   1.51153   1.51541   1.52024   1.52330
 Alpha virt. eigenvalues --    1.52553   1.52722   1.53083   1.53532   1.53665
 Alpha virt. eigenvalues --    1.53921   1.54195   1.54521   1.54624   1.54830
 Alpha virt. eigenvalues --    1.55511   1.55536   1.55634   1.55674   1.56214
 Alpha virt. eigenvalues --    1.56315   1.56645   1.56848   1.56948   1.57472
 Alpha virt. eigenvalues --    1.57580   1.57996   1.58327   1.58456   1.58590
 Alpha virt. eigenvalues --    1.59087   1.59974   1.60045   1.60438   1.60669
 Alpha virt. eigenvalues --    1.60743   1.61667   1.61826   1.62173   1.62663
 Alpha virt. eigenvalues --    1.63433   1.63788   1.64450   1.64788   1.65058
 Alpha virt. eigenvalues --    1.65800   1.66356   1.66511   1.66908   1.67469
 Alpha virt. eigenvalues --    1.67830   1.67914   1.68166   1.68324   1.68488
 Alpha virt. eigenvalues --    1.69104   1.69471   1.70110   1.70476   1.71252
 Alpha virt. eigenvalues --    1.71663   1.71907   1.72076   1.72557   1.72825
 Alpha virt. eigenvalues --    1.72938   1.73376   1.73478   1.73670   1.73836
 Alpha virt. eigenvalues --    1.73889   1.74129   1.74784   1.74896   1.75022
 Alpha virt. eigenvalues --    1.75345   1.75405   1.75520   1.75580   1.75908
 Alpha virt. eigenvalues --    1.75932   1.76866   1.76941   1.77350   1.77622
 Alpha virt. eigenvalues --    1.77682   1.77840   1.78231   1.78372   1.78590
 Alpha virt. eigenvalues --    1.78727   1.78870   1.79017   1.79147   1.79342
 Alpha virt. eigenvalues --    1.79855   1.79985   1.80239   1.80443   1.80778
 Alpha virt. eigenvalues --    1.80964   1.81088   1.81258   1.81352   1.81535
 Alpha virt. eigenvalues --    1.81872   1.81971   1.82065   1.82396   1.82822
 Alpha virt. eigenvalues --    1.83149   1.83367   1.83506   1.83663   1.83762
 Alpha virt. eigenvalues --    1.83986   1.84263   1.84322   1.84334   1.84818
 Alpha virt. eigenvalues --    1.84979   1.85021   1.85295   1.85623   1.85657
 Alpha virt. eigenvalues --    1.85964   1.86007   1.86303   1.86372   1.86595
 Alpha virt. eigenvalues --    1.86865   1.87208   1.87644   1.87699   1.88161
 Alpha virt. eigenvalues --    1.88251   1.88307   1.88470   1.88527   1.88617
 Alpha virt. eigenvalues --    1.88986   1.89536   1.89962   1.90111   1.90604
 Alpha virt. eigenvalues --    1.90957   1.91276   1.91359   1.91612   1.91898
 Alpha virt. eigenvalues --    1.92097   1.92174   1.92538   1.92827   1.93143
 Alpha virt. eigenvalues --    1.93448   1.93767   1.93846   1.94133   1.94432
 Alpha virt. eigenvalues --    1.94823   1.95063   1.95482   1.95551   1.95815
 Alpha virt. eigenvalues --    1.96063   1.96291   1.96604   1.96916   1.97124
 Alpha virt. eigenvalues --    1.97157   1.97693   1.98049   1.98269   1.98368
 Alpha virt. eigenvalues --    1.98392   1.98578   1.99226   1.99478   1.99765
 Alpha virt. eigenvalues --    2.00080   2.00175   2.00565   2.01252   2.01393
 Alpha virt. eigenvalues --    2.01710   2.01833   2.02249   2.02437   2.02965
 Alpha virt. eigenvalues --    2.03118   2.03303   2.03892   2.03983   2.04620
 Alpha virt. eigenvalues --    2.04756   2.04863   2.04966   2.05128   2.05582
 Alpha virt. eigenvalues --    2.05859   2.06550   2.06672   2.06834   2.06994
 Alpha virt. eigenvalues --    2.07590   2.07709   2.07917   2.08682   2.08928
 Alpha virt. eigenvalues --    2.09017   2.09239   2.09615   2.09893   2.10231
 Alpha virt. eigenvalues --    2.10390   2.10581   2.10968   2.11503   2.11903
 Alpha virt. eigenvalues --    2.12185   2.12732   2.12815   2.13071   2.13321
 Alpha virt. eigenvalues --    2.13623   2.13921   2.14431   2.14684   2.15024
 Alpha virt. eigenvalues --    2.15103   2.15413   2.16863   2.17471   2.17597
 Alpha virt. eigenvalues --    2.17937   2.18418   2.18924   2.19015   2.19540
 Alpha virt. eigenvalues --    2.19780   2.19906   2.20619   2.21151   2.21201
 Alpha virt. eigenvalues --    2.21772   2.22256   2.22540   2.23013   2.23559
 Alpha virt. eigenvalues --    2.23864   2.23892   2.24327   2.24832   2.25187
 Alpha virt. eigenvalues --    2.25717   2.25991   2.26383   2.26443   2.26813
 Alpha virt. eigenvalues --    2.27242   2.27458   2.28177   2.28509   2.28989
 Alpha virt. eigenvalues --    2.29562   2.30022   2.30735   2.30800   2.31382
 Alpha virt. eigenvalues --    2.31662   2.31777   2.32184   2.32673   2.33023
 Alpha virt. eigenvalues --    2.33335   2.33741   2.34127   2.34229   2.34503
 Alpha virt. eigenvalues --    2.34706   2.34940   2.35183   2.35885   2.36604
 Alpha virt. eigenvalues --    2.36785   2.36926   2.37215   2.37571   2.37780
 Alpha virt. eigenvalues --    2.38032   2.38139   2.39208   2.39429   2.39521
 Alpha virt. eigenvalues --    2.39803   2.40033   2.40757   2.40974   2.41244
 Alpha virt. eigenvalues --    2.41558   2.42026   2.42739   2.42921   2.43457
 Alpha virt. eigenvalues --    2.43608   2.43683   2.44022   2.44591   2.44813
 Alpha virt. eigenvalues --    2.44958   2.45427   2.45498   2.46054   2.47053
 Alpha virt. eigenvalues --    2.47219   2.47465   2.47737   2.48372   2.48648
 Alpha virt. eigenvalues --    2.48961   2.50131   2.50733   2.51064   2.51683
 Alpha virt. eigenvalues --    2.52181   2.52345   2.53224   2.53416   2.54047
 Alpha virt. eigenvalues --    2.54104   2.54265   2.55034   2.55640   2.55898
 Alpha virt. eigenvalues --    2.56001   2.56481   2.56817   2.57192   2.58140
 Alpha virt. eigenvalues --    2.58296   2.58936   2.59378   2.59445   2.60015
 Alpha virt. eigenvalues --    2.60462   2.60577   2.60815   2.61374   2.61540
 Alpha virt. eigenvalues --    2.62693   2.62757   2.63104   2.63277   2.63897
 Alpha virt. eigenvalues --    2.64165   2.64290   2.64818   2.65057   2.65398
 Alpha virt. eigenvalues --    2.65441   2.65978   2.66280   2.67689   2.67871
 Alpha virt. eigenvalues --    2.67955   2.68761   2.68993   2.69208   2.69571
 Alpha virt. eigenvalues --    2.70459   2.70564   2.70880   2.70968   2.71610
 Alpha virt. eigenvalues --    2.72384   2.72565   2.73194   2.73535   2.73905
 Alpha virt. eigenvalues --    2.73980   2.74715   2.75371   2.75543   2.75589
 Alpha virt. eigenvalues --    2.75846   2.76314   2.76936   2.77129   2.77630
 Alpha virt. eigenvalues --    2.77718   2.78110   2.78602   2.79400   2.80053
 Alpha virt. eigenvalues --    2.80244   2.81087   2.82011   2.82885   2.83850
 Alpha virt. eigenvalues --    2.84152   2.85050   2.85587   2.85905   2.85967
 Alpha virt. eigenvalues --    2.86673   2.87157   2.87610   2.87961   2.88161
 Alpha virt. eigenvalues --    2.88904   2.88935   2.89425   2.89597   2.90832
 Alpha virt. eigenvalues --    2.91150   2.91793   2.92068   2.92635   2.92856
 Alpha virt. eigenvalues --    2.93149   2.93463   2.93588   2.93670   2.94027
 Alpha virt. eigenvalues --    2.94238   2.94652   2.94704   2.95284   2.95589
 Alpha virt. eigenvalues --    2.95722   2.95959   2.96398   2.97023   2.97365
 Alpha virt. eigenvalues --    2.98219   2.98422   2.98500   2.98564   2.98727
 Alpha virt. eigenvalues --    2.99359   2.99794   3.00022   3.00454   3.00836
 Alpha virt. eigenvalues --    3.00853   3.01541   3.01662   3.01777   3.01938
 Alpha virt. eigenvalues --    3.02524   3.02820   3.02954   3.03156   3.03346
 Alpha virt. eigenvalues --    3.03690   3.03741   3.04161   3.04426   3.04994
 Alpha virt. eigenvalues --    3.05119   3.05331   3.05786   3.06139   3.06298
 Alpha virt. eigenvalues --    3.07666   3.07708   3.08456   3.09052   3.09296
 Alpha virt. eigenvalues --    3.10095   3.10447   3.11497   3.11639   3.12842
 Alpha virt. eigenvalues --    3.13257   3.13893   3.14482   3.14641   3.14979
 Alpha virt. eigenvalues --    3.15988   3.16726   3.17369   3.17591   3.17712
 Alpha virt. eigenvalues --    3.18406   3.20530   3.22107   3.23625   3.24827
 Alpha virt. eigenvalues --    3.25441   3.27784   3.34054   3.38210   3.39164
 Alpha virt. eigenvalues --    3.43501   3.44670   3.47548   3.49253   3.51748
 Alpha virt. eigenvalues --    3.56828   3.58912   3.61343   3.65860   3.66507
 Alpha virt. eigenvalues --    3.67936   3.70009
          Condensed to atoms (all electrons):
 Mulliken charges:
               1
     1  Mg   0.965338
     2  C   -0.064397
     3  C   -0.044464
     4  C   -0.028522
     5  C   -0.071859
     6  N   -0.329444
     7  C    0.049503
     8  C   -0.134872
     9  C   -0.143196
    10  C    0.048224
    11  C    0.029515
    12  C    0.048773
    13  C   -0.079357
    14  C    0.238134
    15  O   -0.211337
    16  O   -0.376970
    17  N   -0.534515
    18  C    0.161362
    19  C   -0.153161
    20  C   -0.096259
    21  C    0.182975
    22  C    0.033956
    23  C    0.010681
    24  O   -0.253206
    25  C    0.028600
    26  N   -0.379335
    27  C    0.039423
    28  C   -0.104949
    29  C   -0.053111
    30  C    0.073522
    31  C    0.007639
    32  C   -0.028023
    33  C   -0.087813
    34  N   -0.477719
    35  C    0.121728
    36  C   -0.213711
    37  C   -0.012584
    38  C    0.172823
    39  C    0.060761
    40  C    0.142384
    41  O   -0.172292
    42  C   -0.096902
    43  C    0.312642
    44  O   -0.205027
    45  O   -0.438215
    46  C    0.119278
    47  C    0.221236
    48  C   -0.100888
    49  C   -0.245682
    50  C    0.036815
    51  C    0.027818
    52  C   -0.059375
    53  C   -0.040385
    54  C   -0.186524
    55  C   -0.008227
    56  C   -0.027992
    57  C   -0.096236
    58  C    0.002243
    59  C   -0.206178
    60  C    0.006812
    61  C   -0.037205
    62  C   -0.035610
    63  C   -0.037258
    64  C   -0.253538
    65  C   -0.059001
    66  C   -0.001720
    67  H    0.005789
    68  H    0.022616
    69  H   -0.004845
    70  H    0.054002
    71  H    0.055289
    72  H    0.055656
    73  H    0.048842
    74  H    0.040052
    75  H    0.046316
    76  H    0.043165
    77  H    0.064691
    78  H    0.042265
    79  H    0.066153
    80  H    0.036713
    81  H    0.039175
    82  H    0.063345
    83  H    0.067979
    84  H    0.048309
    85  H    0.055186
    86  H    0.041370
    87  H    0.055547
    88  H    0.030327
    89  H    0.047563
    90  H    0.038427
    91  H    0.042524
    92  H    0.044829
    93  H    0.027490
    94  H    0.057351
    95  H    0.029645
    96  H    0.061411
    97  H    0.074879
    98  H    0.074884
    99  H    0.059186
   100  H    0.067737
   101  H    0.051334
   102  H    0.064357
   103  H    0.050668
   104  H    0.028959
   105  H    0.035994
   106  H    0.070390
   107  H    0.033401
   108  H    0.025288
   109  H    0.026238
   110  H    0.044053
   111  H    0.056268
   112  H    0.021586
   113  H    0.019804
   114  H    0.037976
   115  H    0.039457
   116  H    0.040014
   117  H    0.023073
   118  H    0.028102
   119  H    0.040609
   120  H    0.036466
   121  H    0.032596
   122  H    0.015646
   123  H    0.017194
   124  H    0.035540
   125  H    0.034099
   126  H    0.028717
   127  H    0.037458
   128  H    0.023965
   129  H    0.030099
   130  H    0.024394
   131  H    0.026987
   132  H    0.044664
   133  H    0.037757
   134  H    0.037205
   135  H    0.031548
   136  H    0.063315
   137  H    0.039301
   138  H    0.023111
   139  H    0.047464
   140  H    0.035908
 Sum of Mulliken charges =  -0.00000
 Mulliken charges with hydrogens summed into heavy atoms:
               1
     1  Mg   0.965338
     2  C   -0.064397
     3  C   -0.038675
     4  C   -0.005906
     5  C   -0.076704
     6  N   -0.329444
     7  C    0.049503
     8  C   -0.080870
     9  C   -0.087907
    10  C    0.048224
    11  C    0.174066
    12  C    0.138254
    13  C    0.027600
    14  C    0.238134
    15  O   -0.211337
    16  O   -0.376970
    17  N   -0.534515
    18  C    0.161362
    19  C   -0.153161
    20  C   -0.096259
    21  C    0.182975
    22  C    0.175996
    23  C    0.010681
    24  O   -0.253206
    25  C    0.208233
    26  N   -0.379335
    27  C    0.039423
    28  C   -0.049763
    29  C   -0.011741
    30  C    0.073522
    31  C    0.141075
    32  C    0.052928
    33  C    0.041858
    34  N   -0.477719
    35  C    0.121728
    36  C   -0.213711
    37  C   -0.012584
    38  C    0.172823
    39  C    0.226696
    40  C    0.142384
    41  O   -0.172292
    42  C   -0.022018
    43  C    0.312642
    44  O   -0.205027
    45  O   -0.438215
    46  C    0.297535
    47  C    0.336262
    48  C   -0.071929
    49  C   -0.245682
    50  C    0.176600
    51  C    0.079344
    52  C    0.040946
    53  C    0.001005
    54  C   -0.148548
    55  C    0.094317
    56  C    0.040718
    57  C   -0.027173
    58  C    0.035083
    59  C   -0.170639
    60  C    0.107086
    61  C    0.016858
    62  C    0.015771
    63  C    0.045163
    64  C   -0.216332
    65  C    0.075162
    66  C    0.104764
 Electronic spatial extent (au):  <R**2>=         122154.2785
 Charge=              0.0000 electrons
 Dipole moment (field-independent basis, Debye):
    X=              3.8686    Y=              1.8742    Z=              0.4543  Tot=              4.3226
 Quadrupole moment (field-independent basis, Debye-Ang):
   XX=           -364.7098   YY=           -427.5422   ZZ=           -399.8371
   XY=              2.0224   XZ=             14.8105   YZ=              9.4992
 Traceless Quadrupole moment (field-independent basis, Debye-Ang):
   XX=             32.6532   YY=            -30.1791   ZZ=             -2.4741
   XY=              2.0224   XZ=             14.8105   YZ=              9.4992
 Octapole moment (field-independent basis, Debye-Ang**2):
  XXX=           -135.4798  YYY=            116.1984  ZZZ=             -0.9401  XYY=            235.4205
  XXY=           -245.7069  XXZ=            -67.1076  XZZ=             -9.2155  YZZ=            -20.1028
  YYZ=             27.8244  XYZ=            -61.3787
 Hexadecapole moment (field-independent basis, Debye-Ang**3):
 XXXX=        -135479.5087 YYYY=         -20950.5774 ZZZZ=          -5356.5588 XXXY=           2296.3849
 XXXZ=            976.3537 YYYX=           -221.2889 YYYZ=             46.4584 ZZZX=            -41.4191
 ZZZY=            -67.6653 XXYY=         -28674.3080 XXZZ=         -24630.7313 YYZZ=          -4127.9293
 XXYZ=            353.6906 YYXZ=             75.0533 ZZXY=           -216.8062
 N-N= 9.568831849790D+03 E-N=-2.612839504514D+04  KE= 2.974675890483D+03
 Leave Link  601 at Wed May  4 12:56:19 2022, MaxMem= 10066329600 cpu:              11.7 elap:               0.6
 (Enter /sw/apps/gaussian-16.0/g16/l9999.exe)
 1\1\GINC-BP1-COMPUTE067\SP\RPBE1PBE TD-FC\def2SVP\C55H74Mg1N4O6\OF1564
 1\04-May-2022\0\\#p PBE1PBE/Def2SVP td=(nstates=5)\\step_1751_chromoph
 ore_13 TDDFT with PBE1PBE functional\\0,1\Mg,0,46.953,25.288,28.789\C,
 0,47.941,27.399,31.493\C,0,46.222,22.832,31.181\C,0,47.054,23.134,26.2
 92\C,0,48.403,27.703,26.646\N,0,47.016,25.17,31.111\C,0,47.432,26.14,3
 1.943\C,0,47.09,25.784,33.37\C,0,46.8,24.179,33.259\C,0,46.647,24.06,3
 1.753\C,0,47.846,23.275,34.032\C,0,45.818,26.52,33.859\C,0,45.855,27.0
 9,35.288\C,0,44.843,26.643,36.489\O,0,43.792,26.124,36.339\O,0,45.354,
 27.174,37.666\N,0,46.383,23.297,28.678\C,0,46.208,22.438,29.768\C,0,45
 .86,21.155,29.18\C,0,46.06,21.256,27.794\C,0,46.493,22.591,27.494\C,0,
 45.331,19.997,30.126\C,0,45.949,20.212,26.717\O,0,46.035,20.44,25.513\
 C,0,45.766,18.869,27.113\N,0,47.65,25.385,26.802\C,0,47.629,24.341,25.
 958\C,0,48.251,24.639,24.576\C,0,48.406,26.206,24.61\C,0,48.153,26.441
 ,26.112\C,0,49.581,23.836,24.334\C,0,47.433,26.922,23.582\C,0,46.023,2
 7.207,24.058\N,0,47.886,27.217,28.9\C,0,48.364,28.1,27.941\C,0,48.8,29
 .307,28.625\C,0,48.666,29.091,29.944\C,0,48.201,27.777,30.131\C,0,49.2
 4,30.716,27.945\C,0,48.83,29.675,31.292\O,0,49.238,30.766,31.564\C,0,4
 8.391,28.555,32.346\C,0,49.554,28.286,33.165\O,0,50.66,27.992,32.798\O
 ,0,49.127,28.307,34.548\C,0,50.016,27.887,35.688\C,0,44.471,26.952,38.
 846\C,0,44.638,25.561,39.403\C,0,44.256,25.11,40.591\C,0,43.742,25.984
 ,41.726\C,0,44.38,23.587,40.864\C,0,43.044,22.845,40.651\C,0,42.387,22
 .262,41.906\C,0,40.805,22.234,42.072\C,0,40.151,21.924,40.734\C,0,40.2
 04,23.543,42.739\C,0,39.483,23.145,44.072\C,0,39.361,24.361,45.107\C,0
 ,40.,24.225,46.505\C,0,39.037,24.509,47.688\C,0,41.299,25.038,46.568\C
 ,0,42.395,24.328,47.374\C,0,42.975,23.082,46.608\C,0,44.508,23.147,46.
 32\C,0,44.766,24.095,45.084\C,0,45.094,21.758,45.994\H,0,46.033,22.077
 ,31.946\H,0,47.185,22.449,25.452\H,0,48.875,28.483,26.045\H,0,47.918,2
 6.036,34.034\H,0,45.807,23.901,33.61\H,0,48.57,22.865,33.328\H,0,47.29
 9,22.527,34.605\H,0,48.355,23.964,34.705\H,0,44.962,25.857,33.989\H,0,
 45.481,27.242,33.116\H,0,45.843,28.179,35.257\H,0,46.9,27.014,35.589\H
 ,0,46.057,19.303,30.55\H,0,44.481,19.444,29.725\H,0,44.758,20.45,30.93
 4\H,0,44.747,18.893,27.498\H,0,46.649,18.704,27.73\H,0,45.775,18.28,26
 .196\H,0,47.539,24.328,23.811\H,0,49.418,26.509,24.341\H,0,49.718,22.9
 81,24.996\H,0,50.384,24.543,24.541\H,0,49.79,23.513,23.315\H,0,47.237,
 26.219,22.773\H,0,47.799,27.841,23.123\H,0,45.272,26.637,23.51\H,0,45.
 784,28.246,23.836\H,0,45.852,27.198,25.135\H,0,49.505,30.469,26.917\H,
 0,50.174,31.054,28.394\H,0,48.472,31.483,28.044\H,0,47.594,28.98,32.95
 6\H,0,50.083,28.609,36.502\H,0,51.053,27.71,35.404\H,0,49.596,26.996,3
 6.155\H,0,43.435,27.2,38.618\H,0,44.705,27.692,39.611\H,0,44.992,24.85
 4,38.652\H,0,43.345,26.923,41.339\H,0,44.5,26.078,42.502\H,0,42.876,25
 .502,42.18\H,0,44.721,23.404,41.883\H,0,45.171,23.096,40.297\H,0,43.15
 4,22.028,39.938\H,0,42.391,23.616,40.241\H,0,42.775,22.672,42.839\H,0,
 42.706,21.222,41.976\H,0,40.607,21.374,42.711\H,0,40.742,22.203,39.862
 \H,0,39.153,22.363,40.715\H,0,40.166,20.835,40.701\H,0,39.373,24.029,4
 2.228\H,0,40.933,24.349,42.83\H,0,39.87,22.23,44.522\H,0,38.443,22.917
 ,43.842\H,0,38.295,24.583,45.082\H,0,39.78,25.231,44.602\H,0,40.344,23
 .195,46.595\H,0,38.14,24.926,47.23\H,0,39.363,25.226,48.441\H,0,38.855
 ,23.603,48.266\H,0,41.032,25.962,47.081\H,0,41.739,25.222,45.588\H,0,4
 1.987,24.042,48.344\H,0,43.154,25.094,47.534\H,0,42.459,23.093,45.648\
 H,0,42.751,22.187,47.188\H,0,45.015,23.634,47.153\H,0,44.959,25.083,45
 .502\H,0,43.912,23.999,44.413\H,0,45.737,23.868,44.644\H,0,44.305,21.0
 07,45.944\H,0,45.723,21.574,46.865\H,0,45.538,21.634,45.006\\Version=E
 S64L-G16RevA.03\State=1-A\HF=-3005.3251559\RMSD=8.676e-09\PG=C01 [X(C5
 5H74Mg1N4O6)]\\@


 OF ALL THE WONDERS OF THE UNIVERSE, THE GREATEST IS MAN.

                                    -- ARISTOTLE
 Job cpu time:       0 days  8 hours  2 minutes 27.0 seconds.
 Elapsed time:       0 days  0 hours 20 minutes  9.9 seconds.
 File lengths (MBytes):  RWF=   8929 Int=      0 D2E=      0 Chk=    390 Scr=      1
 Normal termination of Gaussian 16 at Wed May  4 12:56:20 2022.
