 Entering Gaussian System, Link 0=g16
 Initial command:
 /sw/apps/gaussian-16.0/g16/l1.exe "/tmp/Gau-85379.inp" -scrdir="/tmp/"
 Entering Link 1 = /sw/apps/gaussian-16.0/g16/l1.exe PID=     85380.
  
 Copyright (c) 1988,1990,1992,1993,1995,1998,2003,2009,2016,
            Gaussian, Inc.  All Rights Reserved.
  
 This is part of the Gaussian(R) 16 program.  It is based on
 the Gaussian(R) 09 system (copyright 2009, Gaussian, Inc.),
 the Gaussian(R) 03 system (copyright 2003, Gaussian, Inc.),
 the Gaussian(R) 98 system (copyright 1998, Gaussian, Inc.),
 the Gaussian(R) 94 system (copyright 1995, Gaussian, Inc.),
 the Gaussian 92(TM) system (copyright 1992, Gaussian, Inc.),
 the Gaussian 90(TM) system (copyright 1990, Gaussian, Inc.),
 the Gaussian 88(TM) system (copyright 1988, Gaussian, Inc.),
 the Gaussian 86(TM) system (copyright 1986, Carnegie Mellon
 University), and the Gaussian 82(TM) system (copyright 1983,
 Carnegie Mellon University). Gaussian is a federally registered
 trademark of Gaussian, Inc.
  
 This software contains proprietary and confidential information,
 including trade secrets, belonging to Gaussian, Inc.
  
 This software is provided under written license and may be
 used, copied, transmitted, or stored only in accord with that
 written license.
  
 The following legend is applicable only to US Government
 contracts under FAR:
  
                    RESTRICTED RIGHTS LEGEND
  
 Use, reproduction and disclosure by the US Government is
 subject to restrictions as set forth in subparagraphs (a)
 and (c) of the Commercial Computer Software - Restricted
 Rights clause in FAR 52.227-19.
  
 Gaussian, Inc.
 340 Quinnipiac St., Bldg. 40, Wallingford CT 06492
  
  
 ---------------------------------------------------------------
 Warning -- This program may not be used in any manner that
 competes with the business of Gaussian, Inc. or will provide
 assistance to any competitor of Gaussian, Inc.  The licensee
 of this program is prohibited from giving any competitor of
 Gaussian, Inc. access to this program.  By using this program,
 the user acknowledges that Gaussian, Inc. is engaged in the
 business of creating and licensing software in the field of
 computational chemistry and represents and warrants to the
 licensee that it is not a competitor of Gaussian, Inc. and that
 it will not use this program in any manner prohibited above.
 ---------------------------------------------------------------
  

 Cite this work as:
 Gaussian 16, Revision A.03,
 M. J. Frisch, G. W. Trucks, H. B. Schlegel, G. E. Scuseria, 
 M. A. Robb, J. R. Cheeseman, G. Scalmani, V. Barone, 
 G. A. Petersson, H. Nakatsuji, X. Li, M. Caricato, A. V. Marenich, 
 J. Bloino, B. G. Janesko, R. Gomperts, B. Mennucci, H. P. Hratchian, 
 J. V. Ortiz, A. F. Izmaylov, J. L. Sonnenberg, D. Williams-Young, 
 F. Ding, F. Lipparini, F. Egidi, J. Goings, B. Peng, A. Petrone, 
 T. Henderson, D. Ranasinghe, V. G. Zakrzewski, J. Gao, N. Rega, 
 G. Zheng, W. Liang, M. Hada, M. Ehara, K. Toyota, R. Fukuda, 
 J. Hasegawa, M. Ishida, T. Nakajima, Y. Honda, O. Kitao, H. Nakai, 
 T. Vreven, K. Throssell, J. A. Montgomery, Jr., J. E. Peralta, 
 F. Ogliaro, M. J. Bearpark, J. J. Heyd, E. N. Brothers, K. N. Kudin, 
 V. N. Staroverov, T. A. Keith, R. Kobayashi, J. Normand, 
 K. Raghavachari, A. P. Rendell, J. C. Burant, S. S. Iyengar, 
 J. Tomasi, M. Cossi, J. M. Millam, M. Klene, C. Adamo, R. Cammi, 
 J. W. Ochterski, R. L. Martin, K. Morokuma, O. Farkas, 
 J. B. Foresman, and D. J. Fox, Gaussian, Inc., Wallingford CT, 2016.
 
 ******************************************
 Gaussian 16:  ES64L-G16RevA.03 25-Dec-2016
                 5-May-2022 
 ******************************************
 %nproc=24
 Will use up to   24 processors via shared memory.
 %mem=75GB
 ---------------------------------
 #p PBE1PBE/Def2SVP td=(nstates=5)
 ---------------------------------
 1/38=1,172=1/1;
 2/12=2,17=6,18=5,40=1/2;
 3/5=43,7=101,11=9,25=1,30=1,74=-13/1,2,3,8;
 4//1;
 5/5=2,38=5/2;
 8/6=1,10=1,108=5/1;
 9/41=5,42=1,70=2/14;
 6/7=2,8=2,9=2,10=2/1;
 99/5=1,9=1/99;
 Leave Link    1 at Thu May  5 00:52:11 2022, MaxMem= 10066329600 cpu:               0.9 elap:               0.0
 (Enter /sw/apps/gaussian-16.0/g16/l101.exe)
 ----------------------------------------------------
 step_501_chromophore_8 TDDFT with PBE1PBE functional
 ----------------------------------------------------
 Symbolic Z-matrix:
 Charge =  0 Multiplicity = 1
 Mg                    44.018    2.918     47.661 
 C                     42.06     5.715     47.019 
 C                     41.006    1.016     47.312 
 C                     45.799    0.157     47.762 
 C                     46.879    4.917     47.241 
 N                     41.832    3.33      47.098 
 C                     41.294    4.592     46.981 
 C                     39.795    4.5       46.683 
 C                     39.487    3.026     47.066 
 C                     40.847    2.382     47.129 
 C                     38.692    2.744     48.401 
 C                     39.448    4.839     45.224 
 C                     38.003    4.934     44.914 
 C                     37.595    5.768     43.64 
 O                     36.561    6.393     43.62 
 O                     38.574    5.758     42.608 
 N                     43.493    0.834     47.541 
 C                     42.214    0.267     47.428 
 C                     42.359   -1.162     47.434 
 C                     43.776   -1.438     47.427 
 C                     44.432   -0.097     47.608 
 C                     41.156   -2.134     47.286 
 C                     44.342   -2.859     47.341 
 O                     43.627   -3.844     47.422 
 C                     45.801   -3.041     47.163 
 N                     46.062    2.629     47.741 
 C                     46.538    1.382     47.824 
 C                     48.115    1.403     47.696 
 C                     48.51     2.913     47.47 
 C                     47.02     3.561     47.426 
 C                     48.934    0.687     48.802 
 C                     49.246    3.077     46.123 
 C                     50.259    4.227     46.068 
 N                     44.474    4.92      47.221 
 C                     45.652    5.613     47.207 
 C                     45.347    7.044     47.09 
 C                     43.98     7.117     47.109 
 C                     43.479    5.835     47.12 
 C                     46.366    8.188     47.106 
 C                     42.874    8.023     47.028 
 O                     42.816    9.227     46.979 
 C                     41.577    7.148     46.981 
 C                     40.791    7.445     48.21 
 O                     41.191    7.462     49.341 
 O                     39.437    7.571     47.854 
 C                     38.526    7.781     48.943 
 C                     38.071    6.418     41.375 
 C                     39.089    6.26      40.305 
 C                     39.318    7.078     39.267 
 C                     38.626    8.382     38.897 
 C                     40.522    6.69      38.405 
 C                     40.47     5.398     37.428 
 C                     41.373    4.297     37.994 
 C                     41.754    3.324     36.79 
 C                     41.626    1.87      37.238 
 C                     43.203    3.523     36.403 
 C                     43.287    3.601     34.862 
 C                     43.848    4.897     34.344 
 C                     44.335    4.78      32.912 
 C                     45.894    4.742     32.773 
 C                     43.812    5.895     32.018 
 C                     42.755    5.417     30.999 
 C                     42.976    6.002     29.572 
 C                     43.474    4.948     28.519 
 C                     42.352    4.127     27.89 
 C                     44.281    5.686     27.419 
 H                     40.026    0.536     47.285 
 H                     46.516   -0.665     47.822 
 H                     47.746    5.578     47.177 
 H                     39.308    5.144     47.414 
 H                     38.966    2.437     46.312 
 H                     37.88     2.088     48.088 
 H                     38.536    3.577     49.087 
 H                     39.33     2.099     49.005 
 H                     39.754    4.1       44.483 
 H                     39.939    5.768     44.934 
 H                     37.523    5.358     45.796 
 H                     37.596    3.927     44.824 
 H                     41.341   -2.416     46.249 
 H                     40.169   -1.672     47.256 
 H                     41.018   -3.02      47.906 
 H                     46.059   -2.382     46.334 
 H                     45.982   -4.066     46.839 
 H                     46.212   -2.737     48.126 
 H                     48.338    0.834     46.793 
 H                     49.079    3.37      48.279 
 H                     49.328   -0.239     48.382 
 H                     48.3      0.568     49.68 
 H                     49.825    1.27      49.035 
 H                     48.453    3.223     45.39 
 H                     49.732    2.168     45.768 
 H                     51.186    3.72      45.798 
 H                     50.324    4.819     46.981 
 H                     50.021    4.901     45.245 
 H                     46.22     8.977     46.369 
 H                     47.304    7.651     46.963 
 H                     46.441    8.506     48.146 
 H                     41.039    7.449     46.082 
 H                     38.182    8.812     48.86 
 H                     38.863    7.606     49.965 
 H                     37.694    7.091     48.805 
 H                     37.828    7.459     41.589 
 H                     37.147    5.93      41.063 
 H                     39.748    5.4       40.426 
 H                     37.733    8.49      39.512 
 H                     38.241    8.371     37.878 
 H                     39.238    9.275     39.025 
 H                     41.355    6.687     39.107 
 H                     40.783    7.52      37.748 
 H                     40.956    5.674     36.493 
 H                     39.46     5.042     37.223 
 H                     40.721    3.838     38.737 
 H                     42.236    4.674     38.544 
 H                     40.926    3.507     36.106 
 H                     40.604    1.51      37.355 
 H                     42.031    1.915     38.249 
 H                     42.104    1.149     36.574 
 H                     43.829    2.679     36.693 
 H                     43.613    4.403     36.899 
 H                     42.272    3.527     34.472 
 H                     43.873    2.735     34.554 
 H                     44.606    5.076     35.107 
 H                     42.995    5.574     34.358 
 H                     43.961    3.856     32.47 
 H                     46.192    4.956     31.747 
 H                     46.206    3.732     33.037 
 H                     46.36     5.452     33.456 
 H                     44.626    6.309     31.423 
 H                     43.578    6.751     32.65 
 H                     41.844    5.856     31.405 
 H                     42.705    4.33      30.93 
 H                     43.524    6.942     29.641 
 H                     42.033    6.437     29.243 
 H                     44.181    4.323     29.062 
 H                     41.691    3.784     28.686 
 H                     42.642    3.268     27.284 
 H                     41.658    4.81      27.401 
 H                     44.669    4.981     26.684 
 H                     45.261    6.003     27.775 
 H                     43.663    6.462     26.968 
 
 ITRead=  0  0  0  0  0  0  0  0  0  0  0  0  0  0  0  0  0  0  0  0
 ITRead=  0  0  0  0  0  0  0  0  0  0  0  0  0  0  0  0  0  0  0  0
 ITRead=  0  0  0  0  0  0  0  0  0  0  0  0  0  0  0  0  0  0  0  0
 ITRead=  0  0  0  0  0  0  0  0  0  0  0  0  0  0  0  0  0  0  0  0
 ITRead=  0  0  0  0  0  0  0  0  0  0  0  0  0  0  0  0  0  0  0  0
 ITRead=  0  0  0  0  0  0  0  0  0  0  0  0  0  0  0  0  0  0  0  0
 ITRead=  0  0  0  0  0  0  0  0  0  0  0  0  0  0  0  0  0  0  0  0
 MicOpt= -1 -1 -1 -1 -1 -1 -1 -1 -1 -1 -1 -1 -1 -1 -1 -1 -1 -1 -1 -1
 MicOpt= -1 -1 -1 -1 -1 -1 -1 -1 -1 -1 -1 -1 -1 -1 -1 -1 -1 -1 -1 -1
 MicOpt= -1 -1 -1 -1 -1 -1 -1 -1 -1 -1 -1 -1 -1 -1 -1 -1 -1 -1 -1 -1
 MicOpt= -1 -1 -1 -1 -1 -1 -1 -1 -1 -1 -1 -1 -1 -1 -1 -1 -1 -1 -1 -1
 MicOpt= -1 -1 -1 -1 -1 -1 -1 -1 -1 -1 -1 -1 -1 -1 -1 -1 -1 -1 -1 -1
 MicOpt= -1 -1 -1 -1 -1 -1 -1 -1 -1 -1 -1 -1 -1 -1 -1 -1 -1 -1 -1 -1
 MicOpt= -1 -1 -1 -1 -1 -1 -1 -1 -1 -1 -1 -1 -1 -1 -1 -1 -1 -1 -1 -1
 NAtoms=    140 NQM=      140 NQMF=       0 NMMI=      0 NMMIF=      0
                NMic=       0 NMicF=      0.
                    Isotopes and Nuclear Properties:
 (Nuclear quadrupole moments (NQMom) in fm**2, nuclear magnetic moments (NMagM)
  in nuclear magnetons)

  Atom         1           2           3           4           5           6           7           8           9          10
 IAtWgt=          24          12          12          12          12          14          12          12          12          12
 AtmWgt=  23.9850450  12.0000000  12.0000000  12.0000000  12.0000000  14.0030740  12.0000000  12.0000000  12.0000000  12.0000000
 NucSpn=           0           0           0           0           0           2           0           0           0           0
 AtZEff=  -0.0000000  -0.0000000  -0.0000000  -0.0000000  -0.0000000  -0.0000000  -0.0000000  -0.0000000  -0.0000000  -0.0000000
 NQMom=    0.0000000   0.0000000   0.0000000   0.0000000   0.0000000   2.0440000   0.0000000   0.0000000   0.0000000   0.0000000
 NMagM=    0.0000000   0.0000000   0.0000000   0.0000000   0.0000000   0.4037610   0.0000000   0.0000000   0.0000000   0.0000000
 AtZNuc=  12.0000000   6.0000000   6.0000000   6.0000000   6.0000000   7.0000000   6.0000000   6.0000000   6.0000000   6.0000000

  Atom        11          12          13          14          15          16          17          18          19          20
 IAtWgt=          12          12          12          12          16          16          14          12          12          12
 AtmWgt=  12.0000000  12.0000000  12.0000000  12.0000000  15.9949146  15.9949146  14.0030740  12.0000000  12.0000000  12.0000000
 NucSpn=           0           0           0           0           0           0           2           0           0           0
 AtZEff=  -0.0000000  -0.0000000  -0.0000000  -0.0000000  -0.0000000  -0.0000000  -0.0000000  -0.0000000  -0.0000000  -0.0000000
 NQMom=    0.0000000   0.0000000   0.0000000   0.0000000   0.0000000   0.0000000   2.0440000   0.0000000   0.0000000   0.0000000
 NMagM=    0.0000000   0.0000000   0.0000000   0.0000000   0.0000000   0.0000000   0.4037610   0.0000000   0.0000000   0.0000000
 AtZNuc=   6.0000000   6.0000000   6.0000000   6.0000000   8.0000000   8.0000000   7.0000000   6.0000000   6.0000000   6.0000000

  Atom        21          22          23          24          25          26          27          28          29          30
 IAtWgt=          12          12          12          16          12          14          12          12          12          12
 AtmWgt=  12.0000000  12.0000000  12.0000000  15.9949146  12.0000000  14.0030740  12.0000000  12.0000000  12.0000000  12.0000000
 NucSpn=           0           0           0           0           0           2           0           0           0           0
 AtZEff=  -0.0000000  -0.0000000  -0.0000000  -0.0000000  -0.0000000  -0.0000000  -0.0000000  -0.0000000  -0.0000000  -0.0000000
 NQMom=    0.0000000   0.0000000   0.0000000   0.0000000   0.0000000   2.0440000   0.0000000   0.0000000   0.0000000   0.0000000
 NMagM=    0.0000000   0.0000000   0.0000000   0.0000000   0.0000000   0.4037610   0.0000000   0.0000000   0.0000000   0.0000000
 AtZNuc=   6.0000000   6.0000000   6.0000000   8.0000000   6.0000000   7.0000000   6.0000000   6.0000000   6.0000000   6.0000000

  Atom        31          32          33          34          35          36          37          38          39          40
 IAtWgt=          12          12          12          14          12          12          12          12          12          12
 AtmWgt=  12.0000000  12.0000000  12.0000000  14.0030740  12.0000000  12.0000000  12.0000000  12.0000000  12.0000000  12.0000000
 NucSpn=           0           0           0           2           0           0           0           0           0           0
 AtZEff=  -0.0000000  -0.0000000  -0.0000000  -0.0000000  -0.0000000  -0.0000000  -0.0000000  -0.0000000  -0.0000000  -0.0000000
 NQMom=    0.0000000   0.0000000   0.0000000   2.0440000   0.0000000   0.0000000   0.0000000   0.0000000   0.0000000   0.0000000
 NMagM=    0.0000000   0.0000000   0.0000000   0.4037610   0.0000000   0.0000000   0.0000000   0.0000000   0.0000000   0.0000000
 AtZNuc=   6.0000000   6.0000000   6.0000000   7.0000000   6.0000000   6.0000000   6.0000000   6.0000000   6.0000000   6.0000000

  Atom        41          42          43          44          45          46          47          48          49          50
 IAtWgt=          16          12          12          16          16          12          12          12          12          12
 AtmWgt=  15.9949146  12.0000000  12.0000000  15.9949146  15.9949146  12.0000000  12.0000000  12.0000000  12.0000000  12.0000000
 NucSpn=           0           0           0           0           0           0           0           0           0           0
 AtZEff=  -0.0000000  -0.0000000  -0.0000000  -0.0000000  -0.0000000  -0.0000000  -0.0000000  -0.0000000  -0.0000000  -0.0000000
 NQMom=    0.0000000   0.0000000   0.0000000   0.0000000   0.0000000   0.0000000   0.0000000   0.0000000   0.0000000   0.0000000
 NMagM=    0.0000000   0.0000000   0.0000000   0.0000000   0.0000000   0.0000000   0.0000000   0.0000000   0.0000000   0.0000000
 AtZNuc=   8.0000000   6.0000000   6.0000000   8.0000000   8.0000000   6.0000000   6.0000000   6.0000000   6.0000000   6.0000000

  Atom        51          52          53          54          55          56          57          58          59          60
 IAtWgt=          12          12          12          12          12          12          12          12          12          12
 AtmWgt=  12.0000000  12.0000000  12.0000000  12.0000000  12.0000000  12.0000000  12.0000000  12.0000000  12.0000000  12.0000000
 NucSpn=           0           0           0           0           0           0           0           0           0           0
 AtZEff=  -0.0000000  -0.0000000  -0.0000000  -0.0000000  -0.0000000  -0.0000000  -0.0000000  -0.0000000  -0.0000000  -0.0000000
 NQMom=    0.0000000   0.0000000   0.0000000   0.0000000   0.0000000   0.0000000   0.0000000   0.0000000   0.0000000   0.0000000
 NMagM=    0.0000000   0.0000000   0.0000000   0.0000000   0.0000000   0.0000000   0.0000000   0.0000000   0.0000000   0.0000000
 AtZNuc=   6.0000000   6.0000000   6.0000000   6.0000000   6.0000000   6.0000000   6.0000000   6.0000000   6.0000000   6.0000000

  Atom        61          62          63          64          65          66          67          68          69          70
 IAtWgt=          12          12          12          12          12          12           1           1           1           1
 AtmWgt=  12.0000000  12.0000000  12.0000000  12.0000000  12.0000000  12.0000000   1.0078250   1.0078250   1.0078250   1.0078250
 NucSpn=           0           0           0           0           0           0           1           1           1           1
 AtZEff=  -0.0000000  -0.0000000  -0.0000000  -0.0000000  -0.0000000  -0.0000000  -0.0000000  -0.0000000  -0.0000000  -0.0000000
 NQMom=    0.0000000   0.0000000   0.0000000   0.0000000   0.0000000   0.0000000   0.0000000   0.0000000   0.0000000   0.0000000
 NMagM=    0.0000000   0.0000000   0.0000000   0.0000000   0.0000000   0.0000000   2.7928460   2.7928460   2.7928460   2.7928460
 AtZNuc=   6.0000000   6.0000000   6.0000000   6.0000000   6.0000000   6.0000000   1.0000000   1.0000000   1.0000000   1.0000000

  Atom        71          72          73          74          75          76          77          78          79          80
 IAtWgt=           1           1           1           1           1           1           1           1           1           1
 AtmWgt=   1.0078250   1.0078250   1.0078250   1.0078250   1.0078250   1.0078250   1.0078250   1.0078250   1.0078250   1.0078250
 NucSpn=           1           1           1           1           1           1           1           1           1           1
 AtZEff=  -0.0000000  -0.0000000  -0.0000000  -0.0000000  -0.0000000  -0.0000000  -0.0000000  -0.0000000  -0.0000000  -0.0000000
 NQMom=    0.0000000   0.0000000   0.0000000   0.0000000   0.0000000   0.0000000   0.0000000   0.0000000   0.0000000   0.0000000
 NMagM=    2.7928460   2.7928460   2.7928460   2.7928460   2.7928460   2.7928460   2.7928460   2.7928460   2.7928460   2.7928460
 AtZNuc=   1.0000000   1.0000000   1.0000000   1.0000000   1.0000000   1.0000000   1.0000000   1.0000000   1.0000000   1.0000000

  Atom        81          82          83          84          85          86          87          88          89          90
 IAtWgt=           1           1           1           1           1           1           1           1           1           1
 AtmWgt=   1.0078250   1.0078250   1.0078250   1.0078250   1.0078250   1.0078250   1.0078250   1.0078250   1.0078250   1.0078250
 NucSpn=           1           1           1           1           1           1           1           1           1           1
 AtZEff=  -0.0000000  -0.0000000  -0.0000000  -0.0000000  -0.0000000  -0.0000000  -0.0000000  -0.0000000  -0.0000000  -0.0000000
 NQMom=    0.0000000   0.0000000   0.0000000   0.0000000   0.0000000   0.0000000   0.0000000   0.0000000   0.0000000   0.0000000
 NMagM=    2.7928460   2.7928460   2.7928460   2.7928460   2.7928460   2.7928460   2.7928460   2.7928460   2.7928460   2.7928460
 AtZNuc=   1.0000000   1.0000000   1.0000000   1.0000000   1.0000000   1.0000000   1.0000000   1.0000000   1.0000000   1.0000000

  Atom        91          92          93          94          95          96          97          98          99         100
 IAtWgt=           1           1           1           1           1           1           1           1           1           1
 AtmWgt=   1.0078250   1.0078250   1.0078250   1.0078250   1.0078250   1.0078250   1.0078250   1.0078250   1.0078250   1.0078250
 NucSpn=           1           1           1           1           1           1           1           1           1           1
 AtZEff=  -0.0000000  -0.0000000  -0.0000000  -0.0000000  -0.0000000  -0.0000000  -0.0000000  -0.0000000  -0.0000000  -0.0000000
 NQMom=    0.0000000   0.0000000   0.0000000   0.0000000   0.0000000   0.0000000   0.0000000   0.0000000   0.0000000   0.0000000
 NMagM=    2.7928460   2.7928460   2.7928460   2.7928460   2.7928460   2.7928460   2.7928460   2.7928460   2.7928460   2.7928460
 AtZNuc=   1.0000000   1.0000000   1.0000000   1.0000000   1.0000000   1.0000000   1.0000000   1.0000000   1.0000000   1.0000000

  Atom       101         102         103         104         105         106         107         108         109         110
 IAtWgt=           1           1           1           1           1           1           1           1           1           1
 AtmWgt=   1.0078250   1.0078250   1.0078250   1.0078250   1.0078250   1.0078250   1.0078250   1.0078250   1.0078250   1.0078250
 NucSpn=           1           1           1           1           1           1           1           1           1           1
 AtZEff=  -0.0000000  -0.0000000  -0.0000000  -0.0000000  -0.0000000  -0.0000000  -0.0000000  -0.0000000  -0.0000000  -0.0000000
 NQMom=    0.0000000   0.0000000   0.0000000   0.0000000   0.0000000   0.0000000   0.0000000   0.0000000   0.0000000   0.0000000
 NMagM=    2.7928460   2.7928460   2.7928460   2.7928460   2.7928460   2.7928460   2.7928460   2.7928460   2.7928460   2.7928460
 AtZNuc=   1.0000000   1.0000000   1.0000000   1.0000000   1.0000000   1.0000000   1.0000000   1.0000000   1.0000000   1.0000000

  Atom       111         112         113         114         115         116         117         118         119         120
 IAtWgt=           1           1           1           1           1           1           1           1           1           1
 AtmWgt=   1.0078250   1.0078250   1.0078250   1.0078250   1.0078250   1.0078250   1.0078250   1.0078250   1.0078250   1.0078250
 NucSpn=           1           1           1           1           1           1           1           1           1           1
 AtZEff=  -0.0000000  -0.0000000  -0.0000000  -0.0000000  -0.0000000  -0.0000000  -0.0000000  -0.0000000  -0.0000000  -0.0000000
 NQMom=    0.0000000   0.0000000   0.0000000   0.0000000   0.0000000   0.0000000   0.0000000   0.0000000   0.0000000   0.0000000
 NMagM=    2.7928460   2.7928460   2.7928460   2.7928460   2.7928460   2.7928460   2.7928460   2.7928460   2.7928460   2.7928460
 AtZNuc=   1.0000000   1.0000000   1.0000000   1.0000000   1.0000000   1.0000000   1.0000000   1.0000000   1.0000000   1.0000000

  Atom       121         122         123         124         125         126         127         128         129         130
 IAtWgt=           1           1           1           1           1           1           1           1           1           1
 AtmWgt=   1.0078250   1.0078250   1.0078250   1.0078250   1.0078250   1.0078250   1.0078250   1.0078250   1.0078250   1.0078250
 NucSpn=           1           1           1           1           1           1           1           1           1           1
 AtZEff=  -0.0000000  -0.0000000  -0.0000000  -0.0000000  -0.0000000  -0.0000000  -0.0000000  -0.0000000  -0.0000000  -0.0000000
 NQMom=    0.0000000   0.0000000   0.0000000   0.0000000   0.0000000   0.0000000   0.0000000   0.0000000   0.0000000   0.0000000
 NMagM=    2.7928460   2.7928460   2.7928460   2.7928460   2.7928460   2.7928460   2.7928460   2.7928460   2.7928460   2.7928460
 AtZNuc=   1.0000000   1.0000000   1.0000000   1.0000000   1.0000000   1.0000000   1.0000000   1.0000000   1.0000000   1.0000000

  Atom       131         132         133         134         135         136         137         138         139         140
 IAtWgt=           1           1           1           1           1           1           1           1           1           1
 AtmWgt=   1.0078250   1.0078250   1.0078250   1.0078250   1.0078250   1.0078250   1.0078250   1.0078250   1.0078250   1.0078250
 NucSpn=           1           1           1           1           1           1           1           1           1           1
 AtZEff=  -0.0000000  -0.0000000  -0.0000000  -0.0000000  -0.0000000  -0.0000000  -0.0000000  -0.0000000  -0.0000000  -0.0000000
 NQMom=    0.0000000   0.0000000   0.0000000   0.0000000   0.0000000   0.0000000   0.0000000   0.0000000   0.0000000   0.0000000
 NMagM=    2.7928460   2.7928460   2.7928460   2.7928460   2.7928460   2.7928460   2.7928460   2.7928460   2.7928460   2.7928460
 AtZNuc=   1.0000000   1.0000000   1.0000000   1.0000000   1.0000000   1.0000000   1.0000000   1.0000000   1.0000000   1.0000000
 Leave Link  101 at Thu May  5 00:52:11 2022, MaxMem= 10066329600 cpu:               3.5 elap:               0.2
 (Enter /sw/apps/gaussian-16.0/g16/l202.exe)
 Stoichiometry    C55H74MgN4O6
 Framework group  C1[X(C55H74MgN4O6)]
 Deg. of freedom   414
 Full point group                 C1      NOp   1
 Largest Abelian subgroup         C1      NOp   1
 Largest concise Abelian subgroup C1      NOp   1
                         Standard orientation:                         
 ---------------------------------------------------------------------
 Center     Atomic      Atomic             Coordinates (Angstroms)
 Number     Number       Type             X           Y           Z
 ---------------------------------------------------------------------
      1         12           0       -4.800259   -0.992765    0.193134
      2          6           0       -3.632759    2.133236    1.159673
      3          6           0       -4.533201    0.203712   -3.169704
      4          6           0       -5.416799   -4.033212   -0.893531
      5          6           0       -4.284133   -2.119782    3.482688
      6          7           0       -4.041126    0.901565   -0.855934
      7          6           0       -3.707523    2.063225   -0.196364
      8          6           0       -3.328140    3.151115   -1.204746
      9          6           0       -3.899468    2.568758   -2.527120
     10          6           0       -4.144282    1.118682   -2.202080
     11          6           0       -5.206078    3.215761   -3.133693
     12          6           0       -1.815815    3.423168   -1.258330
     13          6           0       -1.401055    4.578271   -2.087101
     14          6           0        0.004309    5.219765   -1.773202
     15          8           0        0.182498    6.406921   -1.911373
     16          8           0        0.957402    4.295604   -1.262218
     17          7           0       -4.949057   -1.838044   -1.780807
     18          6           0       -4.835557   -1.181471   -3.016173
     19          6           0       -5.057931   -2.147762   -4.055372
     20          6           0       -5.184094   -3.433135   -3.410381
     21          6           0       -5.211715   -3.126107   -1.938529
     22          6           0       -4.973516   -1.797774   -5.566755
     23          6           0       -5.342143   -4.740221   -4.193669
     24          8           0       -5.517762   -4.751530   -5.400748
     25          6           0       -5.288630   -6.026659   -3.461751
     26          7           0       -5.055396   -2.769168    1.216439
     27          6           0       -5.349185   -3.877649    0.528376
     28          6           0       -5.323394   -5.129215    1.496193
     29          6           0       -4.907573   -4.572134    2.911804
     30          6           0       -4.672396   -3.014283    2.512141
     31          6           0       -6.572815   -6.048623    1.513225
     32          6           0       -3.602325   -5.244595    3.388381
     33          6           0       -3.448064   -5.366686    4.909233
     34          7           0       -4.105925   -0.220336    2.018180
     35          6           0       -4.069159   -0.739718    3.281913
     36          6           0       -3.726395    0.338650    4.216852
     37          6           0       -3.644760    1.465082    3.442989
     38          6           0       -3.808337    1.097669    2.126594
     39          6           0       -3.643494    0.218184    5.741965
     40          6           0       -3.360926    2.868234    3.478170
     41          8           0       -3.134397    3.625516    4.389536
     42          6           0       -3.356003    3.364522    1.993678
     43          6           0       -4.474713    4.334998    1.841656
     44          8           0       -5.615144    4.187504    2.183872
     45          8           0       -4.016029    5.430242    1.089341
     46          6           0       -5.000905    6.427976    0.781950
     47          6           0        2.303335    4.914102   -1.140468
     48          6           0        3.269951    3.865501   -0.725406
     49          6           0        4.398145    4.027148   -0.018259
     50          6           0        4.997730    5.300114    0.561600
     51          6           0        5.113882    2.723488    0.344227
     52          6           0        5.894783    1.856889   -0.780805
     53          6           0        5.117223    0.565759   -1.057117
     54          6           0        6.139976   -0.484486   -1.683591
     55          6           0        5.495544   -1.188042   -2.875614
     56          6           0        6.455657   -1.564994   -0.672740
     57          6           0        7.982825   -1.800724   -0.675907
     58          6           0        8.645036   -1.543399    0.649960
     59          6           0       10.009874   -2.198652    0.746615
     60          6           0       10.039164   -3.472736    1.656066
     61          6           0       11.088319   -1.245401    1.240840
     62          6           0       12.094591   -0.838083    0.142841
     63          6           0       13.573623   -0.863622    0.631931
     64          6           0       14.427881   -2.033491    0.024166
     65          6           0       15.003719   -1.724809   -1.354852
     66          6           0       15.567723   -2.385001    1.015677
     67          1           0       -4.511656    0.687965   -4.147744
     68          1           0       -5.642176   -5.081799   -1.101004
     69          1           0       -4.182202   -2.419504    4.527907
     70          1           0       -3.924587    4.022573   -0.938139
     71          1           0       -3.206116    2.523425   -3.366219
     72          1           0       -4.938696    3.422188   -4.169813
     73          1           0       -5.752479    3.932113   -2.519603
     74          1           0       -5.937713    2.411413   -3.208663
     75          1           0       -1.211359    2.636660   -1.710962
     76          1           0       -1.427246    3.548794   -0.247659
     77          1           0       -2.178897    5.334098   -1.978530
     78          1           0       -1.431273    4.286495   -3.136744
     79          1           0       -4.002700   -2.257485   -5.754640
     80          1           0       -4.812145   -0.746406   -5.805707
     81          1           0       -5.704854   -2.130459   -6.303575
     82          1           0       -4.391706   -5.953508   -2.846721
     83          1           0       -5.129068   -6.826600   -4.184935
     84          1           0       -6.222363   -6.035155   -2.898922
     85          1           0       -4.528929   -5.771408    1.114994
     86          1           0       -5.677493   -4.635777    3.680090
     87          1           0       -6.318135   -6.971264    0.990747
     88          1           0       -7.415217   -5.495621    1.099038
     89          1           0       -6.776977   -6.372237    2.533838
     90          1           0       -2.805404   -4.633543    2.965313
     91          1           0       -3.415401   -6.220687    2.940267
     92          1           0       -3.315826   -6.439517    5.053539
     93          1           0       -4.267995   -4.936951    5.484818
     94          1           0       -2.522300   -4.891802    5.234341
     95          1           0       -2.792028    0.701027    6.220374
     96          1           0       -3.641706   -0.863445    5.878846
     97          1           0       -4.629142    0.494339    6.116911
     98          1           0       -2.389505    3.843288    1.835846
     99          1           0       -4.747066    7.303282    1.379939
    100          1           0       -6.057385    6.200447    0.926024
    101          1           0       -4.909905    6.654440   -0.280029
    102          1           0        2.258764    5.757172   -0.450705
    103          1           0        2.601415    5.309403   -2.112141
    104          1           0        2.982659    2.848622   -0.993625
    105          1           0        4.464870    6.156365    0.149007
    106          1           0        6.027469    5.455025    0.241684
    107          1           0        4.960453    5.367207    1.649022
    108          1           0        4.365644    2.161799    0.902213
    109          1           0        5.865558    2.920383    1.109004
    110          1           0        6.825918    1.506520   -0.337154
    111          1           0        6.111990    2.413891   -1.692634
    112          1           0        4.360053    0.911225   -1.760809
    113          1           0        4.572105    0.185780   -0.192328
    114          1           0        6.896178    0.183163   -2.095092
    115          1           0        5.395057   -0.578833   -3.773690
    116          1           0        4.477312   -1.339593   -2.517276
    117          1           0        6.015285   -2.088940   -3.203446
    118          1           0        6.006000   -2.522574   -0.935724
    119          1           0        6.066453   -1.294479    0.309023
    120          1           0        8.423841   -1.097446   -1.382098
    121          1           0        8.123002   -2.823598   -1.025612
    122          1           0        7.867857   -1.928694    1.310501
    123          1           0        8.785294   -0.463485    0.665676
    124          1           0       10.337027   -2.516300   -0.243883
    125          1           0       11.063517   -3.724283    1.929383
    126          1           0        9.611772   -4.284869    1.068771
    127          1           0        9.437044   -3.321698    2.551825
    128          1           0       11.682210   -1.724994    2.018850
    129          1           0       10.603687   -0.461255    1.821498
    130          1           0       11.817185    0.200588   -0.035163
    131          1           0       12.008599   -1.456751   -0.750851
    132          1           0       13.605607   -0.726180    1.713019
    133          1           0       14.023388    0.094980    0.375983
    134          1           0       13.754832   -2.888978    0.002437
    135          1           0       14.211613   -1.295599   -1.968475
    136          1           0       15.458568   -2.551353   -1.901802
    137          1           0       15.630999   -0.837427   -1.275357
    138          1           0       16.165790   -3.215181    0.640297
    139          1           0       15.197761   -2.920409    1.889800
    140          1           0       16.165958   -1.496867    1.217748
 ---------------------------------------------------------------------
 Rotational constants (GHZ):           0.0309318           0.0120441           0.0107700
 Leave Link  202 at Thu May  5 00:52:11 2022, MaxMem= 10066329600 cpu:               0.2 elap:               0.0
 (Enter /sw/apps/gaussian-16.0/g16/l301.exe)
 Standard basis: def2SVP (5D, 7F)
 Ernie: Thresh=  0.10000D-02 Tol=  0.10000D-05 Strict=F.
 There are  1364 symmetry adapted cartesian basis functions of A   symmetry.
 There are  1298 symmetry adapted basis functions of A   symmetry.
  1298 basis functions,  2180 primitive gaussians,  1364 cartesian basis functions
   246 alpha electrons      246 beta electrons
       nuclear repulsion energy      9625.2085470841 Hartrees.
 IExCor= 1009 DFT=T Ex+Corr=PBE1PBE ExCW=0 ScaHFX=  0.250000
 ScaDFX=  0.750000  0.750000  1.000000  1.000000 ScalE2=  1.000000  1.000000
 IRadAn=      5 IRanWt=     -1 IRanGd=            0 ICorTp=0 IEmpDi=  4
 NAtoms=  140 NActive=  140 NUniq=  140 SFac= 1.00D+00 NAtFMM=   60 NAOKFM=T Big=T
 Integral buffers will be    131072 words long.
 Regular integral format.
 Two-electron integral symmetry is turned on.
 Leave Link  301 at Thu May  5 00:52:11 2022, MaxMem= 10066329600 cpu:               2.1 elap:               0.1
 (Enter /sw/apps/gaussian-16.0/g16/l302.exe)
 NPDir=0 NMtPBC=     1 NCelOv=     1 NCel=       1 NClECP=     1 NCelD=      1
         NCelK=      1 NCelE2=     1 NClLst=     1 CellRange=     0.0.
 One-electron integrals computed using PRISM.
 One-electron integral symmetry used in STVInt
   1 Symmetry operations used in ECPInt.
 ECPInt:  NShTT=  192510 NPrTT=  683786 LenC2=   97414 LenP2D=  209968.
 LDataN:  DoStor=T MaxTD1= 4 Len=   56
 NBasis=  1298 RedAO= T EigKep=  2.46D-04  NBF=  1298
 NBsUse=  1298 1.00D-06 EigRej= -1.00D+00 NBFU=  1298
 Precomputing XC quadrature grid using
 IXCGrd= 4 IRadAn=           5 IRanWt=          -1 IRanGd=           0 AccXCQ= 0.00D+00.
 Generated NRdTot=       0 NPtTot=           0 NUsed=           0 NTot=          32
 NSgBfM=   969   969   969   969   969 MxSgAt=   140 MxSgA2=   139.
 Leave Link  302 at Thu May  5 00:52:15 2022, MaxMem= 10066329600 cpu:              85.3 elap:               3.6
 (Enter /sw/apps/gaussian-16.0/g16/l303.exe)
 DipDrv:  MaxL=1.
 Leave Link  303 at Thu May  5 00:52:15 2022, MaxMem= 10066329600 cpu:               6.7 elap:               0.3
 (Enter /sw/apps/gaussian-16.0/g16/l308.exe)
 Leave Link  308 at Thu May  5 00:52:16 2022, MaxMem= 10066329600 cpu:              10.3 elap:               0.5
 (Enter /sw/apps/gaussian-16.0/g16/l401.exe)
 ExpMin= 3.36D-02 ExpMax= 4.95D+03 ExpMxC= 7.45D+02 IAcc=3 IRadAn=         5 AccDes= 0.00D+00
 Harris functional with IExCor= 1009 and IRadAn=       5 diagonalized for initial guess.
 HarFok:  IExCor= 1009 AccDes= 0.00D+00 IRadAn=         5 IDoV= 1 UseB2=F ITyADJ=14
 ICtDFT=  3500011 ScaDFX=  1.000000  1.000000  1.000000  1.000000
 FoFCou: FMM=F IPFlag=           0 FMFlag=      100000 FMFlg1=        2001
         NFxFlg=           0 DoJE=T BraDBF=F KetDBF=T FulRan=T
         wScrn=  0.000000 ICntrl=       500 IOpCl=  0 I1Cent=   200000004 NGrid=           0
         NMat0=    1 NMatS0=      1 NMatT0=    0 NMatD0=    1 NMtDS0=    0 NMtDT0=    0
 Petite list used in FoFCou.
 Harris En= -3006.18028543842    
 JPrj=0 DoOrth=F DoCkMO=F.
 Leave Link  401 at Thu May  5 00:52:22 2022, MaxMem= 10066329600 cpu:             150.8 elap:               6.3
 (Enter /sw/apps/gaussian-16.0/g16/l502.exe)
 Integral symmetry usage will be decided dynamically.
 Closed shell SCF:
 Using DIIS extrapolation, IDIIS=  1040.
 NGot= 10066329600 LenX= 10062561258 LenY= 10060699398
 Requested convergence on RMS density matrix=1.00D-08 within 128 cycles.
 Requested convergence on MAX density matrix=1.00D-06.
 Requested convergence on             energy=1.00D-06.
 No special actions if energy rises.
 Fock matrices will be formed incrementally for  20 cycles.

 Cycle   1  Pass 1  IDiag  1:
 FoFJK:  IHMeth= 1 ICntrl=       0 DoSepK=F KAlg= 0 I1Cent=           0 FoldK=F
 IRaf= 520000000 NMat=       1 IRICut=       1 DoRegI=T DoRafI=F ISym2E= 0 IDoP0=0 IntGTp=1.
 FoFCou: FMM=T IPFlag=           0 FMFlag=      100000 FMFlg1=        2001
         NFxFlg=           0 DoJE=F BraDBF=F KetDBF=F FulRan=T
         wScrn=  0.000000 ICntrl=         0 IOpCl=  0 I1Cent=           0 NGrid=           0
         NMat0=    1 NMatS0=      1 NMatT0=    0 NMatD0=    1 NMtDS0=    0 NMtDT0=    0
 Symmetry not used in FoFCou.
 FMM levels:  10  Number of levels for PrismC:   9
 E= -3003.81244406902    
 DIIS: error= 2.23D-02 at cycle   1 NSaved=   1.
 NSaved= 1 IEnMin= 1 EnMin= -3003.81244406902     IErMin= 1 ErrMin= 2.23D-02
 ErrMax= 2.23D-02  0.00D+00 EMaxC= 1.00D-01 BMatC= 1.47D+00 BMatP= 1.47D+00
 IDIUse=3 WtCom= 7.77D-01 WtEn= 2.23D-01
 Coeff-Com:  0.100D+01
 Coeff-En:   0.100D+01
 Coeff:      0.100D+01
 Gap=     0.078 Goal=   None    Shift=    0.000
 GapD=    0.078 DampG=0.500 DampE=0.500 DampFc=0.2500 IDamp=-1.
 Damping current iteration by 2.50D-01
 RMSDP=2.81D-03 MaxDP=6.95D-01              OVMax= 3.02D-01

 Cycle   2  Pass 1  IDiag  1:
 RMSU=  6.95D-04    CP:  9.90D-01
 E= -3004.36975748091     Delta-E=       -0.557313411895 Rises=F Damp=T
 DIIS: error= 1.15D-02 at cycle   2 NSaved=   2.
 NSaved= 2 IEnMin= 2 EnMin= -3004.36975748091     IErMin= 2 ErrMin= 1.15D-02
 ErrMax= 1.15D-02  0.00D+00 EMaxC= 1.00D-01 BMatC= 3.70D-01 BMatP= 1.47D+00
 IDIUse=3 WtCom= 8.85D-01 WtEn= 1.15D-01
 Coeff-Com: -0.791D+00 0.179D+01
 Coeff-En:   0.000D+00 0.100D+01
 Coeff:     -0.700D+00 0.170D+01
 Gap=     0.176 Goal=   None    Shift=    0.000
 RMSDP=1.00D-03 MaxDP=6.40D-02 DE=-5.57D-01 OVMax= 3.29D-01

 Cycle   3  Pass 1  IDiag  1:
 RMSU=  8.29D-04    CP:  9.64D-01  1.73D+00
 E= -3005.22693282512     Delta-E=       -0.857175344212 Rises=F Damp=F
 DIIS: error= 8.39D-03 at cycle   3 NSaved=   3.
 NSaved= 3 IEnMin= 3 EnMin= -3005.22693282512     IErMin= 3 ErrMin= 8.39D-03
 ErrMax= 8.39D-03  0.00D+00 EMaxC= 1.00D-01 BMatC= 1.48D-01 BMatP= 3.70D-01
 IDIUse=3 WtCom= 9.16D-01 WtEn= 8.39D-02
 Coeff-Com: -0.483D+00 0.103D+01 0.451D+00
 Coeff-En:   0.000D+00 0.000D+00 0.100D+01
 Coeff:     -0.443D+00 0.945D+00 0.497D+00
 Gap=     0.072 Goal=   None    Shift=    0.000
 RMSDP=5.36D-04 MaxDP=6.33D-02 DE=-8.57D-01 OVMax= 2.60D-01

 Cycle   4  Pass 1  IDiag  1:
 RMSU=  3.80D-04    CP:  9.69D-01  1.91D+00  5.74D-01
 E= -3005.33154959446     Delta-E=       -0.104616769338 Rises=F Damp=F
 DIIS: error= 4.36D-03 at cycle   4 NSaved=   4.
 NSaved= 4 IEnMin= 4 EnMin= -3005.33154959446     IErMin= 4 ErrMin= 4.36D-03
 ErrMax= 4.36D-03  0.00D+00 EMaxC= 1.00D-01 BMatC= 3.31D-02 BMatP= 1.48D-01
 IDIUse=3 WtCom= 9.56D-01 WtEn= 4.36D-02
 Coeff-Com: -0.113D+00 0.244D+00 0.321D+00 0.548D+00
 Coeff-En:   0.000D+00 0.000D+00 0.243D+00 0.757D+00
 Coeff:     -0.108D+00 0.234D+00 0.317D+00 0.557D+00
 Gap=     0.077 Goal=   None    Shift=    0.000
 RMSDP=2.93D-04 MaxDP=2.74D-02 DE=-1.05D-01 OVMax= 2.10D-01

 Cycle   5  Pass 1  IDiag  1:
 RMSU=  1.70D-04    CP:  9.69D-01  1.83D+00  7.24D-01  4.84D-01
 E= -3005.35447801915     Delta-E=       -0.022928424685 Rises=F Damp=F
 DIIS: error= 2.54D-03 at cycle   5 NSaved=   5.
 NSaved= 5 IEnMin= 5 EnMin= -3005.35447801915     IErMin= 5 ErrMin= 2.54D-03
 ErrMax= 2.54D-03  0.00D+00 EMaxC= 1.00D-01 BMatC= 9.27D-03 BMatP= 3.31D-02
 IDIUse=3 WtCom= 9.75D-01 WtEn= 2.54D-02
 Coeff-Com: -0.312D-01 0.695D-01 0.192D+00 0.422D+00 0.348D+00
 Coeff-En:   0.000D+00 0.000D+00 0.000D+00 0.297D+00 0.703D+00
 Coeff:     -0.304D-01 0.677D-01 0.187D+00 0.419D+00 0.357D+00
 Gap=     0.075 Goal=   None    Shift=    0.000
 RMSDP=1.57D-04 MaxDP=1.92D-02 DE=-2.29D-02 OVMax= 1.19D-01

 Cycle   6  Pass 1  IDiag  1:
 RMSU=  5.52D-05    CP:  9.68D-01  1.83D+00  6.98D-01  6.54D-01  2.36D-01
 E= -3005.36683075901     Delta-E=       -0.012352739859 Rises=F Damp=F
 DIIS: error= 7.01D-04 at cycle   6 NSaved=   6.
 NSaved= 6 IEnMin= 6 EnMin= -3005.36683075901     IErMin= 6 ErrMin= 7.01D-04
 ErrMax= 7.01D-04  0.00D+00 EMaxC= 1.00D-01 BMatC= 7.66D-04 BMatP= 9.27D-03
 IDIUse=3 WtCom= 9.93D-01 WtEn= 7.01D-03
 Coeff-Com: -0.142D-02 0.470D-02 0.701D-01 0.187D+00 0.243D+00 0.497D+00
 Coeff-En:   0.000D+00 0.000D+00 0.000D+00 0.000D+00 0.852D-01 0.915D+00
 Coeff:     -0.141D-02 0.466D-02 0.696D-01 0.185D+00 0.242D+00 0.500D+00
 Gap=     0.077 Goal=   None    Shift=    0.000
 RMSDP=4.25D-05 MaxDP=5.18D-03 DE=-1.24D-02 OVMax= 2.87D-02

 Cycle   7  Pass 1  IDiag  1:
 RMSU=  2.16D-05    CP:  9.68D-01  1.83D+00  7.05D-01  6.30D-01  3.89D-01
                    CP:  5.79D-01
 E= -3005.36772044626     Delta-E=       -0.000889687257 Rises=F Damp=F
 DIIS: error= 2.53D-04 at cycle   7 NSaved=   7.
 NSaved= 7 IEnMin= 7 EnMin= -3005.36772044626     IErMin= 7 ErrMin= 2.53D-04
 ErrMax= 2.53D-04  0.00D+00 EMaxC= 1.00D-01 BMatC= 9.11D-05 BMatP= 7.66D-04
 IDIUse=3 WtCom= 9.97D-01 WtEn= 2.53D-03
 Coeff-Com:  0.286D-02-0.545D-02 0.184D-01 0.586D-01 0.100D+00 0.317D+00
 Coeff-Com:  0.508D+00
 Coeff-En:   0.000D+00 0.000D+00 0.000D+00 0.000D+00 0.000D+00 0.962D-01
 Coeff-En:   0.904D+00
 Coeff:      0.285D-02-0.543D-02 0.184D-01 0.585D-01 0.100D+00 0.317D+00
 Coeff:      0.509D+00
 Gap=     0.077 Goal=   None    Shift=    0.000
 RMSDP=1.31D-05 MaxDP=1.28D-03 DE=-8.90D-04 OVMax= 5.32D-03

 Cycle   8  Pass 1  IDiag  1:
 RMSU=  7.63D-06    CP:  9.68D-01  1.83D+00  7.05D-01  6.35D-01  3.70D-01
                    CP:  6.54D-01  5.82D-01
 E= -3005.36780954212     Delta-E=       -0.000089095860 Rises=F Damp=F
 DIIS: error= 5.89D-05 at cycle   8 NSaved=   8.
 NSaved= 8 IEnMin= 8 EnMin= -3005.36780954212     IErMin= 8 ErrMin= 5.89D-05
 ErrMax= 5.89D-05  0.00D+00 EMaxC= 1.00D-01 BMatC= 1.09D-05 BMatP= 9.11D-05
 IDIUse=1 WtCom= 1.00D+00 WtEn= 0.00D+00
 Coeff-Com:  0.171D-02-0.343D-02 0.302D-02 0.132D-01 0.310D-01 0.136D+00
 Coeff-Com:  0.317D+00 0.501D+00
 Coeff:      0.171D-02-0.343D-02 0.302D-02 0.132D-01 0.310D-01 0.136D+00
 Coeff:      0.317D+00 0.501D+00
 Gap=     0.078 Goal=   None    Shift=    0.000
 RMSDP=4.78D-06 MaxDP=4.37D-04 DE=-8.91D-05 OVMax= 1.32D-03

 Cycle   9  Pass 1  IDiag  1:
 RMSU=  2.51D-06    CP:  9.68D-01  1.83D+00  7.05D-01  6.36D-01  3.73D-01
                    CP:  6.54D-01  6.68D-01  5.39D-01
 E= -3005.36782061014     Delta-E=       -0.000011068016 Rises=F Damp=F
 DIIS: error= 2.08D-05 at cycle   9 NSaved=   9.
 NSaved= 9 IEnMin= 9 EnMin= -3005.36782061014     IErMin= 9 ErrMin= 2.08D-05
 ErrMax= 2.08D-05  0.00D+00 EMaxC= 1.00D-01 BMatC= 1.09D-06 BMatP= 1.09D-05
 IDIUse=1 WtCom= 1.00D+00 WtEn= 0.00D+00
 Coeff-Com:  0.599D-03-0.118D-02-0.287D-03 0.608D-03 0.528D-02 0.412D-01
 Coeff-Com:  0.123D+00 0.292D+00 0.539D+00
 Coeff:      0.599D-03-0.118D-02-0.287D-03 0.608D-03 0.528D-02 0.412D-01
 Coeff:      0.123D+00 0.292D+00 0.539D+00
 Gap=     0.078 Goal=   None    Shift=    0.000
 RMSDP=1.35D-06 MaxDP=2.08D-04 DE=-1.11D-05 OVMax= 4.12D-04

 Cycle  10  Pass 1  IDiag  1:
 RMSU=  9.30D-07    CP:  9.68D-01  1.83D+00  7.06D-01  6.36D-01  3.73D-01
                    CP:  6.62D-01  6.60D-01  6.13D-01  7.64D-01
 E= -3005.36782156011     Delta-E=       -0.000000949976 Rises=F Damp=F
 DIIS: error= 1.14D-05 at cycle  10 NSaved=  10.
 NSaved=10 IEnMin=10 EnMin= -3005.36782156011     IErMin=10 ErrMin= 1.14D-05
 ErrMax= 1.14D-05  0.00D+00 EMaxC= 1.00D-01 BMatC= 1.68D-07 BMatP= 1.09D-06
 IDIUse=1 WtCom= 1.00D+00 WtEn= 0.00D+00
 Coeff-Com:  0.713D-04-0.120D-03-0.679D-03-0.194D-02-0.258D-02 0.217D-02
 Coeff-Com:  0.210D-01 0.961D-01 0.322D+00 0.564D+00
 Coeff:      0.713D-04-0.120D-03-0.679D-03-0.194D-02-0.258D-02 0.217D-02
 Coeff:      0.210D-01 0.961D-01 0.322D+00 0.564D+00
 Gap=     0.078 Goal=   None    Shift=    0.000
 RMSDP=5.67D-07 MaxDP=6.12D-05 DE=-9.50D-07 OVMax= 2.78D-04

 Cycle  11  Pass 1  IDiag  1:
 RMSU=  3.89D-07    CP:  9.68D-01  1.83D+00  7.06D-01  6.36D-01  3.73D-01
                    CP:  6.62D-01  6.67D-01  6.19D-01  8.42D-01  6.66D-01
 E= -3005.36782170137     Delta-E=       -0.000000141259 Rises=F Damp=F
 DIIS: error= 3.99D-06 at cycle  11 NSaved=  11.
 NSaved=11 IEnMin=11 EnMin= -3005.36782170137     IErMin=11 ErrMin= 3.99D-06
 ErrMax= 3.99D-06  0.00D+00 EMaxC= 1.00D-01 BMatC= 3.34D-08 BMatP= 1.68D-07
 IDIUse=1 WtCom= 1.00D+00 WtEn= 0.00D+00
 Coeff-Com:  0.287D-06 0.174D-04-0.401D-03-0.125D-02-0.228D-02-0.228D-02
 Coeff-Com:  0.168D-02 0.342D-01 0.153D+00 0.368D+00 0.449D+00
 Coeff:      0.287D-06 0.174D-04-0.401D-03-0.125D-02-0.228D-02-0.228D-02
 Coeff:      0.168D-02 0.342D-01 0.153D+00 0.368D+00 0.449D+00
 Gap=     0.078 Goal=   None    Shift=    0.000
 RMSDP=2.91D-07 MaxDP=4.79D-05 DE=-1.41D-07 OVMax= 1.67D-04

 Cycle  12  Pass 1  IDiag  1:
 RMSU=  1.86D-07    CP:  9.68D-01  1.83D+00  7.06D-01  6.36D-01  3.73D-01
                    CP:  6.63D-01  6.69D-01  6.25D-01  8.36D-01  7.97D-01
                    CP:  5.84D-01
 E= -3005.36782173534     Delta-E=       -0.000000033970 Rises=F Damp=F
 DIIS: error= 2.22D-06 at cycle  12 NSaved=  12.
 NSaved=12 IEnMin=12 EnMin= -3005.36782173534     IErMin=12 ErrMin= 2.22D-06
 ErrMax= 2.22D-06  0.00D+00 EMaxC= 1.00D-01 BMatC= 5.97D-09 BMatP= 3.34D-08
 IDIUse=1 WtCom= 1.00D+00 WtEn= 0.00D+00
 Coeff-Com: -0.863D-05 0.268D-04-0.138D-03-0.434D-03-0.112D-02-0.170D-02
 Coeff-Com: -0.281D-02 0.526D-02 0.390D-01 0.130D+00 0.303D+00 0.529D+00
 Coeff:     -0.863D-05 0.268D-04-0.138D-03-0.434D-03-0.112D-02-0.170D-02
 Coeff:     -0.281D-02 0.526D-02 0.390D-01 0.130D+00 0.303D+00 0.529D+00
 Gap=     0.078 Goal=   None    Shift=    0.000
 RMSDP=1.18D-07 MaxDP=1.03D-05 DE=-3.40D-08 OVMax= 7.18D-05

 Cycle  13  Pass 1  IDiag  1:
 RMSU=  7.03D-08    CP:  9.68D-01  1.83D+00  7.06D-01  6.36D-01  3.73D-01
                    CP:  6.63D-01  6.69D-01  6.26D-01  8.51D-01  7.90D-01
                    CP:  7.36D-01  6.67D-01
 E= -3005.36782174244     Delta-E=       -0.000000007094 Rises=F Damp=F
 DIIS: error= 8.75D-07 at cycle  13 NSaved=  13.
 NSaved=13 IEnMin=13 EnMin= -3005.36782174244     IErMin=13 ErrMin= 8.75D-07
 ErrMax= 8.75D-07  0.00D+00 EMaxC= 1.00D-01 BMatC= 1.36D-09 BMatP= 5.97D-09
 IDIUse=1 WtCom= 1.00D+00 WtEn= 0.00D+00
 Coeff-Com: -0.648D-05 0.159D-04-0.141D-04-0.314D-04-0.371D-03-0.762D-03
 Coeff-Com: -0.283D-02-0.452D-02-0.881D-02 0.564D-02 0.116D+00 0.364D+00
 Coeff-Com:  0.532D+00
 Coeff:     -0.648D-05 0.159D-04-0.141D-04-0.314D-04-0.371D-03-0.762D-03
 Coeff:     -0.283D-02-0.452D-02-0.881D-02 0.564D-02 0.116D+00 0.364D+00
 Coeff:      0.532D+00
 Gap=     0.078 Goal=   None    Shift=    0.000
 RMSDP=4.78D-08 MaxDP=4.66D-06 DE=-7.09D-09 OVMax= 2.53D-05

 Cycle  14  Pass 1  IDiag  1:
 RMSU=  2.93D-08    CP:  9.68D-01  1.83D+00  7.06D-01  6.36D-01  3.73D-01
                    CP:  6.63D-01  6.69D-01  6.26D-01  8.55D-01  8.07D-01
                    CP:  7.42D-01  8.03D-01  7.59D-01
 E= -3005.36782174402     Delta-E=       -0.000000001586 Rises=F Damp=F
 DIIS: error= 2.69D-07 at cycle  14 NSaved=  14.
 NSaved=14 IEnMin=14 EnMin= -3005.36782174402     IErMin=14 ErrMin= 2.69D-07
 ErrMax= 2.69D-07  0.00D+00 EMaxC= 1.00D-01 BMatC= 2.15D-10 BMatP= 1.36D-09
 IDIUse=1 WtCom= 1.00D+00 WtEn= 0.00D+00
 Coeff-Com: -0.220D-05 0.444D-05 0.160D-04 0.673D-04-0.586D-04-0.136D-03
 Coeff-Com: -0.142D-02-0.397D-02-0.135D-01-0.218D-01 0.182D-01 0.135D+00
 Coeff-Com:  0.330D+00 0.558D+00
 Coeff:     -0.220D-05 0.444D-05 0.160D-04 0.673D-04-0.586D-04-0.136D-03
 Coeff:     -0.142D-02-0.397D-02-0.135D-01-0.218D-01 0.182D-01 0.135D+00
 Coeff:      0.330D+00 0.558D+00
 Gap=     0.078 Goal=   None    Shift=    0.000
 RMSDP=2.00D-08 MaxDP=1.94D-06 DE=-1.59D-09 OVMax= 9.80D-06

 Cycle  15  Pass 1  IDiag  1:
 RMSU=  1.30D-08    CP:  9.68D-01  1.83D+00  7.06D-01  6.36D-01  3.73D-01
                    CP:  6.63D-01  6.69D-01  6.27D-01  8.55D-01  8.10D-01
                    CP:  7.63D-01  8.21D-01  8.74D-01  9.29D-01
 E= -3005.36782174410     Delta-E=       -0.000000000075 Rises=F Damp=F
 DIIS: error= 1.13D-07 at cycle  15 NSaved=  15.
 NSaved=15 IEnMin=15 EnMin= -3005.36782174410     IErMin=15 ErrMin= 1.13D-07
 ErrMax= 1.13D-07  0.00D+00 EMaxC= 1.00D-01 BMatC= 3.27D-11 BMatP= 2.15D-10
 IDIUse=1 WtCom= 1.00D+00 WtEn= 0.00D+00
 Coeff-Com: -0.119D-06-0.289D-06 0.987D-05 0.417D-04 0.162D-04 0.111D-03
 Coeff-Com: -0.210D-03-0.927D-03-0.467D-02-0.105D-01-0.889D-02 0.700D-02
 Coeff-Com:  0.758D-01 0.303D+00 0.639D+00
 Coeff:     -0.119D-06-0.289D-06 0.987D-05 0.417D-04 0.162D-04 0.111D-03
 Coeff:     -0.210D-03-0.927D-03-0.467D-02-0.105D-01-0.889D-02 0.700D-02
 Coeff:      0.758D-01 0.303D+00 0.639D+00
 Gap=     0.078 Goal=   None    Shift=    0.000
 RMSDP=7.88D-09 MaxDP=7.58D-07 DE=-7.46D-11 OVMax= 3.98D-06

 SCF Done:  E(RPBE1PBE) =  -3005.36782174     A.U. after   15 cycles
            NFock= 15  Conv=0.79D-08     -V/T= 2.0101
 KE= 2.975362007859D+03 PE=-2.624119427750D+04 EE= 1.063525590081D+04
 Leave Link  502 at Thu May  5 00:57:24 2022, MaxMem= 10066329600 cpu:            7208.3 elap:             302.0
 (Enter /sw/apps/gaussian-16.0/g16/l801.exe)
 DoSCS=F DFT=T ScalE2(SS,OS)=  1.000000  1.000000
 ExpMin= 3.36D-02 ExpMax= 4.95D+03 ExpMxC= 7.45D+02 IAcc=3 IRadAn=         5 AccDes= 0.00D+00
 HarFok:  IExCor=  205 AccDes= 0.00D+00 IRadAn=         5 IDoV=-2 UseB2=F ITyADJ=14
 ICtDFT= 12500011 ScaDFX=  1.000000  1.000000  1.000000  1.000000
 GSVD:  LWork=       -5460 too small for GESVD, short by       25550 words or       25550 for optimal perf.
 Largest valence mixing into a core orbital is  1.18D-04
 Largest core mixing into a valence orbital is  5.58D-05
 Range of M.O.s used for correlation:    71  1298
 NBasis=  1298 NAE=   246 NBE=   246 NFC=    70 NFV=     0
 NROrb=   1228 NOA=   176 NOB=   176 NVA=  1052 NVB=  1052

 **** Warning!!: The smallest alpha delta epsilon is  0.77670001D-01

 Leave Link  801 at Thu May  5 00:57:24 2022, MaxMem= 10066329600 cpu:               8.4 elap:               0.4
 (Enter /sw/apps/gaussian-16.0/g16/l914.exe)
 RHF ground state
 Two-electron integrals replicated using symmetry.
 MDV= 10066329600 DFT=T DoStab=F Mixed=T DoRPA=T DoScal=F NonHer=T
 Making orbital integer symmetry assigments:
 Orbital symmetries:
       Occupied  (A) (A) (A) (A) (A) (A) (A) (A) (A) (A) (A) (A)
                 (A) (A) (A) (A) (A) (A) (A) (A) (A) (A) (A) (A)
                 (A) (A) (A) (A) (A) (A) (A) (A) (A) (A) (A) (A)
                 (A) (A) (A) (A) (A) (A) (A) (A) (A) (A) (A) (A)
                 (A) (A) (A) (A) (A) (A) (A) (A) (A) (A) (A) (A)
                 (A) (A) (A) (A) (A) (A) (A) (A) (A) (A) (A) (A)
                 (A) (A) (A) (A) (A) (A) (A) (A) (A) (A) (A) (A)
                 (A) (A) (A) (A) (A) (A) (A) (A) (A) (A) (A) (A)
                 (A) (A) (A) (A) (A) (A) (A) (A) (A) (A) (A) (A)
                 (A) (A) (A) (A) (A) (A) (A) (A) (A) (A) (A) (A)
                 (A) (A) (A) (A) (A) (A) (A) (A) (A) (A) (A) (A)
                 (A) (A) (A) (A) (A) (A) (A) (A) (A) (A) (A) (A)
                 (A) (A) (A) (A) (A) (A) (A) (A) (A) (A) (A) (A)
                 (A) (A) (A) (A) (A) (A) (A) (A) (A) (A) (A) (A)
                 (A) (A) (A) (A) (A) (A) (A) (A) (A) (A) (A) (A)
                 (A) (A) (A) (A) (A) (A) (A) (A) (A) (A) (A) (A)
                 (A) (A) (A) (A) (A) (A) (A) (A) (A) (A) (A) (A)
                 (A) (A) (A) (A) (A) (A) (A) (A) (A) (A) (A) (A)
                 (A) (A) (A) (A) (A) (A) (A) (A) (A) (A) (A) (A)
                 (A) (A) (A) (A) (A) (A) (A) (A) (A) (A) (A) (A)
                 (A) (A) (A) (A) (A) (A)
       Virtual   (A) (A) (A) (A) (A) (A) (A) (A) (A) (A) (A) (A)
                 (A) (A) (A) (A) (A) (A) (A) (A) (A) (A) (A) (A)
                 (A) (A) (A) (A) (A) (A) (A) (A) (A) (A) (A) (A)
                 (A) (A) (A) (A) (A) (A) (A) (A) (A) (A) (A) (A)
                 (A) (A) (A) (A) (A) (A) (A) (A) (A) (A) (A) (A)
                 (A) (A) (A) (A) (A) (A) (A) (A) (A) (A) (A) (A)
                 (A) (A) (A) (A) (A) (A) (A) (A) (A) (A) (A) (A)
                 (A) (A) (A) (A) (A) (A) (A) (A) (A) (A) (A) (A)
                 (A) (A) (A) (A) (A) (A) (A) (A) (A) (A) (A) (A)
                 (A) (A) (A) (A) (A) (A) (A) (A) (A) (A) (A) (A)
                 (A) (A) (A) (A) (A) (A) (A) (A) (A) (A) (A) (A)
                 (A) (A) (A) (A) (A) (A) (A) (A) (A) (A) (A) (A)
                 (A) (A) (A) (A) (A) (A) (A) (A) (A) (A) (A) (A)
                 (A) (A) (A) (A) (A) (A) (A) (A) (A) (A) (A) (A)
                 (A) (A) (A) (A) (A) (A) (A) (A) (A) (A) (A) (A)
                 (A) (A) (A) (A) (A) (A) (A) (A) (A) (A) (A) (A)
                 (A) (A) (A) (A) (A) (A) (A) (A) (A) (A) (A) (A)
                 (A) (A) (A) (A) (A) (A) (A) (A) (A) (A) (A) (A)
                 (A) (A) (A) (A) (A) (A) (A) (A) (A) (A) (A) (A)
                 (A) (A) (A) (A) (A) (A) (A) (A) (A) (A) (A) (A)
                 (A) (A) (A) (A) (A) (A) (A) (A) (A) (A) (A) (A)
                 (A) (A) (A) (A) (A) (A) (A) (A) (A) (A) (A) (A)
                 (A) (A) (A) (A) (A) (A) (A) (A) (A) (A) (A) (A)
                 (A) (A) (A) (A) (A) (A) (A) (A) (A) (A) (A) (A)
                 (A) (A) (A) (A) (A) (A) (A) (A) (A) (A) (A) (A)
                 (A) (A) (A) (A) (A) (A) (A) (A) (A) (A) (A) (A)
                 (A) (A) (A) (A) (A) (A) (A) (A) (A) (A) (A) (A)
                 (A) (A) (A) (A) (A) (A) (A) (A) (A) (A) (A) (A)
                 (A) (A) (A) (A) (A) (A) (A) (A) (A) (A) (A) (A)
                 (A) (A) (A) (A) (A) (A) (A) (A) (A) (A) (A) (A)
                 (A) (A) (A) (A) (A) (A) (A) (A) (A) (A) (A) (A)
                 (A) (A) (A) (A) (A) (A) (A) (A) (A) (A) (A) (A)
                 (A) (A) (A) (A) (A) (A) (A) (A) (A) (A) (A) (A)
                 (A) (A) (A) (A) (A) (A) (A) (A) (A) (A) (A) (A)
                 (A) (A) (A) (A) (A) (A) (A) (A) (A) (A) (A) (A)
                 (A) (A) (A) (A) (A) (A) (A) (A) (A) (A) (A) (A)
                 (A) (A) (A) (A) (A) (A) (A) (A) (A) (A) (A) (A)
                 (A) (A) (A) (A) (A) (A) (A) (A) (A) (A) (A) (A)
                 (A) (A) (A) (A) (A) (A) (A) (A) (A) (A) (A) (A)
                 (A) (A) (A) (A) (A) (A) (A) (A) (A) (A) (A) (A)
                 (A) (A) (A) (A) (A) (A) (A) (A) (A) (A) (A) (A)
                 (A) (A) (A) (A) (A) (A) (A) (A) (A) (A) (A) (A)
                 (A) (A) (A) (A) (A) (A) (A) (A) (A) (A) (A) (A)
                 (A) (A) (A) (A) (A) (A) (A) (A) (A) (A) (A) (A)
                 (A) (A) (A) (A) (A) (A) (A) (A) (A) (A) (A) (A)
                 (A) (A) (A) (A) (A) (A) (A) (A) (A) (A) (A) (A)
                 (A) (A) (A) (A) (A) (A) (A) (A) (A) (A) (A) (A)
                 (A) (A) (A) (A) (A) (A) (A) (A) (A) (A) (A) (A)
                 (A) (A) (A) (A) (A) (A) (A) (A) (A) (A) (A) (A)
                 (A) (A) (A) (A) (A) (A) (A) (A) (A) (A) (A) (A)
                 (A) (A) (A) (A) (A) (A) (A) (A) (A) (A) (A) (A)
                 (A) (A) (A) (A) (A) (A) (A) (A) (A) (A) (A) (A)
                 (A) (A) (A) (A) (A) (A) (A) (A) (A) (A) (A) (A)
                 (A) (A) (A) (A) (A) (A) (A) (A) (A) (A) (A) (A)
                 (A) (A) (A) (A) (A) (A) (A) (A) (A) (A) (A) (A)
                 (A) (A) (A) (A) (A) (A) (A) (A) (A) (A) (A) (A)
                 (A) (A) (A) (A) (A) (A) (A) (A) (A) (A) (A) (A)
                 (A) (A) (A) (A) (A) (A) (A) (A) (A) (A) (A) (A)
                 (A) (A) (A) (A) (A) (A) (A) (A) (A) (A) (A) (A)
                 (A) (A) (A) (A) (A) (A) (A) (A) (A) (A) (A) (A)
                 (A) (A) (A) (A) (A) (A) (A) (A) (A) (A) (A) (A)
                 (A) (A) (A) (A) (A) (A) (A) (A) (A) (A) (A) (A)
                 (A) (A) (A) (A) (A) (A) (A) (A) (A) (A) (A) (A)
                 (A) (A) (A) (A) (A) (A) (A) (A) (A) (A) (A) (A)
                 (A) (A) (A) (A) (A) (A) (A) (A) (A) (A) (A) (A)
                 (A) (A) (A) (A) (A) (A) (A) (A) (A) (A) (A) (A)
                 (A) (A) (A) (A) (A) (A) (A) (A) (A) (A) (A) (A)
                 (A) (A) (A) (A) (A) (A) (A) (A) (A) (A) (A) (A)
                 (A) (A) (A) (A) (A) (A) (A) (A) (A) (A) (A) (A)
                 (A) (A) (A) (A) (A) (A) (A) (A) (A) (A) (A) (A)
                 (A) (A) (A) (A) (A) (A) (A) (A) (A) (A) (A) (A)
                 (A) (A) (A) (A) (A) (A) (A) (A) (A) (A) (A) (A)
                 (A) (A) (A) (A) (A) (A) (A) (A) (A) (A) (A) (A)
                 (A) (A) (A) (A) (A) (A) (A) (A) (A) (A) (A) (A)
                 (A) (A) (A) (A) (A) (A) (A) (A) (A) (A) (A) (A)
                 (A) (A) (A) (A) (A) (A) (A) (A) (A) (A) (A) (A)
                 (A) (A) (A) (A) (A) (A) (A) (A) (A) (A) (A) (A)
                 (A) (A) (A) (A) (A) (A) (A) (A) (A) (A) (A) (A)
                 (A) (A) (A) (A) (A) (A) (A) (A) (A) (A) (A) (A)
                 (A) (A) (A) (A) (A) (A) (A) (A) (A) (A) (A) (A)
                 (A) (A) (A) (A) (A) (A) (A) (A) (A) (A) (A) (A)
                 (A) (A) (A) (A) (A) (A) (A) (A) (A) (A) (A) (A)
                 (A) (A) (A) (A) (A) (A) (A) (A) (A) (A) (A) (A)
                 (A) (A) (A) (A) (A) (A) (A) (A) (A) (A) (A) (A)
                 (A) (A) (A) (A) (A) (A) (A) (A) (A) (A) (A) (A)
                 (A) (A) (A) (A) (A) (A) (A) (A) (A) (A) (A) (A)
                 (A) (A) (A) (A) (A) (A) (A) (A) (A) (A) (A) (A)
                 (A) (A) (A) (A) (A) (A) (A) (A)
    20 initial guesses have been made.
 Convergence on wavefunction:    0.001000000000000
 Davidson Disk Diagonalization:  ConvIn= 1.00D-03 SkipCon=T Conv= 1.00D-03.
 Max sub-space:  2000 roots to seek:    20 dimension of matrix:       370304
 Iteration     1 Dimension    20 NMult     0 NNew     20
 CISAX will form    20 AO SS matrices at one time.
 NMat=    20 NSing=    20 JSym2X= 0.
 FoFJK:  IHMeth= 1 ICntrl=       0 DoSepK=F KAlg= 0 I1Cent=           0 FoldK=F
 IRaf= 520000000 NMat=      40 IRICut=       1 DoRegI=T DoRafI=F ISym2E= 0 IDoP0=3 IntGTp=3.
 FoFCou: FMM=T IPFlag=           0 FMFlag=      100000 FMFlg1=        2001
         NFxFlg=           0 DoJE=F BraDBF=F KetDBF=F FulRan=T
         wScrn=  0.000000 ICntrl=         0 IOpCl=  0 I1Cent=           0 NGrid=           0
         NMat0=   40 NMatS0=     20 NMatT0=    0 NMatD0=   40 NMtDS0=    0 NMtDT0=    0
 Symmetry not used in FoFCou.
 FMM levels:  10  Number of levels for PrismC:   9
 New state      3 was old state      4
 New state      4 was old state      6
 New state      5 was old state      7
 Excitation Energies [eV] at current iteration:
 Root      1 :     2.282018346279168
 Root      2 :     2.599957023557684
 Root      3 :     3.025897118889806
 Root      4 :     3.100793704300196
 Root      5 :     3.303169203684615
 Root      6 :     3.336413549737029
 Root      7 :     3.476171205812707
 Root      8 :     3.916816855756138
 Root      9 :     3.962872956309742
 Root     10 :     4.060578318737570
 Root     11 :     4.181960814338124
 Root     12 :     4.288134341285449
 Root     13 :     4.345533674542095
 Root     14 :     4.391724736256758
 Root     15 :     4.402596552146820
 Root     16 :     4.608352286583052
 Root     17 :     4.630608650566004
 Root     18 :     4.709568862750655
 Root     19 :     4.894636996074138
 Root     20 :     4.897046448241862
 Iteration     2 Dimension    30 NMult    20 NNew     10
 CISAX will form    10 AO SS matrices at one time.
 NMat=    10 NSing=    10 JSym2X= 0.
 Root      1 not converged, maximum delta is    0.055211477695368
 Root      2 not converged, maximum delta is    0.055285600839660
 Root      3 not converged, maximum delta is    0.222158395197696
 Root      4 not converged, maximum delta is    0.109155982736434
 Root      5 not converged, maximum delta is    0.165544515752715
 Excitation Energies [eV] at current iteration:
 Root      1 :     1.937097011427380   Change is   -0.344921334851789
 Root      2 :     2.325040647429558   Change is   -0.274916376128127
 Root      3 :     2.890595887472908   Change is   -0.135301231416898
 Root      4 :     3.001981870470963   Change is   -0.098811833829233
 Root      5 :     3.067000993957601   Change is   -0.236168209727014
 Iteration     3 Dimension    40 NMult    30 NNew     10
 CISAX will form    10 AO SS matrices at one time.
 NMat=    10 NSing=    10 JSym2X= 0.
 Root      1 not converged, maximum delta is    0.023973500976898
 Root      2 not converged, maximum delta is    0.027521725418872
 Root      3 not converged, maximum delta is    0.011367780234629
 Root      4 not converged, maximum delta is    0.019273285634055
 Root      5 not converged, maximum delta is    0.033407656506944
 Excitation Energies [eV] at current iteration:
 Root      1 :     1.907108827675793   Change is   -0.029988183751587
 Root      2 :     2.304960180135160   Change is   -0.020080467294398
 Root      3 :     2.880302985362370   Change is   -0.010292902110538
 Root      4 :     2.992719777531933   Change is   -0.009262092939029
 Root      5 :     3.054251801614874   Change is   -0.012749192342727
 Iteration     4 Dimension    50 NMult    40 NNew     10
 CISAX will form    10 AO SS matrices at one time.
 NMat=    10 NSing=    10 JSym2X= 0.
 Root      1 not converged, maximum delta is    0.002930648203224
 Root      2 not converged, maximum delta is    0.006864480081298
 Root      3 not converged, maximum delta is    0.002643676016891
 Root      4 not converged, maximum delta is    0.006095591797581
 Root      5 not converged, maximum delta is    0.016092529585029
 Excitation Energies [eV] at current iteration:
 Root      1 :     1.904307324553708   Change is   -0.002801503122085
 Root      2 :     2.302235338299329   Change is   -0.002724841835830
 Root      3 :     2.878999383730113   Change is   -0.001303601632257
 Root      4 :     2.991772034598283   Change is   -0.000947742933651
 Root      5 :     3.052291528522566   Change is   -0.001960273092308
 Iteration     5 Dimension    60 NMult    50 NNew     10
 CISAX will form    10 AO SS matrices at one time.
 NMat=    10 NSing=    10 JSym2X= 0.
 Root      1 has converged.
 Root      2 has converged.
 Root      3 has converged.
 Root      4 not converged, maximum delta is    0.001018386697842
 Root      5 not converged, maximum delta is    0.004008317539697
 Excitation Energies [eV] at current iteration:
 Root      1 :     1.904042604080445   Change is   -0.000264720473263
 Root      2 :     2.302027322531012   Change is   -0.000208015768317
 Root      3 :     2.878872494719790   Change is   -0.000126889010323
 Root      4 :     2.991637229313578   Change is   -0.000134805284705
 Root      5 :     3.052019249120180   Change is   -0.000272279402386
 Iteration     6 Dimension    64 NMult    60 NNew      4
 CISAX will form     4 AO SS matrices at one time.
 NMat=     4 NSing=     4 JSym2X= 0.
 Root      1 has converged.
 Root      2 has converged.
 Root      3 has converged.
 Root      4 has converged.
 Root      5 has converged.
 Excitation Energies [eV] at current iteration:
 Root      1 :     1.904041877401168   Change is   -0.000000726679278
 Root      2 :     2.302026905873054   Change is   -0.000000416657958
 Root      3 :     2.878871259624423   Change is   -0.000001235095367
 Root      4 :     2.991620609082975   Change is   -0.000016620230603
 Root      5 :     3.051988656224935   Change is   -0.000030592895245
 Convergence achieved on expansion vectors.
 ***********************************************************************
 Excited states from <AA,BB:AA,BB> singles matrix:
 ***********************************************************************
 
 1PDM for each excited state written to RWF  633
 Ground to excited state transition densities written to RWF  633
 Ground to excited state transition electric dipole moments (Au):
       state          X           Y           Z        Dip. S.      Osc.
         1        -0.5188     -1.1456     -2.5348      8.0065      0.3735
         2        -0.2899     -1.3370      0.3609      2.0019      0.1129
         3         0.0179      0.2064     -0.0005      0.0429      0.0030
         4         0.0186     -0.0351      0.0420      0.0033      0.0002
         5        -0.0148     -0.2030     -0.0087      0.0415      0.0031
 Ground to excited state transition velocity dipole moments (Au):
       state          X           Y           Z        Dip. S.      Osc.
         1         0.0364      0.0785      0.1710      0.0367      0.3498
         2         0.0230      0.1083     -0.0281      0.0130      0.1028
         3        -0.0038     -0.0205     -0.0003      0.0004      0.0027
         4         0.0012      0.0032     -0.0040      0.0000      0.0002
         5         0.0011      0.0213      0.0006      0.0005      0.0027
 Ground to excited state transition magnetic dipole moments (Au):
       state          X           Y           Z
         1        -0.2467      1.5204     -0.6325
         2         0.5849     -0.4260     -0.9572
         3        -0.4706      0.2057      0.5138
         4        -0.1659      0.2946      0.2237
         5         0.7254      0.0070      0.0693
 Ground to excited state transition velocity quadrupole moments (Au):
       state          XX          YY          ZZ          XY          XZ          YZ
         1        -0.5675     -0.2058      0.0229     -0.7447     -1.4733     -0.3318
         2        -0.2729     -0.2797     -0.1692     -0.9698      0.2046      0.0230
         3         0.0472      0.2125      0.0301      0.2028      0.0646      0.2140
         4        -0.0252      0.0999     -0.0748     -0.0369      0.0474      0.0176
         5         0.0132     -0.2642      0.0450     -0.2066     -0.0376     -0.2132
 <0|del|b> * <b|rxdel|0> + <0|del|b> * <b|delr+rdel|0>
 Rotatory Strengths (R) in cgs (10**-40 erg-esu-cm/Gauss)
       state          XX          YY          ZZ    R(velocity)    E-M Angle
         1        -3.0267     -9.4718     34.3366      7.2794       89.61
         2       -59.4521     57.0548    -46.0898    -16.1624       92.43
         3       -10.3823      2.9632     -9.7819     -5.7336       99.78
         4         0.1648     -3.9391      2.8173     -0.3190       93.98
         5         2.7324      2.3033      1.2373      2.0910       86.32
 1/2[<0|r|b>*<b|rxdel|0> + (<0|rxdel|b>*<b|r|0>)*]
 Rotatory Strengths (R) in cgs (10**-40 erg-esu-cm/Gauss)
       state          XX          YY          ZZ     R(length)
         1       -90.5139   1231.6856  -1133.8015      2.4567
         2       119.9130   -402.7371    244.2753    -12.8496
         3         5.9457    -30.0294      0.1806     -7.9677
         4         2.1873      7.3205     -6.6365      0.9571
         5         7.6087      1.0072      0.4273      3.0144
  1/2[<0|del|b>*<b|r|0> + (<0|r|b>*<b|del|0>)*] (Au)
       state          X           Y           Z        Dip. S.   Osc.(frdel)
         1        -0.0189     -0.0899     -0.4334      0.5421      0.3614
         2        -0.0067     -0.1448     -0.0101      0.1616      0.1077
         3        -0.0001     -0.0042      0.0000      0.0043      0.0029
         4         0.0000     -0.0001     -0.0002      0.0003      0.0002
         5        -0.0000     -0.0043     -0.0000      0.0043      0.0029

 Excitation energies and oscillator strengths:
 
 Excited State   1:      Singlet-A      1.9040 eV  651.16 nm  f=0.3735  <S**2>=0.000
     245 -> 248       -0.17025
     246 -> 247        0.69345
     246 <- 247       -0.10636
 This state for optimization and/or second-order correction.
 Total Energy, E(TD-HF/TD-DFT) =  -3005.29784949    
 Copying the excited state density for this state as the 1-particle RhoCI density.
 
 Excited State   2:      Singlet-A      2.3020 eV  538.59 nm  f=0.1129  <S**2>=0.000
     245 -> 247        0.64668
     246 -> 248        0.26902
 
 Excited State   3:      Singlet-A      2.8789 eV  430.67 nm  f=0.0030  <S**2>=0.000
     241 -> 247        0.10245
     243 -> 247        0.68006
 
 Excited State   4:      Singlet-A      2.9916 eV  414.44 nm  f=0.0002  <S**2>=0.000
     242 -> 247        0.68065
     242 -> 249       -0.12937
 
 Excited State   5:      Singlet-A      3.0520 eV  406.24 nm  f=0.0031  <S**2>=0.000
     241 -> 247        0.68170
     243 -> 247       -0.12183
 SavETr:  write IOETrn=   770 NScale= 10 NData=  16 NLR=1 NState=    5 LETran=     100.
 Leave Link  914 at Thu May  5 01:10:28 2022, MaxMem= 10066329600 cpu:           18758.1 elap:             783.6
 (Enter /sw/apps/gaussian-16.0/g16/l601.exe)
 Copying SCF densities to generalized density rwf, IOpCl= 0 IROHF=0.
 Hyperfine terms turned off by default for NAtoms > 100.

 **********************************************************************

            Population analysis using the SCF density.

 **********************************************************************

 Orbital symmetries:
       Occupied  (A) (A) (A) (A) (A) (A) (A) (A) (A) (A) (A) (A)
                 (A) (A) (A) (A) (A) (A) (A) (A) (A) (A) (A) (A)
                 (A) (A) (A) (A) (A) (A) (A) (A) (A) (A) (A) (A)
                 (A) (A) (A) (A) (A) (A) (A) (A) (A) (A) (A) (A)
                 (A) (A) (A) (A) (A) (A) (A) (A) (A) (A) (A) (A)
                 (A) (A) (A) (A) (A) (A) (A) (A) (A) (A) (A) (A)
                 (A) (A) (A) (A) (A) (A) (A) (A) (A) (A) (A) (A)
                 (A) (A) (A) (A) (A) (A) (A) (A) (A) (A) (A) (A)
                 (A) (A) (A) (A) (A) (A) (A) (A) (A) (A) (A) (A)
                 (A) (A) (A) (A) (A) (A) (A) (A) (A) (A) (A) (A)
                 (A) (A) (A) (A) (A) (A) (A) (A) (A) (A) (A) (A)
                 (A) (A) (A) (A) (A) (A) (A) (A) (A) (A) (A) (A)
                 (A) (A) (A) (A) (A) (A) (A) (A) (A) (A) (A) (A)
                 (A) (A) (A) (A) (A) (A) (A) (A) (A) (A) (A) (A)
                 (A) (A) (A) (A) (A) (A) (A) (A) (A) (A) (A) (A)
                 (A) (A) (A) (A) (A) (A) (A) (A) (A) (A) (A) (A)
                 (A) (A) (A) (A) (A) (A) (A) (A) (A) (A) (A) (A)
                 (A) (A) (A) (A) (A) (A) (A) (A) (A) (A) (A) (A)
                 (A) (A) (A) (A) (A) (A) (A) (A) (A) (A) (A) (A)
                 (A) (A) (A) (A) (A) (A) (A) (A) (A) (A) (A) (A)
                 (A) (A) (A) (A) (A) (A)
       Virtual   (A) (A) (A) (A) (A) (A) (A) (A) (A) (A) (A) (A)
                 (A) (A) (A) (A) (A) (A) (A) (A) (A) (A) (A) (A)
                 (A) (A) (A) (A) (A) (A) (A) (A) (A) (A) (A) (A)
                 (A) (A) (A) (A) (A) (A) (A) (A) (A) (A) (A) (A)
                 (A) (A) (A) (A) (A) (A) (A) (A) (A) (A) (A) (A)
                 (A) (A) (A) (A) (A) (A) (A) (A) (A) (A) (A) (A)
                 (A) (A) (A) (A) (A) (A) (A) (A) (A) (A) (A) (A)
                 (A) (A) (A) (A) (A) (A) (A) (A) (A) (A) (A) (A)
                 (A) (A) (A) (A) (A) (A) (A) (A) (A) (A) (A) (A)
                 (A) (A) (A) (A) (A) (A) (A) (A) (A) (A) (A) (A)
                 (A) (A) (A) (A) (A) (A) (A) (A) (A) (A) (A) (A)
                 (A) (A) (A) (A) (A) (A) (A) (A) (A) (A) (A) (A)
                 (A) (A) (A) (A) (A) (A) (A) (A) (A) (A) (A) (A)
                 (A) (A) (A) (A) (A) (A) (A) (A) (A) (A) (A) (A)
                 (A) (A) (A) (A) (A) (A) (A) (A) (A) (A) (A) (A)
                 (A) (A) (A) (A) (A) (A) (A) (A) (A) (A) (A) (A)
                 (A) (A) (A) (A) (A) (A) (A) (A) (A) (A) (A) (A)
                 (A) (A) (A) (A) (A) (A) (A) (A) (A) (A) (A) (A)
                 (A) (A) (A) (A) (A) (A) (A) (A) (A) (A) (A) (A)
                 (A) (A) (A) (A) (A) (A) (A) (A) (A) (A) (A) (A)
                 (A) (A) (A) (A) (A) (A) (A) (A) (A) (A) (A) (A)
                 (A) (A) (A) (A) (A) (A) (A) (A) (A) (A) (A) (A)
                 (A) (A) (A) (A) (A) (A) (A) (A) (A) (A) (A) (A)
                 (A) (A) (A) (A) (A) (A) (A) (A) (A) (A) (A) (A)
                 (A) (A) (A) (A) (A) (A) (A) (A) (A) (A) (A) (A)
                 (A) (A) (A) (A) (A) (A) (A) (A) (A) (A) (A) (A)
                 (A) (A) (A) (A) (A) (A) (A) (A) (A) (A) (A) (A)
                 (A) (A) (A) (A) (A) (A) (A) (A) (A) (A) (A) (A)
                 (A) (A) (A) (A) (A) (A) (A) (A) (A) (A) (A) (A)
                 (A) (A) (A) (A) (A) (A) (A) (A) (A) (A) (A) (A)
                 (A) (A) (A) (A) (A) (A) (A) (A) (A) (A) (A) (A)
                 (A) (A) (A) (A) (A) (A) (A) (A) (A) (A) (A) (A)
                 (A) (A) (A) (A) (A) (A) (A) (A) (A) (A) (A) (A)
                 (A) (A) (A) (A) (A) (A) (A) (A) (A) (A) (A) (A)
                 (A) (A) (A) (A) (A) (A) (A) (A) (A) (A) (A) (A)
                 (A) (A) (A) (A) (A) (A) (A) (A) (A) (A) (A) (A)
                 (A) (A) (A) (A) (A) (A) (A) (A) (A) (A) (A) (A)
                 (A) (A) (A) (A) (A) (A) (A) (A) (A) (A) (A) (A)
                 (A) (A) (A) (A) (A) (A) (A) (A) (A) (A) (A) (A)
                 (A) (A) (A) (A) (A) (A) (A) (A) (A) (A) (A) (A)
                 (A) (A) (A) (A) (A) (A) (A) (A) (A) (A) (A) (A)
                 (A) (A) (A) (A) (A) (A) (A) (A) (A) (A) (A) (A)
                 (A) (A) (A) (A) (A) (A) (A) (A) (A) (A) (A) (A)
                 (A) (A) (A) (A) (A) (A) (A) (A) (A) (A) (A) (A)
                 (A) (A) (A) (A) (A) (A) (A) (A) (A) (A) (A) (A)
                 (A) (A) (A) (A) (A) (A) (A) (A) (A) (A) (A) (A)
                 (A) (A) (A) (A) (A) (A) (A) (A) (A) (A) (A) (A)
                 (A) (A) (A) (A) (A) (A) (A) (A) (A) (A) (A) (A)
                 (A) (A) (A) (A) (A) (A) (A) (A) (A) (A) (A) (A)
                 (A) (A) (A) (A) (A) (A) (A) (A) (A) (A) (A) (A)
                 (A) (A) (A) (A) (A) (A) (A) (A) (A) (A) (A) (A)
                 (A) (A) (A) (A) (A) (A) (A) (A) (A) (A) (A) (A)
                 (A) (A) (A) (A) (A) (A) (A) (A) (A) (A) (A) (A)
                 (A) (A) (A) (A) (A) (A) (A) (A) (A) (A) (A) (A)
                 (A) (A) (A) (A) (A) (A) (A) (A) (A) (A) (A) (A)
                 (A) (A) (A) (A) (A) (A) (A) (A) (A) (A) (A) (A)
                 (A) (A) (A) (A) (A) (A) (A) (A) (A) (A) (A) (A)
                 (A) (A) (A) (A) (A) (A) (A) (A) (A) (A) (A) (A)
                 (A) (A) (A) (A) (A) (A) (A) (A) (A) (A) (A) (A)
                 (A) (A) (A) (A) (A) (A) (A) (A) (A) (A) (A) (A)
                 (A) (A) (A) (A) (A) (A) (A) (A) (A) (A) (A) (A)
                 (A) (A) (A) (A) (A) (A) (A) (A) (A) (A) (A) (A)
                 (A) (A) (A) (A) (A) (A) (A) (A) (A) (A) (A) (A)
                 (A) (A) (A) (A) (A) (A) (A) (A) (A) (A) (A) (A)
                 (A) (A) (A) (A) (A) (A) (A) (A) (A) (A) (A) (A)
[...]
 Alpha virt. eigenvalues --    1.13012   1.13722   1.14124   1.14319   1.14719
 Alpha virt. eigenvalues --    1.14818   1.15225   1.15917   1.16008   1.16839
 Alpha virt. eigenvalues --    1.17299   1.17436   1.18023   1.18398   1.18868
 Alpha virt. eigenvalues --    1.19093   1.19639   1.20157   1.20713   1.20865
 Alpha virt. eigenvalues --    1.21770   1.21956   1.22070   1.22879   1.23012
 Alpha virt. eigenvalues --    1.23362   1.24185   1.24682   1.25007   1.25432
 Alpha virt. eigenvalues --    1.25734   1.26373   1.27209   1.27434   1.28107
 Alpha virt. eigenvalues --    1.28979   1.29258   1.29551   1.29749   1.30383
 Alpha virt. eigenvalues --    1.30602   1.31526   1.31641   1.32028   1.32277
 Alpha virt. eigenvalues --    1.33175   1.33359   1.33814   1.33918   1.33946
 Alpha virt. eigenvalues --    1.34591   1.35141   1.35612   1.36105   1.36197
 Alpha virt. eigenvalues --    1.36729   1.36993   1.37686   1.38344   1.38584
 Alpha virt. eigenvalues --    1.38616   1.39079   1.39215   1.39491   1.39802
 Alpha virt. eigenvalues --    1.40449   1.40840   1.41307   1.41776   1.42311
 Alpha virt. eigenvalues --    1.42575   1.43345   1.43527   1.43563   1.43862
 Alpha virt. eigenvalues --    1.44013   1.44949   1.45499   1.46104   1.46266
 Alpha virt. eigenvalues --    1.46453   1.47436   1.47753   1.47930   1.48255
 Alpha virt. eigenvalues --    1.48566   1.48964   1.49027   1.49740   1.49865
 Alpha virt. eigenvalues --    1.50313   1.51124   1.51515   1.51931   1.52225
 Alpha virt. eigenvalues --    1.52325   1.52650   1.52663   1.52876   1.53314
 Alpha virt. eigenvalues --    1.53415   1.53648   1.54038   1.54180   1.54585
 Alpha virt. eigenvalues --    1.54786   1.54977   1.55161   1.55778   1.55881
 Alpha virt. eigenvalues --    1.56224   1.56295   1.56320   1.56766   1.56936
 Alpha virt. eigenvalues --    1.57061   1.57502   1.57580   1.57940   1.58210
 Alpha virt. eigenvalues --    1.58495   1.59916   1.60122   1.60590   1.61072
 Alpha virt. eigenvalues --    1.61364   1.61557   1.61954   1.62723   1.62838
 Alpha virt. eigenvalues --    1.63819   1.64383   1.65025   1.65845   1.66258
 Alpha virt. eigenvalues --    1.66388   1.66568   1.66723   1.67932   1.68046
 Alpha virt. eigenvalues --    1.68356   1.68544   1.68674   1.69026   1.69869
 Alpha virt. eigenvalues --    1.70422   1.70608   1.71085   1.71428   1.71609
 Alpha virt. eigenvalues --    1.71741   1.71967   1.72557   1.72699   1.73445
 Alpha virt. eigenvalues --    1.73474   1.73941   1.74044   1.74481   1.74513
 Alpha virt. eigenvalues --    1.74601   1.74784   1.74958   1.75063   1.75552
 Alpha virt. eigenvalues --    1.75717   1.75983   1.76390   1.76741   1.76968
 Alpha virt. eigenvalues --    1.77097   1.77277   1.77611   1.77749   1.77839
 Alpha virt. eigenvalues --    1.78088   1.78448   1.78660   1.78766   1.78945
 Alpha virt. eigenvalues --    1.79015   1.79229   1.79259   1.79442   1.79719
 Alpha virt. eigenvalues --    1.80114   1.80165   1.80180   1.80400   1.80644
 Alpha virt. eigenvalues --    1.80776   1.80963   1.81058   1.81223   1.81438
 Alpha virt. eigenvalues --    1.81755   1.81896   1.82140   1.82184   1.82638
 Alpha virt. eigenvalues --    1.82872   1.82914   1.83135   1.83302   1.83606
 Alpha virt. eigenvalues --    1.83737   1.83872   1.84045   1.84344   1.84716
 Alpha virt. eigenvalues --    1.84993   1.85234   1.85282   1.85442   1.85771
 Alpha virt. eigenvalues --    1.86030   1.86178   1.86296   1.86893   1.87088
 Alpha virt. eigenvalues --    1.87170   1.87343   1.87632   1.88070   1.88130
 Alpha virt. eigenvalues --    1.88285   1.88421   1.88561   1.88770   1.89367
 Alpha virt. eigenvalues --    1.89422   1.89545   1.89766   1.90152   1.90334
 Alpha virt. eigenvalues --    1.90486   1.90717   1.91016   1.91397   1.91644
 Alpha virt. eigenvalues --    1.91828   1.92038   1.92275   1.92471   1.92669
 Alpha virt. eigenvalues --    1.92891   1.93513   1.93553   1.93687   1.93892
 Alpha virt. eigenvalues --    1.93991   1.94405   1.94767   1.95258   1.95368
 Alpha virt. eigenvalues --    1.95540   1.95638   1.95985   1.96222   1.96348
 Alpha virt. eigenvalues --    1.96435   1.97066   1.97098   1.97780   1.98035
 Alpha virt. eigenvalues --    1.98337   1.98534   1.98593   1.98653   1.98846
 Alpha virt. eigenvalues --    1.99091   1.99973   2.00148   2.00459   2.00714
 Alpha virt. eigenvalues --    2.00954   2.01201   2.02876   2.02949   2.03003
 Alpha virt. eigenvalues --    2.03650   2.03761   2.04000   2.04744   2.04982
 Alpha virt. eigenvalues --    2.05264   2.05354   2.05619   2.05821   2.06046
 Alpha virt. eigenvalues --    2.06542   2.06768   2.06826   2.06957   2.07250
 Alpha virt. eigenvalues --    2.07908   2.08320   2.08396   2.08543   2.08943
 Alpha virt. eigenvalues --    2.09411   2.09827   2.10037   2.10242   2.10474
 Alpha virt. eigenvalues --    2.10999   2.11481   2.11612   2.11740   2.12015
 Alpha virt. eigenvalues --    2.12055   2.12183   2.12577   2.12912   2.13666
 Alpha virt. eigenvalues --    2.13993   2.14044   2.14197   2.14433   2.14611
 Alpha virt. eigenvalues --    2.14692   2.15421   2.16068   2.16322   2.16533
 Alpha virt. eigenvalues --    2.17069   2.17681   2.17805   2.18652   2.19343
 Alpha virt. eigenvalues --    2.19406   2.20385   2.20908   2.21176   2.21526
 Alpha virt. eigenvalues --    2.21953   2.22520   2.23060   2.23390   2.23684
 Alpha virt. eigenvalues --    2.23783   2.23934   2.24878   2.24972   2.25562
 Alpha virt. eigenvalues --    2.25621   2.25827   2.26457   2.26813   2.26968
 Alpha virt. eigenvalues --    2.27301   2.28028   2.28367   2.28553   2.28923
 Alpha virt. eigenvalues --    2.29535   2.30378   2.31114   2.31737   2.32197
 Alpha virt. eigenvalues --    2.32369   2.32528   2.32768   2.33019   2.33196
 Alpha virt. eigenvalues --    2.33322   2.33508   2.34295   2.34425   2.34659
 Alpha virt. eigenvalues --    2.34750   2.35148   2.35799   2.36201   2.37395
 Alpha virt. eigenvalues --    2.37685   2.37733   2.38023   2.38354   2.38658
 Alpha virt. eigenvalues --    2.38924   2.39327   2.39673   2.39812   2.40335
 Alpha virt. eigenvalues --    2.40507   2.40896   2.41453   2.41643   2.41713
 Alpha virt. eigenvalues --    2.42029   2.42174   2.43181   2.43270   2.43625
 Alpha virt. eigenvalues --    2.43681   2.44308   2.44585   2.44919   2.45525
 Alpha virt. eigenvalues --    2.45645   2.45937   2.46291   2.46524   2.46971
 Alpha virt. eigenvalues --    2.47588   2.47843   2.48872   2.49164   2.49418
 Alpha virt. eigenvalues --    2.49695   2.49994   2.50457   2.50860   2.51721
 Alpha virt. eigenvalues --    2.52070   2.52385   2.53158   2.53509   2.53998
 Alpha virt. eigenvalues --    2.54730   2.54874   2.55483   2.55923   2.56623
 Alpha virt. eigenvalues --    2.56976   2.57148   2.57253   2.58003   2.58386
 Alpha virt. eigenvalues --    2.58491   2.58701   2.59018   2.59194   2.59582
 Alpha virt. eigenvalues --    2.59752   2.60329   2.60546   2.61538   2.61866
 Alpha virt. eigenvalues --    2.62258   2.63055   2.63215   2.63497   2.63977
 Alpha virt. eigenvalues --    2.64605   2.64756   2.65056   2.65399   2.65946
 Alpha virt. eigenvalues --    2.66121   2.66297   2.66356   2.67120   2.67214
 Alpha virt. eigenvalues --    2.68283   2.68633   2.69300   2.69562   2.70315
 Alpha virt. eigenvalues --    2.70411   2.71262   2.71397   2.71686   2.71872
 Alpha virt. eigenvalues --    2.72131   2.72284   2.72765   2.73657   2.74361
 Alpha virt. eigenvalues --    2.74681   2.75095   2.75446   2.76193   2.76290
 Alpha virt. eigenvalues --    2.76731   2.77148   2.77911   2.78085   2.78799
 Alpha virt. eigenvalues --    2.79111   2.79408   2.79696   2.80325   2.81193
 Alpha virt. eigenvalues --    2.81582   2.82543   2.82767   2.83653   2.84308
 Alpha virt. eigenvalues --    2.84786   2.85095   2.85236   2.86608   2.86824
 Alpha virt. eigenvalues --    2.86999   2.87595   2.87688   2.87982   2.88100
 Alpha virt. eigenvalues --    2.88291   2.88702   2.89431   2.89497   2.90862
 Alpha virt. eigenvalues --    2.91092   2.91128   2.91547   2.91623   2.91816
 Alpha virt. eigenvalues --    2.92346   2.92726   2.92901   2.93105   2.93471
 Alpha virt. eigenvalues --    2.93995   2.94487   2.94674   2.94709   2.95437
 Alpha virt. eigenvalues --    2.95754   2.95948   2.96241   2.96540   2.96642
 Alpha virt. eigenvalues --    2.97134   2.97284   2.97904   2.98198   2.98620
 Alpha virt. eigenvalues --    2.98847   2.99024   2.99339   2.99574   2.99612
 Alpha virt. eigenvalues --    2.99718   3.00222   3.00813   3.01083   3.01270
 Alpha virt. eigenvalues --    3.01537   3.01844   3.01849   3.02529   3.03146
 Alpha virt. eigenvalues --    3.03950   3.04127   3.04903   3.05001   3.05527
 Alpha virt. eigenvalues --    3.05911   3.06365   3.06916   3.07486   3.09101
 Alpha virt. eigenvalues --    3.09131   3.09338   3.10442   3.10782   3.10944
 Alpha virt. eigenvalues --    3.11603   3.11859   3.12283   3.12396   3.12915
 Alpha virt. eigenvalues --    3.13184   3.13530   3.14434   3.15282   3.15620
 Alpha virt. eigenvalues --    3.15840   3.16176   3.17805   3.18190   3.18847
 Alpha virt. eigenvalues --    3.20187   3.20483   3.21725   3.23714   3.24039
 Alpha virt. eigenvalues --    3.24265   3.27920   3.35151   3.39745   3.40578
 Alpha virt. eigenvalues --    3.43076   3.45155   3.45857   3.50787   3.51698
 Alpha virt. eigenvalues --    3.57633   3.58420   3.62391   3.64334   3.65227
 Alpha virt. eigenvalues --    3.67572   3.72150
          Condensed to atoms (all electrons):
 Mulliken charges:
               1
     1  Mg   0.961355
     2  C   -0.029438
     3  C   -0.058901
     4  C   -0.085180
     5  C   -0.057908
     6  N   -0.367221
     7  C   -0.016327
     8  C    0.000063
     9  C   -0.177550
    10  C    0.049644
    11  C    0.026734
    12  C    0.021076
    13  C   -0.021349
    14  C    0.251217
    15  O   -0.239543
    16  O   -0.406162
    17  N   -0.467126
    18  C    0.185227
    19  C   -0.145295
    20  C   -0.124032
    21  C    0.235468
    22  C    0.052765
    23  C    0.027645
    24  O   -0.235795
    25  C   -0.013102
    26  N   -0.429702
    27  C    0.083547
    28  C   -0.143543
    29  C   -0.125156
    30  C    0.105682
    31  C    0.011575
    32  C   -0.042752
    33  C   -0.058222
    34  N   -0.464776
    35  C    0.100722
    36  C   -0.230318
    37  C    0.008833
    38  C    0.171729
    39  C    0.091805
    40  C    0.116586
    41  O   -0.194108
    42  C   -0.112809
    43  C    0.282268
    44  O   -0.217670
    45  O   -0.380367
    46  C    0.109192
    47  C    0.248852
    48  C   -0.138963
    49  C   -0.208110
    50  C    0.027159
    51  C   -0.007281
    52  C   -0.054404
    53  C   -0.040968
    54  C   -0.227780
    55  C   -0.018858
    56  C    0.037537
    57  C   -0.092871
    58  C    0.041261
    59  C   -0.222238
    60  C   -0.013596
    61  C   -0.008573
    62  C   -0.030530
    63  C   -0.028714
    64  C   -0.213747
    65  C    0.004833
    66  C   -0.021224
    67  H   -0.000014
    68  H   -0.007428
    69  H    0.003522
    70  H    0.041798
    71  H    0.042389
    72  H    0.047786
    73  H    0.052719
    74  H    0.038072
    75  H    0.040092
    76  H    0.047109
    77  H    0.051228
    78  H    0.059380
    79  H    0.063454
    80  H    0.022945
    81  H    0.074855
    82  H    0.058519
    83  H    0.058121
    84  H    0.083832
    85  H    0.052075
    86  H    0.052839
    87  H    0.041037
    88  H    0.055895
    89  H    0.040379
    90  H    0.042196
    91  H    0.038908
    92  H    0.043863
    93  H    0.048198
    94  H    0.044138
    95  H    0.074865
    96  H    0.015222
    97  H    0.065042
    98  H    0.079743
    99  H    0.062203
   100  H    0.065700
   101  H    0.045886
   102  H    0.058764
   103  H    0.056615
   104  H    0.038775
   105  H    0.027211
   106  H    0.048701
   107  H    0.062287
   108  H    0.047404
   109  H    0.011301
   110  H    0.038340
   111  H    0.047553
   112  H    0.026114
   113  H    0.030844
   114  H    0.038554
   115  H    0.022915
   116  H    0.036151
   117  H    0.036032
   118  H    0.029404
   119  H    0.025870
   120  H    0.031450
   121  H    0.027362
   122  H    0.026295
   123  H    0.028687
   124  H    0.031194
   125  H    0.038358
   126  H    0.028491
   127  H    0.036867
   128  H    0.009135
   129  H    0.019077
   130  H    0.027638
   131  H    0.039623
   132  H    0.021651
   133  H    0.007754
   134  H    0.029746
   135  H    0.019460
   136  H    0.050637
   137  H    0.024991
   138  H    0.020776
   139  H    0.027405
   140  H    0.043435
 Sum of Mulliken charges =  -0.00000
 Mulliken charges with hydrogens summed into heavy atoms:
               1
     1  Mg   0.961355
     2  C   -0.029438
     3  C   -0.058916
     4  C   -0.092608
     5  C   -0.054387
     6  N   -0.367221
     7  C   -0.016327
     8  C    0.041861
     9  C   -0.135161
    10  C    0.049644
    11  C    0.165311
    12  C    0.108276
    13  C    0.089258
    14  C    0.251217
    15  O   -0.239543
    16  O   -0.406162
    17  N   -0.467126
    18  C    0.185227
    19  C   -0.145295
    20  C   -0.124032
    21  C    0.235468
    22  C    0.214019
    23  C    0.027645
    24  O   -0.235795
    25  C    0.187370
    26  N   -0.429702
    27  C    0.083547
    28  C   -0.091468
    29  C   -0.072317
    30  C    0.105682
    31  C    0.148886
    32  C    0.038353
    33  C    0.077977
    34  N   -0.464776
    35  C    0.100722
    36  C   -0.230318
    37  C    0.008833
    38  C    0.171729
    39  C    0.246934
    40  C    0.116586
    41  O   -0.194108
    42  C   -0.033066
    43  C    0.282268
    44  O   -0.217670
    45  O   -0.380367
    46  C    0.282981
    47  C    0.364230
    48  C   -0.100188
    49  C   -0.208110
    50  C    0.165358
    51  C    0.051424
    52  C    0.031490
    53  C    0.015990
    54  C   -0.189226
    55  C    0.076239
    56  C    0.092811
    57  C   -0.034059
    58  C    0.096243
    59  C   -0.191043
    60  C    0.090120
    61  C    0.019639
    62  C    0.036731
    63  C    0.000690
    64  C   -0.184000
    65  C    0.099921
    66  C    0.070392
 Electronic spatial extent (au):  <R**2>=         105721.8477
 Charge=             -0.0000 electrons
 Dipole moment (field-independent basis, Debye):
    X=              1.1411    Y=             -3.4146    Z=             -0.2193  Tot=              3.6069
 Quadrupole moment (field-independent basis, Debye-Ang):
   XX=           -394.0783   YY=           -399.9879   ZZ=           -423.1337
   XY=             10.8949   XZ=             -4.6369   YZ=            -40.8585
 Traceless Quadrupole moment (field-independent basis, Debye-Ang):
   XX=             11.6550   YY=              5.7454   ZZ=            -17.4004
   XY=             10.8949   XZ=             -4.6369   YZ=            -40.8585
 Octapole moment (field-independent basis, Debye-Ang**2):
  XXX=            -34.1879  YYY=           -122.3137  ZZZ=             64.7093  XYY=            -70.5886
  XXY=             76.4161  XXZ=             25.3512  XZZ=             87.5152  YZZ=             42.6298
  YYZ=             84.0607  XYZ=            246.2901
 Hexadecapole moment (field-independent basis, Debye-Ang**3):
 XXXX=        -103122.8455 YYYY=         -28106.2710 ZZZZ=         -16196.1662 XXXY=            211.9804
 XXXZ=           -768.4978 YYYX=            -13.6470 YYYZ=            -99.7993 ZZZX=           -618.0861
 ZZZY=          -1198.3834 XXYY=         -20688.7145 XXZZ=         -20301.5596 YYZZ=          -8196.8101
 XXYZ=           -993.3390 YYXZ=           -318.4896 ZZXY=           -306.8480
 N-N= 9.625208547084D+03 E-N=-2.624119426180D+04  KE= 2.975362007859D+03
 Leave Link  601 at Thu May  5 01:10:29 2022, MaxMem= 10066329600 cpu:              11.8 elap:               0.6
 (Enter /sw/apps/gaussian-16.0/g16/l9999.exe)
 1\1\GINC-BP1-COMPUTE181\SP\RPBE1PBE TD-FC\def2SVP\C55H74Mg1N4O6\OF1564
 1\05-May-2022\0\\#p PBE1PBE/Def2SVP td=(nstates=5)\\step_501_chromopho
 re_8 TDDFT with PBE1PBE functional\\0,1\Mg,0,44.018,2.918,47.661\C,0,4
 2.06,5.715,47.019\C,0,41.006,1.016,47.312\C,0,45.799,0.157,47.762\C,0,
 46.879,4.917,47.241\N,0,41.832,3.33,47.098\C,0,41.294,4.592,46.981\C,0
 ,39.795,4.5,46.683\C,0,39.487,3.026,47.066\C,0,40.847,2.382,47.129\C,0
 ,38.692,2.744,48.401\C,0,39.448,4.839,45.224\C,0,38.003,4.934,44.914\C
 ,0,37.595,5.768,43.64\O,0,36.561,6.393,43.62\O,0,38.574,5.758,42.608\N
 ,0,43.493,0.834,47.541\C,0,42.214,0.267,47.428\C,0,42.359,-1.162,47.43
 4\C,0,43.776,-1.438,47.427\C,0,44.432,-0.097,47.608\C,0,41.156,-2.134,
 47.286\C,0,44.342,-2.859,47.341\O,0,43.627,-3.844,47.422\C,0,45.801,-3
 .041,47.163\N,0,46.062,2.629,47.741\C,0,46.538,1.382,47.824\C,0,48.115
 ,1.403,47.696\C,0,48.51,2.913,47.47\C,0,47.02,3.561,47.426\C,0,48.934,
 0.687,48.802\C,0,49.246,3.077,46.123\C,0,50.259,4.227,46.068\N,0,44.47
 4,4.92,47.221\C,0,45.652,5.613,47.207\C,0,45.347,7.044,47.09\C,0,43.98
 ,7.117,47.109\C,0,43.479,5.835,47.12\C,0,46.366,8.188,47.106\C,0,42.87
 4,8.023,47.028\O,0,42.816,9.227,46.979\C,0,41.577,7.148,46.981\C,0,40.
 791,7.445,48.21\O,0,41.191,7.462,49.341\O,0,39.437,7.571,47.854\C,0,38
 .526,7.781,48.943\C,0,38.071,6.418,41.375\C,0,39.089,6.26,40.305\C,0,3
 9.318,7.078,39.267\C,0,38.626,8.382,38.897\C,0,40.522,6.69,38.405\C,0,
 40.47,5.398,37.428\C,0,41.373,4.297,37.994\C,0,41.754,3.324,36.79\C,0,
 41.626,1.87,37.238\C,0,43.203,3.523,36.403\C,0,43.287,3.601,34.862\C,0
 ,43.848,4.897,34.344\C,0,44.335,4.78,32.912\C,0,45.894,4.742,32.773\C,
 0,43.812,5.895,32.018\C,0,42.755,5.417,30.999\C,0,42.976,6.002,29.572\
 C,0,43.474,4.948,28.519\C,0,42.352,4.127,27.89\C,0,44.281,5.686,27.419
 \H,0,40.026,0.536,47.285\H,0,46.516,-0.665,47.822\H,0,47.746,5.578,47.
 177\H,0,39.308,5.144,47.414\H,0,38.966,2.437,46.312\H,0,37.88,2.088,48
 .088\H,0,38.536,3.577,49.087\H,0,39.33,2.099,49.005\H,0,39.754,4.1,44.
 483\H,0,39.939,5.768,44.934\H,0,37.523,5.358,45.796\H,0,37.596,3.927,4
 4.824\H,0,41.341,-2.416,46.249\H,0,40.169,-1.672,47.256\H,0,41.018,-3.
 02,47.906\H,0,46.059,-2.382,46.334\H,0,45.982,-4.066,46.839\H,0,46.212
 ,-2.737,48.126\H,0,48.338,0.834,46.793\H,0,49.079,3.37,48.279\H,0,49.3
 28,-0.239,48.382\H,0,48.3,0.568,49.68\H,0,49.825,1.27,49.035\H,0,48.45
 3,3.223,45.39\H,0,49.732,2.168,45.768\H,0,51.186,3.72,45.798\H,0,50.32
 4,4.819,46.981\H,0,50.021,4.901,45.245\H,0,46.22,8.977,46.369\H,0,47.3
 04,7.651,46.963\H,0,46.441,8.506,48.146\H,0,41.039,7.449,46.082\H,0,38
 .182,8.812,48.86\H,0,38.863,7.606,49.965\H,0,37.694,7.091,48.805\H,0,3
 7.828,7.459,41.589\H,0,37.147,5.93,41.063\H,0,39.748,5.4,40.426\H,0,37
 .733,8.49,39.512\H,0,38.241,8.371,37.878\H,0,39.238,9.275,39.025\H,0,4
 1.355,6.687,39.107\H,0,40.783,7.52,37.748\H,0,40.956,5.674,36.493\H,0,
 39.46,5.042,37.223\H,0,40.721,3.838,38.737\H,0,42.236,4.674,38.544\H,0
 ,40.926,3.507,36.106\H,0,40.604,1.51,37.355\H,0,42.031,1.915,38.249\H,
 0,42.104,1.149,36.574\H,0,43.829,2.679,36.693\H,0,43.613,4.403,36.899\
 H,0,42.272,3.527,34.472\H,0,43.873,2.735,34.554\H,0,44.606,5.076,35.10
 7\H,0,42.995,5.574,34.358\H,0,43.961,3.856,32.47\H,0,46.192,4.956,31.7
 47\H,0,46.206,3.732,33.037\H,0,46.36,5.452,33.456\H,0,44.626,6.309,31.
 423\H,0,43.578,6.751,32.65\H,0,41.844,5.856,31.405\H,0,42.705,4.33,30.
 93\H,0,43.524,6.942,29.641\H,0,42.033,6.437,29.243\H,0,44.181,4.323,29
 .062\H,0,41.691,3.784,28.686\H,0,42.642,3.268,27.284\H,0,41.658,4.81,2
 7.401\H,0,44.669,4.981,26.684\H,0,45.261,6.003,27.775\H,0,43.663,6.462
 ,26.968\\Version=ES64L-G16RevA.03\State=1-A\HF=-3005.3678217\RMSD=7.87
 8e-09\PG=C01 [X(C55H74Mg1N4O6)]\\@


 MODELS ARE TO BE USED, NOT BELIEVED.

    -- PARAPHRASED BY H. THIEL IN "PRINCIPLES OF ECONOMETRICS"
 Job cpu time:       0 days  7 hours 17 minutes 33.2 seconds.
 Elapsed time:       0 days  0 hours 18 minutes 18.0 seconds.
 File lengths (MBytes):  RWF=   8929 Int=      0 D2E=      0 Chk=    390 Scr=      1
 Normal termination of Gaussian 16 at Thu May  5 01:10:29 2022.
